<LesHouchesEvents version="3.0">
<header>
<!--
#*********************************************************************
#                                                                    *
#                        MadGraph5_aMC@NLO                           *
#                                                                    *
#                           Going Beyond                             *
#                                                                    *
#                   http://madgraph.hep.uiuc.edu                     *
#                   http://madgraph.phys.ucl.ac.be                   *
#                   http://amcatnlo.cern.ch                          *
#                                                                    *
#                     The MadGraph5_aMC@NLO team                     *
#                                                                    *
#....................................................................*
#                                                                    *
# This file contains all the information necessary to reproduce      *
# the events generated:                                              *
#                                                                    *
# 1. software version                                                *
# 2. proc_card          : code generation info including model       *
# 3. param_card         : model primary parameters in the LH format  *
# 4. run_card           : running parameters (collider and cuts)     *
# 5. pythia_card        : present only if pythia has been run        *
# 6. pgs_card           : present only if pgs has been run           *
# 7. delphes_cards      : present only if delphes has been run       *
#                                                                    *
#                                                                    *
#*********************************************************************
-->
<MGVersion>
#5.2.2.3
</MGVersion>
<MG5ProcCard>
#************************************************************
#*                     MadGraph5_aMC@NLO                    *
#*                                                          *
#*                *                       *                 *
#*                  *        * *        *                   *
#*                    * * * * 5 * * * *                     *
#*                  *        * *        *                   *
#*                *                       *                 *
#*                                                          *
#*                                                          *
#*         VERSION 2.2.3                 2015-02-10         *
#*                                                          *
#*    The MadGraph5_aMC@NLO Development Team - Find us at   *
#*    https://server06.fynu.ucl.ac.be/projects/madgraph     *
#*                                                          *
#************************************************************
#*                                                          *
#*               Command File for MadGraph5_aMC@NLO         *
#*                                                          *
#*     run as ./bin/mg5_aMC  filename                       *
#*                                                          *
#************************************************************
set group_subprocesses Auto
set ignore_six_quark_processes False
set loop_optimized_output True
set gauge unitary
set complex_mass_scheme False
import model sm
define p = g u c d s u~ c~ d~ s~
define j = g u c d s u~ c~ d~ s~
define l+ = e+ mu+
define l- = e- mu-
define vl = ve vm vt
define vl~ = ve~ vm~ vt~
import model Zprime_UFO
generate p p > zph, zph > j j
add process p p > zph, zph > b b~
output Dijet_signal
</MG5ProcCard>
<MGProcCard>
#*********************************************************************
#                        MadGraph/MadEvent                           *
#                   http://madgraph.hep.uiuc.edu                     *
#                                                                    *
#                          proc_card.dat                             *
#*********************************************************************
#                                                                    *
#            This Files is generated by MADGRAPH 5                   *
#                                                                    *
# WARNING: This Files is generated for MADEVENT (compatibility issue)*
#          This files is NOT a valid MG4 proc_card.dat               *
#          Running this in MG4 will NEVER reproduce the result of MG5*
#                                                                    *
#*********************************************************************
#*********************************************************************
# Process(es) requested : mg2 input                                  *
#*********************************************************************
# Begin PROCESS # This is TAG. Do not modify this line
p p > zph , zph > j j           #Process
# Be carefull the coupling are here in MG5 convention
          
end_coup           # End the couplings input

done               # this tells MG there are no more procs
# End PROCESS  # This is TAG. Do not modify this line
#*********************************************************************
# Model information                                                  *
#*********************************************************************
# Begin MODEL  # This is TAG. Do not modify this line
Zprime_UFO
# End   MODEL  # This is TAG. Do not modify this line
#*********************************************************************
# Start multiparticle definitions                                    *
#*********************************************************************
# Begin MULTIPARTICLES # This is TAG. Do not modify this line

# End  MULTIPARTICLES # This is TAG. Do not modify this line
</MGProcCard>
<MGRunCard>
#*********************************************************************
#                       MadGraph5_aMC@NLO                            *
#                                                                    *
#                     run_card.dat MadEvent                          *
#                                                                    *
#  This file is used to set the parameters of the run.               *
#                                                                    *
#  Some notation/conventions:                                        *
#                                                                    *
#   Lines starting with a '# ' are info or comments                  *
#                                                                    *
#   mind the format:   value    = variable     ! comment             *
#*********************************************************************
#
#*******************                                                 
# Running parameters
#*******************                                                 
#                                                                    
#*********************************************************************
# Tag name for the run (one word)                                    *
#*********************************************************************
  tag_1     = run_tag ! name of the run 
#*********************************************************************
# Run to generate the grid pack                                      *
#*********************************************************************
  .false.     = gridpack  !True = setting up the grid pack
#*********************************************************************
# Number of events and rnd seed                                      *
# Warning: Do not generate more than 1M events in a single run       *
# If you want to run Pythia, avoid more than 50k events in a run.    *
#*********************************************************************
  2000 = nevents ! Number of unweighted events requested 
 2199 = iseed   ! rnd seed (0=assigned automatically=default))
#*********************************************************************
# Collider type and energy                                           *
# lpp: 0=No PDF, 1=proton, -1=antiproton, 2=photon from proton,      *
#                                         3=photon from electron     *
#*********************************************************************
        1     = lpp1    ! beam 1 type 
        1     = lpp2    ! beam 2 type
     4000     = ebeam1  ! beam 1 total energy in GeV
     4000     = ebeam2  ! beam 2 total energy in GeV
#*********************************************************************
# Beam polarization from -100 (left-handed) to 100 (right-handed)    *
#*********************************************************************
        0     = polbeam1 ! beam polarization for beam 1
        0     = polbeam2 ! beam polarization for beam 2
#*********************************************************************
# PDF CHOICE: this automatically fixes also alpha_s and its evol.    *
#*********************************************************************
 'nn23lo1'    = pdlabel     ! PDF set                                     
 230000    = lhaid     ! if pdlabel=lhapdf, this is the lhapdf number
#*********************************************************************
# Renormalization and factorization scales                           *
#*********************************************************************
 F        = fixed_ren_scale  ! if .true. use fixed ren scale
 F        = fixed_fac_scale  ! if .true. use fixed fac scale
 91.1880  = scale            ! fixed ren scale
 91.1880  = dsqrt_q2fact1    ! fixed fact scale for pdf1
 91.1880  = dsqrt_q2fact2    ! fixed fact scale for pdf2
 1        = scalefact        ! scale factor for event-by-event scales
#*********************************************************************
# Matching - Warning! ickkw > 1 is still beta
#*********************************************************************
 0        = ickkw            ! 0 no matching, 1 MLM, 2 CKKW matching
 1        = highestmult      ! for ickkw=2, highest mult group
 1        = ktscheme         ! for ickkw=1, 1 Durham kT, 2 Pythia pTE
 1        = alpsfact         ! scale factor for QCD emission vx
 F        = chcluster        ! cluster only according to channel diag
 T        = pdfwgt           ! for ickkw=1, perform pdf reweighting
 5        = asrwgtflavor     ! highest quark flavor for a_s reweight
 T        = clusinfo         ! include clustering tag in output
 3.0      = lhe_version       ! Change the way clustering information pass to shower.        
#*********************************************************************
#**********************************************************
#
#**********************************************************
# Automatic ptj and mjj cuts if xqcut > 0
# (turn off for VBF and single top processes)
#**********************************************************
   T  = auto_ptj_mjj  ! Automatic setting of ptj and mjj
#**********************************************************
#                                                                    
#**********************************
# BW cutoff (M+/-bwcutoff*Gamma)
#**********************************
  15  = bwcutoff      ! (M+/-bwcutoff*Gamma)
#**********************************************************
# Apply pt/E/eta/dr/mij cuts on decay products or not
# (note that etmiss/ptll/ptheavy/ht/sorted cuts always apply)
#**********************************************************
   T  = cut_decays    ! Cut decay products 
#*************************************************************
# Number of helicities to sum per event (0 = all helicities)
# 0 gives more stable result, but longer run time (needed for
# long decay chains e.g.).
# Use >=2 if most helicities contribute, e.g. pure QCD.
#*************************************************************
   0  = nhel          ! Number of helicities used per event
#*******************                                                 
# Standard Cuts
#*******************                                                 
#                                                                    
#*********************************************************************
# Minimum and maximum pt's (for max, -1 means no cut)                *
#*********************************************************************
 20  = ptj       ! minimum pt for the jets 
  0  = ptb       ! minimum pt for the b 
 10  = pta       ! minimum pt for the photons 
 10  = ptl       ! minimum pt for the charged leptons 
  0  = misset    ! minimum missing Et (sum of neutrino's momenta)
  0  = ptheavy   ! minimum pt for one heavy final state
 1.0 = ptonium   ! minimum pt for the quarkonium states
 -1  = ptjmax    ! maximum pt for the jets
 -1  = ptbmax    ! maximum pt for the b
 -1  = ptamax    ! maximum pt for the photons
 -1  = ptlmax    ! maximum pt for the charged leptons
 -1  = missetmax ! maximum missing Et (sum of neutrino's momenta)
#*********************************************************************
# Minimum and maximum E's (in the center of mass frame)              *
#*********************************************************************
  0  = ej     ! minimum E for the jets 
  0  = eb     ! minimum E for the b 
  0  = ea     ! minimum E for the photons 
  0  = el     ! minimum E for the charged leptons 
 -1   = ejmax ! maximum E for the jets
 -1   = ebmax ! maximum E for the b
 -1   = eamax ! maximum E for the photons
 -1   = elmax ! maximum E for the charged leptons
#*********************************************************************
# Maximum and minimum absolute rapidity (for max, -1 means no cut)   *
#*********************************************************************
   5  = etaj    ! max rap for the jets 
  -1  = etab    ! max rap for the b
 2.5  = etaa    ! max rap for the photons 
 2.5  = etal    ! max rap for the charged leptons 
 0.6  = etaonium ! max rap for the quarkonium states
   0  = etajmin ! min rap for the jets
   0  = etabmin ! min rap for the b
   0  = etaamin ! min rap for the photons
   0  = etalmin ! main rap for the charged leptons
#*********************************************************************
# Minimum and maximum DeltaR distance                                *
#*********************************************************************
 0.4 = drjj    ! min distance between jets 
 0   = drbb    ! min distance between b's 
 0.4 = drll    ! min distance between leptons 
 0.4 = draa    ! min distance between gammas 
 0   = drbj    ! min distance between b and jet 
 0.4 = draj    ! min distance between gamma and jet 
 0.4 = drjl    ! min distance between jet and lepton 
 0   = drab    ! min distance between gamma and b 
 0   = drbl    ! min distance between b and lepton 
 0.4 = dral    ! min distance between gamma and lepton 
 -1  = drjjmax ! max distance between jets
 -1  = drbbmax ! max distance between b's
 -1  = drllmax ! max distance between leptons
 -1  = draamax ! max distance between gammas
 -1  = drbjmax ! max distance between b and jet
 -1  = drajmax ! max distance between gamma and jet
 -1  = drjlmax ! max distance between jet and lepton
 -1  = drabmax ! max distance between gamma and b
 -1  = drblmax ! max distance between b and lepton
 -1  = dralmax ! maxdistance between gamma and lepton
#*********************************************************************
# Minimum and maximum invariant mass for pairs                       *
# WARNING: for four lepton final state mmll cut require to have      *
#          different lepton masses for each flavor!                  *           
#*********************************************************************
 0   = mmjj    ! min invariant mass of a jet pair 
 0   = mmbb    ! min invariant mass of a b pair 
 0   = mmaa    ! min invariant mass of gamma gamma pair
 0   = mmll    ! min invariant mass of l+l- (same flavour) lepton pair
 -1  = mmjjmax ! max invariant mass of a jet pair
 -1  = mmbbmax ! max invariant mass of a b pair
 -1  = mmaamax ! max invariant mass of gamma gamma pair
 -1  = mmllmax ! max invariant mass of l+l- (same flavour) lepton pair
#*********************************************************************
# Minimum and maximum invariant mass for all letpons                 *
#*********************************************************************
 0   = mmnl    ! min invariant mass for all letpons (l+- and vl) 
 -1  = mmnlmax ! max invariant mass for all letpons (l+- and vl) 
#*********************************************************************
# Minimum and maximum pt for 4-momenta sum of leptons                *
#*********************************************************************
 0   = ptllmin  ! Minimum pt for 4-momenta sum of leptons(l and vl)
 -1  = ptllmax  ! Maximum pt for 4-momenta sum of leptons(l and vl)
#*********************************************************************
# Inclusive cuts                                                     *
#*********************************************************************
 0  = xptj ! minimum pt for at least one jet  
 0  = xptb ! minimum pt for at least one b 
 0  = xpta ! minimum pt for at least one photon 
 0  = xptl ! minimum pt for at least one charged lepton 
#*********************************************************************
# Control the pt's of the jets sorted by pt                          *
#*********************************************************************
 0   = ptj1min ! minimum pt for the leading jet in pt
 0   = ptj2min ! minimum pt for the second jet in pt
 0   = ptj3min ! minimum pt for the third jet in pt
 0   = ptj4min ! minimum pt for the fourth jet in pt
 -1  = ptj1max ! maximum pt for the leading jet in pt 
 -1  = ptj2max ! maximum pt for the second jet in pt
 -1  = ptj3max ! maximum pt for the third jet in pt
 -1  = ptj4max ! maximum pt for the fourth jet in pt
 0   = cutuse  ! reject event if fails any (0) / all (1) jet pt cuts
#*********************************************************************
# Control the pt's of leptons sorted by pt                           *
#*********************************************************************
 0   = ptl1min ! minimum pt for the leading lepton in pt
 0   = ptl2min ! minimum pt for the second lepton in pt
 0   = ptl3min ! minimum pt for the third lepton in pt
 0   = ptl4min ! minimum pt for the fourth lepton in pt
 -1  = ptl1max ! maximum pt for the leading lepton in pt 
 -1  = ptl2max ! maximum pt for the second lepton in pt
 -1  = ptl3max ! maximum pt for the third lepton in pt
 -1  = ptl4max ! maximum pt for the fourth lepton in pt
#*********************************************************************
# Control the Ht(k)=Sum of k leading jets                            *
#*********************************************************************
 0   = htjmin ! minimum jet HT=Sum(jet pt)
 -1  = htjmax ! maximum jet HT=Sum(jet pt)
 0   = ihtmin  !inclusive Ht for all partons (including b)
 -1  = ihtmax  !inclusive Ht for all partons (including b)
 0   = ht2min ! minimum Ht for the two leading jets
 0   = ht3min ! minimum Ht for the three leading jets
 0   = ht4min ! minimum Ht for the four leading jets
 -1  = ht2max ! maximum Ht for the two leading jets
 -1  = ht3max ! maximum Ht for the three leading jets
 -1  = ht4max ! maximum Ht for the four leading jets
#***********************************************************************
# Photon-isolation cuts, according to hep-ph/9801442                   *
# When ptgmin=0, all the other parameters are ignored                  *
# When ptgmin>0, pta and draj are not going to be used                 *
#***********************************************************************
   0 = ptgmin ! Min photon transverse momentum
 0.4 = R0gamma ! Radius of isolation code
 1.0 = xn ! n parameter of eq.(3.4) in hep-ph/9801442
 1.0 = epsgamma ! epsilon_gamma parameter of eq.(3.4) in hep-ph/9801442
 .true. = isoEM ! isolate photons from EM energy (photons and leptons)
#*********************************************************************
# WBF cuts                                                           *
#*********************************************************************
 0   = xetamin ! minimum rapidity for two jets in the WBF case  
 0   = deltaeta ! minimum rapidity for two jets in the WBF case 
#*********************************************************************
# KT DURHAM CUT                                                      *
#*********************************************************************
 -1    =  ktdurham        
 0.4  =  dparameter 
#*********************************************************************
# maximal pdg code for quark to be considered as a light jet         *
# (otherwise b cuts are applied)                                     *
#*********************************************************************
 4 = maxjetflavor    ! Maximum jet pdg code
#*********************************************************************
# Jet measure cuts                                                   *
#*********************************************************************
 0   = xqcut   ! minimum kt jet measure between partons
#*********************************************************************
#
#*********************************************************************
# Store info for systematics studies                                 *
# WARNING: If use_syst is T, matched Pythia output is                *
#          meaningful ONLY if plotted taking matchscale              *
#          reweighting into account!                                 *
#*********************************************************************
   F  = use_syst      ! Enable systematics studies
#
#**************************************
# Parameter of the systematics study
#  will be used by SysCalc (if installed)
#**************************************                                  
#
0.5 1 2 = sys_scalefact  # factorization/renormalization scale factor
0.5 1 2 = sys_alpsfact  # \alpha_s emission scale factors
30 50 = sys_matchscale # variation of merging scale
# PDF sets and number of members (0 or none for all members).
CT10nlo.LHgrid = sys_pdf # matching scales
# MSTW2008nlo68cl.LHgrid 1  = sys_pdf
</MGRunCard>
<slha>
######################################################################
## PARAM_CARD AUTOMATICALY GENERATED BY MG5 FOLLOWING UFO MODEL   ####
######################################################################
##                                                                  ##
##  Width set on Auto will be computed following the information    ##
##        present in the decay.py files of the model.               ##
##        See  arXiv:1402.1178 for more details.                    ##
##                                                                  ##
######################################################################

###################################
## INFORMATION FOR CKMBLOCK
###################################
Block ckmblock 
    1 2.277360e-01 # cabi 

###################################
## INFORMATION FOR FRBLOCK
###################################
Block frblock 
    1 1.200000e+00 # gz 

###################################
## INFORMATION FOR MASS
###################################
Block mass 
    1 5.040000e-03 # MD 
    2 2.550000e-03 # MU 
    3 1.010000e-01 # MS 
    4 1.270000e+00 # MC 
    5 4.700000e+00 # MB 
    6 1.720000e+02 # MT 
   11 5.110000e-04 # Me 
   13 1.056600e-01 # MM 
   15 1.777000e+00 # MTA 
   23 9.118760e+01 # MZ 
   25 1.200000e+02 # MH 
  10030 1.400000e+03 # MZph 
  10031 3.000000e+02 # MZpl 
## Dependent parameters, given by model restrictions.
## Those values should be edited following the 
## analytical expression. MG5 ignores those values 
## but they are important for interfacing the output of MG5
## to external program such as Pythia.
  12 0.000000 # ve : 0.0 
  14 0.000000 # vm : 0.0 
  16 0.000000 # vt : 0.0 
  21 0.000000 # g : 0.0 
  22 0.000000 # a : 0.0 
  24 79.824360 # w+ : cmath.sqrt(MZ__exp__2/2. + cmath.sqrt(MZ__exp__4/4. - (aEW*cmath.pi*MZ__exp__2)/(Gf*sqrt__2))) 

###################################
## INFORMATION FOR SMINPUTS
###################################
Block sminputs 
    1 1.279000e+02 # aEWM1 
    2 1.166370e-05 # Gf 
    3 1.184000e-01 # aS 

###################################
## INFORMATION FOR YUKAWA
###################################
Block yukawa 
    1 5.040000e-03 # ymdo 
    2 2.550000e-03 # ymup 
    3 1.010000e-01 # yms 
    4 1.270000e+00 # ymc 
    5 4.700000e+00 # ymb 
    6 1.720000e+02 # ymt 
   11 5.110000e-04 # yme 
   13 1.056600e-01 # ymm 
   15 1.777000e+00 # ymtau 

###################################
## INFORMATION FOR DECAY
###################################
DECAY   6 1.508336e+00 # WT 
DECAY  23 2.495200e+00 # WZ 
DECAY  24 2.085000e+00 # WW 
DECAY  25 5.753088e-03 # WH 
## Dependent parameters, given by model restrictions.
## Those values should be edited following the 
## analytical expression. MG5 ignores those values 
## but they are important for interfacing the output of MG5
## to external program such as Pythia.
DECAY  1 0.000000 # d : 0.0 
DECAY  2 0.000000 # u : 0.0 
DECAY  3 0.000000 # s : 0.0 
DECAY  4 0.000000 # c : 0.0 
DECAY  5 0.000000 # b : 0.0 
DECAY  11 0.000000 # e- : 0.0 
DECAY  12 0.000000 # ve : 0.0 
DECAY  13 0.000000 # mu- : 0.0 
DECAY  14 0.000000 # vm : 0.0 
DECAY  15 0.000000 # ta- : 0.0 
DECAY  16 0.000000 # vt : 0.0 
DECAY  21 0.000000 # g : 0.0 
DECAY  22 0.000000 # a : 0.0 
DECAY  10030 0.308725 # zph : (gz__exp__2*MZph*(5 + cmath.sqrt(1 - (4*MT__exp__2)/MZph__exp__2)))/(144.*cmath.pi) 
DECAY  10031 0.132629 # zpl : (5*gz__exp__2*MZpl)/(144.*cmath.pi) 
#===========================================================
# QUANTUM NUMBERS OF NEW STATE(S) (NON SM PDG CODE)
#===========================================================

Block QNUMBERS 10030  # zph 
        1 0  # 3 times electric charge
        2 3  # number of spin states (2S+1)
        3 1  # colour rep (1: singlet, 3: triplet, 8: octet)
        4 0  # Particle/Antiparticle distinction (0=own anti)
Block QNUMBERS 10031  # zpl 
        1 0  # 3 times electric charge
        2 3  # number of spin states (2S+1)
        3 1  # colour rep (1: singlet, 3: triplet, 8: octet)
        4 0  # Particle/Antiparticle distinction (0=own anti)
</slha>
## END BANNER##
<MGGenerationInfo>
#  Number of Events        :         3948
#  Integrated weight (pb)  :  0.48384E+00
#  Max wgt                 :  0.17070E-03
#  Average wgt             :  0.12255E-03
</MGGenerationInfo>
</header>
<init>
     2212     2212  0.40000000000E+04  0.40000000000E+04 0 0  247000  247000 2   1
  0.48448495598E+00  0.88264499452E-03  0.17069860000E-03   0
</init>
<event>
 5   0  0.1648463E-03  0.1421667E+04  0.7818609E-02  0.8938283E-01
       -2   -1    0    0    0  501  0.00000000000E+00  0.00000000000E+00  0.34269620962E+03  0.34269620962E+03  0.25500000920E-02 0. -1.
        2   -1    0    0  501    0  0.00000000000E+00  0.00000000000E+00 -0.14744377463E+04  0.14744377463E+04  0.25500000920E-02 0.  1.
    10030    2    1    2    0    0  0.00000000000E+00  0.00000000000E+00 -0.11317415367E+04  0.18171339559E+04  0.14216669469E+04 0.  0.
        1    1    3    3  502    0  0.62962067823E+03  0.22068783324E+03 -0.25236968029E+03  0.71331323676E+03  0.50400001928E-02 0. -1.
       -1    1    3    3    0  502 -0.62962067823E+03 -0.22068783324E+03 -0.87937185636E+03  0.11038207191E+04  0.50400001928E-02 0.  1.
</event>
<event>
 5   0  0.1648463E-03  0.1405273E+04  0.7818609E-02  0.8950011E-01
        2   -1    0    0  501    0  0.00000000000E+00  0.00000000000E+00  0.20443191825E+04  0.20443191825E+04  0.25500000920E-02 0.  1.
       -2   -1    0    0    0  501  0.00000000000E+00  0.00000000000E+00 -0.24149739470E+03  0.24149739471E+03  0.25500000920E-02 0. -1.
    10030    2    1    2    0    0  0.00000000000E+00  0.00000000000E+00  0.18028217878E+04  0.22858165773E+04  0.14052725807E+04 0.  0.
        1    1    3    3  502    0  0.11981957433E+03 -0.64924342529E+03  0.51026851386E+03  0.83441459236E+03  0.50400001928E-02 0. -1.
       -1    1    3    3    0  502 -0.11981957433E+03  0.64924342529E+03  0.12925532740E+04  0.14514019849E+04  0.50400001928E-02 0.  1.
</event>
<event>
 5   0  0.1706986E-03  0.1403012E+04  0.7818609E-02  0.8951641E-01
        2   -1    0    0  501    0  0.00000000000E+00  0.00000000000E+00  0.65673394681E+03  0.65673394681E+03  0.25500000920E-02 0.  1.
       -2   -1    0    0    0  501  0.00000000000E+00  0.00000000000E+00 -0.74933021073E+03  0.74933021074E+03  0.25500000920E-02 0. -1.
    10030    2    1    2    0    0  0.00000000000E+00  0.00000000000E+00 -0.92596263927E+02  0.14060641575E+04  0.14030118841E+04 0.  0.
        3    1    3    3  502    0 -0.25353212487E+03  0.38329408691E+03  0.48487160736E+03  0.66805193003E+03  0.10100000352E+00 0.  1.
       -3    1    3    3    0  502  0.25353212487E+03 -0.38329408691E+03 -0.57746787128E+03  0.73801222752E+03  0.10100000352E+00 0. -1.
</event>
<event>
 5   0  0.1648463E-03  0.1391041E+04  0.7818609E-02  0.8960329E-01
       -2   -1    0    0    0  501  0.00000000000E+00  0.00000000000E+00  0.83465867836E+03  0.83465867837E+03  0.25500000920E-02 0.  1.
        2   -1    0    0  501    0  0.00000000000E+00  0.00000000000E+00 -0.57957716338E+03  0.57957716338E+03  0.25500000920E-02 0. -1.
    10030    2    1    2    0    0  0.00000000000E+00  0.00000000000E+00  0.25508151499E+03  0.14142358418E+04  0.13910414936E+04 0.  0.
        1    1    3    3  502    0  0.14231546689E+03  0.17151272469E+03 -0.54229147779E+03  0.58630227166E+03  0.50400001928E-02 0. -1.
       -1    1    3    3    0  502 -0.14231546689E+03 -0.17151272469E+03  0.79737299278E+03  0.82793357009E+03  0.50400001928E-02 0.  1.
</event>
<event>
 5   0  0.1706986E-03  0.1345604E+04  0.7818609E-02  0.8994163E-01
        2   -1    0    0  501    0  0.00000000000E+00  0.00000000000E+00  0.44968680085E+03  0.44968680086E+03  0.25500000920E-02 0. -1.
       -2   -1    0    0    0  501  0.00000000000E+00  0.00000000000E+00 -0.10066169927E+04  0.10066169927E+04  0.25500000920E-02 0.  1.
    10030    2    1    2    0    0  0.00000000000E+00  0.00000000000E+00 -0.55693019186E+03  0.14563037936E+04  0.13456037680E+04 0.  0.
        3    1    3    3  502    0  0.24860726933E+03  0.32281573038E+03  0.30097471598E+03  0.50655834808E+03  0.10100000352E+00 0. -1.
       -3    1    3    3    0  502 -0.24860726933E+03 -0.32281573038E+03 -0.85790490784E+03  0.94974544550E+03  0.10100000352E+00 0.  1.
</event>
<event>
 5   0  0.9639548E-04  0.1372527E+04  0.7818609E-02  0.8973948E-01
       -1   -1    0    0    0  501  0.00000000000E+00  0.00000000000E+00  0.14976017269E+04  0.14976017269E+04  0.50400001928E-02 0.  1.
        1   -1    0    0  501    0  0.00000000000E+00  0.00000000000E+00 -0.31447473559E+03  0.31447473563E+03  0.50400001928E-02 0. -1.
    10030    2    1    2    0    0  0.00000000000E+00  0.00000000000E+00  0.11831269913E+04  0.18120764626E+04  0.13725274600E+04 0.  0.
        1    1    3    3  502    0 -0.45354841616E+03  0.44853769793E+03  0.92573405051E+03  0.11242222932E+04  0.50400001928E-02 0.  1.
       -1    1    3    3    0  502  0.45354841616E+03 -0.44853769793E+03  0.25739294082E+03  0.68785416933E+03  0.50400001928E-02 0. -1.
</event>
<event>
 5   0  0.8673728E-04  0.1389345E+04  0.7818609E-02  0.8961568E-01
       -1   -1    0    0    0  501  0.00000000000E+00  0.00000000000E+00  0.29225784296E+03  0.29225784300E+03  0.50400001928E-02 0.  1.
        1   -1    0    0  501    0  0.00000000000E+00  0.00000000000E+00 -0.16511781697E+04  0.16511781697E+04  0.50400001928E-02 0. -1.
    10030    2    1    2    0    0  0.00000000000E+00  0.00000000000E+00 -0.13589203267E+04  0.19434360127E+04  0.13893448388E+04 0.  0.
        3    1    3    3  502    0  0.28694702984E+03 -0.11021209146E+03  0.19195140032E+03  0.36239571372E+03  0.10100000352E+00 0.  1.
       -3    1    3    3    0  502 -0.28694702984E+03  0.11021209146E+03 -0.15508717271E+04  0.15810402990E+04  0.10100000352E+00 0. -1.
</event>
<event>
 5   0  0.1648463E-03  0.1410556E+04  0.7818609E-02  0.8946213E-01
        2   -1    0    0  501    0  0.00000000000E+00  0.00000000000E+00  0.74107905725E+03  0.74107905726E+03  0.25500000920E-02 0. -1.
       -2   -1    0    0    0  501  0.00000000000E+00  0.00000000000E+00 -0.67120660181E+03  0.67120660182E+03  0.25500000920E-02 0.  1.
    10030    2    1    2    0    0  0.00000000000E+00  0.00000000000E+00  0.69872455443E+02  0.14122856591E+04  0.14105561395E+04 0.  0.
        1    1    3    3  502    0 -0.38137158612E+03  0.52246098903E+03  0.31636339185E+03  0.72006636325E+03  0.50400001928E-02 0. -1.
       -1    1    3    3    0  502  0.38137158612E+03 -0.52246098903E+03 -0.24649093640E+03  0.69221929582E+03  0.50400001928E-02 0.  1.
</event>
<event>
 5   0  0.9007180E-04  0.1375520E+04  0.7818609E-02  0.8971731E-01
       -1   -1    0    0    0  501  0.00000000000E+00  0.00000000000E+00  0.59277318188E+03  0.59277318191E+03  0.50400001928E-02 0.  1.
        1   -1    0    0  501    0  0.00000000000E+00  0.00000000000E+00 -0.79796813175E+03  0.79796813177E+03  0.50400001928E-02 0. -1.
    10030    2    1    2    0    0  0.00000000000E+00  0.00000000000E+00 -0.20519494987E+03  0.13907413137E+04  0.13755204230E+04 0.  0.
        2    1    3    3  502    0  0.62386215241E+03  0.23151097535E+03  0.73144191698E+02  0.66944110249E+03  0.25500000920E-02 0.  1.
       -2    1    3    3    0  502 -0.62386215241E+03 -0.23151097535E+03 -0.27833914156E+03  0.72130021118E+03  0.25500000920E-02 0. -1.
</event>
<event>
 5   0  0.1648463E-03  0.1197594E+04  0.7818609E-02  0.9114966E-01
       -2   -1    0    0    0  501  0.00000000000E+00  0.00000000000E+00  0.23027442487E+03  0.23027442488E+03  0.25500000920E-02 0.  1.
        2   -1    0    0  501    0  0.00000000000E+00  0.00000000000E+00 -0.15570880674E+04  0.15570880674E+04  0.25500000920E-02 0. -1.
    10030    2    1    2    0    0  0.00000000000E+00  0.00000000000E+00 -0.13268136425E+04  0.17873624923E+04  0.11975935190E+04 0.  0.
        1    1    3    3  502    0  0.38257162273E+03 -0.31382764693E+03 -0.11666757167E+04  0.12672730828E+04  0.50400001928E-02 0. -1.
       -1    1    3    3    0  502 -0.38257162273E+03  0.31382764693E+03 -0.16013792581E+03  0.52008940944E+03  0.50400001928E-02 0.  1.
</event>
<event>
 5   0  0.6048000E-04  0.1335200E+04  0.7818609E-02  0.9002108E-01
        4   -1    0    0  501    0  0.00000000000E+00  0.00000000000E+00  0.59133375406E+03  0.59133511783E+03  0.12699999809E+01 0. -1.
       -4   -1    0    0    0  501  0.00000000000E+00  0.00000000000E+00 -0.75369977794E+03  0.75370084792E+03  0.12699999809E+01 0.  1.
    10030    2    1    2    0    0  0.00000000000E+00  0.00000000000E+00 -0.16236602388E+03  0.13450359658E+04  0.13351999938E+04 0.  0.
        5    1    3    3  502    0  0.25664791073E+03  0.61220988466E+03 -0.15240442587E+03  0.68111547625E+03  0.46999998093E+01 0.  1.
       -5    1    3    3    0  502 -0.25664791073E+03 -0.61220988466E+03 -0.99615980105E+01  0.66392048951E+03  0.46999998093E+01 0. -1.
</event>
<event>
 5   0  0.1605214E-03  0.1464310E+04  0.7818609E-02  0.8908539E-01
       -2   -1    0    0    0  501  0.00000000000E+00  0.00000000000E+00  0.67350688669E+03  0.67350688670E+03  0.25500000920E-02 0.  1.
        2   -1    0    0  501    0  0.00000000000E+00  0.00000000000E+00 -0.79591050500E+03  0.79591050500E+03  0.25500000920E-02 0. -1.
    10030    2    1    2    0    0  0.00000000000E+00  0.00000000000E+00 -0.12240361830E+03  0.14694173917E+04  0.14643103582E+04 0.  0.
        5    1    3    3  502    0  0.60053853012E+03 -0.94990018017E+02  0.34809261382E+03  0.70061415021E+03  0.46999998093E+01 0.  1.
       -5    1    3    3    0  502 -0.60053853012E+03  0.94990018017E+02 -0.47049623212E+03  0.76880324149E+03  0.46999998093E+01 0. -1.
</event>
<event>
 5   0  0.8609148E-04  0.1390416E+04  0.7818609E-02  0.8960785E-01
        1   -1    0    0  501    0  0.00000000000E+00  0.00000000000E+00  0.10012023732E+04  0.10012023732E+04  0.50400001928E-02 0.  1.
       -1   -1    0    0    0  501  0.00000000000E+00  0.00000000000E+00 -0.48273392631E+03  0.48273392634E+03  0.50400001928E-02 0. -1.
    10030    2    1    2    0    0  0.00000000000E+00  0.00000000000E+00  0.51846844685E+03  0.14839362995E+04  0.13904162724E+04 0.  0.
        5    1    3    3  502    0  0.98311217268E+02  0.68055877219E+03  0.15004495177E+03  0.70381880864E+03  0.46999998093E+01 0.  1.
       -5    1    3    3    0  502 -0.98311217268E+02 -0.68055877219E+03  0.36842349508E+03  0.78011749088E+03  0.46999998093E+01 0. -1.
</event>
<event>
 5   0  0.9639548E-04  0.1448728E+04  0.7818609E-02  0.8919283E-01
        1   -1    0    0  501    0  0.00000000000E+00  0.00000000000E+00  0.11848914616E+04  0.11848914616E+04  0.50400001928E-02 0. -1.
       -1   -1    0    0    0  501  0.00000000000E+00  0.00000000000E+00 -0.44282808611E+03  0.44282808614E+03  0.50400001928E-02 0.  1.
    10030    2    1    2    0    0  0.00000000000E+00  0.00000000000E+00  0.74206337549E+03  0.16277195477E+04  0.14487280189E+04 0.  0.
        1    1    3    3  502    0  0.56214325770E+03  0.25538197380E+03 -0.54552726443E+02  0.61983949109E+03  0.50400001928E-02 0. -1.
       -1    1    3    3    0  502 -0.56214325770E+03 -0.25538197380E+03  0.79661610193E+03  0.10078800567E+04  0.50400001928E-02 0.  1.
</event>
<event>
 5   0  0.8673728E-04  0.1379685E+04  0.7818609E-02  0.8968656E-01
        1   -1    0    0  501    0  0.00000000000E+00  0.00000000000E+00  0.52266564393E+03  0.52266564396E+03  0.50400001928E-02 0. -1.
       -1   -1    0    0    0  501  0.00000000000E+00  0.00000000000E+00 -0.91049134708E+03  0.91049134709E+03  0.50400001928E-02 0.  1.
    10030    2    1    2    0    0  0.00000000000E+00  0.00000000000E+00 -0.38782570315E+03  0.14331569910E+04  0.13796848136E+04 0.  0.
        3    1    3    3  502    0  0.41862322368E+03  0.18618712877E+03  0.34179920698E+03  0.57160979559E+03  0.10100000352E+00 0. -1.
       -3    1    3    3    0  502 -0.41862322368E+03 -0.18618712877E+03 -0.72962491012E+03  0.86154719546E+03  0.10100000352E+00 0.  1.
</event>
<event>
 5   0  0.8673728E-04  0.1390145E+04  0.7818609E-02  0.8960983E-01
        1   -1    0    0  501    0  0.00000000000E+00  0.00000000000E+00  0.10080273790E+04  0.10080273791E+04  0.50400001928E-02 0.  1.
       -1   -1    0    0    0  501  0.00000000000E+00  0.00000000000E+00 -0.47927840252E+03  0.47927840255E+03  0.50400001928E-02 0. -1.
    10030    2    1    2    0    0  0.00000000000E+00  0.00000000000E+00  0.52874897653E+03  0.14873057816E+04  0.13901449593E+04 0.  0.
        3    1    3    3  502    0 -0.16562674378E+03  0.34014525607E+03 -0.35946989387E+03  0.52187127559E+03  0.10100000352E+00 0. -1.
       -3    1    3    3    0  502  0.16562674378E+03 -0.34014525607E+03  0.88821887039E+03  0.96543450602E+03  0.10100000352E+00 0.  1.
</event>
<event>
 5   0  0.1648463E-03  0.1390165E+04  0.7818609E-02  0.8960968E-01
        2   -1    0    0  501    0  0.00000000000E+00  0.00000000000E+00  0.14718688224E+04  0.14718688224E+04  0.25500000920E-02 0.  1.
       -2   -1    0    0    0  501  0.00000000000E+00  0.00000000000E+00 -0.32824918874E+03  0.32824918875E+03  0.25500000920E-02 0. -1.
    10030    2    1    2    0    0  0.00000000000E+00  0.00000000000E+00  0.11436196336E+04  0.18001180111E+04  0.13901650936E+04 0.  0.
        1    1    3    3  502    0  0.14420287344E+03  0.41173564107E+03 -0.12889363051E+03  0.45490029110E+03  0.50400001928E-02 0. -1.
       -1    1    3    3    0  502 -0.14420287344E+03 -0.41173564107E+03  0.12725132641E+04  0.13452177200E+04  0.50400001928E-02 0.  1.
</event>
<event>
 5   0  0.8502300E-04  0.1406109E+04  0.7818609E-02  0.8949408E-01
        1   -1    0    0  501    0  0.00000000000E+00  0.00000000000E+00  0.69388118667E+03  0.69388118668E+03  0.50400001928E-02 0.  1.
       -1   -1    0    0    0  501  0.00000000000E+00  0.00000000000E+00 -0.71234909027E+03  0.71234909029E+03  0.50400001928E-02 0. -1.
    10030    2    1    2    0    0  0.00000000000E+00  0.00000000000E+00 -0.18467903606E+02  0.14062302770E+04  0.14061090030E+04 0.  0.
        4    1    3    3  502    0 -0.15304226905E+03 -0.99599773986E+02  0.66975167550E+03  0.69419807752E+03  0.12699999809E+01 0.  1.
       -4    1    3    3    0  502  0.15304226905E+03  0.99599773986E+02 -0.68821957911E+03  0.71203219945E+03  0.12699999809E+01 0. -1.
</event>
<event>
 5   0  0.9639548E-04  0.1401208E+04  0.7818609E-02  0.8952944E-01
       -1   -1    0    0    0  501  0.00000000000E+00  0.00000000000E+00  0.83577651534E+03  0.83577651536E+03  0.50400001928E-02 0.  1.
        1   -1    0    0  501    0  0.00000000000E+00  0.00000000000E+00 -0.58729349879E+03  0.58729349881E+03  0.50400001928E-02 0. -1.
    10030    2    1    2    0    0  0.00000000000E+00  0.00000000000E+00  0.24848301655E+03  0.14230700142E+04  0.14012082128E+04 0.  0.
        1    1    3    3  502    0 -0.64142475454E+03 -0.16753010614E+03  0.35439151545E+03  0.75172162297E+03  0.50400001928E-02 0.  1.
       -1    1    3    3    0  502  0.64142475454E+03  0.16753010614E+03 -0.10590849890E+03  0.67134839120E+03  0.50400001928E-02 0. -1.
</event>
<event>
 5   0  0.1578965E-03  0.1370376E+04  0.7818609E-02  0.8975545E-01
       -2   -1    0    0    0  501  0.00000000000E+00  0.00000000000E+00  0.44666190522E+03  0.44666190522E+03  0.25500000920E-02 0.  1.
        2   -1    0    0  501    0  0.00000000000E+00  0.00000000000E+00 -0.10510917858E+04  0.10510917858E+04  0.25500000920E-02 0. -1.
    10030    2    1    2    0    0  0.00000000000E+00  0.00000000000E+00 -0.60442988054E+03  0.14977536910E+04  0.13703760938E+04 0.  0.
        2    1    3    3  502    0  0.38264004617E+03 -0.55660299439E+03 -0.17634818049E+03  0.69808235836E+03  0.25500000920E-02 0.  1.
       -2    1    3    3    0  502 -0.38264004617E+03  0.55660299439E+03 -0.42808170006E+03  0.79967133262E+03  0.25500000920E-02 0. -1.
</event>
<event>
 5   0  0.8673728E-04  0.1399416E+04  0.7818609E-02  0.8954241E-01
       -1   -1    0    0    0  501  0.00000000000E+00  0.00000000000E+00  0.66474402806E+03  0.66474402807E+03  0.50400001928E-02 0.  1.
        1   -1    0    0  501    0  0.00000000000E+00  0.00000000000E+00 -0.73651118376E+03  0.73651118378E+03  0.50400001928E-02 0. -1.
    10030    2    1    2    0    0  0.00000000000E+00  0.00000000000E+00 -0.71767155705E+02  0.14012552119E+04  0.13994161797E+04 0.  0.
        3    1    3    3  502    0  0.24641831617E+03 -0.65179852141E+03 -0.99434311314E+02  0.70388244155E+03  0.10100000352E+00 0.  1.
       -3    1    3    3    0  502 -0.24641831617E+03  0.65179852141E+03  0.27667155609E+02  0.69737277030E+03  0.10100000352E+00 0. -1.
</event>
<event>
 5   0  0.1706986E-03  0.1414204E+04  0.7818609E-02  0.8943601E-01
       -2   -1    0    0    0  501  0.00000000000E+00  0.00000000000E+00  0.39016655164E+03  0.39016655165E+03  0.25500000920E-02 0.  1.
        2   -1    0    0  501    0  0.00000000000E+00  0.00000000000E+00 -0.12814866369E+04  0.12814866369E+04  0.25500000920E-02 0. -1.
    10030    2    1    2    0    0  0.00000000000E+00  0.00000000000E+00 -0.89132008521E+03  0.16716531885E+04  0.14142039769E+04 0.  0.
        3    1    3    3  502    0  0.84777344518E+01  0.32662481507E+03  0.29558470454E+03  0.44059728728E+03  0.10100000352E+00 0.  1.
       -3    1    3    3    0  502 -0.84777344518E+01 -0.32662481507E+03 -0.11869047898E+04  0.12310559012E+04  0.10100000352E+00 0. -1.
</event>
<event>
 5   0  0.9639548E-04  0.1391179E+04  0.7818609E-02  0.8960228E-01
        1   -1    0    0  501    0  0.00000000000E+00  0.00000000000E+00  0.13552703678E+04  0.13552703678E+04  0.50400001928E-02 0.  1.
       -1   -1    0    0    0  501  0.00000000000E+00  0.00000000000E+00 -0.35700987775E+03  0.35700987778E+03  0.50400001928E-02 0. -1.
    10030    2    1    2    0    0  0.00000000000E+00  0.00000000000E+00  0.99826049005E+03  0.17122802456E+04  0.13911792241E+04 0.  0.
        1    1    3    3  502    0 -0.13109022242E+03 -0.54617047815E+03  0.10041504260E+04  0.11505672148E+04  0.50400001928E-02 0.  1.
       -1    1    3    3    0  502  0.13109022242E+03  0.54617047815E+03 -0.58899359603E+01  0.56171303082E+03  0.50400001928E-02 0. -1.
</event>
<event>
 5   0  0.1578965E-03  0.1401928E+04  0.7818609E-02  0.8952424E-01
        2   -1    0    0  501    0  0.00000000000E+00  0.00000000000E+00  0.31178606500E+04  0.31178606500E+04  0.25500000920E-02 0.  1.
       -2   -1    0    0    0  501  0.00000000000E+00  0.00000000000E+00 -0.15759218206E+03  0.15759218208E+03  0.25500000920E-02 0. -1.
    10030    2    1    2    0    0  0.00000000000E+00  0.00000000000E+00  0.29602684680E+04  0.32754528321E+04  0.14019279058E+04 0.  0.
        2    1    3    3  502    0  0.37287079835E+03  0.38579508752E+03  0.42621698163E+03  0.68522361113E+03  0.25500000920E-02 0. -1.
       -2    1    3    3    0  502 -0.37287079835E+03 -0.38579508752E+03  0.25340514863E+04  0.25902292210E+04  0.25500000920E-02 0.  1.
</event>
<event>
 5   0  0.9007180E-04  0.1420588E+04  0.7818609E-02  0.8939049E-01
       -1   -1    0    0    0  501  0.00000000000E+00  0.00000000000E+00  0.58620687976E+03  0.58620687978E+03  0.50400001928E-02 0. -1.
        1   -1    0    0  501    0  0.00000000000E+00  0.00000000000E+00 -0.86064819949E+03  0.86064819951E+03  0.50400001928E-02 0.  1.
    10030    2    1    2    0    0  0.00000000000E+00  0.00000000000E+00 -0.27444131973E+03  0.14468550793E+04  0.14205884635E+04 0.  0.
        2    1    3    3  502    0 -0.40785809267E+03 -0.49745818985E+03  0.16952075355E+03  0.66524443650E+03  0.25500000920E-02 0. -1.
       -2    1    3    3    0  502  0.40785809267E+03  0.49745818985E+03 -0.44396207328E+03  0.78161064279E+03  0.25500000920E-02 0.  1.
</event>
<event>
 5   0  0.1706986E-03  0.1428457E+04  0.7818609E-02  0.8933474E-01
        2   -1    0    0  501    0  0.00000000000E+00  0.00000000000E+00  0.18426309025E+04  0.18426309025E+04  0.25500000920E-02 0. -1.
       -2   -1    0    0    0  501  0.00000000000E+00  0.00000000000E+00 -0.27684448024E+03  0.27684448025E+03  0.25500000920E-02 0.  1.
    10030    2    1    2    0    0  0.00000000000E+00  0.00000000000E+00  0.15657864223E+04  0.21194753827E+04  0.14284567820E+04 0.  0.
        3    1    3    3  502    0  0.10160138462E+03 -0.58405747323E+03  0.13739336306E+04  0.14963754893E+04  0.10100000352E+00 0. -1.
       -3    1    3    3    0  502 -0.10160138462E+03  0.58405747323E+03  0.19185279168E+03  0.62309989349E+03  0.10100000352E+00 0.  1.
</event>
<event>
 5   0  0.1605214E-03  0.1387921E+04  0.7818609E-02  0.8962609E-01
        2   -1    0    0  501    0  0.00000000000E+00  0.00000000000E+00  0.76649898002E+03  0.76649898002E+03  0.25500000920E-02 0.  1.
       -2   -1    0    0    0  501  0.00000000000E+00  0.00000000000E+00 -0.62828636311E+03  0.62828636312E+03  0.25500000920E-02 0. -1.
    10030    2    1    2    0    0  0.00000000000E+00  0.00000000000E+00  0.13821261691E+03  0.13947853431E+04  0.13879205402E+04 0.  0.
        5    1    3    3  502    0 -0.61906055507E+02 -0.11653483699E+03  0.75375864721E+03  0.76523650996E+03  0.46999998093E+01 0.  1.
       -5    1    3    3    0  502  0.61906055507E+02  0.11653483699E+03 -0.61554603030E+03  0.62954883318E+03  0.46999998093E+01 0. -1.
</event>
<event>
 5   0  0.9007180E-04  0.1399845E+04  0.7818609E-02  0.8953931E-01
       -1   -1    0    0    0  501  0.00000000000E+00  0.00000000000E+00  0.29447315930E+03  0.29447315934E+03  0.50400001928E-02 0.  1.
        1   -1    0    0  501    0  0.00000000000E+00  0.00000000000E+00 -0.16636204337E+04  0.16636204337E+04  0.50400001928E-02 0. -1.
    10030    2    1    2    0    0  0.00000000000E+00  0.00000000000E+00 -0.13691472744E+04  0.19580935931E+04  0.13998450843E+04 0.  0.
        2    1    3    3  502    0 -0.26200023793E+02 -0.12651464170E+03  0.27764874892E+03  0.30623720152E+03  0.25500000920E-02 0.  1.
       -2    1    3    3    0  502  0.26200023793E+02  0.12651464170E+03 -0.16467960233E+04  0.16518563915E+04  0.25500000920E-02 0. -1.
</event>
<event>
 5   0  0.1706986E-03  0.1397017E+04  0.7818609E-02  0.8955981E-01
       -2   -1    0    0    0  501  0.00000000000E+00  0.00000000000E+00  0.64112140071E+03  0.64112140071E+03  0.25500000920E-02 0.  1.
        2   -1    0    0  501    0  0.00000000000E+00  0.00000000000E+00 -0.76103182285E+03  0.76103182285E+03  0.25500000920E-02 0. -1.
    10030    2    1    2    0    0  0.00000000000E+00  0.00000000000E+00 -0.11991042214E+03  0.14021532236E+04  0.13970165185E+04 0.  0.
        3    1    3    3  502    0 -0.22638073603E+03  0.21257286410E+03 -0.68793807085E+03  0.75478093492E+03  0.10100000352E+00 0. -1.
       -3    1    3    3    0  502  0.22638073603E+03 -0.21257286410E+03  0.56802764871E+03  0.64737228864E+03  0.10100000352E+00 0.  1.
</event>
<event>
 5   0  0.1648463E-03  0.1423090E+04  0.7818609E-02  0.8937273E-01
        2   -1    0    0  501    0  0.00000000000E+00  0.00000000000E+00  0.22324698873E+04  0.22324698873E+04  0.25500000920E-02 0.  1.
       -2   -1    0    0    0  501  0.00000000000E+00  0.00000000000E+00 -0.22678741069E+03  0.22678741070E+03  0.25500000920E-02 0. -1.
    10030    2    1    2    0    0  0.00000000000E+00  0.00000000000E+00  0.20056824766E+04  0.24592572980E+04  0.14230896883E+04 0.  0.
        1    1    3    3  502    0  0.58364072497E+03 -0.25693959751E+03  0.15483378669E+04  0.16745162295E+04  0.50400001928E-02 0.  1.
       -1    1    3    3    0  502 -0.58364072497E+03  0.25693959751E+03  0.45734460971E+03  0.78474106855E+03  0.50400001928E-02 0. -1.
</event>
<event>
 5   0  0.8609148E-04  0.1386195E+04  0.7818609E-02  0.8963872E-01
       -1   -1    0    0    0  501  0.00000000000E+00  0.00000000000E+00  0.41753289269E+03  0.41753289272E+03  0.50400001928E-02 0. -1.
        1   -1    0    0  501    0  0.00000000000E+00  0.00000000000E+00 -0.11505300433E+04  0.11505300433E+04  0.50400001928E-02 0.  1.
    10030    2    1    2    0    0  0.00000000000E+00  0.00000000000E+00 -0.73299715065E+03  0.15680629361E+04  0.13861949894E+04 0.  0.
        5    1    3    3  502    0  0.16710127093E+03  0.32889882829E+03 -0.10302194210E+04  0.10942903725E+04  0.46999998093E+01 0.  1.
       -5    1    3    3    0  502 -0.16710127093E+03 -0.32889882829E+03  0.29722227033E+03  0.47377256356E+03  0.46999998093E+01 0. -1.
</event>
<event>
 5   0  0.1706986E-03  0.1420568E+04  0.7818609E-02  0.8939063E-01
       -2   -1    0    0    0  501  0.00000000000E+00  0.00000000000E+00  0.53388900050E+03  0.53388900050E+03  0.25500000920E-02 0. -1.
        2   -1    0    0  501    0  0.00000000000E+00  0.00000000000E+00 -0.94495943189E+03  0.94495943189E+03  0.25500000920E-02 0.  1.
    10030    2    1    2    0    0  0.00000000000E+00  0.00000000000E+00 -0.41107043139E+03  0.14788484324E+04  0.14205681210E+04 0.  0.
        3    1    3    3  502    0 -0.27498765664E+03  0.66901053486E+02  0.47265908523E+03  0.55090887024E+03  0.10100000352E+00 0. -1.
       -3    1    3    3    0  502  0.27498765664E+03 -0.66901053486E+02 -0.88372951662E+03  0.92793956215E+03  0.10100000352E+00 0.  1.
</event>
<event>
 5   0  0.8502300E-04  0.1372502E+04  0.7818609E-02  0.8973967E-01
       -1   -1    0    0    0  501  0.00000000000E+00  0.00000000000E+00  0.58009019953E+03  0.58009019956E+03  0.50400001928E-02 0. -1.
        1   -1    0    0  501    0  0.00000000000E+00  0.00000000000E+00 -0.81184009836E+03  0.81184009837E+03  0.50400001928E-02 0.  1.
    10030    2    1    2    0    0  0.00000000000E+00  0.00000000000E+00 -0.23174989883E+03  0.13919302979E+04  0.13725020724E+04 0.  0.
        4    1    3    3  502    0  0.22889896957E+03  0.10537327596E+03 -0.76322119558E+03  0.80374527795E+03  0.12699999809E+01 0.  1.
       -4    1    3    3    0  502 -0.22889896957E+03 -0.10537327596E+03  0.53147129675E+03  0.58818501998E+03  0.12699999809E+01 0. -1.
</event>
<event>
 5   0  0.9639548E-04  0.1404197E+04  0.7818609E-02  0.8950786E-01
       -1   -1    0    0    0  501  0.00000000000E+00  0.00000000000E+00  0.51053945630E+03  0.51053945632E+03  0.50400001928E-02 0. -1.
        1   -1    0    0  501    0  0.00000000000E+00  0.00000000000E+00 -0.96553203701E+03  0.96553203702E+03  0.50400001928E-02 0.  1.
    10030    2    1    2    0    0  0.00000000000E+00  0.00000000000E+00 -0.45499258071E+03  0.14760714933E+04  0.14041968541E+04 0.  0.
        1    1    3    3  502    0  0.11933205120E+03  0.33227765109E+03 -0.86543139034E+03  0.93467645058E+03  0.50400001928E-02 0.  1.
       -1    1    3    3    0  502 -0.11933205120E+03 -0.33227765109E+03  0.41043880963E+03  0.54139504277E+03  0.50400001928E-02 0. -1.
</event>
<event>
 5   0  0.8673728E-04  0.1295213E+04  0.7818609E-02  0.9033370E-01
        1   -1    0    0  501    0  0.00000000000E+00  0.00000000000E+00  0.14206247981E+04  0.14206247981E+04  0.50400001928E-02 0.  1.
       -1   -1    0    0    0  501  0.00000000000E+00  0.00000000000E+00 -0.29521791465E+03  0.29521791469E+03  0.50400001928E-02 0. -1.
    10030    2    1    2    0    0  0.00000000000E+00  0.00000000000E+00  0.11254068835E+04  0.17158427128E+04  0.12952125547E+04 0.  0.
        3    1    3    3  502    0 -0.26578672072E+03 -0.35459735992E+03  0.11883089397E+04  0.12682507698E+04  0.10100000352E+00 0.  1.
       -3    1    3    3    0  502  0.26578672072E+03  0.35459735992E+03 -0.62902056293E+02  0.44759194302E+03  0.10100000352E+00 0. -1.
</event>
<event>
 5   0  0.1648213E-03  0.1393504E+04  0.7818609E-02  0.8958534E-01
        2   -1    0    0  501    0  0.00000000000E+00  0.00000000000E+00  0.18104468314E+04  0.18104468314E+04  0.25500000920E-02 0.  1.
       -2   -1    0    0    0  501  0.00000000000E+00  0.00000000000E+00 -0.26814546411E+03  0.26814546413E+03  0.25500000920E-02 0. -1.
    10030    2    1    2    0    0  0.00000000000E+00  0.00000000000E+00  0.15423013672E+04  0.20785922955E+04  0.13935036503E+04 0.  0.
        4    1    3    3  502    0  0.54833601466E+03  0.14666503195E+02  0.13031532463E+03  0.56380066337E+03  0.12699999809E+01 0. -1.
       -4    1    3    3    0  502 -0.54833601466E+03 -0.14666503195E+02  0.14119860426E+04  0.15147916321E+04  0.12699999809E+01 0.  1.
</event>
<event>
 5   0  0.1648213E-03  0.1391508E+04  0.7818609E-02  0.8959988E-01
        2   -1    0    0  501    0  0.00000000000E+00  0.00000000000E+00  0.49739559487E+03  0.49739559488E+03  0.25500000920E-02 0.  1.
       -2   -1    0    0    0  501  0.00000000000E+00  0.00000000000E+00 -0.97321667864E+03  0.97321667864E+03  0.25500000920E-02 0. -1.
    10030    2    1    2    0    0  0.00000000000E+00  0.00000000000E+00 -0.47582108377E+03  0.14706122735E+04  0.13915080867E+04 0.  0.
        4    1    3    3  502    0  0.37354679233E+02  0.13134874747E+03  0.48309223433E+03  0.50202349078E+03  0.12699999809E+01 0.  1.
       -4    1    3    3    0  502 -0.37354679233E+02 -0.13134874747E+03 -0.95891331810E+03  0.96858878274E+03  0.12699999809E+01 0. -1.
</event>
<event>
 5   0  0.9007180E-04  0.1399686E+04  0.7818609E-02  0.8954046E-01
        1   -1    0    0  501    0  0.00000000000E+00  0.00000000000E+00  0.86124089849E+03  0.86124089850E+03  0.50400001928E-02 0.  1.
       -1   -1    0    0    0  501  0.00000000000E+00  0.00000000000E+00 -0.56869123684E+03  0.56869123686E+03  0.50400001928E-02 0. -1.
    10030    2    1    2    0    0  0.00000000000E+00  0.00000000000E+00  0.29254966165E+03  0.14299321354E+04  0.13996858959E+04 0.  0.
        2    1    3    3  502    0 -0.13841971930E+02  0.56335830577E+02  0.85878036466E+03  0.86073749815E+03  0.25500000920E-02 0.  1.
       -2    1    3    3    0  502  0.13841971930E+02 -0.56335830577E+02 -0.56623070301E+03  0.56919463721E+03  0.25500000920E-02 0. -1.
</event>
<event>
 5   0  0.8609148E-04  0.1218362E+04  0.7818609E-02  0.9096934E-01
       -1   -1    0    0    0  501  0.00000000000E+00  0.00000000000E+00  0.21699524697E+03  0.21699524703E+03  0.50400001928E-02 0. -1.
        1   -1    0    0  501    0  0.00000000000E+00  0.00000000000E+00 -0.17101831738E+04  0.17101831739E+04  0.50400001928E-02 0.  1.
    10030    2    1    2    0    0  0.00000000000E+00  0.00000000000E+00 -0.14931879269E+04  0.19271784209E+04  0.12183622126E+04 0.  0.
        5    1    3    3  502    0  0.92449856633E+02  0.10404777299E+03 -0.16846650963E+04  0.16904116338E+04  0.46999998093E+01 0.  1.
       -5    1    3    3    0  502 -0.92449856633E+02 -0.10404777299E+03  0.19147716942E+03  0.23676678708E+03  0.46999998093E+01 0. -1.
</event>
<event>
 5   0  0.8609148E-04  0.1401465E+04  0.7818609E-02  0.8952759E-01
        1   -1    0    0  501    0  0.00000000000E+00  0.00000000000E+00  0.76192348262E+03  0.76192348264E+03  0.50400001928E-02 0.  1.
       -1   -1    0    0    0  501  0.00000000000E+00  0.00000000000E+00 -0.64445583538E+03  0.64445583540E+03  0.50400001928E-02 0. -1.
    10030    2    1    2    0    0  0.00000000000E+00  0.00000000000E+00  0.11746764724E+03  0.14063793180E+04  0.14014649971E+04 0.  0.
        5    1    3    3  502    0 -0.30232455973E+03 -0.25730147300E+03  0.63816632961E+03  0.75158668274E+03  0.46999998093E+01 0.  1.
       -5    1    3    3    0  502  0.30232455973E+03  0.25730147300E+03 -0.52069868236E+03  0.65479263530E+03  0.46999998093E+01 0. -1.
</event>
<event>
 5   0  0.1578965E-03  0.1399395E+04  0.7818609E-02  0.8954257E-01
       -2   -1    0    0    0  501  0.00000000000E+00  0.00000000000E+00  0.13820534194E+04  0.13820534194E+04  0.25500000920E-02 0. -1.
        2   -1    0    0  501    0  0.00000000000E+00  0.00000000000E+00 -0.35423853830E+03  0.35423853831E+03  0.25500000920E-02 0.  1.
    10030    2    1    2    0    0  0.00000000000E+00  0.00000000000E+00  0.10278148811E+04  0.17362919578E+04  0.13993949881E+04 0.  0.
        2    1    3    3  502    0 -0.19957820728E+03 -0.15988164444E+03 -0.29418130817E+03  0.38978999875E+03  0.25500000920E-02 0.  1.
       -2    1    3    3    0  502  0.19957820728E+03  0.15988164444E+03  0.13219961893E+04  0.13465019590E+04  0.25500000920E-02 0. -1.
</event>
<event>
 5   0  0.1706986E-03  0.1397207E+04  0.7818609E-02  0.8955843E-01
        2   -1    0    0  501    0  0.00000000000E+00  0.00000000000E+00  0.13347089466E+04  0.13347089466E+04  0.25500000920E-02 0. -1.
       -2   -1    0    0    0  501  0.00000000000E+00  0.00000000000E+00 -0.36565780291E+03  0.36565780292E+03  0.25500000920E-02 0.  1.
    10030    2    1    2    0    0  0.00000000000E+00  0.00000000000E+00  0.96905114367E+03  0.17003667495E+04  0.13972068436E+04 0.  0.
        3    1    3    3  502    0  0.64491550145E+03  0.18810405091E+03  0.25123545153E+03  0.71722967053E+03  0.10100000352E+00 0.  1.
       -3    1    3    3    0  502 -0.64491550145E+03 -0.18810405091E+03  0.71781569214E+03  0.98313707898E+03  0.10100000352E+00 0. -1.
</event>
<event>
 5   0  0.1648463E-03  0.1420947E+04  0.7818609E-02  0.8938794E-01
       -2   -1    0    0    0  501  0.00000000000E+00  0.00000000000E+00  0.32896647864E+03  0.32896647865E+03  0.25500000920E-02 0. -1.
        2   -1    0    0  501    0  0.00000000000E+00  0.00000000000E+00 -0.15344198914E+04  0.15344198915E+04  0.25500000920E-02 0.  1.
    10030    2    1    2    0    0  0.00000000000E+00  0.00000000000E+00 -0.12054534128E+04  0.18633863701E+04  0.14209471608E+04 0.  0.
        1    1    3    3  502    0 -0.46125757458E+03 -0.59618214742E+02  0.10158945687E+03  0.47606018465E+03  0.50400001928E-02 0. -1.
       -1    1    3    3    0  502  0.46125757458E+03  0.59618214742E+02 -0.13070428697E+04  0.13873261855E+04  0.50400001928E-02 0.  1.
</event>
<event>
 5   0  0.1578965E-03  0.1389335E+04  0.7818609E-02  0.8961575E-01
       -2   -1    0    0    0  501  0.00000000000E+00  0.00000000000E+00  0.37821963603E+03  0.37821963604E+03  0.25500000920E-02 0.  1.
        2   -1    0    0  501    0  0.00000000000E+00  0.00000000000E+00 -0.12758807565E+04  0.12758807565E+04  0.25500000920E-02 0. -1.
    10030    2    1    2    0    0  0.00000000000E+00  0.00000000000E+00 -0.89766112049E+03  0.16541003926E+04  0.13893353164E+04 0.  0.
        2    1    3    3  502    0  0.18435575012E+03 -0.66936201654E+03 -0.47625513302E+03  0.84193319422E+03  0.25500000920E-02 0. -1.
       -2    1    3    3    0  502 -0.18435575012E+03  0.66936201654E+03 -0.42140598747E+03  0.81216719834E+03  0.25500000920E-02 0.  1.
</event>
<event>
 5   0  0.1706986E-03  0.1503027E+04  0.7818609E-02  0.8882443E-01
        2   -1    0    0  501    0  0.00000000000E+00  0.00000000000E+00  0.15635727027E+04  0.15635727027E+04  0.25500000920E-02 0.  1.
       -2   -1    0    0    0  501  0.00000000000E+00  0.00000000000E+00 -0.36120623746E+03  0.36120623747E+03  0.25500000920E-02 0. -1.
    10030    2    1    2    0    0  0.00000000000E+00  0.00000000000E+00  0.12023664652E+04  0.19247789402E+04  0.15030265639E+04 0.  0.
        3    1    3    3  502    0  0.59083518382E+03  0.19861226984E+03  0.11387908362E+04  0.12982209469E+04  0.10100000352E+00 0.  1.
       -3    1    3    3    0  502 -0.59083518382E+03 -0.19861226984E+03  0.63575629093E+02  0.62655799331E+03  0.10100000352E+00 0. -1.
</event>
<event>
 5   0  0.8609148E-04  0.1367523E+04  0.7818609E-02  0.8977669E-01
       -1   -1    0    0    0  501  0.00000000000E+00  0.00000000000E+00  0.34397378628E+03  0.34397378632E+03  0.50400001928E-02 0.  1.
        1   -1    0    0  501    0  0.00000000000E+00  0.00000000000E+00 -0.13592013106E+04  0.13592013106E+04  0.50400001928E-02 0. -1.
    10030    2    1    2    0    0  0.00000000000E+00  0.00000000000E+00 -0.10152275243E+04  0.17031750969E+04  0.13675227547E+04 0.  0.
        5    1    3    3  502    0  0.46084080811E+03  0.46448982359E+03 -0.75477268427E+03  0.99891388095E+03  0.46999998093E+01 0. -1.
       -5    1    3    3    0  502 -0.46084080811E+03 -0.46448982359E+03 -0.26045484006E+03  0.70426121598E+03  0.46999998093E+01 0.  1.
</event>
<event>
 5   0  0.1605214E-03  0.1442788E+04  0.7818609E-02  0.8923416E-01
       -2   -1    0    0    0  501  0.00000000000E+00  0.00000000000E+00  0.30747355731E+03  0.30747355732E+03  0.25500000920E-02 0.  1.
        2   -1    0    0  501    0  0.00000000000E+00  0.00000000000E+00 -0.16925336496E+04  0.16925336496E+04  0.25500000920E-02 0. -1.
    10030    2    1    2    0    0  0.00000000000E+00  0.00000000000E+00 -0.13850600923E+04  0.20000072069E+04  0.14427880539E+04 0.  0.
        5    1    3    3  502    0  0.70306765665E+03 -0.15774775236E+03 -0.64453496199E+03  0.96676568538E+03  0.46999998093E+01 0.  1.
       -5    1    3    3    0  502 -0.70306765665E+03  0.15774775236E+03 -0.74052513029E+03  0.10332415215E+04  0.46999998093E+01 0. -1.
</event>
<event>
 5   0  0.8609148E-04  0.1387648E+04  0.7818609E-02  0.8962808E-01
        1   -1    0    0  501    0  0.00000000000E+00  0.00000000000E+00  0.18875594944E+04  0.18875594944E+04  0.50400001928E-02 0.  1.
       -1   -1    0    0    0  501  0.00000000000E+00  0.00000000000E+00 -0.25503394161E+03  0.25503394166E+03  0.50400001928E-02 0. -1.
    10030    2    1    2    0    0  0.00000000000E+00  0.00000000000E+00  0.16325255527E+04  0.21425934360E+04  0.13876479927E+04 0.  0.
        5    1    3    3  502    0 -0.51094251395E+03  0.19264695715E+02  0.15403800088E+04  0.16230298958E+04  0.46999998093E+01 0.  1.
       -5    1    3    3    0  502  0.51094251395E+03 -0.19264695715E+02  0.92145543910E+02  0.51956354022E+03  0.46999998093E+01 0. -1.
</event>
<event>
 5   0  0.8673728E-04  0.1345586E+04  0.7818609E-02  0.8994176E-01
        1   -1    0    0  501    0  0.00000000000E+00  0.00000000000E+00  0.12914561943E+04  0.12914561943E+04  0.50400001928E-02 0.  1.
       -1   -1    0    0    0  501  0.00000000000E+00  0.00000000000E+00 -0.35049619971E+03  0.35049619975E+03  0.50400001928E-02 0. -1.
    10030    2    1    2    0    0  0.00000000000E+00  0.00000000000E+00  0.94095999454E+03  0.16419523940E+04  0.13455861001E+04 0.  0.
        3    1    3    3  502    0  0.56992581791E+03 -0.34937532848E+03  0.56318629090E+03  0.87410375044E+03  0.10100000352E+00 0. -1.
       -3    1    3    3    0  502 -0.56992581791E+03  0.34937532848E+03  0.37777370364E+03  0.76784864357E+03  0.10100000352E+00 0.  1.
</event>
<event>
 5   0  0.1706986E-03  0.1405043E+04  0.7818609E-02  0.8950176E-01
        2   -1    0    0  501    0  0.00000000000E+00  0.00000000000E+00  0.72598060662E+03  0.72598060662E+03  0.25500000920E-02 0.  1.
       -2   -1    0    0    0  501  0.00000000000E+00  0.00000000000E+00 -0.67982042199E+03  0.67982042200E+03  0.25500000920E-02 0. -1.
    10030    2    1    2    0    0  0.00000000000E+00  0.00000000000E+00  0.46160184627E+02  0.14058010286E+04  0.14050429778E+04 0.  0.
        3    1    3    3  502    0  0.98134315548E+02 -0.30465472426E+03  0.64879065296E+03  0.72344603563E+03  0.10100000352E+00 0.  1.
       -3    1    3    3    0  502 -0.98134315548E+02  0.30465472426E+03 -0.60263046833E+03  0.68235499299E+03  0.10100000352E+00 0. -1.
</event>
<event>
 5   0  0.9639548E-04  0.1397590E+04  0.7818609E-02  0.8955565E-01
        1   -1    0    0  501    0  0.00000000000E+00  0.00000000000E+00  0.62008145843E+03  0.62008145845E+03  0.50400001928E-02 0. -1.
       -1   -1    0    0    0  501  0.00000000000E+00  0.00000000000E+00 -0.78750070851E+03  0.78750070853E+03  0.50400001928E-02 0.  1.
    10030    2    1    2    0    0  0.00000000000E+00  0.00000000000E+00 -0.16741925008E+03  0.14075821670E+04  0.13975901944E+04 0.  0.
        1    1    3    3  502    0 -0.51396734166E+03 -0.34168597350E+03  0.24635716090E+03  0.66453260532E+03  0.50400001928E-02 0. -1.
       -1    1    3    3    0  502  0.51396734166E+03  0.34168597350E+03 -0.41377641098E+03  0.74304956166E+03  0.50400001928E-02 0.  1.
</event>
<event>
 5   0  0.8673728E-04  0.1392883E+04  0.7818609E-02  0.8958987E-01
       -1   -1    0    0    0  501  0.00000000000E+00  0.00000000000E+00  0.78890665072E+03  0.78890665074E+03  0.50400001928E-02 0. -1.
        1   -1    0    0  501    0  0.00000000000E+00  0.00000000000E+00 -0.61481367058E+03  0.61481367060E+03  0.50400001928E-02 0.  1.
    10030    2    1    2    0    0  0.00000000000E+00  0.00000000000E+00  0.17409298014E+03  0.14037203213E+04  0.13928827570E+04 0.  0.
        3    1    3    3  502    0 -0.34666333782E+02  0.69400639945E+03  0.39950166616E+02  0.69601915432E+03  0.10100000352E+00 0.  1.
       -3    1    3    3    0  502  0.34666333782E+02 -0.69400639945E+03  0.13414281352E+03  0.70770116702E+03  0.10100000352E+00 0. -1.
</event>
<event>
 5   0  0.8502300E-04  0.1326814E+04  0.7818609E-02  0.9008568E-01
        1   -1    0    0  501    0  0.00000000000E+00  0.00000000000E+00  0.89236638607E+03  0.89236638608E+03  0.50400001928E-02 0. -1.
       -1   -1    0    0    0  501  0.00000000000E+00  0.00000000000E+00 -0.49319290492E+03  0.49319290494E+03  0.50400001928E-02 0.  1.
    10030    2    1    2    0    0  0.00000000000E+00  0.00000000000E+00  0.39917348115E+03  0.13855592910E+04  0.13268138833E+04 0.  0.
        4    1    3    3  502    0 -0.25852289663E+03 -0.41688304583E+03  0.66599531313E+03  0.82714988485E+03  0.12699999809E+01 0. -1.
       -4    1    3    3    0  502  0.25852289663E+03  0.41688304583E+03 -0.26682183198E+03  0.55840940618E+03  0.12699999809E+01 0.  1.
</event>
<event>
 5   0  0.8609148E-04  0.1488038E+04  0.7818609E-02  0.8892447E-01
        1   -1    0    0  501    0  0.00000000000E+00  0.00000000000E+00  0.86339794805E+03  0.86339794807E+03  0.50400001928E-02 0.  1.
       -1   -1    0    0    0  501  0.00000000000E+00  0.00000000000E+00 -0.64114632166E+03  0.64114632168E+03  0.50400001928E-02 0. -1.
    10030    2    1    2    0    0  0.00000000000E+00  0.00000000000E+00  0.22225162639E+03  0.15045442697E+04  0.14880381965E+04 0.  0.
        5    1    3    3  502    0 -0.65981933841E+03  0.10462716354E+03 -0.21997252015E+03  0.70336221274E+03  0.46999998093E+01 0. -1.
       -5    1    3    3    0  502  0.65981933841E+03 -0.10462716354E+03  0.44222414654E+03  0.80118205701E+03  0.46999998093E+01 0.  1.
</event>
<event>
 5   0  0.1648213E-03  0.1425114E+04  0.7818609E-02  0.8935838E-01
       -2   -1    0    0    0  501  0.00000000000E+00  0.00000000000E+00  0.69745080468E+03  0.69745080469E+03  0.25500000920E-02 0. -1.
        2   -1    0    0  501    0  0.00000000000E+00  0.00000000000E+00 -0.72799066182E+03  0.72799066183E+03  0.25500000920E-02 0.  1.
    10030    2    1    2    0    0  0.00000000000E+00  0.00000000000E+00 -0.30539857139E+02  0.14254414665E+04  0.14251142732E+04 0.  0.
        4    1    3    3  502    0 -0.72328437279E+02  0.21907203008E+02 -0.72396963843E+03  0.72790451204E+03  0.12699999809E+01 0.  1.
       -4    1    3    3    0  502  0.72328437279E+02 -0.21907203008E+02  0.69342978129E+03  0.69753695448E+03  0.12699999809E+01 0. -1.
</event>
<event>
 5   0  0.1648463E-03  0.1416551E+04  0.7818609E-02  0.8941925E-01
       -2   -1    0    0    0  501  0.00000000000E+00  0.00000000000E+00  0.48375533008E+03  0.48375533008E+03  0.25500000920E-02 0.  1.
        2   -1    0    0  501    0  0.00000000000E+00  0.00000000000E+00 -0.10369991784E+04  0.10369991784E+04  0.25500000920E-02 0. -1.
    10030    2    1    2    0    0  0.00000000000E+00  0.00000000000E+00 -0.55324384835E+03  0.15207545085E+04  0.14165505707E+04 0.  0.
        1    1    3    3  502    0 -0.80430168286E+02  0.94816241916E+02 -0.10251914808E+04  0.10327035896E+04  0.50400001928E-02 0. -1.
       -1    1    3    3    0  502  0.80430168286E+02 -0.94816241916E+02  0.47194763241E+03  0.48805091893E+03  0.50400001928E-02 0.  1.
</event>
<event>
 5   0  0.8502300E-04  0.1392574E+04  0.7818609E-02  0.8959211E-01
        1   -1    0    0  501    0  0.00000000000E+00  0.00000000000E+00  0.10799721876E+04  0.10799721876E+04  0.50400001928E-02 0.  1.
       -1   -1    0    0    0  501  0.00000000000E+00  0.00000000000E+00 -0.44891507956E+03  0.44891507959E+03  0.50400001928E-02 0. -1.
    10030    2    1    2    0    0  0.00000000000E+00  0.00000000000E+00  0.63105710804E+03  0.15288872672E+04  0.13925743076E+04 0.  0.
        4    1    3    3  502    0 -0.43702532387E+03 -0.29410333596E+03  0.81542985260E+03  0.97078080087E+03  0.12699999809E+01 0.  1.
       -4    1    3    3    0  502  0.43702532387E+03  0.29410333596E+03 -0.18437274456E+03  0.55810646634E+03  0.12699999809E+01 0. -1.
</event>
<event>
 5   0  0.1578965E-03  0.1399145E+04  0.7818609E-02  0.8954437E-01
        2   -1    0    0  501    0  0.00000000000E+00  0.00000000000E+00  0.88324961310E+03  0.88324961310E+03  0.25500000920E-02 0.  1.
       -2   -1    0    0    0  501  0.00000000000E+00  0.00000000000E+00 -0.55409247089E+03  0.55409247090E+03  0.25500000920E-02 0. -1.
    10030    2    1    2    0    0  0.00000000000E+00  0.00000000000E+00  0.32915714221E+03  0.14373420840E+04  0.13991453971E+04 0.  0.
        2    1    3    3  502    0  0.55327575453E+03  0.37152015555E+03 -0.53974947051E+02  0.66862140367E+03  0.25500000920E-02 0.  1.
       -2    1    3    3    0  502 -0.55327575453E+03 -0.37152015555E+03  0.38313208926E+03  0.76872068032E+03  0.25500000920E-02 0. -1.
</event>
<event>
 5   0  0.8609148E-04  0.1377584E+04  0.7818609E-02  0.8970206E-01
       -1   -1    0    0    0  501  0.00000000000E+00  0.00000000000E+00  0.48299108197E+03  0.48299108200E+03  0.50400001928E-02 0. -1.
        1   -1    0    0  501    0  0.00000000000E+00  0.00000000000E+00 -0.98228465296E+03  0.98228465297E+03  0.50400001928E-02 0.  1.
    10030    2    1    2    0    0  0.00000000000E+00  0.00000000000E+00 -0.49929357098E+03  0.14652757350E+04  0.13775844473E+04 0.  0.
        5    1    3    3  502    0 -0.17456339556E+03 -0.31550339102E+03 -0.87385769430E+03  0.94533810285E+03  0.46999998093E+01 0.  1.
       -5    1    3    3    0  502  0.17456339556E+03  0.31550339102E+03  0.37456412332E+03  0.51993763211E+03  0.46999998093E+01 0. -1.
</event>
<event>
 5   0  0.1578965E-03  0.1400447E+04  0.7818609E-02  0.8953495E-01
       -2   -1    0    0    0  501  0.00000000000E+00  0.00000000000E+00  0.37654433582E+03  0.37654433583E+03  0.25500000920E-02 0.  1.
        2   -1    0    0  501    0  0.00000000000E+00  0.00000000000E+00 -0.13021388407E+04  0.13021388407E+04  0.25500000920E-02 0. -1.
    10030    2    1    2    0    0  0.00000000000E+00  0.00000000000E+00 -0.92559450485E+03  0.16786831765E+04  0.14004470785E+04 0.  0.
        2    1    3    3  502    0  0.33145271460E+02  0.26394542194E+03  0.31361513329E+03  0.41124232105E+03  0.25500000920E-02 0.  1.
       -2    1    3    3    0  502 -0.33145271460E+02 -0.26394542194E+03 -0.12392096381E+04  0.12674408555E+04  0.25500000920E-02 0. -1.
</event>
<event>
 5   0  0.8502300E-04  0.1247301E+04  0.7818609E-02  0.9072432E-01
        1   -1    0    0  501    0  0.00000000000E+00  0.00000000000E+00  0.18109197374E+04  0.18109197375E+04  0.50400001928E-02 0.  1.
       -1   -1    0    0    0  501  0.00000000000E+00  0.00000000000E+00 -0.21477489297E+03  0.21477489302E+03  0.50400001928E-02 0. -1.
    10030    2    1    2    0    0  0.00000000000E+00  0.00000000000E+00  0.15961448445E+04  0.20256946305E+04  0.12473012352E+04 0.  0.
        4    1    3    3  502    0 -0.49977802444E+03 -0.13286320510E+03  0.23195742705E+03  0.56677735121E+03  0.12699999809E+01 0. -1.
       -4    1    3    3    0  502  0.49977802444E+03  0.13286320510E+03  0.13641874174E+04  0.14589172793E+04  0.12699999809E+01 0.  1.
</event>
<event>
 5   0  0.8502300E-04  0.1383331E+04  0.7818609E-02  0.8965973E-01
        1   -1    0    0  501    0  0.00000000000E+00  0.00000000000E+00  0.47253819706E+03  0.47253819709E+03  0.50400001928E-02 0.  1.
       -1   -1    0    0    0  501  0.00000000000E+00  0.00000000000E+00 -0.10124077887E+04  0.10124077887E+04  0.50400001928E-02 0. -1.
    10030    2    1    2    0    0  0.00000000000E+00  0.00000000000E+00 -0.53986959164E+03  0.14849459858E+04  0.13833312708E+04 0.  0.
        4    1    3    3  502    0 -0.19137252538E+03  0.10593943111E+03 -0.97429991069E+03  0.99855322112E+03  0.12699999809E+01 0. -1.
       -4    1    3    3    0  502  0.19137252538E+03 -0.10593943111E+03  0.43443031905E+03  0.48639276469E+03  0.12699999809E+01 0.  1.
</event>
<event>
 5   0  0.9007180E-04  0.1343329E+04  0.7818609E-02  0.8995893E-01
       -1   -1    0    0    0  501  0.00000000000E+00  0.00000000000E+00  0.60205066364E+03  0.60205066366E+03  0.50400001928E-02 0.  1.
        1   -1    0    0  501    0  0.00000000000E+00  0.00000000000E+00 -0.74932788154E+03  0.74932788156E+03  0.50400001928E-02 0. -1.
    10030    2    1    2    0    0  0.00000000000E+00  0.00000000000E+00 -0.14727721790E+03  0.13513785452E+04  0.13433292201E+04 0.  0.
        2    1    3    3  502    0 -0.69294955652E+02  0.64517602788E+02 -0.74258100535E+03  0.74859258710E+03  0.25500000920E-02 0. -1.
       -2    1    3    3    0  502  0.69294955652E+02 -0.64517602788E+02  0.59530378745E+03  0.60278595812E+03  0.25500000920E-02 0.  1.
</event>
<event>
 5   0  0.1578965E-03  0.1397655E+04  0.7818609E-02  0.8955518E-01
       -2   -1    0    0    0  501  0.00000000000E+00  0.00000000000E+00  0.43745685453E+03  0.43745685454E+03  0.25500000920E-02 0.  1.
        2   -1    0    0  501    0  0.00000000000E+00  0.00000000000E+00 -0.11163606722E+04  0.11163606722E+04  0.25500000920E-02 0. -1.
    10030    2    1    2    0    0  0.00000000000E+00  0.00000000000E+00 -0.67890381765E+03  0.15538175267E+04  0.13976546472E+04 0.  0.
        2    1    3    3  502    0  0.41108173540E+03  0.54577450075E+03 -0.50247000933E+03  0.84813566670E+03  0.25500000920E-02 0.  1.
       -2    1    3    3    0  502 -0.41108173540E+03 -0.54577450075E+03 -0.17643380832E+03  0.70568186002E+03  0.25500000920E-02 0. -1.
</event>
<event>
 5   0  0.6048000E-04  0.1369782E+04  0.7818609E-02  0.8975987E-01
        3   -1    0    0  501    0  0.00000000000E+00  0.00000000000E+00  0.10404033823E+04  0.10404033872E+04  0.10100000352E+00 0.  1.
       -3   -1    0    0    0  501  0.00000000000E+00  0.00000000000E+00 -0.45085942669E+03  0.45085943800E+03  0.10100000352E+00 0. -1.
    10030    2    1    2    0    0  0.00000000000E+00  0.00000000000E+00  0.58954395557E+03  0.14912628252E+04  0.13697820039E+04 0.  0.
        4    1    3    3  502    0 -0.42812394989E+03 -0.25623253130E+03  0.80556059792E+03  0.94756251319E+03  0.12699999809E+01 0.  1.
       -4    1    3    3    0  502  0.42812394989E+03  0.25623253130E+03 -0.21601664236E+03  0.54370031198E+03  0.12699999809E+01 0. -1.
</event>
<event>
 5   0  0.1605214E-03  0.1331620E+04  0.7818609E-02  0.9004859E-01
        2   -1    0    0  501    0  0.00000000000E+00  0.00000000000E+00  0.38783421988E+03  0.38783421989E+03  0.25500000920E-02 0. -1.
       -2   -1    0    0    0  501  0.00000000000E+00  0.00000000000E+00 -0.11430222758E+04  0.11430222758E+04  0.25500000920E-02 0.  1.
    10030    2    1    2    0    0  0.00000000000E+00  0.00000000000E+00 -0.75518805590E+03  0.15308564957E+04  0.13316202952E+04 0.  0.
        5    1    3    3  502    0  0.47138201637E+03 -0.41622520820E+03 -0.62903403450E+03  0.88946632081E+03  0.46999998093E+01 0.  1.
       -5    1    3    3    0  502 -0.47138201637E+03  0.41622520820E+03 -0.12615402140E+03  0.64139017487E+03  0.46999998093E+01 0. -1.
</event>
<event>
 5   0  0.1605214E-03  0.1400697E+04  0.7818609E-02  0.8953314E-01
        2   -1    0    0  501    0  0.00000000000E+00  0.00000000000E+00  0.78041216554E+03  0.78041216554E+03  0.25500000920E-02 0.  1.
       -2   -1    0    0    0  501  0.00000000000E+00  0.00000000000E+00 -0.62849886561E+03  0.62849886561E+03  0.25500000920E-02 0. -1.
    10030    2    1    2    0    0  0.00000000000E+00  0.00000000000E+00  0.15191329993E+03  0.14089110312E+04  0.14006971989E+04 0.  0.
        5    1    3    3  502    0  0.63605626632E+03 -0.20351814819E+03  0.28809350890E+03  0.72732879115E+03  0.46999998093E+01 0.  1.
       -5    1    3    3    0  502 -0.63605626632E+03  0.20351814819E+03 -0.13618020897E+03  0.68158224000E+03  0.46999998093E+01 0. -1.
</event>
<event>
 5   0  0.1648213E-03  0.1418499E+04  0.7818609E-02  0.8940536E-01
       -2   -1    0    0    0  501  0.00000000000E+00  0.00000000000E+00  0.70002819726E+03  0.70002819726E+03  0.25500000920E-02 0. -1.
        2   -1    0    0  501    0  0.00000000000E+00  0.00000000000E+00 -0.71859239437E+03  0.71859239437E+03  0.25500000920E-02 0.  1.
    10030    2    1    2    0    0  0.00000000000E+00  0.00000000000E+00 -0.18564197111E+02  0.14186205916E+04  0.14184991201E+04 0.  0.
        4    1    3    3  502    0 -0.24138554400E+03 -0.52564059031E+03 -0.41976616511E+03  0.71468192737E+03  0.12699999809E+01 0.  1.
       -4    1    3    3    0  502  0.24138554400E+03  0.52564059031E+03  0.40120196800E+03  0.70393866427E+03  0.12699999809E+01 0. -1.
</event>
<event>
 5   0  0.8502300E-04  0.1413415E+04  0.7818609E-02  0.8944165E-01
        1   -1    0    0  501    0  0.00000000000E+00  0.00000000000E+00  0.12723442776E+04  0.12723442777E+04  0.50400001928E-02 0. -1.
       -1   -1    0    0    0  501  0.00000000000E+00  0.00000000000E+00 -0.39253199774E+03  0.39253199777E+03  0.50400001928E-02 0.  1.
    10030    2    1    2    0    0  0.00000000000E+00  0.00000000000E+00  0.87981227991E+03  0.16648762754E+04  0.14134154961E+04 0.  0.
        4    1    3    3  502    0 -0.16675569008E+03 -0.54136479155E+03 -0.57823123270E+02  0.56941059367E+03  0.12699999809E+01 0.  1.
       -4    1    3    3    0  502  0.16675569008E+03  0.54136479155E+03  0.93763540318E+03  0.10954656818E+04  0.12699999809E+01 0. -1.
</event>
<event>
 5   0  0.9007180E-04  0.1392520E+04  0.7818609E-02  0.8959251E-01
       -1   -1    0    0    0  501  0.00000000000E+00  0.00000000000E+00  0.22909585470E+03  0.22909585476E+03  0.50400001928E-02 0.  1.
        1   -1    0    0  501    0  0.00000000000E+00  0.00000000000E+00 -0.21160493758E+04  0.21160493758E+04  0.50400001928E-02 0. -1.
    10030    2    1    2    0    0  0.00000000000E+00  0.00000000000E+00 -0.18869535211E+04  0.23451452306E+04  0.13925202195E+04 0.  0.
        2    1    3    3  502    0 -0.51059332482E+03 -0.27085131438E+03 -0.28968057288E+03  0.64651435573E+03  0.25500000920E-02 0.  1.
       -2    1    3    3    0  502  0.51059332482E+03  0.27085131438E+03 -0.15972729482E+04  0.16986308749E+04  0.25500000920E-02 0. -1.
</event>
<event>
 5   0  0.1578965E-03  0.1419677E+04  0.7818609E-02  0.8939697E-01
        2   -1    0    0  501    0  0.00000000000E+00  0.00000000000E+00  0.10573369977E+04  0.10573369977E+04  0.25500000920E-02 0.  1.
       -2   -1    0    0    0  501  0.00000000000E+00  0.00000000000E+00 -0.47654713652E+03  0.47654713653E+03  0.25500000920E-02 0. -1.
    10030    2    1    2    0    0  0.00000000000E+00  0.00000000000E+00  0.58078986120E+03  0.15338841342E+04  0.14196773135E+04 0.  0.
        2    1    3    3  502    0 -0.58823985959E+03  0.31077789529E+03  0.55781752288E+03  0.86819895269E+03  0.25500000920E-02 0.  1.
       -2    1    3    3    0  502  0.58823985959E+03 -0.31077789529E+03  0.22972338316E+02  0.66568518156E+03  0.25500000920E-02 0. -1.
</event>
<event>
 5   0  0.9007180E-04  0.1391400E+04  0.7818609E-02  0.8960067E-01
        1   -1    0    0  501    0  0.00000000000E+00  0.00000000000E+00  0.89789876541E+03  0.89789876543E+03  0.50400001928E-02 0.  1.
       -1   -1    0    0    0  501  0.00000000000E+00  0.00000000000E+00 -0.53903470181E+03  0.53903470183E+03  0.50400001928E-02 0. -1.
    10030    2    1    2    0    0  0.00000000000E+00  0.00000000000E+00  0.35886406360E+03  0.14369334673E+04  0.13914001485E+04 0.  0.
        2    1    3    3  502    0  0.56368879032E+03  0.40647945389E+03  0.21254362037E+03  0.72673612083E+03  0.25500000920E-02 0.  1.
       -2    1    3    3    0  502 -0.56368879032E+03 -0.40647945389E+03  0.14632044323E+03  0.71019734643E+03  0.25500000920E-02 0. -1.
</event>
<event>
 5   0  0.1706986E-03  0.1402299E+04  0.7818609E-02  0.8952156E-01
       -2   -1    0    0    0  501  0.00000000000E+00  0.00000000000E+00  0.35844457571E+03  0.35844457572E+03  0.25500000920E-02 0.  1.
        2   -1    0    0  501    0  0.00000000000E+00  0.00000000000E+00 -0.13715114034E+04  0.13715114034E+04  0.25500000920E-02 0. -1.
    10030    2    1    2    0    0  0.00000000000E+00  0.00000000000E+00 -0.10130668277E+04  0.17299559791E+04  0.14022992877E+04 0.  0.
        3    1    3    3  502    0 -0.16258647701E+03 -0.66032467612E+02 -0.13439820713E+04  0.13553901532E+04  0.10100000352E+00 0. -1.
       -3    1    3    3    0  502  0.16258647701E+03  0.66032467612E+02  0.33091524360E+03  0.37456582590E+03  0.10100000352E+00 0.  1.
</event>
<event>
 5   0  0.1605214E-03  0.1399451E+04  0.7818609E-02  0.8954216E-01
       -2   -1    0    0    0  501  0.00000000000E+00  0.00000000000E+00  0.91655615305E+03  0.91655615305E+03  0.25500000920E-02 0. -1.
        2   -1    0    0  501    0  0.00000000000E+00  0.00000000000E+00 -0.53419064395E+03  0.53419064396E+03  0.25500000920E-02 0.  1.
    10030    2    1    2    0    0  0.00000000000E+00  0.00000000000E+00  0.38236550909E+03  0.14507467970E+04  0.13994509232E+04 0.  0.
        5    1    3    3  502    0  0.22873221111E+03 -0.27238550710E+03 -0.43346605102E+03  0.56073808169E+03  0.46999998093E+01 0.  1.
       -5    1    3    3    0  502 -0.22873221111E+03  0.27238550710E+03  0.81583156011E+03  0.89000871532E+03  0.46999998093E+01 0. -1.
</event>
<event>
 5   0  0.8609148E-04  0.1408537E+04  0.7818609E-02  0.8947662E-01
        1   -1    0    0  501    0  0.00000000000E+00  0.00000000000E+00  0.10061163306E+04  0.10061163306E+04  0.50400001928E-02 0. -1.
       -1   -1    0    0    0  501  0.00000000000E+00  0.00000000000E+00 -0.49297923572E+03  0.49297923575E+03  0.50400001928E-02 0.  1.
    10030    2    1    2    0    0  0.00000000000E+00  0.00000000000E+00  0.51313709486E+03  0.14990955664E+04  0.14085374823E+04 0.  0.
        5    1    3    3  502    0  0.17189598642E+03 -0.20881852005E+03 -0.43548251685E+03  0.51266023538E+03  0.46999998093E+01 0.  1.
       -5    1    3    3    0  502 -0.17189598642E+03  0.20881852005E+03  0.94861961171E+03  0.98643533097E+03  0.46999998093E+01 0. -1.
</event>
<event>
 5   0  0.8673728E-04  0.1383947E+04  0.7818609E-02  0.8965521E-01
        1   -1    0    0  501    0  0.00000000000E+00  0.00000000000E+00  0.10973572933E+04  0.10973572933E+04  0.50400001928E-02 0. -1.
       -1   -1    0    0    0  501  0.00000000000E+00  0.00000000000E+00 -0.43634578465E+03  0.43634578468E+03  0.50400001928E-02 0.  1.
    10030    2    1    2    0    0  0.00000000000E+00  0.00000000000E+00  0.66101150863E+03  0.15337030780E+04  0.13839468620E+04 0.  0.
        3    1    3    3  502    0 -0.11739112855E+03  0.56383247881E+03  0.75560122638E+03  0.95006366351E+03  0.10100000352E+00 0. -1.
       -3    1    3    3    0  502  0.11739112855E+03 -0.56383247881E+03 -0.94589717742E+02  0.58363941447E+03  0.10100000352E+00 0.  1.
</event>
<event>
 5   0  0.1706986E-03  0.1403604E+04  0.7818609E-02  0.8951214E-01
        2   -1    0    0  501    0  0.00000000000E+00  0.00000000000E+00  0.12118796130E+04  0.12118796130E+04  0.25500000920E-02 0.  1.
       -2   -1    0    0    0  501  0.00000000000E+00  0.00000000000E+00 -0.40641473477E+03  0.40641473478E+03  0.25500000920E-02 0. -1.
    10030    2    1    2    0    0  0.00000000000E+00  0.00000000000E+00  0.80546487820E+03  0.16182943477E+04  0.14036035501E+04 0.  0.
        3    1    3    3  502    0 -0.70225946626E+01 -0.45944401948E+03 -0.20886482632E+03  0.50474018044E+03  0.10100000352E+00 0. -1.
       -3    1    3    3    0  502  0.70225946626E+01  0.45944401948E+03  0.10143297045E+04  0.11135541673E+04  0.10100000352E+00 0.  1.
</event>
<event>
 5   0  0.1648463E-03  0.1399366E+04  0.7818609E-02  0.8954277E-01
       -2   -1    0    0    0  501  0.00000000000E+00  0.00000000000E+00  0.39829209228E+03  0.39829209229E+03  0.25500000920E-02 0.  1.
        2   -1    0    0  501    0  0.00000000000E+00  0.00000000000E+00 -0.12291396267E+04  0.12291396267E+04  0.25500000920E-02 0. -1.
    10030    2    1    2    0    0  0.00000000000E+00  0.00000000000E+00 -0.83084753441E+03  0.16274317190E+04  0.13993664190E+04 0.  0.
        1    1    3    3  502    0  0.24875747822E+03  0.65388793357E+03 -0.42744700663E+03  0.81985404564E+03  0.50400001928E-02 0. -1.
       -1    1    3    3    0  502 -0.24875747822E+03 -0.65388793357E+03 -0.40340052778E+03  0.80757767334E+03  0.50400001928E-02 0.  1.
</event>
<event>
 5   0  0.1648463E-03  0.1455368E+04  0.7818609E-02  0.8914687E-01
        2   -1    0    0  501    0  0.00000000000E+00  0.00000000000E+00  0.15445097897E+04  0.15445097897E+04  0.25500000920E-02 0. -1.
       -2   -1    0    0    0  501  0.00000000000E+00  0.00000000000E+00 -0.34284285535E+03  0.34284285536E+03  0.25500000920E-02 0.  1.
    10030    2    1    2    0    0  0.00000000000E+00  0.00000000000E+00  0.12016669344E+04  0.18873526451E+04  0.14553681959E+04 0.  0.
        1    1    3    3  502    0 -0.25421890779E+03  0.66219764171E+03  0.81150679276E+03  0.10778108575E+04  0.50400001928E-02 0. -1.
       -1    1    3    3    0  502  0.25421890779E+03 -0.66219764171E+03  0.39016014161E+03  0.80954178761E+03  0.50400001928E-02 0.  1.
</event>
<event>
 5   0  0.1578965E-03  0.1402576E+04  0.7818609E-02  0.8951956E-01
        2   -1    0    0  501    0  0.00000000000E+00  0.00000000000E+00  0.32227325791E+03  0.32227325792E+03  0.25500000920E-02 0. -1.
       -2   -1    0    0    0  501  0.00000000000E+00  0.00000000000E+00 -0.15260491347E+04  0.15260491347E+04  0.25500000920E-02 0.  1.
    10030    2    1    2    0    0  0.00000000000E+00  0.00000000000E+00 -0.12037758768E+04  0.18483223927E+04  0.14025759536E+04 0.  0.
        2    1    3    3  502    0  0.91530768505E+02  0.55958939667E+03 -0.11456909891E+04  0.12783293851E+04  0.25500000920E-02 0.  1.
       -2    1    3    3    0  502 -0.91530768505E+02 -0.55958939667E+03 -0.58084887765E+02  0.56999300754E+03  0.25500000920E-02 0. -1.
</event>
<event>
 5   0  0.9639548E-04  0.1713371E+04  0.7818609E-02  0.8753775E-01
        1   -1    0    0  501    0  0.00000000000E+00  0.00000000000E+00  0.75584942415E+03  0.75584942416E+03  0.50400001928E-02 0. -1.
       -1   -1    0    0    0  501  0.00000000000E+00  0.00000000000E+00 -0.97097370206E+03  0.97097370207E+03  0.50400001928E-02 0.  1.
    10030    2    1    2    0    0  0.00000000000E+00  0.00000000000E+00 -0.21512427791E+03  0.17268231262E+04  0.17133708455E+04 0.  0.
        1    1    3    3  502    0  0.36808996003E+03 -0.48709730383E+01  0.67207193726E+03  0.76628626109E+03  0.50400001928E-02 0. -1.
       -1    1    3    3    0  502 -0.36808996003E+03  0.48709730383E+01 -0.88719621518E+03  0.96053686514E+03  0.50400001928E-02 0.  1.
</event>
<event>
 5   0  0.1648463E-03  0.1440845E+04  0.7818609E-02  0.8924772E-01
       -2   -1    0    0    0  501  0.00000000000E+00  0.00000000000E+00  0.68235209940E+03  0.68235209941E+03  0.25500000920E-02 0. -1.
        2   -1    0    0  501    0  0.00000000000E+00  0.00000000000E+00 -0.76061708729E+03  0.76061708729E+03  0.25500000920E-02 0.  1.
    10030    2    1    2    0    0  0.00000000000E+00  0.00000000000E+00 -0.78264987886E+02  0.14429691867E+04  0.14408451219E+04 0.  0.
        1    1    3    3  502    0 -0.60759967008E+03 -0.10745200492E+03 -0.41154810778E+03  0.74168398761E+03  0.50400001928E-02 0.  1.
       -1    1    3    3    0  502  0.60759967008E+03  0.10745200492E+03  0.33328311989E+03  0.70128519909E+03  0.50400001928E-02 0. -1.
</event>
<event>
 5   0  0.1648213E-03  0.1480134E+04  0.7818609E-02  0.8897772E-01
       -2   -1    0    0    0  501  0.00000000000E+00  0.00000000000E+00  0.22943721553E+03  0.22943721554E+03  0.25500000920E-02 0. -1.
        2   -1    0    0  501    0  0.00000000000E+00  0.00000000000E+00 -0.23871414696E+04  0.23871414696E+04  0.25500000920E-02 0.  1.
    10030    2    1    2    0    0  0.00000000000E+00  0.00000000000E+00 -0.21577042541E+04  0.26165786852E+04  0.14801339019E+04 0.  0.
        4    1    3    3  502    0 -0.75214505601E+02 -0.57795700971E+03 -0.27260036944E+03  0.64343150471E+03  0.12699999809E+01 0. -1.
       -4    1    3    3    0  502  0.75214505601E+02  0.57795700971E+03 -0.18851038847E+04  0.19731471805E+04  0.12699999809E+01 0.  1.
</event>
<event>
 5   0  0.1706986E-03  0.1377534E+04  0.7818609E-02  0.8970243E-01
        2   -1    0    0  501    0  0.00000000000E+00  0.00000000000E+00  0.16523341955E+04  0.16523341955E+04  0.25500000920E-02 0.  1.
       -2   -1    0    0    0  501  0.00000000000E+00  0.00000000000E+00 -0.28710881350E+03  0.28710881352E+03  0.25500000920E-02 0. -1.
    10030    2    1    2    0    0  0.00000000000E+00  0.00000000000E+00  0.13652253820E+04  0.19394430090E+04  0.13775336081E+04 0.  0.
        3    1    3    3  502    0  0.10097214281E+03  0.22770982876E+03  0.15866974891E+04  0.16061307767E+04  0.10100000352E+00 0.  1.
       -3    1    3    3    0  502 -0.10097214281E+03 -0.22770982876E+03 -0.22147210715E+03  0.33331223227E+03  0.10100000352E+00 0. -1.
</event>
<event>
 5   0  0.8609148E-04  0.1405950E+04  0.7818609E-02  0.8949523E-01
       -1   -1    0    0    0  501  0.00000000000E+00  0.00000000000E+00  0.46029225648E+03  0.46029225651E+03  0.50400001928E-02 0.  1.
        1   -1    0    0  501    0  0.00000000000E+00  0.00000000000E+00 -0.10736089131E+04  0.10736089131E+04  0.50400001928E-02 0. -1.
    10030    2    1    2    0    0  0.00000000000E+00  0.00000000000E+00 -0.61331665658E+03  0.15339011696E+04  0.14059500264E+04 0.  0.
        5    1    3    3  502    0  0.42668810905E+03  0.53929568718E+03 -0.46569554702E+03  0.83054019356E+03  0.46999998093E+01 0. -1.
       -5    1    3    3    0  502 -0.42668810905E+03 -0.53929568718E+03 -0.14762110956E+03  0.70336097603E+03  0.46999998093E+01 0.  1.
</event>
<event>
 5   0  0.9007180E-04  0.1424426E+04  0.7818609E-02  0.8936325E-01
        1   -1    0    0  501    0  0.00000000000E+00  0.00000000000E+00  0.36579991068E+03  0.36579991071E+03  0.50400001928E-02 0.  1.
       -1   -1    0    0    0  501  0.00000000000E+00  0.00000000000E+00 -0.13866796958E+04  0.13866796958E+04  0.50400001928E-02 0. -1.
    10030    2    1    2    0    0  0.00000000000E+00  0.00000000000E+00 -0.10208797851E+04  0.17524796065E+04  0.14244259319E+04 0.  0.
        2    1    3    3  502    0 -0.17001287212E+03 -0.69028730899E+03 -0.45757447408E+03  0.84544387452E+03  0.25500000920E-02 0. -1.
       -2    1    3    3    0  502  0.17001287212E+03  0.69028730899E+03 -0.56330531099E+03  0.90703573195E+03  0.25500000920E-02 0.  1.
</event>
<event>
 5   0  0.1648463E-03  0.1400709E+04  0.7818609E-02  0.8953305E-01
        2   -1    0    0  501    0  0.00000000000E+00  0.00000000000E+00  0.19953981325E+04  0.19953981325E+04  0.25500000920E-02 0. -1.
       -2   -1    0    0    0  501  0.00000000000E+00  0.00000000000E+00 -0.24581394778E+03  0.24581394779E+03  0.25500000920E-02 0.  1.
    10030    2    1    2    0    0  0.00000000000E+00  0.00000000000E+00  0.17495841847E+04  0.22412120803E+04  0.14007093808E+04 0.  0.
        1    1    3    3  502    0  0.17906330547E+03 -0.16511538831E+03  0.19254447222E+04  0.19407895654E+04  0.50400001928E-02 0. -1.
       -1    1    3    3    0  502 -0.17906330547E+03  0.16511538831E+03 -0.17586053745E+03  0.30042251494E+03  0.50400001928E-02 0.  1.
</event>
<event>
 5   0  0.1648213E-03  0.1403805E+04  0.7818609E-02  0.8951069E-01
       -2   -1    0    0    0  501  0.00000000000E+00  0.00000000000E+00  0.57753242298E+03  0.57753242298E+03  0.25500000920E-02 0. -1.
        2   -1    0    0  501    0  0.00000000000E+00  0.00000000000E+00 -0.85305592757E+03  0.85305592757E+03  0.25500000920E-02 0.  1.
    10030    2    1    2    0    0  0.00000000000E+00  0.00000000000E+00 -0.27552350459E+03  0.14305883506E+04  0.14038054805E+04 0.  0.
        4    1    3    3  502    0 -0.63378872822E+03  0.22129992801E+03 -0.34662077904E+03  0.75551928335E+03  0.12699999809E+01 0.  1.
       -4    1    3    3    0  502  0.63378872822E+03 -0.22129992801E+03  0.71097274445E+02  0.67506906720E+03  0.12699999809E+01 0. -1.
</event>
<event>
 5   0  0.1706986E-03  0.1671325E+04  0.7818609E-02  0.8777890E-01
        2   -1    0    0  501    0  0.00000000000E+00  0.00000000000E+00  0.91189756086E+03  0.91189756087E+03  0.25500000920E-02 0.  1.
       -2   -1    0    0    0  501  0.00000000000E+00  0.00000000000E+00 -0.76580075923E+03  0.76580075923E+03  0.25500000920E-02 0. -1.
    10030    2    1    2    0    0  0.00000000000E+00  0.00000000000E+00  0.14609680164E+03  0.16776983201E+04  0.16713250366E+04 0.  0.
        3    1    3    3  502    0  0.57397849469E+03  0.27098101343E+03 -0.47257728866E+03  0.79133515400E+03  0.10100000352E+00 0. -1.
       -3    1    3    3    0  502 -0.57397849469E+03 -0.27098101343E+03  0.61867409029E+03  0.88636316609E+03  0.10100000352E+00 0.  1.
</event>
<event>
 5   0  0.8673728E-04  0.1398022E+04  0.7818609E-02  0.8955252E-01
       -1   -1    0    0    0  501  0.00000000000E+00  0.00000000000E+00  0.71531686752E+03  0.71531686754E+03  0.50400001928E-02 0. -1.
        1   -1    0    0  501    0  0.00000000000E+00  0.00000000000E+00 -0.68307643653E+03  0.68307643655E+03  0.50400001928E-02 0.  1.
    10030    2    1    2    0    0  0.00000000000E+00  0.00000000000E+00  0.32240430990E+02  0.13983933041E+04  0.13980215977E+04 0.  0.
        3    1    3    3  502    0  0.54037044565E+03  0.21337790097E+03  0.40492105352E+03  0.70816058698E+03  0.10100000352E+00 0. -1.
       -3    1    3    3    0  502 -0.54037044565E+03 -0.21337790097E+03 -0.37268062253E+03  0.69023271711E+03  0.10100000352E+00 0.  1.
</event>
<event>
 5   0  0.1578965E-03  0.1339052E+04  0.7818609E-02  0.8999157E-01
        2   -1    0    0  501    0  0.00000000000E+00  0.00000000000E+00  0.11912420764E+04  0.11912420764E+04  0.25500000920E-02 0.  1.
       -2   -1    0    0    0  501  0.00000000000E+00  0.00000000000E+00 -0.37630037900E+03  0.37630037901E+03  0.25500000920E-02 0. -1.
    10030    2    1    2    0    0  0.00000000000E+00  0.00000000000E+00  0.81494169744E+03  0.15675424555E+04  0.13390516717E+04 0.  0.
        2    1    3    3  502    0  0.50529557689E+03 -0.81942579814E+02  0.91264704445E+03  0.10464047181E+04  0.25500000920E-02 0.  1.
       -2    1    3    3    0  502 -0.50529557689E+03  0.81942579814E+02 -0.97705347016E+02  0.52113773731E+03  0.25500000920E-02 0. -1.
</event>
<event>
 5   0  0.9639548E-04  0.1417752E+04  0.7818609E-02  0.8941068E-01
        1   -1    0    0  501    0  0.00000000000E+00  0.00000000000E+00  0.18736752220E+04  0.18736752220E+04  0.50400001928E-02 0.  1.
       -1   -1    0    0    0  501  0.00000000000E+00  0.00000000000E+00 -0.26819238299E+03  0.26819238304E+03  0.50400001928E-02 0. -1.
    10030    2    1    2    0    0  0.00000000000E+00  0.00000000000E+00  0.16054828391E+04  0.21418676051E+04  0.14177523378E+04 0.  0.
        1    1    3    3  502    0 -0.43741601891E+03 -0.38163864958E+03  0.18809761115E+03  0.61021434251E+03  0.50400001928E-02 0. -1.
       -1    1    3    3    0  502  0.43741601891E+03  0.38163864958E+03  0.14173852279E+04  0.15316532626E+04  0.50400001928E-02 0.  1.
</event>
<event>
 5   0  0.9007180E-04  0.1395641E+04  0.7818609E-02  0.8956980E-01
       -1   -1    0    0    0  501  0.00000000000E+00  0.00000000000E+00  0.33069757261E+03  0.33069757264E+03  0.50400001928E-02 0.  1.
        1   -1    0    0  501    0  0.00000000000E+00  0.00000000000E+00 -0.14725043152E+04  0.14725043152E+04  0.50400001928E-02 0. -1.
    10030    2    1    2    0    0  0.00000000000E+00  0.00000000000E+00 -0.11418067426E+04  0.18032018879E+04  0.13956412186E+04 0.  0.
        2    1    3    3  502    0  0.27966244321E+03 -0.25772207590E+02  0.25445455071E+03  0.37897547046E+03  0.25500000920E-02 0.  1.
       -2    1    3    3    0  502 -0.27966244321E+03  0.25772207590E+02 -0.13962612933E+04  0.14242264174E+04  0.25500000920E-02 0. -1.
</event>
<event>
 5   0  0.1605214E-03  0.1392924E+04  0.7818609E-02  0.8958956E-01
       -2   -1    0    0    0  501  0.00000000000E+00  0.00000000000E+00  0.36592464080E+03  0.36592464081E+03  0.25500000920E-02 0. -1.
        2   -1    0    0  501    0  0.00000000000E+00  0.00000000000E+00 -0.13255718945E+04  0.13255718945E+04  0.25500000920E-02 0.  1.
    10030    2    1    2    0    0  0.00000000000E+00  0.00000000000E+00 -0.95964725373E+03  0.16914965353E+04  0.13929241464E+04 0.  0.
        5    1    3    3  502    0 -0.35360091685E+03  0.59413107332E+03 -0.37813690453E+03  0.78805770681E+03  0.46999998093E+01 0.  1.
       -5    1    3    3    0  502  0.35360091685E+03 -0.59413107332E+03 -0.58151034920E+03  0.90343882854E+03  0.46999998093E+01 0. -1.
</event>
<event>
 5   0  0.9639548E-04  0.1388462E+04  0.7818609E-02  0.8962213E-01
        1   -1    0    0  501    0  0.00000000000E+00  0.00000000000E+00  0.85574050491E+03  0.85574050493E+03  0.50400001928E-02 0. -1.
       -1   -1    0    0    0  501  0.00000000000E+00  0.00000000000E+00 -0.56320442202E+03  0.56320442204E+03  0.50400001928E-02 0.  1.
    10030    2    1    2    0    0  0.00000000000E+00  0.00000000000E+00  0.29253608289E+03  0.14189449270E+04  0.13884622235E+04 0.  0.
        1    1    3    3  502    0  0.93011245318E+02  0.54293549876E+03 -0.28553248574E+03  0.62045052020E+03  0.50400001928E-02 0.  1.
       -1    1    3    3    0  502 -0.93011245318E+02 -0.54293549876E+03  0.57806856864E+03  0.79849440677E+03  0.50400001928E-02 0. -1.
</event>
<event>
 5   0  0.1648213E-03  0.1325853E+04  0.7818609E-02  0.9009311E-01
        2   -1    0    0  501    0  0.00000000000E+00  0.00000000000E+00  0.57483723608E+03  0.57483723609E+03  0.25500000920E-02 0. -1.
       -2   -1    0    0    0  501  0.00000000000E+00  0.00000000000E+00 -0.76451450218E+03  0.76451450219E+03  0.25500000920E-02 0.  1.
    10030    2    1    2    0    0  0.00000000000E+00  0.00000000000E+00 -0.18967726610E+03  0.13393517383E+04  0.13258527873E+04 0.  0.
        4    1    3    3  502    0 -0.41994543335E+03 -0.10251494569E+03 -0.60255531905E+03  0.74157805152E+03  0.12699999809E+01 0.  1.
       -4    1    3    3    0  502  0.41994543335E+03  0.10251494569E+03  0.41287805295E+03  0.59777368676E+03  0.12699999809E+01 0. -1.
</event>
<event>
 5   0  0.6048000E-04  0.1409449E+04  0.7818609E-02  0.8947007E-01
        3   -1    0    0  501    0  0.00000000000E+00  0.00000000000E+00  0.28364863615E+03  0.28364865413E+03  0.10100000352E+00 0.  1.
       -3   -1    0    0    0  501  0.00000000000E+00  0.00000000000E+00 -0.17508857436E+04  0.17508857465E+04  0.10100000352E+00 0. -1.
    10030    2    1    2    0    0  0.00000000000E+00  0.00000000000E+00 -0.14672371074E+04  0.20345344006E+04  0.14094486503E+04 0.  0.
        4    1    3    3  502    0  0.31040193483E+03 -0.38184019149E+03 -0.14618099899E+04  0.15424141313E+04  0.12699999809E+01 0. -1.
       -4    1    3    3    0  502 -0.31040193483E+03  0.38184019149E+03 -0.54271175440E+01  0.49212026933E+03  0.12699999809E+01 0.  1.
</event>
<event>
 5   0  0.1706986E-03  0.1385739E+04  0.7818609E-02  0.8964206E-01
        2   -1    0    0  501    0  0.00000000000E+00  0.00000000000E+00  0.78031868976E+03  0.78031868976E+03  0.25500000920E-02 0. -1.
       -2   -1    0    0    0  501  0.00000000000E+00  0.00000000000E+00 -0.61522083315E+03  0.61522083315E+03  0.25500000920E-02 0.  1.
    10030    2    1    2    0    0  0.00000000000E+00  0.00000000000E+00  0.16509785661E+03  0.13955395229E+04  0.13857392459E+04 0.  0.
        3    1    3    3  502    0  0.67686494382E+03  0.14551255929E+03  0.11009648962E+03  0.70102874714E+03  0.10100000352E+00 0. -1.
       -3    1    3    3    0  502 -0.67686494382E+03 -0.14551255929E+03  0.55001366988E+02  0.69451077577E+03  0.10100000352E+00 0.  1.
</event>
<event>
 5   0  0.1605214E-03  0.1418891E+04  0.7818609E-02  0.8940257E-01
        2   -1    0    0  501    0  0.00000000000E+00  0.00000000000E+00  0.19343153102E+04  0.19343153102E+04  0.25500000920E-02 0.  1.
       -2   -1    0    0    0  501  0.00000000000E+00  0.00000000000E+00 -0.26020215743E+03  0.26020215744E+03  0.25500000920E-02 0. -1.
    10030    2    1    2    0    0  0.00000000000E+00  0.00000000000E+00  0.16741131528E+04  0.21945174677E+04  0.14188911401E+04 0.  0.
        5    1    3    3  502    0  0.57847801423E+03 -0.59588369659E+02  0.20861067982E+03  0.61784147843E+03  0.46999998093E+01 0. -1.
       -5    1    3    3    0  502 -0.57847801423E+03  0.59588369659E+02  0.14655024730E+04  0.15766759892E+04  0.46999998093E+01 0.  1.
</event>
<event>
 5   0  0.8673728E-04  0.1468170E+04  0.7818609E-02  0.8905900E-01
        1   -1    0    0  501    0  0.00000000000E+00  0.00000000000E+00  0.42931600146E+03  0.42931600149E+03  0.50400001928E-02 0. -1.
       -1   -1    0    0    0  501  0.00000000000E+00  0.00000000000E+00 -0.12552074661E+04  0.12552074661E+04  0.50400001928E-02 0.  1.
    10030    2    1    2    0    0  0.00000000000E+00  0.00000000000E+00 -0.82589146459E+03  0.16845234676E+04  0.14681698136E+04 0.  0.
        3    1    3    3  502    0  0.71240901353E+03  0.17327573065E+03 -0.45478215530E+03  0.86277337718E+03  0.10100000352E+00 0. -1.
       -3    1    3    3    0  502 -0.71240901353E+03 -0.17327573065E+03 -0.37110930930E+03  0.82175009038E+03  0.10100000352E+00 0.  1.
</event>
<event>
 5   0  0.1578965E-03  0.1396361E+04  0.7818609E-02  0.8956457E-01
       -2   -1    0    0    0  501  0.00000000000E+00  0.00000000000E+00  0.12477550505E+04  0.12477550505E+04  0.25500000920E-02 0.  1.
        2   -1    0    0  501    0  0.00000000000E+00  0.00000000000E+00 -0.39066667892E+03  0.39066667893E+03  0.25500000920E-02 0. -1.
    10030    2    1    2    0    0  0.00000000000E+00  0.00000000000E+00  0.85708837154E+03  0.16384217294E+04  0.13963614456E+04 0.  0.
        2    1    3    3  502    0  0.60390115484E+03 -0.74716977122E+02  0.83019551127E+03  0.10293220188E+04  0.25500000920E-02 0.  1.
       -2    1    3    3    0  502 -0.60390115484E+03  0.74716977122E+02  0.26892860279E+02  0.60909971058E+03  0.25500000920E-02 0. -1.
</event>
<event>
 5   0  0.1648213E-03  0.1358921E+04  0.7818609E-02  0.8984102E-01
        2   -1    0    0  501    0  0.00000000000E+00  0.00000000000E+00  0.21522577019E+04  0.21522577019E+04  0.25500000920E-02 0.  1.
       -2   -1    0    0    0  501  0.00000000000E+00  0.00000000000E+00 -0.21450337257E+03  0.21450337258E+03  0.25500000920E-02 0. -1.
    10030    2    1    2    0    0  0.00000000000E+00  0.00000000000E+00  0.19377543294E+04  0.23667610745E+04  0.13589209480E+04 0.  0.
        4    1    3    3  502    0  0.65763097419E+03  0.97531273272E+02  0.12131681210E+04  0.13833905270E+04  0.12699999809E+01 0.  1.
       -4    1    3    3    0  502 -0.65763097419E+03 -0.97531273272E+02  0.72458620838E+03  0.98337054753E+03  0.12699999809E+01 0. -1.
</event>
<event>
 5   0  0.1648213E-03  0.1378744E+04  0.7818609E-02  0.8969350E-01
        2   -1    0    0  501    0  0.00000000000E+00  0.00000000000E+00  0.48758685157E+03  0.48758685158E+03  0.25500000920E-02 0. -1.
       -2   -1    0    0    0  501  0.00000000000E+00  0.00000000000E+00 -0.97466532946E+03  0.97466532946E+03  0.25500000920E-02 0.  1.
    10030    2    1    2    0    0  0.00000000000E+00  0.00000000000E+00 -0.48707847789E+03  0.14622521810E+04  0.13787443553E+04 0.  0.
        4    1    3    3  502    0  0.16996850912E+03  0.41083353268E+03  0.31520892600E+03  0.54500620694E+03  0.12699999809E+01 0. -1.
       -4    1    3    3    0  502 -0.16996850912E+03 -0.41083353268E+03 -0.80228740389E+03  0.91724597410E+03  0.12699999809E+01 0.  1.
</event>
<event>
 5   0  0.8502300E-04  0.1409068E+04  0.7818609E-02  0.8947281E-01
        1   -1    0    0  501    0  0.00000000000E+00  0.00000000000E+00  0.62027136235E+03  0.62027136237E+03  0.50400001928E-02 0. -1.
       -1   -1    0    0    0  501  0.00000000000E+00  0.00000000000E+00 -0.80024349413E+03  0.80024349414E+03  0.50400001928E-02 0.  1.
    10030    2    1    2    0    0  0.00000000000E+00  0.00000000000E+00 -0.17997213178E+03  0.14205148565E+04  0.14090679506E+04 0.  0.
        4    1    3    3  502    0  0.52639202719E+03  0.42039165380E+03  0.11796325395E+03  0.68391128888E+03  0.12699999809E+01 0. -1.
       -4    1    3    3    0  502 -0.52639202719E+03 -0.42039165380E+03 -0.29793538573E+03  0.73660356763E+03  0.12699999809E+01 0.  1.
</event>
<event>
 5   0  0.8609148E-04  0.1390188E+04  0.7818609E-02  0.8960952E-01
        1   -1    0    0  501    0  0.00000000000E+00  0.00000000000E+00  0.63514504519E+03  0.63514504521E+03  0.50400001928E-02 0. -1.
       -1   -1    0    0    0  501  0.00000000000E+00  0.00000000000E+00 -0.76070140043E+03  0.76070140044E+03  0.50400001928E-02 0.  1.
    10030    2    1    2    0    0  0.00000000000E+00  0.00000000000E+00 -0.12555635524E+03  0.13958464457E+04  0.13901880813E+04 0.  0.
        5    1    3    3  502    0  0.89535181083E+02  0.58877931627E+03  0.29708821236E+03  0.66555324944E+03  0.46999998093E+01 0. -1.
       -5    1    3    3    0  502 -0.89535181083E+02 -0.58877931627E+03 -0.42264456760E+03  0.73029319621E+03  0.46999998093E+01 0.  1.
</event>
<event>
 5   0  0.9639548E-04  0.1367419E+04  0.7818609E-02  0.8977746E-01
       -1   -1    0    0    0  501  0.00000000000E+00  0.00000000000E+00  0.17965312684E+03  0.17965312691E+03  0.50400001928E-02 0.  1.
        1   -1    0    0  501    0  0.00000000000E+00  0.00000000000E+00 -0.26020064483E+04  0.26020064483E+04  0.50400001928E-02 0. -1.
    10030    2    1    2    0    0  0.00000000000E+00  0.00000000000E+00 -0.24223533215E+04  0.27816595752E+04  0.13674188745E+04 0.  0.
        1    1    3    3  502    0  0.49910367667E+03  0.68060129939E+02 -0.21516077026E+04  0.22097855930E+04  0.50400001928E-02 0. -1.
       -1    1    3    3    0  502 -0.49910367667E+03 -0.68060129939E+02 -0.27074561891E+03  0.57187398222E+03  0.50400001928E-02 0.  1.
</event>
<event>
 5   0  0.8502300E-04  0.1387067E+04  0.7818609E-02  0.8963234E-01
        1   -1    0    0  501    0  0.00000000000E+00  0.00000000000E+00  0.69775825695E+03  0.69775825697E+03  0.50400001928E-02 0. -1.
       -1   -1    0    0    0  501  0.00000000000E+00  0.00000000000E+00 -0.68933412888E+03  0.68933412890E+03  0.50400001928E-02 0.  1.
    10030    2    1    2    0    0  0.00000000000E+00  0.00000000000E+00  0.84241280721E+01  0.13870923859E+04  0.13870668048E+04 0.  0.
        4    1    3    3  502    0  0.50741744767E+03  0.44688696869E+03  0.15850858534E+03  0.69448327086E+03  0.12699999809E+01 0.  1.
       -4    1    3    3    0  502 -0.50741744767E+03 -0.44688696869E+03 -0.15008445727E+03  0.69260911501E+03  0.12699999809E+01 0. -1.
</event>
<event>
 5   0  0.9639548E-04  0.1404373E+04  0.7818609E-02  0.8950659E-01
       -1   -1    0    0    0  501  0.00000000000E+00  0.00000000000E+00  0.45804660542E+03  0.45804660545E+03  0.50400001928E-02 0.  1.
        1   -1    0    0  501    0  0.00000000000E+00  0.00000000000E+00 -0.10764535640E+04  0.10764535640E+04  0.50400001928E-02 0. -1.
    10030    2    1    2    0    0  0.00000000000E+00  0.00000000000E+00 -0.61840695853E+03  0.15345001694E+04  0.14043730286E+04 0.  0.
        1    1    3    3  502    0  0.28573484596E+03 -0.19134220800E+03  0.35974065085E+03  0.49766412233E+03  0.50400001928E-02 0.  1.
       -1    1    3    3    0  502 -0.28573484596E+03  0.19134220800E+03 -0.97814760938E+03  0.10368360471E+04  0.50400001928E-02 0. -1.
</event>
<event>
 5   0  0.1578965E-03  0.1389036E+04  0.7818609E-02  0.8961793E-01
       -2   -1    0    0    0  501  0.00000000000E+00  0.00000000000E+00  0.95406525417E+03  0.95406525417E+03  0.25500000920E-02 0. -1.
        2   -1    0    0  501    0  0.00000000000E+00  0.00000000000E+00 -0.50557895060E+03  0.50557895061E+03  0.25500000920E-02 0.  1.
    10030    2    1    2    0    0  0.00000000000E+00  0.00000000000E+00  0.44848630356E+03  0.14596442048E+04  0.13890360831E+04 0.  0.
        2    1    3    3  502    0 -0.43309995562E+03 -0.26484938826E+03  0.72229177859E+03  0.88285116721E+03  0.25500000920E-02 0. -1.
       -2    1    3    3    0  502  0.43309995562E+03  0.26484938826E+03 -0.27380547503E+03  0.57679303756E+03  0.25500000920E-02 0.  1.
</event>
<event>
 5   0  0.8502300E-04  0.1223438E+04  0.7818609E-02  0.9092585E-01
       -1   -1    0    0    0  501  0.00000000000E+00  0.00000000000E+00  0.36319079834E+03  0.36319079838E+03  0.50400001928E-02 0.  1.
        1   -1    0    0  501    0  0.00000000000E+00  0.00000000000E+00 -0.10303121508E+04  0.10303121509E+04  0.50400001928E-02 0. -1.
    10030    2    1    2    0    0  0.00000000000E+00  0.00000000000E+00 -0.66712135250E+03  0.13935029492E+04  0.12234376039E+04 0.  0.
        4    1    3    3  502    0  0.34463164924E+03 -0.23004423421E+03  0.17900089282E+03  0.45136931207E+03  0.12699999809E+01 0. -1.
       -4    1    3    3    0  502 -0.34463164924E+03  0.23004423421E+03 -0.84612224532E+03  0.94213363716E+03  0.12699999809E+01 0.  1.
</event>
<event>
 5   0  0.1578965E-03  0.1398114E+04  0.7818609E-02  0.8955185E-01
       -2   -1    0    0    0  501  0.00000000000E+00  0.00000000000E+00  0.80481561958E+03  0.80481561958E+03  0.25500000920E-02 0.  1.
        2   -1    0    0  501    0  0.00000000000E+00  0.00000000000E+00 -0.60719619030E+03  0.60719619031E+03  0.25500000920E-02 0. -1.
    10030    2    1    2    0    0  0.00000000000E+00  0.00000000000E+00  0.19761942928E+03  0.14120118099E+04  0.13981144132E+04 0.  0.
        2    1    3    3  502    0 -0.68832838609E+03  0.11562518447E+00 -0.24407106782E+02  0.68876097983E+03  0.25500000920E-02 0. -1.
       -2    1    3    3    0  502  0.68832838609E+03 -0.11562518447E+00  0.22202653606E+03  0.72325083006E+03  0.25500000920E-02 0.  1.
</event>
<event>
 5   0  0.9639548E-04  0.1393862E+04  0.7818609E-02  0.8958273E-01
        1   -1    0    0  501    0  0.00000000000E+00  0.00000000000E+00  0.10281539404E+04  0.10281539404E+04  0.50400001928E-02 0.  1.
       -1   -1    0    0    0  501  0.00000000000E+00  0.00000000000E+00 -0.47241269650E+03  0.47241269652E+03  0.50400001928E-02 0. -1.
    10030    2    1    2    0    0  0.00000000000E+00  0.00000000000E+00  0.55574124387E+03  0.15005666369E+04  0.13938622248E+04 0.  0.
        1    1    3    3  502    0 -0.18547667988E+03 -0.22599085954E+03  0.95894636971E+03  0.10025226219E+04  0.50400001928E-02 0.  1.
       -1    1    3    3    0  502  0.18547667988E+03  0.22599085954E+03 -0.40320512584E+03  0.49804401502E+03  0.50400001928E-02 0. -1.
</event>
<event>
 5   0  0.8673728E-04  0.1378437E+04  0.7818609E-02  0.8969577E-01
        1   -1    0    0  501    0  0.00000000000E+00  0.00000000000E+00  0.63997231808E+03  0.63997231809E+03  0.50400001928E-02 0. -1.
       -1   -1    0    0    0  501  0.00000000000E+00  0.00000000000E+00 -0.74225402695E+03  0.74225402697E+03  0.50400001928E-02 0.  1.
    10030    2    1    2    0    0  0.00000000000E+00  0.00000000000E+00 -0.10228170888E+03  0.13822263451E+04  0.13784368397E+04 0.  0.
        3    1    3    3  502    0 -0.38576208519E+03  0.37596441525E+03 -0.48227679664E+03  0.72301628383E+03  0.10100000352E+00 0.  1.
       -3    1    3    3    0  502  0.38576208519E+03 -0.37596441525E+03  0.37999508776E+03  0.65921006123E+03  0.10100000352E+00 0. -1.
</event>
<event>
 5   0  0.1578965E-03  0.1374281E+04  0.7818609E-02  0.8972649E-01
        2   -1    0    0  501    0  0.00000000000E+00  0.00000000000E+00  0.10540291138E+04  0.10540291138E+04  0.25500000920E-02 0. -1.
       -2   -1    0    0    0  501  0.00000000000E+00  0.00000000000E+00 -0.44795890299E+03  0.44795890300E+03  0.25500000920E-02 0.  1.
    10030    2    1    2    0    0  0.00000000000E+00  0.00000000000E+00  0.60607021083E+03  0.15019880168E+04  0.13742805035E+04 0.  0.
        2    1    3    3  502    0 -0.33168113590E+03  0.11618510172E+02 -0.35455304904E+03  0.48564928732E+03  0.25500000920E-02 0.  1.
       -2    1    3    3    0  502  0.33168113590E+03 -0.11618510172E+02  0.96062325987E+03  0.10163387295E+04  0.25500000920E-02 0. -1.
</event>
<event>
 5   0  0.1706986E-03  0.1406151E+04  0.7818609E-02  0.8949378E-01
        2   -1    0    0  501    0  0.00000000000E+00  0.00000000000E+00  0.26009317690E+03  0.26009317692E+03  0.25500000920E-02 0. -1.
       -2   -1    0    0    0  501  0.00000000000E+00  0.00000000000E+00 -0.19005318243E+04  0.19005318243E+04  0.25500000920E-02 0.  1.
    10030    2    1    2    0    0  0.00000000000E+00  0.00000000000E+00 -0.16404386474E+04  0.21606250013E+04  0.14061512863E+04 0.  0.
        3    1    3    3  502    0  0.57719246473E+03 -0.17227402778E+03 -0.13773882496E+04  0.15033389114E+04  0.10100000352E+00 0.  1.
       -3    1    3    3    0  502 -0.57719246473E+03  0.17227402778E+03 -0.26305039781E+03  0.65728608990E+03  0.10100000352E+00 0. -1.
</event>
<event>
 5   0  0.1605214E-03  0.1423229E+04  0.7818609E-02  0.8937174E-01
       -2   -1    0    0    0  501  0.00000000000E+00  0.00000000000E+00  0.41534545828E+03  0.41534545829E+03  0.25500000920E-02 0.  1.
        2   -1    0    0  501    0  0.00000000000E+00  0.00000000000E+00 -0.12192139976E+04  0.12192139976E+04  0.25500000920E-02 0. -1.
    10030    2    1    2    0    0  0.00000000000E+00  0.00000000000E+00 -0.80386853935E+03  0.16345594559E+04  0.14232287189E+04 0.  0.
        5    1    3    3  502    0 -0.25207925770E+03 -0.60665930159E+03 -0.87841603588E+02  0.66281045381E+03  0.46999998093E+01 0.  1.
       -5    1    3    3    0  502  0.25207925770E+03  0.60665930159E+03 -0.71602693576E+03  0.97174900211E+03  0.46999998093E+01 0. -1.
</event>
<event>
 5   0  0.8502300E-04  0.1271007E+04  0.7818609E-02  0.9052878E-01
        1   -1    0    0  501    0  0.00000000000E+00  0.00000000000E+00  0.64210418675E+03  0.64210418677E+03  0.50400001928E-02 0. -1.
       -1   -1    0    0    0  501  0.00000000000E+00  0.00000000000E+00 -0.62897030574E+03  0.62897030576E+03  0.50400001928E-02 0.  1.
    10030    2    1    2    0    0  0.00000000000E+00  0.00000000000E+00  0.13133881012E+02  0.12710744925E+04  0.12710066352E+04 0.  0.
        4    1    3    3  502    0 -0.16303846582E+03  0.43632414321E+03  0.43891230243E+03  0.64000462608E+03  0.12699999809E+01 0. -1.
       -4    1    3    3    0  502  0.16303846582E+03 -0.43632414321E+03 -0.42577842142E+03  0.63106986644E+03  0.12699999809E+01 0.  1.
</event>
<event>
 5   0  0.9639548E-04  0.1376096E+04  0.7818609E-02  0.8971306E-01
        1   -1    0    0  501    0  0.00000000000E+00  0.00000000000E+00  0.19429068804E+04  0.19429068804E+04  0.50400001928E-02 0. -1.
       -1   -1    0    0    0  501  0.00000000000E+00  0.00000000000E+00 -0.24366071669E+03  0.24366071674E+03  0.50400001928E-02 0.  1.
    10030    2    1    2    0    0  0.00000000000E+00  0.00000000000E+00  0.16992461637E+04  0.21865675972E+04  0.13760960475E+04 0.  0.
        1    1    3    3  502    0 -0.67939912681E+03 -0.78448859099E+02  0.96929948607E+03  0.11862878617E+04  0.50400001928E-02 0. -1.
       -1    1    3    3    0  502  0.67939912681E+03  0.78448859099E+02  0.72994667766E+03  0.10002797355E+04  0.50400001928E-02 0.  1.
</event>
<event>
 5   0  0.8609148E-04  0.1418687E+04  0.7818609E-02  0.8940402E-01
       -1   -1    0    0    0  501  0.00000000000E+00  0.00000000000E+00  0.71738272419E+03  0.71738272421E+03  0.50400001928E-02 0.  1.
        1   -1    0    0  501    0  0.00000000000E+00  0.00000000000E+00 -0.70139409962E+03  0.70139409963E+03  0.50400001928E-02 0. -1.
    10030    2    1    2    0    0  0.00000000000E+00  0.00000000000E+00  0.15988624575E+02  0.14187768238E+04  0.14186867307E+04 0.  0.
        5    1    3    3  502    0  0.72221453326E+01  0.50554814188E+03  0.50553453626E+03  0.71499534299E+03  0.46999998093E+01 0.  1.
       -5    1    3    3    0  502 -0.72221453326E+01 -0.50554814188E+03 -0.48954591169E+03  0.70378148085E+03  0.46999998093E+01 0. -1.
</event>
<event>
 5   0  0.1706986E-03  0.1393282E+04  0.7818609E-02  0.8958695E-01
        2   -1    0    0  501    0  0.00000000000E+00  0.00000000000E+00  0.13000298516E+04  0.13000298516E+04  0.25500000920E-02 0.  1.
       -2   -1    0    0    0  501  0.00000000000E+00  0.00000000000E+00 -0.37330605343E+03  0.37330605344E+03  0.25500000920E-02 0. -1.
    10030    2    1    2    0    0  0.00000000000E+00  0.00000000000E+00  0.92672379815E+03  0.16733359050E+04  0.13932824742E+04 0.  0.
        3    1    3    3  502    0 -0.50548927250E+03  0.44343828404E+03  0.24468677069E+03  0.71556169707E+03  0.10100000352E+00 0. -1.
       -3    1    3    3    0  502  0.50548927250E+03 -0.44343828404E+03  0.68203702747E+03  0.95777420795E+03  0.10100000352E+00 0.  1.
</event>
<event>
 5   0  0.1578965E-03  0.1383258E+04  0.7818609E-02  0.8966028E-01
       -2   -1    0    0    0  501  0.00000000000E+00  0.00000000000E+00  0.65769994852E+03  0.65769994853E+03  0.25500000920E-02 0.  1.
        2   -1    0    0  501    0  0.00000000000E+00  0.00000000000E+00 -0.72730788102E+03  0.72730788102E+03  0.25500000920E-02 0. -1.
    10030    2    1    2    0    0  0.00000000000E+00  0.00000000000E+00 -0.69607932491E+02  0.13850078295E+04  0.13832575406E+04 0.  0.
        2    1    3    3  502    0 -0.61599658421E+03 -0.27588004701E+03 -0.18595445843E+03  0.70010045902E+03  0.25500000920E-02 0. -1.
       -2    1    3    3    0  502  0.61599658421E+03  0.27588004701E+03  0.11634652594E+03  0.68490737053E+03  0.25500000920E-02 0.  1.
</event>
<event>
 5   0  0.9007180E-04  0.1374691E+04  0.7818609E-02  0.8972345E-01
        1   -1    0    0  501    0  0.00000000000E+00  0.00000000000E+00  0.22571939629E+04  0.22571939629E+04  0.50400001928E-02 0.  1.
       -1   -1    0    0    0  501  0.00000000000E+00  0.00000000000E+00 -0.20930595696E+03  0.20930595702E+03  0.50400001928E-02 0. -1.
    10030    2    1    2    0    0  0.00000000000E+00  0.00000000000E+00  0.20478880060E+04  0.24664999199E+04  0.13746914454E+04 0.  0.
        2    1    3    3  502    0 -0.17266612612E+03 -0.58267098568E+03  0.44776422501E+03  0.75485884102E+03  0.25500000920E-02 0. -1.
       -2    1    3    3    0  502  0.17266612612E+03  0.58267098568E+03  0.16001237810E+04  0.17116410789E+04  0.25500000920E-02 0.  1.
</event>
<event>
 5   0  0.9007180E-04  0.1424028E+04  0.7818609E-02  0.8936607E-01
        1   -1    0    0  501    0  0.00000000000E+00  0.00000000000E+00  0.15358167328E+04  0.15358167328E+04  0.50400001928E-02 0. -1.
       -1   -1    0    0    0  501  0.00000000000E+00  0.00000000000E+00 -0.33009412492E+03  0.33009412496E+03  0.50400001928E-02 0.  1.
    10030    2    1    2    0    0  0.00000000000E+00  0.00000000000E+00  0.12057226079E+04  0.18659108578E+04  0.14240282027E+04 0.  0.
        2    1    3    3  502    0 -0.42020485803E+03  0.53188735593E+03  0.88839891327E+03  0.11174653960E+04  0.25500000920E-02 0.  1.
       -2    1    3    3    0  502  0.42020485803E+03 -0.53188735593E+03  0.31732369462E+03  0.74844546180E+03  0.25500000920E-02 0. -1.
</event>
<event>
 5   0  0.1648463E-03  0.1394498E+04  0.7818609E-02  0.8957810E-01
       -2   -1    0    0    0  501  0.00000000000E+00  0.00000000000E+00  0.11188965573E+04  0.11188965573E+04  0.25500000920E-02 0. -1.
        2   -1    0    0  501    0  0.00000000000E+00  0.00000000000E+00 -0.43449638957E+03  0.43449638958E+03  0.25500000920E-02 0.  1.
    10030    2    1    2    0    0  0.00000000000E+00  0.00000000000E+00  0.68440016777E+03  0.15533929469E+04  0.13944984969E+04 0.  0.
        1    1    3    3  502    0 -0.19809596825E+03  0.25358720870E+03 -0.34683338608E+03  0.47311931136E+03  0.50400001928E-02 0.  1.
       -1    1    3    3    0  502  0.19809596825E+03 -0.25358720870E+03  0.10312335538E+04  0.10802736356E+04  0.50400001928E-02 0. -1.
</event>
<event>
 5   0  0.8673728E-04  0.1287267E+04  0.7818609E-02  0.9039724E-01
        1   -1    0    0  501    0  0.00000000000E+00  0.00000000000E+00  0.13522311147E+04  0.13522311147E+04  0.50400001928E-02 0.  1.
       -1   -1    0    0    0  501  0.00000000000E+00  0.00000000000E+00 -0.30635591134E+03  0.30635591138E+03  0.50400001928E-02 0. -1.
    10030    2    1    2    0    0  0.00000000000E+00  0.00000000000E+00  0.10458752034E+04  0.16585870261E+04  0.12872668652E+04 0.  0.
        3    1    3    3  502    0  0.85955053245E+02 -0.22311143283E+03  0.12928880495E+04  0.13148104432E+04  0.10100000352E+00 0.  1.
       -3    1    3    3    0  502 -0.85955053245E+02  0.22311143283E+03 -0.24701284614E+03  0.34377658296E+03  0.10100000352E+00 0. -1.
</event>
<event>
 5   0  0.1648463E-03  0.1381409E+04  0.7818609E-02  0.8967386E-01
       -2   -1    0    0    0  501  0.00000000000E+00  0.00000000000E+00  0.37737754541E+03  0.37737754542E+03  0.25500000920E-02 0. -1.
        2   -1    0    0  501    0  0.00000000000E+00  0.00000000000E+00 -0.12641796253E+04  0.12641796253E+04  0.25500000920E-02 0.  1.
    10030    2    1    2    0    0  0.00000000000E+00  0.00000000000E+00 -0.88680207993E+03  0.16415571708E+04  0.13814094309E+04 0.  0.
        1    1    3    3  502    0  0.83704200008E+02 -0.61121021877E+03 -0.81252460953E+03  0.10201865348E+04  0.50400001928E-02 0. -1.
       -1    1    3    3    0  502 -0.83704200008E+02  0.61121021877E+03 -0.74277470403E+02  0.62137063598E+03  0.50400001928E-02 0.  1.
</event>
<event>
 5   0  0.9007180E-04  0.1429368E+04  0.7818609E-02  0.8932831E-01
        1   -1    0    0  501    0  0.00000000000E+00  0.00000000000E+00  0.13324593307E+04  0.13324593307E+04  0.50400001928E-02 0. -1.
       -1   -1    0    0    0  501  0.00000000000E+00  0.00000000000E+00 -0.38333111463E+03  0.38333111466E+03  0.50400001928E-02 0.  1.
    10030    2    1    2    0    0  0.00000000000E+00  0.00000000000E+00  0.94912821608E+03  0.17157904454E+04  0.14293678609E+04 0.  0.
        2    1    3    3  502    0 -0.33243155657E+03  0.44032610930E+03  0.10198811736E+04  0.11595496672E+04  0.25500000920E-02 0. -1.
       -2    1    3    3    0  502  0.33243155657E+03 -0.44032610930E+03 -0.70752957529E+02  0.55624077821E+03  0.25500000920E-02 0.  1.
</event>
<event>
 5   0  0.8502300E-04  0.1421931E+04  0.7818609E-02  0.8938095E-01
        1   -1    0    0  501    0  0.00000000000E+00  0.00000000000E+00  0.91837695288E+03  0.91837695289E+03  0.50400001928E-02 0.  1.
       -1   -1    0    0    0  501  0.00000000000E+00  0.00000000000E+00 -0.55039714265E+03  0.55039714267E+03  0.50400001928E-02 0. -1.
    10030    2    1    2    0    0  0.00000000000E+00  0.00000000000E+00  0.36797981023E+03  0.14687740956E+04  0.14219311527E+04 0.  0.
        4    1    3    3  502    0 -0.47407914177E+03  0.45434243146E+03 -0.97555544778E+02  0.66384996415E+03  0.12699999809E+01 0. -1.
       -4    1    3    3    0  502  0.47407914177E+03 -0.45434243146E+03  0.46553535501E+03  0.80492413142E+03  0.12699999809E+01 0.  1.
</event>
<event>
 5   0  0.1648213E-03  0.1382807E+04  0.7818609E-02  0.8966359E-01
       -2   -1    0    0    0  501  0.00000000000E+00  0.00000000000E+00  0.18634675009E+03  0.18634675011E+03  0.25500000920E-02 0. -1.
        2   -1    0    0  501    0  0.00000000000E+00  0.00000000000E+00 -0.25653178963E+04  0.25653178963E+04  0.25500000920E-02 0.  1.
    10030    2    1    2    0    0  0.00000000000E+00  0.00000000000E+00 -0.23789711462E+04  0.27516646464E+04  0.13828067876E+04 0.  0.
        4    1    3    3  502    0  0.52383949278E+03 -0.29037737391E+03 -0.18768274432E+04  0.19700786020E+04  0.12699999809E+01 0. -1.
       -4    1    3    3    0  502 -0.52383949278E+03  0.29037737391E+03 -0.50214370296E+03  0.78158604440E+03  0.12699999809E+01 0.  1.
</event>
<event>
 5   0  0.1578965E-03  0.1402019E+04  0.7818609E-02  0.8952358E-01
       -2   -1    0    0    0  501  0.00000000000E+00  0.00000000000E+00  0.84196939928E+03  0.84196939929E+03  0.25500000920E-02 0. -1.
        2   -1    0    0  501    0  0.00000000000E+00  0.00000000000E+00 -0.58364858613E+03  0.58364858614E+03  0.25500000920E-02 0.  1.
    10030    2    1    2    0    0  0.00000000000E+00  0.00000000000E+00  0.25832081315E+03  0.14256179854E+04  0.14020189007E+04 0.  0.
        2    1    3    3  502    0  0.16650147699E+03  0.11780319219E+03 -0.55281033195E+03  0.58923645258E+03  0.25500000920E-02 0.  1.
       -2    1    3    3    0  502 -0.16650147699E+03 -0.11780319219E+03  0.81113114510E+03  0.83638153285E+03  0.25500000920E-02 0. -1.
</event>
<event>
 5   0  0.8609148E-04  0.1399600E+04  0.7818609E-02  0.8954108E-01
        1   -1    0    0  501    0  0.00000000000E+00  0.00000000000E+00  0.72148959218E+03  0.72148959220E+03  0.50400001928E-02 0.  1.
       -1   -1    0    0    0  501  0.00000000000E+00  0.00000000000E+00 -0.67876200220E+03  0.67876200222E+03  0.50400001928E-02 0. -1.
    10030    2    1    2    0    0  0.00000000000E+00  0.00000000000E+00  0.42727589978E+02  0.14002515944E+04  0.13995995430E+04 0.  0.
        5    1    3    3  502    0 -0.49070899751E+03 -0.33625967043E+03  0.39008908192E+03  0.71137716299E+03  0.46999998093E+01 0.  1.
       -5    1    3    3    0  502  0.49070899751E+03  0.33625967043E+03 -0.34736149194E+03  0.68887443143E+03  0.46999998093E+01 0. -1.
</event>
<event>
 5   0  0.1605214E-03  0.1372070E+04  0.7818609E-02  0.8974288E-01
       -2   -1    0    0    0  501  0.00000000000E+00  0.00000000000E+00  0.12303066573E+04  0.12303066573E+04  0.25500000920E-02 0. -1.
        2   -1    0    0  501    0  0.00000000000E+00  0.00000000000E+00 -0.38254198746E+03  0.38254198747E+03  0.25500000920E-02 0.  1.
    10030    2    1    2    0    0  0.00000000000E+00  0.00000000000E+00  0.84776466984E+03  0.16128486448E+04  0.13720699018E+04 0.  0.
        5    1    3    3  502    0 -0.41249716746E+03  0.24660946712E+03  0.99933241187E+03  0.11088992298E+04  0.46999998093E+01 0. -1.
       -5    1    3    3    0  502  0.41249716746E+03 -0.24660946712E+03 -0.15156774202E+03  0.50394941498E+03  0.46999998093E+01 0.  1.
</event>
<event>
 5   0  0.1578965E-03  0.1413129E+04  0.7818609E-02  0.8944370E-01
       -2   -1    0    0    0  501  0.00000000000E+00  0.00000000000E+00  0.25894943715E+03  0.25894943716E+03  0.25500000920E-02 0.  1.
        2   -1    0    0  501    0  0.00000000000E+00  0.00000000000E+00 -0.19279180925E+04  0.19279180926E+04  0.25500000920E-02 0. -1.
    10030    2    1    2    0    0  0.00000000000E+00  0.00000000000E+00 -0.16689686554E+04  0.21868675297E+04  0.14131288759E+04 0.  0.
        2    1    3    3  502    0  0.25148483362E+03 -0.89665111544E+02 -0.18468481989E+04  0.18660473530E+04  0.25500000920E-02 0. -1.
       -2    1    3    3    0  502 -0.25148483362E+03  0.89665111544E+02  0.17787954353E+03  0.32082017670E+03  0.25500000920E-02 0.  1.
</event>
<event>
 5   0  0.6048000E-04  0.1390753E+04  0.7818609E-02  0.8960539E-01
       -4   -1    0    0    0  501  0.00000000000E+00  0.00000000000E+00  0.42049535537E+03  0.42049727322E+03  0.12699999809E+01 0.  1.
        4   -1    0    0  501    0  0.00000000000E+00  0.00000000000E+00 -0.11499444014E+04  0.11499451027E+04  0.12699999809E+01 0. -1.
    10030    2    1    2    0    0  0.00000000000E+00  0.00000000000E+00 -0.72944904603E+03  0.15704423759E+04  0.13907527981E+04 0.  0.
        3    1    3    3  502    0 -0.23565745203E+03 -0.37838402924E+03 -0.96738416309E+03  0.10651483641E+04  0.10100000352E+00 0. -1.
       -3    1    3    3    0  502  0.23565745203E+03  0.37838402924E+03  0.23793511706E+03  0.50529401185E+03  0.10100000352E+00 0.  1.
</event>
<event>
 5   0  0.8673728E-04  0.1429116E+04  0.7818609E-02  0.8933008E-01
       -1   -1    0    0    0  501  0.00000000000E+00  0.00000000000E+00  0.33369857395E+03  0.33369857399E+03  0.50400001928E-02 0. -1.
        1   -1    0    0  501    0  0.00000000000E+00  0.00000000000E+00 -0.15301032522E+04  0.15301032522E+04  0.50400001928E-02 0.  1.
    10030    2    1    2    0    0  0.00000000000E+00  0.00000000000E+00 -0.11964046782E+04  0.18638018262E+04  0.14291161930E+04 0.  0.
        3    1    3    3  502    0 -0.55243922923E+03  0.17509421677E+03 -0.53027211880E+02  0.58194414005E+03  0.10100000352E+00 0. -1.
       -3    1    3    3    0  502  0.55243922923E+03 -0.17509421677E+03 -0.11433774663E+04  0.12818576861E+04  0.10100000352E+00 0.  1.
</event>
<event>
 5   0  0.1648463E-03  0.1394204E+04  0.7818609E-02  0.8958025E-01
       -2   -1    0    0    0  501  0.00000000000E+00  0.00000000000E+00  0.51331608404E+03  0.51331608404E+03  0.25500000920E-02 0.  1.
        2   -1    0    0  501    0  0.00000000000E+00  0.00000000000E+00 -0.94669014520E+03  0.94669014520E+03  0.25500000920E-02 0. -1.
    10030    2    1    2    0    0  0.00000000000E+00  0.00000000000E+00 -0.43337406116E+03  0.14600062292E+04  0.13942041144E+04 0.  0.
        1    1    3    3  502    0  0.58351430093E+03  0.32641609249E+03 -0.42326602500E+03  0.79132201585E+03  0.50400001928E-02 0.  1.
       -1    1    3    3    0  502 -0.58351430093E+03 -0.32641609249E+03 -0.10108036159E+02  0.66868421340E+03  0.50400001928E-02 0. -1.
</event>
<event>
 5   0  0.8673728E-04  0.1435116E+04  0.7818609E-02  0.8928785E-01
       -1   -1    0    0    0  501  0.00000000000E+00  0.00000000000E+00  0.82203448691E+03  0.82203448693E+03  0.50400001928E-02 0. -1.
        1   -1    0    0  501    0  0.00000000000E+00  0.00000000000E+00 -0.62635992517E+03  0.62635992519E+03  0.50400001928E-02 0.  1.
    10030    2    1    2    0    0  0.00000000000E+00  0.00000000000E+00  0.19567456174E+03  0.14483944121E+04  0.14351159671E+04 0.  0.
        3    1    3    3  502    0  0.27940172906E+03  0.28351860470E+00 -0.56920461366E+03  0.63408146874E+03  0.10100000352E+00 0.  1.
       -3    1    3    3    0  502 -0.27940172906E+03 -0.28351860470E+00  0.76487917540E+03  0.81431294338E+03  0.10100000352E+00 0. -1.
</event>
<event>
 5   0  0.1578965E-03  0.1400368E+04  0.7818609E-02  0.8953552E-01
        2   -1    0    0  501    0  0.00000000000E+00  0.00000000000E+00  0.56101140943E+03  0.56101140944E+03  0.25500000920E-02 0.  1.
       -2   -1    0    0    0  501  0.00000000000E+00  0.00000000000E+00 -0.87388139698E+03  0.87388139698E+03  0.25500000920E-02 0. -1.
    10030    2    1    2    0    0  0.00000000000E+00  0.00000000000E+00 -0.31286998755E+03  0.14348928064E+04  0.14003677149E+04 0.  0.
        2    1    3    3  502    0  0.50500202378E+03 -0.48498318125E+03 -0.16120861650E+03  0.71848726374E+03  0.25500000920E-02 0.  1.
       -2    1    3    3    0  502 -0.50500202378E+03  0.48498318125E+03 -0.15166137104E+03  0.71640554268E+03  0.25500000920E-02 0. -1.
</event>
<event>
 5   0  0.1706986E-03  0.1401048E+04  0.7818609E-02  0.8953061E-01
        2   -1    0    0  501    0  0.00000000000E+00  0.00000000000E+00  0.73842481944E+03  0.73842481944E+03  0.25500000920E-02 0.  1.
       -2   -1    0    0    0  501  0.00000000000E+00  0.00000000000E+00 -0.66456822953E+03  0.66456822954E+03  0.25500000920E-02 0. -1.
    10030    2    1    2    0    0  0.00000000000E+00  0.00000000000E+00  0.73856589904E+02  0.14029930490E+04  0.14010477150E+04 0.  0.
        3    1    3    3  502    0 -0.15007512688E+03  0.62108258562E+03  0.32449865459E+03  0.71663485047E+03  0.10100000352E+00 0.  1.
       -3    1    3    3    0  502  0.15007512688E+03 -0.62108258562E+03 -0.25064206469E+03  0.68635819851E+03  0.10100000352E+00 0. -1.
</event>
<event>
 5   0  0.1648463E-03  0.1388775E+04  0.7818609E-02  0.8961984E-01
       -2   -1    0    0    0  501  0.00000000000E+00  0.00000000000E+00  0.31332225911E+03  0.31332225913E+03  0.25500000920E-02 0.  1.
        2   -1    0    0  501    0  0.00000000000E+00  0.00000000000E+00 -0.15389082599E+04  0.15389082599E+04  0.25500000920E-02 0. -1.
    10030    2    1    2    0    0  0.00000000000E+00  0.00000000000E+00 -0.12255860007E+04  0.18522305190E+04  0.13887753059E+04 0.  0.
        1    1    3    3  502    0  0.96354423034E+01  0.57917558082E+03 -0.11235153452E+04  0.12640506027E+04  0.50400001928E-02 0.  1.
       -1    1    3    3    0  502 -0.96354423034E+01 -0.57917558082E+03 -0.10207065549E+03  0.58817991628E+03  0.50400001928E-02 0. -1.
</event>
<event>
 5   0  0.1605214E-03  0.1422221E+04  0.7818609E-02  0.8937889E-01
        2   -1    0    0  501    0  0.00000000000E+00  0.00000000000E+00  0.12657186178E+04  0.12657186178E+04  0.25500000920E-02 0.  1.
       -2   -1    0    0    0  501  0.00000000000E+00  0.00000000000E+00 -0.39951884952E+03  0.39951884953E+03  0.25500000920E-02 0. -1.
    10030    2    1    2    0    0  0.00000000000E+00  0.00000000000E+00  0.86619976828E+03  0.16652374673E+04  0.14222214258E+04 0.  0.
        5    1    3    3  502    0  0.42128738795E+03  0.53342208833E+03  0.18851911370E+03  0.70539615380E+03  0.46999998093E+01 0. -1.
       -5    1    3    3    0  502 -0.42128738795E+03 -0.53342208833E+03  0.67768065458E+03  0.95984131353E+03  0.46999998093E+01 0.  1.
</event>
<event>
 5   0  0.8502300E-04  0.1397115E+04  0.7818609E-02  0.8955909E-01
        1   -1    0    0  501    0  0.00000000000E+00  0.00000000000E+00  0.78679254830E+03  0.78679254832E+03  0.50400001928E-02 0. -1.
       -1   -1    0    0    0  501  0.00000000000E+00  0.00000000000E+00 -0.62021788295E+03  0.62021788297E+03  0.50400001928E-02 0.  1.
    10030    2    1    2    0    0  0.00000000000E+00  0.00000000000E+00  0.16657466536E+03  0.14070104313E+04  0.13971153262E+04 0.  0.
        4    1    3    3  502    0  0.27845788764E+03 -0.62639822921E+03  0.21865532980E+03  0.71953130779E+03  0.12699999809E+01 0. -1.
       -4    1    3    3    0  502 -0.27845788764E+03  0.62639822921E+03 -0.52080664440E+02  0.68747912350E+03  0.12699999809E+01 0.  1.
</event>
<event>
 5   0  0.8609148E-04  0.1368388E+04  0.7818609E-02  0.8977024E-01
        1   -1    0    0  501    0  0.00000000000E+00  0.00000000000E+00  0.11721512759E+04  0.11721512759E+04  0.50400001928E-02 0. -1.
       -1   -1    0    0    0  501  0.00000000000E+00  0.00000000000E+00 -0.39936951911E+03  0.39936951914E+03  0.50400001928E-02 0.  1.
    10030    2    1    2    0    0  0.00000000000E+00  0.00000000000E+00  0.77278175681E+03  0.15715207951E+04  0.13683880903E+04 0.  0.
        5    1    3    3  502    0 -0.15806731830E+02 -0.49791077807E+03  0.92497982174E+03  0.10506068515E+04  0.46999998093E+01 0. -1.
       -5    1    3    3    0  502  0.15806731830E+02  0.49791077807E+03 -0.15219806493E+03  0.52091394362E+03  0.46999998093E+01 0.  1.
</event>
<event>
 5   0  0.1648213E-03  0.1380116E+04  0.7818609E-02  0.8968339E-01
       -2   -1    0    0    0  501  0.00000000000E+00  0.00000000000E+00  0.46517919290E+03  0.46517919291E+03  0.25500000920E-02 0. -1.
        2   -1    0    0  501    0  0.00000000000E+00  0.00000000000E+00 -0.10236488837E+04  0.10236488837E+04  0.25500000920E-02 0.  1.
    10030    2    1    2    0    0  0.00000000000E+00  0.00000000000E+00 -0.55846969081E+03  0.14888280766E+04  0.13801161713E+04 0.  0.
        4    1    3    3  502    0  0.19799250081E+03 -0.42415336681E+03  0.26772547390E+03  0.53924544618E+03  0.12699999809E+01 0. -1.
       -4    1    3    3    0  502 -0.19799250081E+03  0.42415336681E+03 -0.82619516471E+03  0.94958263045E+03  0.12699999809E+01 0.  1.
</event>
<event>
 5   0  0.8502300E-04  0.1395109E+04  0.7818609E-02  0.8957366E-01
        1   -1    0    0  501    0  0.00000000000E+00  0.00000000000E+00  0.13458111776E+04  0.13458111776E+04  0.50400001928E-02 0.  1.
       -1   -1    0    0    0  501  0.00000000000E+00  0.00000000000E+00 -0.36155329777E+03  0.36155329781E+03  0.50400001928E-02 0. -1.
    10030    2    1    2    0    0  0.00000000000E+00  0.00000000000E+00  0.98425787979E+03  0.17073644754E+04  0.13951092709E+04 0.  0.
        4    1    3    3  502    0  0.36975661076E+03  0.18669648891E+03 -0.19474488195E+03  0.45771466233E+03  0.12699999809E+01 0. -1.
       -4    1    3    3    0  502 -0.36975661076E+03 -0.18669648891E+03  0.11790027617E+04  0.12496498130E+04  0.12699999809E+01 0.  1.
</event>
<event>
 5   0  0.8673728E-04  0.1412417E+04  0.7818609E-02  0.8944879E-01
       -1   -1    0    0    0  501  0.00000000000E+00  0.00000000000E+00  0.57224568073E+03  0.57224568075E+03  0.50400001928E-02 0.  1.
        1   -1    0    0  501    0  0.00000000000E+00  0.00000000000E+00 -0.87153231453E+03  0.87153231454E+03  0.50400001928E-02 0. -1.
    10030    2    1    2    0    0  0.00000000000E+00  0.00000000000E+00 -0.29928663380E+03  0.14437779953E+04  0.14124172225E+04 0.  0.
        3    1    3    3  502    0  0.27175111288E+03 -0.23523307037E+03  0.47175839721E+03  0.59307609991E+03  0.10100000352E+00 0.  1.
       -3    1    3    3    0  502 -0.27175111288E+03  0.23523307037E+03 -0.77104503102E+03  0.85070189538E+03  0.10100000352E+00 0. -1.
</event>
<event>
 5   0  0.1648463E-03  0.1415484E+04  0.7818609E-02  0.8942686E-01
        2   -1    0    0  501    0  0.00000000000E+00  0.00000000000E+00  0.29523443989E+04  0.29523443989E+04  0.25500000920E-02 0.  1.
       -2   -1    0    0    0  501  0.00000000000E+00  0.00000000000E+00 -0.16966123824E+03  0.16966123826E+03  0.25500000920E-02 0. -1.
    10030    2    1    2    0    0  0.00000000000E+00  0.00000000000E+00  0.27826831606E+04  0.31220056371E+04  0.14154835308E+04 0.  0.
        1    1    3    3  502    0  0.26077698171E+03  0.35333178093E+03  0.26155060441E+04  0.26521161077E+04  0.50400001928E-02 0.  1.
       -1    1    3    3    0  502 -0.26077698171E+03 -0.35333178093E+03  0.16717711650E+03  0.46988952948E+03  0.50400001928E-02 0. -1.
</event>
<event>
 5   0  0.8609148E-04  0.1392498E+04  0.7818609E-02  0.8959267E-01
       -1   -1    0    0    0  501  0.00000000000E+00  0.00000000000E+00  0.68515660369E+03  0.68515660371E+03  0.50400001928E-02 0.  1.
        1   -1    0    0  501    0  0.00000000000E+00  0.00000000000E+00 -0.70752067245E+03  0.70752067247E+03  0.50400001928E-02 0. -1.
    10030    2    1    2    0    0  0.00000000000E+00  0.00000000000E+00 -0.22364068760E+02  0.13926772762E+04  0.13924976998E+04 0.  0.
        5    1    3    3  502    0 -0.66533848391E+03  0.18582712440E+03  0.75624047130E+02  0.69494467754E+03  0.46999998093E+01 0.  1.
       -5    1    3    3    0  502  0.66533848391E+03 -0.18582712440E+03 -0.97988115890E+02  0.69773259863E+03  0.46999998093E+01 0. -1.
</event>
<event>
 5   0  0.1648213E-03  0.1395726E+04  0.7818609E-02  0.8956918E-01
       -2   -1    0    0    0  501  0.00000000000E+00  0.00000000000E+00  0.39864799754E+03  0.39864799755E+03  0.25500000920E-02 0.  1.
        2   -1    0    0  501    0  0.00000000000E+00  0.00000000000E+00 -0.12216606821E+04  0.12216606821E+04  0.25500000920E-02 0. -1.
    10030    2    1    2    0    0  0.00000000000E+00  0.00000000000E+00 -0.82301268458E+03  0.16203086797E+04  0.13957257390E+04 0.  0.
        4    1    3    3  502    0  0.12548055233E+03  0.26615329108E+03  0.32310884950E+03  0.43701703043E+03  0.12699999809E+01 0.  1.
       -4    1    3    3    0  502 -0.12548055233E+03 -0.26615329108E+03 -0.11461215341E+04  0.11832916492E+04  0.12699999809E+01 0. -1.
</event>
<event>
 5   0  0.1648463E-03  0.1369342E+04  0.7818609E-02  0.8976314E-01
        2   -1    0    0  501    0  0.00000000000E+00  0.00000000000E+00  0.16894590795E+04  0.16894590796E+04  0.25500000920E-02 0.  1.
       -2   -1    0    0    0  501  0.00000000000E+00  0.00000000000E+00 -0.27747015974E+03  0.27747015976E+03  0.25500000920E-02 0. -1.
    10030    2    1    2    0    0  0.00000000000E+00  0.00000000000E+00  0.14119889198E+04  0.19669292393E+04  0.13693421496E+04 0.  0.
        1    1    3    3  502    0  0.26223714207E+03 -0.75323501701E+02  0.16079976297E+04  0.16309807865E+04  0.50400001928E-02 0.  1.
       -1    1    3    3    0  502 -0.26223714207E+03  0.75323501701E+02 -0.19600870991E+03  0.33594845285E+03  0.50400001928E-02 0. -1.
</event>
<event>
 5   0  0.1706986E-03  0.1366805E+04  0.7818609E-02  0.8978204E-01
       -2   -1    0    0    0  501  0.00000000000E+00  0.00000000000E+00  0.40134873468E+03  0.40134873469E+03  0.25500000920E-02 0. -1.
        2   -1    0    0  501    0  0.00000000000E+00  0.00000000000E+00 -0.11636736839E+04  0.11636736839E+04  0.25500000920E-02 0.  1.
    10030    2    1    2    0    0  0.00000000000E+00  0.00000000000E+00 -0.76232494921E+03  0.15650224186E+04  0.13668049760E+04 0.  0.
        3    1    3    3  502    0  0.63109233477E+03  0.97654192376E+02 -0.10250748861E+03  0.64677791529E+03  0.10100000352E+00 0. -1.
       -3    1    3    3    0  502 -0.63109233477E+03 -0.97654192376E+02 -0.65981746060E+03  0.91824450328E+03  0.10100000352E+00 0.  1.
</event>
<event>
 5   0  0.1578965E-03  0.1344269E+04  0.7818609E-02  0.8995178E-01
       -2   -1    0    0    0  501  0.00000000000E+00  0.00000000000E+00  0.18564155851E+03  0.18564155853E+03  0.25500000920E-02 0. -1.
        2   -1    0    0  501    0  0.00000000000E+00  0.00000000000E+00 -0.24335323773E+04  0.24335323773E+04  0.25500000920E-02 0.  1.
    10030    2    1    2    0    0  0.00000000000E+00  0.00000000000E+00 -0.22478908188E+04  0.26191739358E+04  0.13442689362E+04 0.  0.
        2    1    3    3  502    0 -0.11187937090E+03 -0.42063711243E+03 -0.12604454959E+03  0.45314435059E+03  0.25500000920E-02 0. -1.
       -2    1    3    3    0  502  0.11187937090E+03  0.42063711243E+03 -0.21218462692E+04  0.21660295852E+04  0.25500000920E-02 0.  1.
</event>
<event>
 5   0  0.1648463E-03  0.1400093E+04  0.7818609E-02  0.8953752E-01
        2   -1    0    0  501    0  0.00000000000E+00  0.00000000000E+00  0.11080035229E+04  0.11080035229E+04  0.25500000920E-02 0.  1.
       -2   -1    0    0    0  501  0.00000000000E+00  0.00000000000E+00 -0.44229532219E+03  0.44229532220E+03  0.25500000920E-02 0. -1.
    10030    2    1    2    0    0  0.00000000000E+00  0.00000000000E+00  0.66570820066E+03  0.15502988451E+04  0.14000925329E+04 0.  0.
        1    1    3    3  502    0 -0.63670213962E+03  0.25931543909E+03  0.47904341979E+03  0.83792404764E+03  0.50400001928E-02 0.  1.
       -1    1    3    3    0  502  0.63670213962E+03 -0.25931543909E+03  0.18666478087E+03  0.71237479742E+03  0.50400001928E-02 0. -1.
</event>
<event>
 5   0  0.1605214E-03  0.1277693E+04  0.7818609E-02  0.9047444E-01
       -2   -1    0    0    0  501  0.00000000000E+00  0.00000000000E+00  0.17680206925E+03  0.17680206927E+03  0.25500000920E-02 0. -1.
        2   -1    0    0  501    0  0.00000000000E+00  0.00000000000E+00 -0.23083725309E+04  0.23083725309E+04  0.25500000920E-02 0.  1.
    10030    2    1    2    0    0  0.00000000000E+00  0.00000000000E+00 -0.21315704616E+04  0.24851746001E+04  0.12776932966E+04 0.  0.
        5    1    3    3  502    0  0.61428169682E+03  0.15906099004E+03 -0.92205490058E+03  0.11193077018E+04  0.46999998093E+01 0. -1.
       -5    1    3    3    0  502 -0.61428169682E+03 -0.15906099004E+03 -0.12095155610E+04  0.13658668983E+04  0.46999998093E+01 0.  1.
</event>
<event>
 5   0  0.1578965E-03  0.1369387E+04  0.7818609E-02  0.8976281E-01
        2   -1    0    0  501    0  0.00000000000E+00  0.00000000000E+00  0.69646868458E+03  0.69646868458E+03  0.25500000920E-02 0. -1.
       -2   -1    0    0    0  501  0.00000000000E+00  0.00000000000E+00 -0.67311725828E+03  0.67311725828E+03  0.25500000920E-02 0.  1.
    10030    2    1    2    0    0  0.00000000000E+00  0.00000000000E+00  0.23351426296E+02  0.13695859429E+04  0.13693868576E+04 0.  0.
        2    1    3    3  502    0 -0.35332612447E+03 -0.17541290791E+03  0.57139629181E+03  0.69433620156E+03  0.25500000920E-02 0. -1.
       -2    1    3    3    0  502  0.35332612447E+03  0.17541290791E+03 -0.54804486552E+03  0.67524974130E+03  0.25500000920E-02 0.  1.
</event>
<event>
 5   0  0.8673728E-04  0.1397621E+04  0.7818609E-02  0.8955542E-01
        1   -1    0    0  501    0  0.00000000000E+00  0.00000000000E+00  0.80764718180E+03  0.80764718182E+03  0.50400001928E-02 0. -1.
       -1   -1    0    0    0  501  0.00000000000E+00  0.00000000000E+00 -0.60464040166E+03  0.60464040169E+03  0.50400001928E-02 0.  1.
    10030    2    1    2    0    0  0.00000000000E+00  0.00000000000E+00  0.20300678014E+03  0.14122875835E+04  0.13976210022E+04 0.  0.
        3    1    3    3  502    0 -0.54521779233E+03  0.36070050880E+03  0.35101317120E+03  0.74200913382E+03  0.10100000352E+00 0. -1.
       -3    1    3    3    0  502  0.54521779233E+03 -0.36070050880E+03 -0.14800639106E+03  0.67027844969E+03  0.10100000352E+00 0.  1.
</event>
<event>
 5   0  0.9639548E-04  0.1417788E+04  0.7818609E-02  0.8941042E-01
        1   -1    0    0  501    0  0.00000000000E+00  0.00000000000E+00  0.86621940343E+03  0.86621940344E+03  0.50400001928E-02 0.  1.
       -1   -1    0    0    0  501  0.00000000000E+00  0.00000000000E+00 -0.58014274155E+03  0.58014274157E+03  0.50400001928E-02 0. -1.
    10030    2    1    2    0    0  0.00000000000E+00  0.00000000000E+00  0.28607666188E+03  0.14463621450E+04  0.14177882769E+04 0.  0.
        1    1    3    3  502    0  0.33061466485E+01  0.65052261862E+03 -0.14431256904E+03  0.66634580028E+03  0.50400001928E-02 0. -1.
       -1    1    3    3    0  502 -0.33061466485E+01 -0.65052261862E+03  0.43038923092E+03  0.78001634473E+03  0.50400001928E-02 0.  1.
</event>
<event>
 5   0  0.1578965E-03  0.1373167E+04  0.7818609E-02  0.8973474E-01
        2   -1    0    0  501    0  0.00000000000E+00  0.00000000000E+00  0.23029655957E+04  0.23029655957E+04  0.25500000920E-02 0.  1.
       -2   -1    0    0    0  501  0.00000000000E+00  0.00000000000E+00 -0.20469116439E+03  0.20469116440E+03  0.25500000920E-02 0. -1.
    10030    2    1    2    0    0  0.00000000000E+00  0.00000000000E+00  0.20982744313E+04  0.25076567601E+04  0.13731667187E+04 0.  0.
        2    1    3    3  502    0 -0.26892888383E+03  0.43052838893E+02  0.22000982064E+04  0.22168916097E+04  0.25500000920E-02 0.  1.
       -2    1    3    3    0  502  0.26892888383E+03 -0.43052838893E+02 -0.10182377508E+03  0.29076515037E+03  0.25500000920E-02 0. -1.
</event>
<event>
 5   0  0.1605214E-03  0.1398184E+04  0.7818609E-02  0.8955134E-01
       -2   -1    0    0    0  501  0.00000000000E+00  0.00000000000E+00  0.24277256101E+03  0.24277256102E+03  0.25500000920E-02 0. -1.
        2   -1    0    0  501    0  0.00000000000E+00  0.00000000000E+00 -0.20131183284E+04  0.20131183284E+04  0.25500000920E-02 0.  1.
    10030    2    1    2    0    0  0.00000000000E+00  0.00000000000E+00 -0.17703457674E+04  0.22558908894E+04  0.13981843830E+04 0.  0.
        5    1    3    3  502    0 -0.38128615379E+03  0.56288155325E+03 -0.62255793481E+03  0.92185424350E+03  0.46999998093E+01 0.  1.
       -5    1    3    3    0  502  0.38128615379E+03 -0.56288155325E+03 -0.11477878326E+04  0.13340366459E+04  0.46999998093E+01 0. -1.
</event>
<event>
 5   0  0.1605214E-03  0.1270863E+04  0.7818609E-02  0.9052996E-01
        2   -1    0    0  501    0  0.00000000000E+00  0.00000000000E+00  0.76473341704E+03  0.76473341704E+03  0.25500000920E-02 0. -1.
       -2   -1    0    0    0  501  0.00000000000E+00  0.00000000000E+00 -0.52799173059E+03  0.52799173059E+03  0.25500000920E-02 0.  1.
    10030    2    1    2    0    0  0.00000000000E+00  0.00000000000E+00  0.23674168645E+03  0.12927251476E+04  0.12708625737E+04 0.  0.
        5    1    3    3  502    0 -0.27236266457E+03  0.47754707924E+03  0.44247123334E+03  0.70571631430E+03  0.46999998093E+01 0. -1.
       -5    1    3    3    0  502  0.27236266457E+03 -0.47754707924E+03 -0.20572954689E+03  0.58700883333E+03  0.46999998093E+01 0.  1.
</event>
<event>
 5   0  0.8502300E-04  0.1364929E+04  0.7818609E-02  0.8979604E-01
        1   -1    0    0  501    0  0.00000000000E+00  0.00000000000E+00  0.10959023009E+04  0.10959023009E+04  0.50400001928E-02 0. -1.
       -1   -1    0    0    0  501  0.00000000000E+00  0.00000000000E+00 -0.42499911467E+03  0.42499911470E+03  0.50400001928E-02 0.  1.
    10030    2    1    2    0    0  0.00000000000E+00  0.00000000000E+00  0.67090318621E+03  0.15209014156E+04  0.13649285808E+04 0.  0.
        4    1    3    3  502    0  0.42039267840E+03  0.65223100611E+02 -0.25916860249E+03  0.49815061410E+03  0.12699999809E+01 0.  1.
       -4    1    3    3    0  502 -0.42039267840E+03 -0.65223100611E+02  0.93007178870E+03  0.10227508015E+04  0.12699999809E+01 0. -1.
</event>
<event>
 5   0  0.8609148E-04  0.1401890E+04  0.7818609E-02  0.8952451E-01
       -1   -1    0    0    0  501  0.00000000000E+00  0.00000000000E+00  0.10997264269E+04  0.10997264270E+04  0.50400001928E-02 0. -1.
        1   -1    0    0  501    0  0.00000000000E+00  0.00000000000E+00 -0.44676933488E+03  0.44676933491E+03  0.50400001928E-02 0.  1.
    10030    2    1    2    0    0  0.00000000000E+00  0.00000000000E+00  0.65295709206E+03  0.15464957619E+04  0.14018902159E+04 0.  0.
        5    1    3    3  502    0 -0.34546013414E+03  0.35341726633E+03 -0.22183879421E+03  0.54173887532E+03  0.46999998093E+01 0.  1.
       -5    1    3    3    0  502  0.34546013414E+03 -0.35341726633E+03  0.87479588628E+03  0.10047568865E+04  0.46999998093E+01 0. -1.
</event>
<event>
 5   0  0.1648463E-03  0.1009100E+04  0.7818609E-02  0.9298620E-01
        2   -1    0    0  501    0  0.00000000000E+00  0.00000000000E+00  0.20095030079E+04  0.20095030079E+04  0.25500000920E-02 0. -1.
       -2   -1    0    0    0  501  0.00000000000E+00  0.00000000000E+00 -0.12668330392E+03  0.12668330395E+03  0.25500000920E-02 0.  1.
    10030    2    1    2    0    0  0.00000000000E+00  0.00000000000E+00  0.18828197040E+04  0.21361863119E+04  0.10090995596E+04 0.  0.
        1    1    3    3  502    0 -0.37993751188E+03  0.18596397425E+03  0.35921605712E+03  0.55495160904E+03  0.50400001928E-02 0.  1.
       -1    1    3    3    0  502  0.37993751188E+03 -0.18596397425E+03  0.15236036469E+04  0.15812347028E+04  0.50400001928E-02 0. -1.
</event>
<event>
 5   0  0.1648213E-03  0.1415182E+04  0.7818609E-02  0.8942902E-01
        2   -1    0    0  501    0  0.00000000000E+00  0.00000000000E+00  0.14499261480E+04  0.14499261480E+04  0.25500000920E-02 0.  1.
       -2   -1    0    0    0  501  0.00000000000E+00  0.00000000000E+00 -0.34531750135E+03  0.34531750136E+03  0.25500000920E-02 0. -1.
    10030    2    1    2    0    0  0.00000000000E+00  0.00000000000E+00  0.11046086466E+04  0.17952436493E+04  0.14151817898E+04 0.  0.
        4    1    3    3  502    0 -0.50311436937E+02 -0.16511791487E+02 -0.34279914168E+03  0.34686704136E+03  0.12699999809E+01 0. -1.
       -4    1    3    3    0  502  0.50311436937E+02  0.16511791487E+02  0.14474077883E+04  0.14483766079E+04  0.12699999809E+01 0.  1.
</event>
<event>
 5   0  0.1578965E-03  0.1444098E+04  0.7818609E-02  0.8922502E-01
       -2   -1    0    0    0  501  0.00000000000E+00  0.00000000000E+00  0.11566064044E+04  0.11566064044E+04  0.25500000920E-02 0.  1.
        2   -1    0    0  501    0  0.00000000000E+00  0.00000000000E+00 -0.45076253055E+03  0.45076253055E+03  0.25500000920E-02 0. -1.
    10030    2    1    2    0    0  0.00000000000E+00  0.00000000000E+00  0.70584387388E+03  0.16073689350E+04  0.14440980988E+04 0.  0.
        2    1    3    3  502    0  0.34465586692E+03 -0.63240751603E+03  0.40998078833E+03  0.82874071925E+03  0.25500000920E-02 0. -1.
       -2    1    3    3    0  502 -0.34465586692E+03  0.63240751603E+03  0.29586308555E+03  0.77862821573E+03  0.25500000920E-02 0.  1.
</event>
<event>
 5   0  0.1578965E-03  0.1407334E+04  0.7818609E-02  0.8948527E-01
        2   -1    0    0  501    0  0.00000000000E+00  0.00000000000E+00  0.13766428133E+04  0.13766428133E+04  0.25500000920E-02 0.  1.
       -2   -1    0    0    0  501  0.00000000000E+00  0.00000000000E+00 -0.35967726946E+03  0.35967726947E+03  0.25500000920E-02 0. -1.
    10030    2    1    2    0    0  0.00000000000E+00  0.00000000000E+00  0.10169655438E+04  0.17363200828E+04  0.14073338312E+04 0.  0.
        2    1    3    3  502    0 -0.59112872681E+03  0.66184940766E+02  0.97230892512E+03  0.11398237863E+04  0.25500000920E-02 0.  1.
       -2    1    3    3    0  502  0.59112872681E+03 -0.66184940766E+02  0.44656618712E+02  0.59649629642E+03  0.25500000920E-02 0. -1.
</event>
<event>
 5   0  0.9007180E-04  0.1392988E+04  0.7818609E-02  0.8958910E-01
        1   -1    0    0  501    0  0.00000000000E+00  0.00000000000E+00  0.86660587326E+03  0.86660587327E+03  0.50400001928E-02 0.  1.
       -1   -1    0    0    0  501  0.00000000000E+00  0.00000000000E+00 -0.55977445260E+03  0.55977445262E+03  0.50400001928E-02 0. -1.
    10030    2    1    2    0    0  0.00000000000E+00  0.00000000000E+00  0.30683142066E+03  0.14263803259E+04  0.13929879086E+04 0.  0.
        2    1    3    3  502    0  0.52015087586E+03 -0.15869492602E+03 -0.29217419550E+03  0.61733845962E+03  0.25500000920E-02 0. -1.
       -2    1    3    3    0  502 -0.52015087586E+03  0.15869492602E+03  0.59900561616E+03  0.80904186628E+03  0.25500000920E-02 0.  1.
</event>
<event>
 5   0  0.8673728E-04  0.1397642E+04  0.7818609E-02  0.8955527E-01
        1   -1    0    0  501    0  0.00000000000E+00  0.00000000000E+00  0.11008826616E+04  0.11008826616E+04  0.50400001928E-02 0. -1.
       -1   -1    0    0    0  501  0.00000000000E+00  0.00000000000E+00 -0.44359949288E+03  0.44359949291E+03  0.50400001928E-02 0.  1.
    10030    2    1    2    0    0  0.00000000000E+00  0.00000000000E+00  0.65728316870E+03  0.15444821545E+04  0.13976422868E+04 0.  0.
        3    1    3    3  502    0 -0.34169170046E+03  0.59362646388E+03  0.48178500871E+03  0.83741411595E+03  0.10100000352E+00 0.  1.
       -3    1    3    3    0  502  0.34169170046E+03 -0.59362646388E+03  0.17549815998E+03  0.70706803855E+03  0.10100000352E+00 0. -1.
</event>
<event>
 5   0  0.1605214E-03  0.1405559E+04  0.7818609E-02  0.8949805E-01
        2   -1    0    0  501    0  0.00000000000E+00  0.00000000000E+00  0.29199825792E+03  0.29199825793E+03  0.25500000920E-02 0. -1.
       -2   -1    0    0    0  501  0.00000000000E+00  0.00000000000E+00 -0.16914447251E+04  0.16914447251E+04  0.25500000920E-02 0.  1.
    10030    2    1    2    0    0  0.00000000000E+00  0.00000000000E+00 -0.13994464672E+04  0.19834429830E+04  0.14055588399E+04 0.  0.
        5    1    3    3  502    0  0.54575427193E+03 -0.20542887353E+03 -0.12531861068E+04  0.13822251103E+04  0.46999998093E+01 0.  1.
       -5    1    3    3    0  502 -0.54575427193E+03  0.20542887353E+03 -0.14626036038E+03  0.60121787268E+03  0.46999998093E+01 0. -1.
</event>
<event>
 5   0  0.1648463E-03  0.1385970E+04  0.7818609E-02  0.8964037E-01
        2   -1    0    0  501    0  0.00000000000E+00  0.00000000000E+00  0.44891838118E+03  0.44891838118E+03  0.25500000920E-02 0. -1.
       -2   -1    0    0    0  501  0.00000000000E+00  0.00000000000E+00 -0.10697447353E+04  0.10697447353E+04  0.25500000920E-02 0.  1.
    10030    2    1    2    0    0  0.00000000000E+00  0.00000000000E+00 -0.62082635417E+03  0.15186631165E+04  0.13859698047E+04 0.  0.
        1    1    3    3  502    0 -0.41661731578E+03 -0.16138212718E+03  0.27003341217E+03  0.52204618808E+03  0.50400001928E-02 0. -1.
       -1    1    3    3    0  502  0.41661731578E+03  0.16138212718E+03 -0.89085976633E+03  0.99661692845E+03  0.50400001928E-02 0.  1.
</event>
<event>
 5   0  0.8502300E-04  0.1395087E+04  0.7818609E-02  0.8957383E-01
       -1   -1    0    0    0  501  0.00000000000E+00  0.00000000000E+00  0.38771290201E+03  0.38771290204E+03  0.50400001928E-02 0.  1.
        1   -1    0    0  501    0  0.00000000000E+00  0.00000000000E+00 -0.12549666514E+04  0.12549666514E+04  0.50400001928E-02 0. -1.
    10030    2    1    2    0    0  0.00000000000E+00  0.00000000000E+00 -0.86725374937E+03  0.16426795534E+04  0.13950867534E+04 0.  0.
        4    1    3    3  502    0  0.12523036737E+03 -0.34223674777E+03  0.26670494441E+03  0.45159913276E+03  0.12699999809E+01 0.  1.
       -4    1    3    3    0  502 -0.12523036737E+03  0.34223674777E+03 -0.11339586938E+04  0.11910804207E+04  0.12699999809E+01 0. -1.
</event>
<event>
 5   0  0.8673728E-04  0.1383545E+04  0.7818609E-02  0.8965817E-01
       -1   -1    0    0    0  501  0.00000000000E+00  0.00000000000E+00  0.55780477014E+03  0.55780477016E+03  0.50400001928E-02 0. -1.
        1   -1    0    0  501    0  0.00000000000E+00  0.00000000000E+00 -0.85791497147E+03  0.85791497148E+03  0.50400001928E-02 0.  1.
    10030    2    1    2    0    0  0.00000000000E+00  0.00000000000E+00 -0.30011020133E+03  0.14157197416E+04  0.13835448146E+04 0.  0.
        3    1    3    3  502    0 -0.17259156934E+02 -0.61463599759E+03  0.17429228075E+03  0.63910335421E+03  0.10100000352E+00 0. -1.
       -3    1    3    3    0  502  0.17259156934E+02  0.61463599759E+03 -0.47440248208E+03  0.77661638743E+03  0.10100000352E+00 0.  1.
</event>
<event>
 5   0  0.1605214E-03  0.1404606E+04  0.7818609E-02  0.8950491E-01
       -2   -1    0    0    0  501  0.00000000000E+00  0.00000000000E+00  0.51839124966E+03  0.51839124967E+03  0.25500000920E-02 0. -1.
        2   -1    0    0  501    0  0.00000000000E+00  0.00000000000E+00 -0.95146172818E+03  0.95146172818E+03  0.25500000920E-02 0.  1.
    10030    2    1    2    0    0  0.00000000000E+00  0.00000000000E+00 -0.43307047851E+03  0.14698529778E+04  0.14046059010E+04 0.  0.
        5    1    3    3  502    0  0.18335913399E+03  0.93537460203E+02  0.48609919886E+03  0.52790562567E+03  0.46999998093E+01 0. -1.
       -5    1    3    3    0  502 -0.18335913399E+03 -0.93537460203E+02 -0.91916967737E+03  0.94194735218E+03  0.46999998093E+01 0.  1.
</event>
<event>
 5   0  0.6048000E-04  0.1412431E+04  0.7818609E-02  0.8944870E-01
       -4   -1    0    0    0  501  0.00000000000E+00  0.00000000000E+00  0.59566130522E+03  0.59566265909E+03  0.12699999809E+01 0.  1.
        4   -1    0    0  501    0  0.00000000000E+00  0.00000000000E+00 -0.83728513685E+03  0.83728610002E+03  0.12699999809E+01 0. -1.
    10030    2    1    2    0    0  0.00000000000E+00  0.00000000000E+00 -0.24162383163E+03  0.14329487591E+04  0.14124305541E+04 0.  0.
        1    1    3    3  502    0  0.16019488306E+03 -0.66306699417E+03 -0.30627835702E+03  0.74774773241E+03  0.50400001928E-02 0. -1.
       -1    1    3    3    0  502 -0.16019488306E+03  0.66306699417E+03  0.64654525387E+02  0.68520102670E+03  0.50400001928E-02 0.  1.
</event>
<event>
 5   0  0.1578965E-03  0.1397580E+04  0.7818609E-02  0.8955572E-01
       -2   -1    0    0    0  501  0.00000000000E+00  0.00000000000E+00  0.44274315219E+03  0.44274315220E+03  0.25500000920E-02 0.  1.
        2   -1    0    0  501    0  0.00000000000E+00  0.00000000000E+00 -0.11029132896E+04  0.11029132896E+04  0.25500000920E-02 0. -1.
    10030    2    1    2    0    0  0.00000000000E+00  0.00000000000E+00 -0.66017013738E+03  0.15456564418E+04  0.13975797744E+04 0.  0.
        2    1    3    3  502    0  0.43837875000E+03  0.51324670837E+03 -0.53010408388E+03  0.85825896550E+03  0.25500000920E-02 0. -1.
       -2    1    3    3    0  502 -0.43837875000E+03 -0.51324670837E+03 -0.13006605351E+03  0.68739747628E+03  0.25500000920E-02 0.  1.
</event>
<event>
 5   0  0.1648213E-03  0.1389274E+04  0.7818609E-02  0.8961619E-01
        2   -1    0    0  501    0  0.00000000000E+00  0.00000000000E+00  0.19330581612E+04  0.19330581612E+04  0.25500000920E-02 0.  1.
       -2   -1    0    0    0  501  0.00000000000E+00  0.00000000000E+00 -0.24961521588E+03  0.24961521590E+03  0.25500000920E-02 0. -1.
    10030    2    1    2    0    0  0.00000000000E+00  0.00000000000E+00  0.16834429453E+04  0.21826733771E+04  0.13892742425E+04 0.  0.
        4    1    3    3  502    0 -0.18757414879E+03 -0.21378961758E+03  0.18373866753E+04  0.18592690685E+04  0.12699999809E+01 0.  1.
       -4    1    3    3    0  502  0.18757414879E+03  0.21378961758E+03 -0.15394372997E+03  0.32340430854E+03  0.12699999809E+01 0. -1.
</event>
<event>
 5   0  0.9639548E-04  0.1273945E+04  0.7818609E-02  0.9050486E-01
       -1   -1    0    0    0  501  0.00000000000E+00  0.00000000000E+00  0.44173079526E+03  0.44173079529E+03  0.50400001928E-02 0.  1.
        1   -1    0    0  501    0  0.00000000000E+00  0.00000000000E+00 -0.91850921608E+03  0.91850921609E+03  0.50400001928E-02 0. -1.
    10030    2    1    2    0    0  0.00000000000E+00  0.00000000000E+00 -0.47677842081E+03  0.13602400114E+04  0.12739447500E+04 0.  0.
        1    1    3    3  502    0  0.10166701063E+03  0.56464795276E+02  0.43029939795E+03  0.44573762020E+03  0.50400001928E-02 0.  1.
       -1    1    3    3    0  502 -0.10166701063E+03 -0.56464795276E+02 -0.90707781877E+03  0.91450239118E+03  0.50400001928E-02 0. -1.
</event>
<event>
 5   0  0.9639548E-04  0.1422291E+04  0.7818609E-02  0.8937840E-01
        1   -1    0    0  501    0  0.00000000000E+00  0.00000000000E+00  0.15469740754E+04  0.15469740754E+04  0.50400001928E-02 0. -1.
       -1   -1    0    0    0  501  0.00000000000E+00  0.00000000000E+00 -0.32691410941E+03  0.32691410945E+03  0.50400001928E-02 0.  1.
    10030    2    1    2    0    0  0.00000000000E+00  0.00000000000E+00  0.12200599660E+04  0.18738881849E+04  0.14222906204E+04 0.  0.
        1    1    3    3  502    0  0.47891115977E+03  0.15340361676E+02  0.13023664015E+04  0.13877137563E+04  0.50400001928E-02 0. -1.
       -1    1    3    3    0  502 -0.47891115977E+03 -0.15340361676E+02 -0.82306435494E+02  0.48617442857E+03  0.50400001928E-02 0.  1.
</event>
<event>
 5   0  0.8609148E-04  0.1390546E+04  0.7818609E-02  0.8960690E-01
       -1   -1    0    0    0  501  0.00000000000E+00  0.00000000000E+00  0.35095364920E+03  0.35095364924E+03  0.50400001928E-02 0. -1.
        1   -1    0    0  501    0  0.00000000000E+00  0.00000000000E+00 -0.13774027614E+04  0.13774027614E+04  0.50400001928E-02 0.  1.
    10030    2    1    2    0    0  0.00000000000E+00  0.00000000000E+00 -0.10264491122E+04  0.17283564107E+04  0.13905459727E+04 0.  0.
        5    1    3    3  502    0 -0.45542263421E+03 -0.90123114872E+02 -0.11564958494E+04  0.12462089276E+04  0.46999998093E+01 0.  1.
       -5    1    3    3    0  502  0.45542263421E+03  0.90123114872E+02  0.13004673717E+03  0.48214748307E+03  0.46999998093E+01 0. -1.
</event>
<event>
 5   0  0.1648463E-03  0.1417031E+04  0.7818609E-02  0.8941582E-01
        2   -1    0    0  501    0  0.00000000000E+00  0.00000000000E+00  0.11831785811E+04  0.11831785811E+04  0.25500000920E-02 0.  1.
       -2   -1    0    0    0  501  0.00000000000E+00  0.00000000000E+00 -0.42427582115E+03  0.42427582116E+03  0.25500000920E-02 0. -1.
    10030    2    1    2    0    0  0.00000000000E+00  0.00000000000E+00  0.75890275993E+03  0.16074544022E+04  0.14170307887E+04 0.  0.
        1    1    3    3  502    0  0.67035729694E+03 -0.19393887814E+03  0.24050521990E+03  0.73812868448E+03  0.50400001928E-02 0. -1.
       -1    1    3    3    0  502 -0.67035729694E+03  0.19393887814E+03  0.51839754003E+03  0.86932571776E+03  0.50400001928E-02 0.  1.
</event>
<event>
 5   0  0.6048000E-04  0.1406781E+04  0.7818609E-02  0.8948925E-01
       -3   -1    0    0    0  501  0.00000000000E+00  0.00000000000E+00  0.57560104783E+03  0.57560105669E+03  0.10100000352E+00 0. -1.
        3   -1    0    0  501    0  0.00000000000E+00  0.00000000000E+00 -0.85955068832E+03  0.85955069426E+03  0.10100000352E+00 0.  1.
    10030    2    1    2    0    0  0.00000000000E+00  0.00000000000E+00 -0.28394964050E+03  0.14351517509E+04  0.14067811308E+04 0.  0.
        5    1    3    3  502    0 -0.33122693865E+03  0.48286106613E+03  0.25558953085E+03  0.63891642047E+03  0.46999998093E+01 0. -1.
       -5    1    3    3    0  502  0.33122693865E+03 -0.48286106613E+03 -0.53953917135E+03  0.79623533047E+03  0.46999998093E+01 0.  1.
</event>
<event>
 5   0  0.1648213E-03  0.1413551E+04  0.7818609E-02  0.8944068E-01
        2   -1    0    0  501    0  0.00000000000E+00  0.00000000000E+00  0.17721800566E+04  0.17721800566E+04  0.25500000920E-02 0. -1.
       -2   -1    0    0    0  501  0.00000000000E+00  0.00000000000E+00 -0.28187405971E+03  0.28187405972E+03  0.25500000920E-02 0.  1.
    10030    2    1    2    0    0  0.00000000000E+00  0.00000000000E+00  0.14903059969E+04  0.20540541163E+04  0.14135509713E+04 0.  0.
        4    1    3    3  502    0  0.26089484429E+03 -0.61202693138E+03  0.39857060010E+03  0.77556638702E+03  0.12699999809E+01 0.  1.
       -4    1    3    3    0  502 -0.26089484429E+03  0.61202693138E+03  0.10917353968E+04  0.12784877293E+04  0.12699999809E+01 0. -1.
</event>
<event>
 5   0  0.8502300E-04  0.1389358E+04  0.7818609E-02  0.8961558E-01
       -1   -1    0    0    0  501  0.00000000000E+00  0.00000000000E+00  0.34354402687E+03  0.34354402691E+03  0.50400001928E-02 0.  1.
        1   -1    0    0  501    0  0.00000000000E+00  0.00000000000E+00 -0.14047071160E+04  0.14047071160E+04  0.50400001928E-02 0. -1.
    10030    2    1    2    0    0  0.00000000000E+00  0.00000000000E+00 -0.10611630891E+04  0.17482511429E+04  0.13893577498E+04 0.  0.
        4    1    3    3  502    0 -0.14323849939E+03 -0.11866809922E+02 -0.13857913344E+04  0.13932255109E+04  0.12699999809E+01 0. -1.
       -4    1    3    3    0  502  0.14323849939E+03  0.11866809922E+02  0.32462824524E+03  0.35502563202E+03  0.12699999809E+01 0.  1.
</event>
<event>
 5   0  0.8609148E-04  0.1388777E+04  0.7818609E-02  0.8961982E-01
       -1   -1    0    0    0  501  0.00000000000E+00  0.00000000000E+00  0.33504949187E+03  0.33504949190E+03  0.50400001928E-02 0.  1.
        1   -1    0    0  501    0  0.00000000000E+00  0.00000000000E+00 -0.14391173999E+04  0.14391173999E+04  0.50400001928E-02 0. -1.
    10030    2    1    2    0    0  0.00000000000E+00  0.00000000000E+00 -0.11040679080E+04  0.17741668918E+04  0.13887772371E+04 0.  0.
        5    1    3    3  502    0 -0.34649181279E+03 -0.21857358382E+03 -0.12682591570E+04  0.13327919444E+04  0.46999998093E+01 0. -1.
       -5    1    3    3    0  502  0.34649181279E+03  0.21857358382E+03  0.16419124901E+03  0.44137494732E+03  0.46999998093E+01 0.  1.
</event>
<event>
 5   0  0.1648463E-03  0.1405645E+04  0.7818609E-02  0.8949743E-01
        2   -1    0    0  501    0  0.00000000000E+00  0.00000000000E+00  0.80550969485E+03  0.80550969486E+03  0.25500000920E-02 0.  1.
       -2   -1    0    0    0  501  0.00000000000E+00  0.00000000000E+00 -0.61322575191E+03  0.61322575191E+03  0.25500000920E-02 0. -1.
    10030    2    1    2    0    0  0.00000000000E+00  0.00000000000E+00  0.19228394295E+03  0.14187354468E+04  0.14056447464E+04 0.  0.
        1    1    3    3  502    0  0.67403076730E+03  0.15668963606E+03  0.22012805048E+03  0.72617179506E+03  0.50400001928E-02 0.  1.
       -1    1    3    3    0  502 -0.67403076730E+03 -0.15668963606E+03 -0.27844107531E+02  0.69256365171E+03  0.50400001928E-02 0. -1.
</event>
<event>
 5   0  0.8673728E-04  0.1408470E+04  0.7818609E-02  0.8947710E-01
        1   -1    0    0  501    0  0.00000000000E+00  0.00000000000E+00  0.11063083581E+04  0.11063083581E+04  0.50400001928E-02 0. -1.
       -1   -1    0    0    0  501  0.00000000000E+00  0.00000000000E+00 -0.44829021548E+03  0.44829021551E+03  0.50400001928E-02 0.  1.
    10030    2    1    2    0    0  0.00000000000E+00  0.00000000000E+00  0.65801814265E+03  0.15545985736E+04  0.14084703934E+04 0.  0.
        3    1    3    3  502    0  0.44666265999E+03 -0.46431274245E+03  0.64285720111E+03  0.91014243163E+03  0.10100000352E+00 0. -1.
       -3    1    3    3    0  502 -0.44666265999E+03  0.46431274245E+03  0.15160941539E+02  0.64445614202E+03  0.10100000352E+00 0.  1.
</event>
<event>
 5   0  0.1578965E-03  0.1412118E+04  0.7818609E-02  0.8945094E-01
       -2   -1    0    0    0  501  0.00000000000E+00  0.00000000000E+00  0.50880401664E+03  0.50880401665E+03  0.25500000920E-02 0.  1.
        2   -1    0    0  501    0  0.00000000000E+00  0.00000000000E+00 -0.97978583049E+03  0.97978583050E+03  0.25500000920E-02 0. -1.
    10030    2    1    2    0    0  0.00000000000E+00  0.00000000000E+00 -0.47098181385E+03  0.14885898471E+04  0.14121175107E+04 0.  0.
        2    1    3    3  502    0 -0.38984163207E+03 -0.58079352993E+01  0.38503698629E+03  0.54796323876E+03  0.25500000920E-02 0.  1.
       -2    1    3    3    0  502  0.38984163207E+03  0.58079352993E+01 -0.85601880014E+03  0.94062660839E+03  0.25500000920E-02 0. -1.
</event>
<event>
 5   0  0.1578965E-03  0.1441090E+04  0.7818609E-02  0.8924601E-01
        2   -1    0    0  501    0  0.00000000000E+00  0.00000000000E+00  0.11129250929E+04  0.11129250929E+04  0.25500000920E-02 0.  1.
       -2   -1    0    0    0  501  0.00000000000E+00  0.00000000000E+00 -0.46650500127E+03  0.46650500127E+03  0.25500000920E-02 0. -1.
    10030    2    1    2    0    0  0.00000000000E+00  0.00000000000E+00  0.64642009163E+03  0.15794300942E+04  0.14410900345E+04 0.  0.
        2    1    3    3  502    0 -0.64061140012E+03  0.21616778331E+03  0.50147006910E+02  0.67795737242E+03  0.25500000920E-02 0.  1.
       -2    1    3    3    0  502  0.64061140012E+03 -0.21616778331E+03  0.59627308472E+03  0.90147272176E+03  0.25500000920E-02 0. -1.
</event>
<event>
 5   0  0.1648213E-03  0.1410517E+04  0.7818609E-02  0.8946240E-01
        2   -1    0    0  501    0  0.00000000000E+00  0.00000000000E+00  0.10552592353E+04  0.10552592353E+04  0.25500000920E-02 0.  1.
       -2   -1    0    0    0  501  0.00000000000E+00  0.00000000000E+00 -0.47134377225E+03  0.47134377226E+03  0.25500000920E-02 0. -1.
    10030    2    1    2    0    0  0.00000000000E+00  0.00000000000E+00  0.58391546306E+03  0.15266030076E+04  0.14105174493E+04 0.  0.
        4    1    3    3  502    0 -0.19222200098E+02  0.21879052960E+03  0.10173001815E+04  0.10407401505E+04  0.12699999809E+01 0.  1.
       -4    1    3    3    0  502  0.19222200098E+02 -0.21879052960E+03 -0.43338471840E+03  0.48586285705E+03  0.12699999809E+01 0. -1.
</event>
<event>
 5   0  0.1605214E-03  0.1367182E+04  0.7818609E-02  0.8977923E-01
        2   -1    0    0  501    0  0.00000000000E+00  0.00000000000E+00  0.18746546836E+04  0.18746546836E+04  0.25500000920E-02 0.  1.
       -2   -1    0    0    0  501  0.00000000000E+00  0.00000000000E+00 -0.24927066353E+03  0.24927066354E+03  0.25500000920E-02 0. -1.
    10030    2    1    2    0    0  0.00000000000E+00  0.00000000000E+00  0.16253840201E+04  0.21239253471E+04  0.13671816512E+04 0.  0.
        5    1    3    3  502    0  0.32726787635E+03 -0.15267074061E+03 -0.88959782638E+02  0.37195235025E+03  0.46999998093E+01 0. -1.
       -5    1    3    3    0  502 -0.32726787635E+03  0.15267074061E+03  0.17143438027E+04  0.17519729969E+04  0.46999998093E+01 0.  1.
</event>
<event>
 5   0  0.1648463E-03  0.1386798E+04  0.7818609E-02  0.8963430E-01
       -2   -1    0    0    0  501  0.00000000000E+00  0.00000000000E+00  0.41634499949E+03  0.41634499949E+03  0.25500000920E-02 0.  1.
        2   -1    0    0  501    0  0.00000000000E+00  0.00000000000E+00 -0.11548173851E+04  0.11548173851E+04  0.25500000920E-02 0. -1.
    10030    2    1    2    0    0  0.00000000000E+00  0.00000000000E+00 -0.73847238561E+03  0.15711623846E+04  0.13867983900E+04 0.  0.
        1    1    3    3  502    0  0.24357331552E+03 -0.57813994400E+03 -0.34627348320E+02  0.62830948438E+03  0.50400001928E-02 0.  1.
       -1    1    3    3    0  502 -0.24357331552E+03  0.57813994400E+03 -0.70384503729E+03  0.94285290020E+03  0.50400001928E-02 0. -1.
</event>
<event>
 5   0  0.1605214E-03  0.1469207E+04  0.7818609E-02  0.8905192E-01
       -2   -1    0    0    0  501  0.00000000000E+00  0.00000000000E+00  0.34948346462E+03  0.34948346463E+03  0.25500000920E-02 0. -1.
        2   -1    0    0  501    0  0.00000000000E+00  0.00000000000E+00 -0.15441130633E+04  0.15441130633E+04  0.25500000920E-02 0.  1.
    10030    2    1    2    0    0  0.00000000000E+00  0.00000000000E+00 -0.11946295987E+04  0.18935965279E+04  0.14692065657E+04 0.  0.
        5    1    3    3  502    0 -0.39240061748E+02  0.64911419823E+03 -0.15696536151E+03  0.66899121034E+03  0.46999998093E+01 0. -1.
       -5    1    3    3    0  502  0.39240061748E+02 -0.64911419823E+03 -0.10376642372E+04  0.12246053176E+04  0.46999998093E+01 0.  1.
</event>
<event>
 5   0  0.8502300E-04  0.1457544E+04  0.7818609E-02  0.8913187E-01
       -1   -1    0    0    0  501  0.00000000000E+00  0.00000000000E+00  0.11006636972E+04  0.11006636972E+04  0.50400001928E-02 0. -1.
        1   -1    0    0  501    0  0.00000000000E+00  0.00000000000E+00 -0.48253476135E+03  0.48253476137E+03  0.50400001928E-02 0.  1.
    10030    2    1    2    0    0  0.00000000000E+00  0.00000000000E+00  0.61812893582E+03  0.15831984586E+04  0.14575438168E+04 0.  0.
        4    1    3    3  502    0  0.29173340373E+03 -0.38861310108E+03  0.89900579062E+03  0.10219303037E+04  0.12699999809E+01 0. -1.
       -4    1    3    3    0  502 -0.29173340373E+03  0.38861310108E+03 -0.28087685480E+03  0.56126815484E+03  0.12699999809E+01 0.  1.
</event>
<event>
 5   0  0.8609148E-04  0.1409888E+04  0.7818609E-02  0.8946692E-01
       -1   -1    0    0    0  501  0.00000000000E+00  0.00000000000E+00  0.84242873079E+03  0.84242873080E+03  0.50400001928E-02 0. -1.
        1   -1    0    0  501    0  0.00000000000E+00  0.00000000000E+00 -0.58989643368E+03  0.58989643370E+03  0.50400001928E-02 0.  1.
    10030    2    1    2    0    0  0.00000000000E+00  0.00000000000E+00  0.25253229710E+03  0.14323251645E+04  0.14098875188E+04 0.  0.
        5    1    3    3  502    0 -0.49954055160E+03 -0.35370281012E+03 -0.22898038724E+03  0.65352930181E+03  0.46999998093E+01 0. -1.
       -5    1    3    3    0  502  0.49954055160E+03  0.35370281012E+03  0.48151268434E+03  0.77879586270E+03  0.46999998093E+01 0.  1.
</event>
<event>
 5   0  0.1648213E-03  0.1281637E+04  0.7818609E-02  0.9044255E-01
        2   -1    0    0  501    0  0.00000000000E+00  0.00000000000E+00  0.79636167542E+03  0.79636167543E+03  0.25500000920E-02 0.  1.
       -2   -1    0    0    0  501  0.00000000000E+00  0.00000000000E+00 -0.51565576221E+03  0.51565576222E+03  0.25500000920E-02 0. -1.
    10030    2    1    2    0    0  0.00000000000E+00  0.00000000000E+00  0.28070591321E+03  0.13120174376E+04  0.12816372135E+04 0.  0.
        4    1    3    3  502    0  0.85570064386E+02  0.20975830205E+02 -0.50942482929E+03  0.51698886929E+03  0.12699999809E+01 0. -1.
       -4    1    3    3    0  502 -0.85570064386E+02 -0.20975830205E+02  0.79013074250E+03  0.79502856836E+03  0.12699999809E+01 0.  1.
</event>
<event>
 5   0  0.1578965E-03  0.1399216E+04  0.7818609E-02  0.8954386E-01
        2   -1    0    0  501    0  0.00000000000E+00  0.00000000000E+00  0.64097432521E+03  0.64097432521E+03  0.25500000920E-02 0. -1.
       -2   -1    0    0    0  501  0.00000000000E+00  0.00000000000E+00 -0.76360553681E+03  0.76360553681E+03  0.25500000920E-02 0.  1.
    10030    2    1    2    0    0  0.00000000000E+00  0.00000000000E+00 -0.12263121160E+03  0.14045798620E+04  0.13992162716E+04 0.  0.
        2    1    3    3  502    0  0.49668082930E+03 -0.17417707245E+02 -0.55560164696E+03  0.74544511054E+03  0.25500000920E-02 0.  1.
       -2    1    3    3    0  502 -0.49668082930E+03  0.17417707245E+02  0.43297043536E+03  0.65913475149E+03  0.25500000920E-02 0. -1.
</event>
<event>
 5   0  0.8609148E-04  0.1401426E+04  0.7818609E-02  0.8952787E-01
        1   -1    0    0  501    0  0.00000000000E+00  0.00000000000E+00  0.71089950968E+03  0.71089950970E+03  0.50400001928E-02 0.  1.
       -1   -1    0    0    0  501  0.00000000000E+00  0.00000000000E+00 -0.69067210619E+03  0.69067210621E+03  0.50400001928E-02 0. -1.
    10030    2    1    2    0    0  0.00000000000E+00  0.00000000000E+00  0.20227403491E+02  0.14015716159E+04  0.14014256479E+04 0.  0.
        5    1    3    3  502    0 -0.36963876652E+02  0.31187827360E+03  0.63655102532E+03  0.70982651652E+03  0.46999998093E+01 0.  1.
       -5    1    3    3    0  502  0.36963876652E+02 -0.31187827360E+03 -0.61632362183E+03  0.69174509940E+03  0.46999998093E+01 0. -1.
</event>
<event>
 5   0  0.8502300E-04  0.1378490E+04  0.7818609E-02  0.8969537E-01
       -1   -1    0    0    0  501  0.00000000000E+00  0.00000000000E+00  0.16707899002E+04  0.16707899002E+04  0.50400001928E-02 0. -1.
        1   -1    0    0  501    0  0.00000000000E+00  0.00000000000E+00 -0.28433182678E+03  0.28433182682E+03  0.50400001928E-02 0.  1.
    10030    2    1    2    0    0  0.00000000000E+00  0.00000000000E+00  0.13864580734E+04  0.19551217270E+04  0.13784901081E+04 0.  0.
        4    1    3    3  502    0 -0.51413092183E+03 -0.42243353129E+03  0.43842109981E+03  0.79686596539E+03  0.12699999809E+01 0.  1.
       -4    1    3    3    0  502  0.51413092183E+03  0.42243353129E+03  0.94803697360E+03  0.11582557616E+04  0.12699999809E+01 0. -1.
</event>
<event>
 5   0  0.1605214E-03  0.1380453E+04  0.7818609E-02  0.8968090E-01
        2   -1    0    0  501    0  0.00000000000E+00  0.00000000000E+00  0.84337372108E+03  0.84337372108E+03  0.25500000920E-02 0.  1.
       -2   -1    0    0    0  501  0.00000000000E+00  0.00000000000E+00 -0.56488917163E+03  0.56488917163E+03  0.25500000920E-02 0. -1.
    10030    2    1    2    0    0  0.00000000000E+00  0.00000000000E+00  0.27848454945E+03  0.14082628927E+04  0.13804530889E+04 0.  0.
        5    1    3    3  502    0 -0.33540080283E+03  0.58199694671E+03 -0.22625096385E+02  0.67212210908E+03  0.46999998093E+01 0. -1.
       -5    1    3    3    0  502  0.33540080283E+03 -0.58199694671E+03  0.30110964584E+03  0.73614078364E+03  0.46999998093E+01 0.  1.
</event>
<event>
 5   0  0.9007180E-04  0.1127974E+04  0.7818609E-02  0.9178348E-01
        1   -1    0    0  501    0  0.00000000000E+00  0.00000000000E+00  0.82000650452E+03  0.82000650454E+03  0.50400001928E-02 0. -1.
       -1   -1    0    0    0  501  0.00000000000E+00  0.00000000000E+00 -0.38790084940E+03  0.38790084943E+03  0.50400001928E-02 0.  1.
    10030    2    1    2    0    0  0.00000000000E+00  0.00000000000E+00  0.43210565512E+03  0.12079073540E+04  0.11279737934E+04 0.  0.
        2    1    3    3  502    0  0.26899110671E+03  0.49312984769E+03  0.16199847082E+03  0.58461676911E+03  0.25500000920E-02 0. -1.
       -2    1    3    3    0  502 -0.26899110671E+03 -0.49312984769E+03  0.27010718430E+03  0.62329058487E+03  0.25500000920E-02 0.  1.
</event>
<event>
 5   0  0.8673728E-04  0.1397423E+04  0.7818609E-02  0.8955686E-01
        1   -1    0    0  501    0  0.00000000000E+00  0.00000000000E+00  0.11179665690E+04  0.11179665690E+04  0.50400001928E-02 0.  1.
       -1   -1    0    0    0  501  0.00000000000E+00  0.00000000000E+00 -0.43668391753E+03  0.43668391756E+03  0.50400001928E-02 0. -1.
    10030    2    1    2    0    0  0.00000000000E+00  0.00000000000E+00  0.68128265142E+03  0.15546504865E+04  0.13974233733E+04 0.  0.
        3    1    3    3  502    0  0.17690171844E+03  0.34260246082E+03  0.98889075622E+03  0.10614026579E+04  0.10100000352E+00 0.  1.
       -3    1    3    3    0  502 -0.17690171844E+03 -0.34260246082E+03 -0.30760810480E+03  0.49324782867E+03  0.10100000352E+00 0. -1.
</event>
<event>
 5   0  0.9639548E-04  0.1380922E+04  0.7818609E-02  0.8967745E-01
        1   -1    0    0  501    0  0.00000000000E+00  0.00000000000E+00  0.68262857479E+03  0.68262857481E+03  0.50400001928E-02 0. -1.
       -1   -1    0    0    0  501  0.00000000000E+00  0.00000000000E+00 -0.69838330086E+03  0.69838330087E+03  0.50400001928E-02 0.  1.
    10030    2    1    2    0    0  0.00000000000E+00  0.00000000000E+00 -0.15754726066E+02  0.13810118757E+04  0.13809220070E+04 0.  0.
        1    1    3    3  502    0 -0.42271103961E+02 -0.45206267908E+03 -0.52809280456E+03  0.69644060931E+03  0.50400001928E-02 0.  1.
       -1    1    3    3    0  502  0.42271103961E+02  0.45206267908E+03  0.51233807849E+03  0.68457126637E+03  0.50400001928E-02 0. -1.
</event>
<event>
 5   0  0.1648463E-03  0.1384980E+04  0.7818609E-02  0.8964763E-01
        2   -1    0    0  501    0  0.00000000000E+00  0.00000000000E+00  0.95146534190E+03  0.95146534190E+03  0.25500000920E-02 0. -1.
       -2   -1    0    0    0  501  0.00000000000E+00  0.00000000000E+00 -0.50400387221E+03  0.50400387221E+03  0.25500000920E-02 0.  1.
    10030    2    1    2    0    0  0.00000000000E+00  0.00000000000E+00  0.44746146969E+03  0.14554692141E+04  0.13849797350E+04 0.  0.
        1    1    3    3  502    0  0.25315250511E+03 -0.64148806919E+03  0.28977083534E+03  0.74803761322E+03  0.50400001928E-02 0. -1.
       -1    1    3    3    0  502 -0.25315250511E+03  0.64148806919E+03  0.15769063435E+03  0.70743160089E+03  0.50400001928E-02 0.  1.
</event>
<event>
 5   0  0.1706986E-03  0.1456702E+04  0.7818609E-02  0.8913767E-01
        2   -1    0    0  501    0  0.00000000000E+00  0.00000000000E+00  0.13427126985E+04  0.13427126985E+04  0.25500000920E-02 0. -1.
       -2   -1    0    0    0  501  0.00000000000E+00  0.00000000000E+00 -0.39509211052E+03  0.39509211052E+03  0.25500000920E-02 0.  1.
    10030    2    1    2    0    0  0.00000000000E+00  0.00000000000E+00  0.94762058798E+03  0.17378048090E+04  0.14567020201E+04 0.  0.
        3    1    3    3  502    0  0.21128962124E+03 -0.60321397509E+03  0.89047152790E+03  0.10961067265E+04  0.10100000352E+00 0. -1.
       -3    1    3    3    0  502 -0.21128962124E+03  0.60321397509E+03  0.57149060080E+02  0.64169808247E+03  0.10100000352E+00 0.  1.
</event>
<event>
 5   0  0.1605214E-03  0.1403743E+04  0.7818609E-02  0.8951113E-01
       -2   -1    0    0    0  501  0.00000000000E+00  0.00000000000E+00  0.52054209227E+03  0.52054209228E+03  0.25500000920E-02 0. -1.
        2   -1    0    0  501    0  0.00000000000E+00  0.00000000000E+00 -0.94636702972E+03  0.94636702973E+03  0.25500000920E-02 0.  1.
    10030    2    1    2    0    0  0.00000000000E+00  0.00000000000E+00 -0.42582493745E+03  0.14669091220E+04  0.14037433864E+04 0.  0.
        5    1    3    3  502    0 -0.15720344858E+02 -0.17553887242E+03  0.49702568362E+03  0.52736860463E+03  0.46999998093E+01 0. -1.
       -5    1    3    3    0  502  0.15720344858E+02  0.17553887242E+03 -0.92285062107E+03  0.93954051737E+03  0.46999998093E+01 0.  1.
</event>
<event>
 5   0  0.1648213E-03  0.1399429E+04  0.7818609E-02  0.8954232E-01
       -2   -1    0    0    0  501  0.00000000000E+00  0.00000000000E+00  0.39227192972E+03  0.39227192973E+03  0.25500000920E-02 0.  1.
        2   -1    0    0  501    0  0.00000000000E+00  0.00000000000E+00 -0.12481144866E+04  0.12481144866E+04  0.25500000920E-02 0. -1.
    10030    2    1    2    0    0  0.00000000000E+00  0.00000000000E+00 -0.85584255692E+03  0.16403864164E+04  0.13994288524E+04 0.  0.
        4    1    3    3  502    0  0.60468686329E+03 -0.26290058775E+03 -0.70241170962E+03  0.96340372866E+03  0.12699999809E+01 0. -1.
       -4    1    3    3    0  502 -0.60468686329E+03  0.26290058775E+03 -0.15343084730E+03  0.67698268772E+03  0.12699999809E+01 0.  1.
</event>
<event>
 5   0  0.1648463E-03  0.1421253E+04  0.7818609E-02  0.8938577E-01
       -2   -1    0    0    0  501  0.00000000000E+00  0.00000000000E+00  0.25509530496E+03  0.25509530498E+03  0.25500000920E-02 0. -1.
        2   -1    0    0  501    0  0.00000000000E+00  0.00000000000E+00 -0.19796130076E+04  0.19796130076E+04  0.25500000920E-02 0.  1.
    10030    2    1    2    0    0  0.00000000000E+00  0.00000000000E+00 -0.17245177026E+04  0.22347083125E+04  0.14212529457E+04 0.  0.
        1    1    3    3  502    0 -0.63728240283E+03 -0.14185936445E+03 -0.13034624222E+04  0.14578296287E+04  0.50400001928E-02 0.  1.
       -1    1    3    3    0  502  0.63728240283E+03  0.14185936445E+03 -0.42105528043E+03  0.77687868386E+03  0.50400001928E-02 0. -1.
</event>
<event>
 5   0  0.9007180E-04  0.1207115E+04  0.7818609E-02  0.9106651E-01
       -1   -1    0    0    0  501  0.00000000000E+00  0.00000000000E+00  0.43082246636E+03  0.43082246639E+03  0.50400001928E-02 0. -1.
        1   -1    0    0  501    0  0.00000000000E+00  0.00000000000E+00 -0.84554987562E+03  0.84554987563E+03  0.50400001928E-02 0.  1.
    10030    2    1    2    0    0  0.00000000000E+00  0.00000000000E+00 -0.41472740925E+03  0.12763723420E+04  0.12071153762E+04 0.  0.
        2    1    3    3  502    0  0.47566492057E+03 -0.25543971945E+03 -0.49261042024E+03  0.73087043521E+03  0.25500000920E-02 0.  1.
       -2    1    3    3    0  502 -0.47566492057E+03  0.25543971945E+03  0.77883010987E+02  0.54550190681E+03  0.25500000920E-02 0. -1.
</event>
<event>
 5   0  0.8673728E-04  0.1406216E+04  0.7818609E-02  0.8949331E-01
       -1   -1    0    0    0  501  0.00000000000E+00  0.00000000000E+00  0.24483390776E+03  0.24483390781E+03  0.50400001928E-02 0. -1.
        1   -1    0    0  501    0  0.00000000000E+00  0.00000000000E+00 -0.20191684056E+04  0.20191684056E+04  0.50400001928E-02 0.  1.
    10030    2    1    2    0    0  0.00000000000E+00  0.00000000000E+00 -0.17743344979E+04  0.22640023134E+04  0.14062160449E+04 0.  0.
        3    1    3    3  502    0 -0.32159501296E+03  0.15400019579E+03  0.88471069040E+02  0.36737794289E+03  0.10100000352E+00 0. -1.
       -3    1    3    3    0  502  0.32159501296E+03 -0.15400019579E+03 -0.18628055669E+04  0.18966243705E+04  0.10100000352E+00 0.  1.
</event>
<event>
 5   0  0.1605214E-03  0.1440180E+04  0.7818609E-02  0.8925237E-01
        2   -1    0    0  501    0  0.00000000000E+00  0.00000000000E+00  0.61140877687E+03  0.61140877687E+03  0.25500000920E-02 0.  1.
       -2   -1    0    0    0  501  0.00000000000E+00  0.00000000000E+00 -0.84808941293E+03  0.84808941293E+03  0.25500000920E-02 0. -1.
    10030    2    1    2    0    0  0.00000000000E+00  0.00000000000E+00 -0.23668063606E+03  0.14594981898E+04  0.14401795869E+04 0.  0.
        5    1    3    3  502    0 -0.19111307963E+03 -0.29575823559E+03  0.51818540732E+03  0.62652641563E+03  0.46999998093E+01 0.  1.
       -5    1    3    3    0  502  0.19111307963E+03  0.29575823559E+03 -0.75486604338E+03  0.83297177417E+03  0.46999998093E+01 0. -1.
</event>
<event>
 5   0  0.1706986E-03  0.1376835E+04  0.7818609E-02  0.8970759E-01
        2   -1    0    0  501    0  0.00000000000E+00  0.00000000000E+00  0.10162114416E+04  0.10162114416E+04  0.25500000920E-02 0. -1.
       -2   -1    0    0    0  501  0.00000000000E+00  0.00000000000E+00 -0.46635854035E+03  0.46635854036E+03  0.25500000920E-02 0.  1.
    10030    2    1    2    0    0  0.00000000000E+00  0.00000000000E+00  0.54985290121E+03  0.14825699819E+04  0.13768353345E+04 0.  0.
        3    1    3    3  502    0 -0.46038002792E+03  0.18347210985E+03  0.78943535827E+03  0.93210513370E+03  0.10100000352E+00 0. -1.
       -3    1    3    3    0  502  0.46038002792E+03 -0.18347210985E+03 -0.23958245706E+03  0.55046484822E+03  0.10100000352E+00 0.  1.
</event>
<event>
 5   0  0.8502300E-04  0.1385999E+04  0.7818609E-02  0.8964016E-01
        1   -1    0    0  501    0  0.00000000000E+00  0.00000000000E+00  0.20187315238E+03  0.20187315245E+03  0.50400001928E-02 0.  1.
       -1   -1    0    0    0  501  0.00000000000E+00  0.00000000000E+00 -0.23789594701E+04  0.23789594701E+04  0.50400001928E-02 0. -1.
    10030    2    1    2    0    0  0.00000000000E+00  0.00000000000E+00 -0.21770863177E+04  0.25808326226E+04  0.13859986258E+04 0.  0.
        4    1    3    3  502    0 -0.36122043398E+03  0.59051738704E+03 -0.11490376129E+04  0.13414469930E+04  0.12699999809E+01 0. -1.
       -4    1    3    3    0  502  0.36122043398E+03 -0.59051738704E+03 -0.10280487048E+04  0.12393856296E+04  0.12699999809E+01 0.  1.
</event>
<event>
 5   0  0.9639548E-04  0.1424805E+04  0.7818609E-02  0.8936056E-01
        1   -1    0    0  501    0  0.00000000000E+00  0.00000000000E+00  0.10126977549E+04  0.10126977550E+04  0.50400001928E-02 0. -1.
       -1   -1    0    0    0  501  0.00000000000E+00  0.00000000000E+00 -0.50115404861E+03  0.50115404863E+03  0.50400001928E-02 0.  1.
    10030    2    1    2    0    0  0.00000000000E+00  0.00000000000E+00  0.51154370633E+03  0.15138518036E+04  0.14248053621E+04 0.  0.
        1    1    3    3  502    0 -0.11742674297E+02 -0.68681610915E+02 -0.49752486665E+03  0.50238038082E+03  0.50400001928E-02 0.  1.
       -1    1    3    3    0  502  0.11742674297E+02  0.68681610915E+02  0.10090685730E+04  0.10114714228E+04  0.50400001928E-02 0. -1.
</event>
<event>
 5   0  0.1605214E-03  0.1382382E+04  0.7818609E-02  0.8966671E-01
        2   -1    0    0  501    0  0.00000000000E+00  0.00000000000E+00  0.15556081251E+04  0.15556081251E+04  0.25500000920E-02 0. -1.
       -2   -1    0    0    0  501  0.00000000000E+00  0.00000000000E+00 -0.30711128391E+03  0.30711128392E+03  0.25500000920E-02 0.  1.
    10030    2    1    2    0    0  0.00000000000E+00  0.00000000000E+00  0.12484968412E+04  0.18627194090E+04  0.13823817252E+04 0.  0.
        5    1    3    3  502    0  0.48081548729E+03  0.17465836003E+03 -0.20483186055E+01  0.51158123613E+03  0.46999998093E+01 0.  1.
       -5    1    3    3    0  502 -0.48081548729E+03 -0.17465836003E+03  0.12505451598E+04  0.13511381729E+04  0.46999998093E+01 0. -1.
</event>
<event>
 5   0  0.8502300E-04  0.1646074E+04  0.7818609E-02  0.8792733E-01
        1   -1    0    0  501    0  0.00000000000E+00  0.00000000000E+00  0.81012673365E+03  0.81012673366E+03  0.50400001928E-02 0.  1.
       -1   -1    0    0    0  501  0.00000000000E+00  0.00000000000E+00 -0.83615252740E+03  0.83615252742E+03  0.50400001928E-02 0. -1.
    10030    2    1    2    0    0  0.00000000000E+00  0.00000000000E+00 -0.26025793753E+02  0.16462792611E+04  0.16460735292E+04 0.  0.
        4    1    3    3  502    0 -0.20642384916E+03  0.55776641404E+02 -0.80788645234E+03  0.83570567307E+03  0.12699999809E+01 0. -1.
       -4    1    3    3    0  502  0.20642384916E+03 -0.55776641404E+02  0.78186065859E+03  0.81057358801E+03  0.12699999809E+01 0.  1.
</event>
<event>
 5   0  0.9639548E-04  0.1377887E+04  0.7818609E-02  0.8969982E-01
       -1   -1    0    0    0  501  0.00000000000E+00  0.00000000000E+00  0.30295718103E+03  0.30295718107E+03  0.50400001928E-02 0. -1.
        1   -1    0    0  501    0  0.00000000000E+00  0.00000000000E+00 -0.15667013370E+04  0.15667013370E+04  0.50400001928E-02 0.  1.
    10030    2    1    2    0    0  0.00000000000E+00  0.00000000000E+00 -0.12637441560E+04  0.18696585181E+04  0.13778873983E+04 0.  0.
        1    1    3    3  502    0  0.39189442694E+03 -0.35881645942E+03 -0.36822977012E+02  0.53262221610E+03  0.50400001928E-02 0. -1.
       -1    1    3    3    0  502 -0.39189442694E+03  0.35881645942E+03 -0.12269211790E+04  0.13370363020E+04  0.50400001928E-02 0.  1.
</event>
<event>
 5   0  0.1648213E-03  0.1397079E+04  0.7818609E-02  0.8955935E-01
       -2   -1    0    0    0  501  0.00000000000E+00  0.00000000000E+00  0.34532218858E+03  0.34532218859E+03  0.25500000920E-02 0.  1.
        2   -1    0    0  501    0  0.00000000000E+00  0.00000000000E+00 -0.14130506018E+04  0.14130506018E+04  0.25500000920E-02 0. -1.
    10030    2    1    2    0    0  0.00000000000E+00  0.00000000000E+00 -0.10677284132E+04  0.17583727904E+04  0.13970794199E+04 0.  0.
        4    1    3    3  502    0  0.59651605884E+03 -0.30437106126E+03 -0.78395328325E+03  0.10310468052E+04  0.12699999809E+01 0. -1.
       -4    1    3    3    0  502 -0.59651605884E+03  0.30437106126E+03 -0.28377512996E+03  0.72732598514E+03  0.12699999809E+01 0.  1.
</event>
<event>
 5   0  0.8673728E-04  0.1392622E+04  0.7818609E-02  0.8959176E-01
        1   -1    0    0  501    0  0.00000000000E+00  0.00000000000E+00  0.10417559541E+04  0.10417559541E+04  0.50400001928E-02 0.  1.
       -1   -1    0    0    0  501  0.00000000000E+00  0.00000000000E+00 -0.46541524333E+03  0.46541524335E+03  0.50400001928E-02 0. -1.
    10030    2    1    2    0    0  0.00000000000E+00  0.00000000000E+00  0.57634071074E+03  0.15071711974E+04  0.13926221324E+04 0.  0.
        3    1    3    3  502    0 -0.16250477522E+03 -0.32369504342E+03 -0.35544143030E+03  0.50746911598E+03  0.10100000352E+00 0. -1.
       -3    1    3    3    0  502  0.16250477522E+03  0.32369504342E+03  0.93178214104E+03  0.99970208145E+03  0.10100000352E+00 0.  1.
</event>
<event>
 5   0  0.8673728E-04  0.1407632E+04  0.7818609E-02  0.8948312E-01
       -1   -1    0    0    0  501  0.00000000000E+00  0.00000000000E+00  0.66005536369E+03  0.66005536371E+03  0.50400001928E-02 0.  1.
        1   -1    0    0  501    0  0.00000000000E+00  0.00000000000E+00 -0.75047806603E+03  0.75047806605E+03  0.50400001928E-02 0. -1.
    10030    2    1    2    0    0  0.00000000000E+00  0.00000000000E+00 -0.90422702343E+02  0.14105334298E+04  0.14076321577E+04 0.  0.
        3    1    3    3  502    0 -0.56074162531E+03  0.27153215216E+03  0.28287175162E+03  0.68423484132E+03  0.10100000352E+00 0.  1.
       -3    1    3    3    0  502  0.56074162531E+03 -0.27153215216E+03 -0.37329445396E+03  0.72629858844E+03  0.10100000352E+00 0. -1.
</event>
<event>
 5   0  0.9639548E-04  0.1422515E+04  0.7818609E-02  0.8937680E-01
        1   -1    0    0  501    0  0.00000000000E+00  0.00000000000E+00  0.12986922968E+04  0.12986922968E+04  0.50400001928E-02 0.  1.
       -1   -1    0    0    0  501  0.00000000000E+00  0.00000000000E+00 -0.38953585837E+03  0.38953585840E+03  0.50400001928E-02 0. -1.
    10030    2    1    2    0    0  0.00000000000E+00  0.00000000000E+00  0.90915643839E+03  0.16882281552E+04  0.14225149822E+04 0.  0.
        1    1    3    3  502    0 -0.55647806048E+03 -0.71157391570E+02  0.97345981970E+03  0.11235458276E+04  0.50400001928E-02 0.  1.
       -1    1    3    3    0  502  0.55647806048E+03  0.71157391570E+02 -0.64303381307E+02  0.56468232755E+03  0.50400001928E-02 0. -1.
</event>
<event>
 5   0  0.8609148E-04  0.1380914E+04  0.7818609E-02  0.8967751E-01
        1   -1    0    0  501    0  0.00000000000E+00  0.00000000000E+00  0.47539791535E+03  0.47539791538E+03  0.50400001928E-02 0. -1.
       -1   -1    0    0    0  501  0.00000000000E+00  0.00000000000E+00 -0.10028038939E+04  0.10028038939E+04  0.50400001928E-02 0.  1.
    10030    2    1    2    0    0  0.00000000000E+00  0.00000000000E+00 -0.52740597851E+03  0.14782018093E+04  0.13809140171E+04 0.  0.
        5    1    3    3  502    0 -0.20580721189E+03  0.15246331804E+03 -0.95005133319E+03  0.98398236646E+03  0.46999998093E+01 0.  1.
       -5    1    3    3    0  502  0.20580721189E+03 -0.15246331804E+03  0.42264535467E+03  0.49421944280E+03  0.46999998093E+01 0. -1.
</event>
<event>
 5   0  0.8609148E-04  0.1399558E+04  0.7818609E-02  0.8954138E-01
       -1   -1    0    0    0  501  0.00000000000E+00  0.00000000000E+00  0.36996669056E+03  0.36996669060E+03  0.50400001928E-02 0.  1.
        1   -1    0    0  501    0  0.00000000000E+00  0.00000000000E+00 -0.13236076801E+04  0.13236076801E+04  0.50400001928E-02 0. -1.
    10030    2    1    2    0    0  0.00000000000E+00  0.00000000000E+00 -0.95364098951E+03  0.16935743707E+04  0.13995581489E+04 0.  0.
        5    1    3    3  502    0  0.49367718699E+02 -0.61144132630E+03 -0.88426109812E+03  0.10762144056E+04  0.46999998093E+01 0. -1.
       -5    1    3    3    0  502 -0.49367718699E+02  0.61144132630E+03 -0.69379891394E+02  0.61735996509E+03  0.46999998093E+01 0.  1.
</event>
<event>
 5   0  0.9007180E-04  0.1401795E+04  0.7818609E-02  0.8952520E-01
       -1   -1    0    0    0  501  0.00000000000E+00  0.00000000000E+00  0.27217900889E+03  0.27217900894E+03  0.50400001928E-02 0. -1.
        1   -1    0    0  501    0  0.00000000000E+00  0.00000000000E+00 -0.18049049248E+04  0.18049049248E+04  0.50400001928E-02 0.  1.
    10030    2    1    2    0    0  0.00000000000E+00  0.00000000000E+00 -0.15327259159E+04  0.20770839337E+04  0.14017948974E+04 0.  0.
        2    1    3    3  502    0 -0.62758197354E+03 -0.19707198822E+03 -0.40779389324E+03  0.77394596802E+03  0.25500000920E-02 0. -1.
       -2    1    3    3    0  502  0.62758197354E+03  0.19707198822E+03 -0.11249320226E+04  0.13031379657E+04  0.25500000920E-02 0.  1.
</event>
<event>
 5   0  0.9007180E-04  0.1397424E+04  0.7818609E-02  0.8955685E-01
        1   -1    0    0  501    0  0.00000000000E+00  0.00000000000E+00  0.52071776851E+03  0.52071776853E+03  0.50400001928E-02 0. -1.
       -1   -1    0    0    0  501  0.00000000000E+00  0.00000000000E+00 -0.93754935978E+03  0.93754935979E+03  0.50400001928E-02 0.  1.
    10030    2    1    2    0    0  0.00000000000E+00  0.00000000000E+00 -0.41683159127E+03  0.14582671283E+04  0.13974242169E+04 0.  0.
        2    1    3    3  502    0 -0.37519601879E+03 -0.55162477554E+03  0.83207283605E+01  0.66718151955E+03  0.25500000920E-02 0.  1.
       -2    1    3    3    0  502  0.37519601879E+03  0.55162477554E+03 -0.42515231963E+03  0.79108560877E+03  0.25500000920E-02 0. -1.
</event>
<event>
 5   0  0.9007180E-04  0.1383773E+04  0.7818609E-02  0.8965649E-01
       -1   -1    0    0    0  501  0.00000000000E+00  0.00000000000E+00  0.93236063675E+03  0.93236063676E+03  0.50400001928E-02 0.  1.
        1   -1    0    0  501    0  0.00000000000E+00  0.00000000000E+00 -0.51343572985E+03  0.51343572987E+03  0.50400001928E-02 0. -1.
    10030    2    1    2    0    0  0.00000000000E+00  0.00000000000E+00  0.41892490690E+03  0.14457963666E+04  0.13837734844E+04 0.  0.
        2    1    3    3  502    0 -0.64511585321E+03 -0.14652912460E+03 -0.22577274801E+01  0.66155146871E+03  0.25500000920E-02 0. -1.
       -2    1    3    3    0  502  0.64511585321E+03  0.14652912460E+03  0.42118263438E+03  0.78424489793E+03  0.25500000920E-02 0.  1.
</event>
<event>
 5   0  0.1605214E-03  0.1398969E+04  0.7818609E-02  0.8954565E-01
        2   -1    0    0  501    0  0.00000000000E+00  0.00000000000E+00  0.17225176033E+04  0.17225176033E+04  0.25500000920E-02 0.  1.
       -2   -1    0    0    0  501  0.00000000000E+00  0.00000000000E+00 -0.28404837549E+03  0.28404837550E+03  0.25500000920E-02 0. -1.
    10030    2    1    2    0    0  0.00000000000E+00  0.00000000000E+00  0.14384692278E+04  0.20065659788E+04  0.13989686587E+04 0.  0.
        5    1    3    3  502    0 -0.23153220051E+03 -0.16031567536E+03 -0.19911875820E+03  0.34493281303E+03  0.46999998093E+01 0. -1.
       -5    1    3    3    0  502  0.23153220051E+03  0.16031567536E+03  0.16375879860E+04  0.16616331658E+04  0.46999998093E+01 0.  1.
</event>
<event>
 5   0  0.9639548E-04  0.1404900E+04  0.7818609E-02  0.8950279E-01
       -1   -1    0    0    0  501  0.00000000000E+00  0.00000000000E+00  0.10949127313E+04  0.10949127313E+04  0.50400001928E-02 0. -1.
        1   -1    0    0  501    0  0.00000000000E+00  0.00000000000E+00 -0.45066240107E+03  0.45066240110E+03  0.50400001928E-02 0.  1.
    10030    2    1    2    0    0  0.00000000000E+00  0.00000000000E+00  0.64425033021E+03  0.15455751324E+04  0.14048999971E+04 0.  0.
        1    1    3    3  502    0 -0.56090354535E+03  0.37498709996E+03  0.53716614316E+03  0.86242424462E+03  0.50400001928E-02 0. -1.
       -1    1    3    3    0  502  0.56090354535E+03 -0.37498709996E+03  0.10708418705E+03  0.68315088777E+03  0.50400001928E-02 0.  1.
</event>
<event>
 5   0  0.6048000E-04  0.1396371E+04  0.7818609E-02  0.8956449E-01
        3   -1    0    0  501    0  0.00000000000E+00  0.00000000000E+00  0.14281675812E+04  0.14281675848E+04  0.10100000352E+00 0. -1.
       -3   -1    0    0    0  501  0.00000000000E+00  0.00000000000E+00 -0.34132079882E+03  0.34132081377E+03  0.10100000352E+00 0.  1.
    10030    2    1    2    0    0  0.00000000000E+00  0.00000000000E+00  0.10868467824E+04  0.17694883985E+04  0.13963714635E+04 0.  0.
        1    1    3    3  502    0 -0.45631001482E+03  0.35281921876E+03  0.10419409322E+04  0.11909412819E+04  0.50400001928E-02 0. -1.
       -1    1    3    3    0  502  0.45631001482E+03 -0.35281921876E+03  0.44905850187E+02  0.57854711663E+03  0.50400001928E-02 0.  1.
</event>
<event>
 5   0  0.1605214E-03  0.1390308E+04  0.7818609E-02  0.8960864E-01
       -2   -1    0    0    0  501  0.00000000000E+00  0.00000000000E+00  0.12692492447E+04  0.12692492447E+04  0.25500000920E-02 0.  1.
        2   -1    0    0  501    0  0.00000000000E+00  0.00000000000E+00 -0.38072847942E+03  0.38072847943E+03  0.25500000920E-02 0. -1.
    10030    2    1    2    0    0  0.00000000000E+00  0.00000000000E+00  0.88852076532E+03  0.16499777242E+04  0.13903083614E+04 0.  0.
        5    1    3    3  502    0 -0.60830287587E+03 -0.15807860134E+03  0.79670543657E+03  0.10147821814E+04  0.46999998093E+01 0.  1.
       -5    1    3    3    0  502  0.60830287587E+03  0.15807860134E+03  0.91815328748E+02  0.63519554279E+03  0.46999998093E+01 0. -1.
</event>
<event>
 5   0  0.8502300E-04  0.1385086E+04  0.7818609E-02  0.8964685E-01
        1   -1    0    0  501    0  0.00000000000E+00  0.00000000000E+00  0.75399028819E+03  0.75399028821E+03  0.50400001928E-02 0. -1.
       -1   -1    0    0    0  501  0.00000000000E+00  0.00000000000E+00 -0.63610326732E+03  0.63610326734E+03  0.50400001928E-02 0.  1.
    10030    2    1    2    0    0  0.00000000000E+00  0.00000000000E+00  0.11788702087E+03  0.13900935555E+04  0.13850858253E+04 0.  0.
        4    1    3    3  502    0  0.32827108208E+03 -0.43758574447E+03 -0.36729291820E+03  0.65889975547E+03  0.12699999809E+01 0.  1.
       -4    1    3    3    0  502 -0.32827108208E+03  0.43758574447E+03  0.48517993907E+03  0.73119380008E+03  0.12699999809E+01 0. -1.
</event>
<event>
 5   0  0.1648213E-03  0.1439068E+04  0.7818609E-02  0.8926014E-01
        2   -1    0    0  501    0  0.00000000000E+00  0.00000000000E+00  0.67692918162E+03  0.67692918163E+03  0.25500000920E-02 0.  1.
       -2   -1    0    0    0  501  0.00000000000E+00  0.00000000000E+00 -0.76482068742E+03  0.76482068742E+03  0.25500000920E-02 0. -1.
    10030    2    1    2    0    0  0.00000000000E+00  0.00000000000E+00 -0.87891505796E+02  0.14417498690E+04  0.14390683681E+04 0.  0.
        4    1    3    3  502    0 -0.71325494802E+03  0.51564587574E+02 -0.12369496709E+03  0.72573658124E+03  0.12699999809E+01 0. -1.
       -4    1    3    3    0  502  0.71325494802E+03 -0.51564587574E+02  0.35803461299E+02  0.71601328780E+03  0.12699999809E+01 0.  1.
</event>
<event>
 5   0  0.1648463E-03  0.1437317E+04  0.7818609E-02  0.8927241E-01
        2   -1    0    0  501    0  0.00000000000E+00  0.00000000000E+00  0.13527890196E+04  0.13527890196E+04  0.25500000920E-02 0. -1.
       -2   -1    0    0    0  501  0.00000000000E+00  0.00000000000E+00 -0.38178151788E+03  0.38178151789E+03  0.25500000920E-02 0.  1.
    10030    2    1    2    0    0  0.00000000000E+00  0.00000000000E+00  0.97100750177E+03  0.17345705375E+04  0.14373167296E+04 0.  0.
        1    1    3    3  502    0 -0.30058260161E+03  0.55430592373E+01 -0.30224869071E+03  0.42630376137E+03  0.50400001928E-02 0.  1.
       -1    1    3    3    0  502  0.30058260161E+03 -0.55430592373E+01  0.12732561925E+04  0.13082667762E+04  0.50400001928E-02 0. -1.
</event>
<event>
 5   0  0.8673728E-04  0.1398138E+04  0.7818609E-02  0.8955167E-01
       -1   -1    0    0    0  501  0.00000000000E+00  0.00000000000E+00  0.35670617487E+03  0.35670617491E+03  0.50400001928E-02 0. -1.
        1   -1    0    0  501    0  0.00000000000E+00  0.00000000000E+00 -0.13700280331E+04  0.13700280331E+04  0.50400001928E-02 0.  1.
    10030    2    1    2    0    0  0.00000000000E+00  0.00000000000E+00 -0.10133218583E+04  0.17267342080E+04  0.13981379892E+04 0.  0.
        3    1    3    3  502    0  0.36489595662E+02 -0.18158620217E+03  0.32585200716E+03  0.37481272681E+03  0.10100000352E+00 0. -1.
       -3    1    3    3    0  502 -0.36489595662E+02  0.18158620217E+03 -0.13391738654E+04  0.13519214812E+04  0.10100000352E+00 0.  1.
</event>
<event>
 5   0  0.1706986E-03  0.1422491E+04  0.7818609E-02  0.8937698E-01
        2   -1    0    0  501    0  0.00000000000E+00  0.00000000000E+00  0.15727681600E+04  0.15727681600E+04  0.25500000920E-02 0.  1.
       -2   -1    0    0    0  501  0.00000000000E+00  0.00000000000E+00 -0.32164297476E+03  0.32164297477E+03  0.25500000920E-02 0. -1.
    10030    2    1    2    0    0  0.00000000000E+00  0.00000000000E+00  0.12511251852E+04  0.18944111348E+04  0.14224905337E+04 0.  0.
        3    1    3    3  502    0  0.41116890355E+03 -0.38226534650E+03  0.12071045040E+04  0.13312730585E+04  0.10100000352E+00 0.  1.
       -3    1    3    3    0  502 -0.41116890355E+03  0.38226534650E+03  0.44020681208E+02  0.56313807628E+03  0.10100000352E+00 0. -1.
</event>
<event>
 5   0  0.8502300E-04  0.1255168E+04  0.7818609E-02  0.9065893E-01
       -1   -1    0    0    0  501  0.00000000000E+00  0.00000000000E+00  0.36849488471E+03  0.36849488475E+03  0.50400001928E-02 0. -1.
        1   -1    0    0  501    0  0.00000000000E+00  0.00000000000E+00 -0.10688393407E+04  0.10688393407E+04  0.50400001928E-02 0.  1.
    10030    2    1    2    0    0  0.00000000000E+00  0.00000000000E+00 -0.70034445602E+03  0.14373342255E+04  0.12551682432E+04 0.  0.
        4    1    3    3  502    0  0.53060982488E+03  0.23233943094E+03 -0.62674446689E+03  0.85342758165E+03  0.12699999809E+01 0.  1.
       -4    1    3    3    0  502 -0.53060982488E+03 -0.23233943094E+03 -0.73599989125E+02  0.58390664385E+03  0.12699999809E+01 0. -1.
</event>
<event>
 5   0  0.1578965E-03  0.1393952E+04  0.7818609E-02  0.8958208E-01
       -2   -1    0    0    0  501  0.00000000000E+00  0.00000000000E+00  0.69120177742E+03  0.69120177743E+03  0.25500000920E-02 0.  1.
        2   -1    0    0  501    0  0.00000000000E+00  0.00000000000E+00 -0.70279868880E+03  0.70279868880E+03  0.25500000920E-02 0. -1.
    10030    2    1    2    0    0  0.00000000000E+00  0.00000000000E+00 -0.11596911373E+02  0.13940004662E+04  0.13939522271E+04 0.  0.
        2    1    3    3  502    0 -0.46808488087E+03 -0.39125193555E+03 -0.34284746149E+03  0.69980419735E+03  0.25500000920E-02 0. -1.
       -2    1    3    3    0  502  0.46808488087E+03  0.39125193555E+03  0.33125055012E+03  0.69419626888E+03  0.25500000920E-02 0.  1.
</event>
<event>
 5   0  0.8502300E-04  0.1390263E+04  0.7818609E-02  0.8960897E-01
       -1   -1    0    0    0  501  0.00000000000E+00  0.00000000000E+00  0.42000940945E+03  0.42000940948E+03  0.50400001928E-02 0. -1.
        1   -1    0    0  501    0  0.00000000000E+00  0.00000000000E+00 -0.11504683745E+04  0.11504683745E+04  0.50400001928E-02 0.  1.
    10030    2    1    2    0    0  0.00000000000E+00  0.00000000000E+00 -0.73045896503E+03  0.15704777840E+04  0.13902626264E+04 0.  0.
        4    1    3    3  502    0 -0.55067100661E+03  0.28668849509E+03 -0.71845614558E+03  0.94953130373E+03  0.12699999809E+01 0.  1.
       -4    1    3    3    0  502  0.55067100661E+03 -0.28668849509E+03 -0.12002819444E+02  0.62094648023E+03  0.12699999809E+01 0. -1.
</event>
<event>
 5   0  0.8502300E-04  0.1368272E+04  0.7818609E-02  0.8977111E-01
       -1   -1    0    0    0  501  0.00000000000E+00  0.00000000000E+00  0.29931443281E+03  0.29931443285E+03  0.50400001928E-02 0. -1.
        1   -1    0    0  501    0  0.00000000000E+00  0.00000000000E+00 -0.15637129818E+04  0.15637129818E+04  0.50400001928E-02 0.  1.
    10030    2    1    2    0    0  0.00000000000E+00  0.00000000000E+00 -0.12643985490E+04  0.18630274146E+04  0.13682717044E+04 0.  0.
        4    1    3    3  502    0  0.40387938379E+03  0.11110983000E+03 -0.13686886255E+04  0.14313539455E+04  0.12699999809E+01 0.  1.
       -4    1    3    3    0  502 -0.40387938379E+03 -0.11110983000E+03  0.10429007650E+03  0.43167346911E+03  0.12699999809E+01 0. -1.
</event>
<event>
 5   0  0.9007180E-04  0.1311521E+04  0.7818609E-02  0.9020478E-01
        1   -1    0    0  501    0  0.00000000000E+00  0.00000000000E+00  0.46341485545E+03  0.46341485548E+03  0.50400001928E-02 0.  1.
       -1   -1    0    0    0  501  0.00000000000E+00  0.00000000000E+00 -0.92794209873E+03  0.92794209874E+03  0.50400001928E-02 0. -1.
    10030    2    1    2    0    0  0.00000000000E+00  0.00000000000E+00 -0.46452724328E+03  0.13913569542E+04  0.13115214883E+04 0.  0.
        2    1    3    3  502    0  0.25021427818E+03 -0.26356184704E+03  0.34681153827E+03  0.50234477732E+03  0.25500000920E-02 0.  1.
       -2    1    3    3    0  502 -0.25021427818E+03  0.26356184704E+03 -0.81133878155E+03  0.88901217690E+03  0.25500000920E-02 0. -1.
</event>
<event>
 5   0  0.1578965E-03  0.1470092E+04  0.7818609E-02  0.8904588E-01
        2   -1    0    0  501    0  0.00000000000E+00  0.00000000000E+00  0.57867229498E+03  0.57867229498E+03  0.25500000920E-02 0.  1.
       -2   -1    0    0    0  501  0.00000000000E+00  0.00000000000E+00 -0.93367671836E+03  0.93367671836E+03  0.25500000920E-02 0. -1.
    10030    2    1    2    0    0  0.00000000000E+00  0.00000000000E+00 -0.35500442338E+03  0.15123490133E+04  0.14700923092E+04 0.  0.
        2    1    3    3  502    0 -0.53653487140E+03  0.30445938867E+02 -0.69341127548E+03  0.87727750478E+03  0.25500000920E-02 0. -1.
       -2    1    3    3    0  502  0.53653487140E+03 -0.30445938867E+02  0.33840685211E+03  0.63507150856E+03  0.25500000920E-02 0.  1.
</event>
<event>
 5   0  0.1648463E-03  0.1385456E+04  0.7818609E-02  0.8964414E-01
       -2   -1    0    0    0  501  0.00000000000E+00  0.00000000000E+00  0.75683912136E+03  0.75683912137E+03  0.25500000920E-02 0. -1.
        2   -1    0    0  501    0  0.00000000000E+00  0.00000000000E+00 -0.63404743466E+03  0.63404743466E+03  0.25500000920E-02 0.  1.
    10030    2    1    2    0    0  0.00000000000E+00  0.00000000000E+00  0.12279168670E+03  0.13908865560E+04  0.13854557421E+04 0.  0.
        1    1    3    3  502    0 -0.67120618332E+03  0.66440462023E+02  0.21993837094E+03  0.70943989355E+03  0.50400001928E-02 0. -1.
       -1    1    3    3    0  502  0.67120618332E+03 -0.66440462023E+02 -0.97146684242E+02  0.68144666248E+03  0.50400001928E-02 0.  1.
</event>
<event>
 5   0  0.6048000E-04  0.1472343E+04  0.7818609E-02  0.8903056E-01
       -4   -1    0    0    0  501  0.00000000000E+00  0.00000000000E+00  0.51378574846E+03  0.51378731808E+03  0.12699999809E+01 0.  1.
        4   -1    0    0  501    0  0.00000000000E+00  0.00000000000E+00 -0.10548099524E+04  0.10548107170E+04  0.12699999809E+01 0. -1.
    10030    2    1    2    0    0  0.00000000000E+00  0.00000000000E+00 -0.54102420398E+03  0.15685980351E+04  0.14723425574E+04 0.  0.
        3    1    3    3  502    0 -0.67600429216E+03 -0.18260698380E+03 -0.51256825405E+03  0.86778645923E+03  0.10100000352E+00 0.  1.
       -3    1    3    3    0  502  0.67600429216E+03  0.18260698380E+03 -0.28455949927E+02  0.70081157584E+03  0.10100000352E+00 0. -1.
</event>
<event>
 5   0  0.1648463E-03  0.1397220E+04  0.7818609E-02  0.8955833E-01
        2   -1    0    0  501    0  0.00000000000E+00  0.00000000000E+00  0.13306016874E+04  0.13306016874E+04  0.25500000920E-02 0.  1.
       -2   -1    0    0    0  501  0.00000000000E+00  0.00000000000E+00 -0.36679343928E+03  0.36679343929E+03  0.25500000920E-02 0. -1.
    10030    2    1    2    0    0  0.00000000000E+00  0.00000000000E+00  0.96380824815E+03  0.16973951267E+04  0.13972200532E+04 0.  0.
        1    1    3    3  502    0  0.65393366491E+03 -0.24564664093E+03  0.47073958169E+03  0.84235815666E+03  0.50400001928E-02 0. -1.
       -1    1    3    3    0  502 -0.65393366491E+03  0.24564664093E+03  0.49306866646E+03  0.85503697006E+03  0.50400001928E-02 0.  1.
</event>
<event>
 5   0  0.9639548E-04  0.1391486E+04  0.7818609E-02  0.8960004E-01
       -1   -1    0    0    0  501  0.00000000000E+00  0.00000000000E+00  0.37015264243E+03  0.37015264247E+03  0.50400001928E-02 0.  1.
        1   -1    0    0  501    0  0.00000000000E+00  0.00000000000E+00 -0.13077266434E+04  0.13077266434E+04  0.50400001928E-02 0. -1.
    10030    2    1    2    0    0  0.00000000000E+00  0.00000000000E+00 -0.93757400099E+03  0.16778792859E+04  0.13914862165E+04 0.  0.
        1    1    3    3  502    0 -0.65632965278E+02  0.31133519918E+03  0.27728335285E+03  0.42204662086E+03  0.50400001928E-02 0.  1.
       -1    1    3    3    0  502  0.65632965278E+02 -0.31133519918E+03 -0.12148573538E+04  0.12558326650E+04  0.50400001928E-02 0. -1.
</event>
<event>
 5   0  0.1605214E-03  0.1367387E+04  0.7818609E-02  0.8977770E-01
        2   -1    0    0  501    0  0.00000000000E+00  0.00000000000E+00  0.51580161914E+03  0.51580161915E+03  0.25500000920E-02 0. -1.
       -2   -1    0    0    0  501  0.00000000000E+00  0.00000000000E+00 -0.90623335577E+03  0.90623335578E+03  0.25500000920E-02 0.  1.
    10030    2    1    2    0    0  0.00000000000E+00  0.00000000000E+00 -0.39043173663E+03  0.14220349749E+04  0.13673867518E+04 0.  0.
        5    1    3    3  502    0 -0.31180216785E+03  0.47607400303E+03 -0.58923446302E+03  0.81919862710E+03  0.46999998093E+01 0.  1.
       -5    1    3    3    0  502  0.31180216785E+03 -0.47607400303E+03  0.19880272639E+03  0.60283634782E+03  0.46999998093E+01 0. -1.
</event>
<event>
 5   0  0.6048000E-04  0.1456563E+04  0.7818609E-02  0.8913863E-01
        3   -1    0    0  501    0  0.00000000000E+00  0.00000000000E+00  0.95197001504E+03  0.95197002040E+03  0.10100000352E+00 0.  1.
       -3   -1    0    0    0  501  0.00000000000E+00  0.00000000000E+00 -0.55715429395E+03  0.55715430310E+03  0.10100000352E+00 0. -1.
    10030    2    1    2    0    0  0.00000000000E+00  0.00000000000E+00  0.39481572109E+03  0.15091243235E+04  0.14565633423E+04 0.  0.
        5    1    3    3  502    0  0.27204723110E+03  0.67548564271E+03  0.18805130831E+03  0.75211430914E+03  0.46999998093E+01 0. -1.
       -5    1    3    3    0  502 -0.27204723110E+03 -0.67548564271E+03  0.20676441279E+03  0.75701001437E+03  0.46999998093E+01 0.  1.
</event>
<event>
 5   0  0.1648213E-03  0.1370259E+04  0.7818609E-02  0.8975633E-01
        2   -1    0    0  501    0  0.00000000000E+00  0.00000000000E+00  0.89447102435E+03  0.89447102436E+03  0.25500000920E-02 0.  1.
       -2   -1    0    0    0  501  0.00000000000E+00  0.00000000000E+00 -0.52478189867E+03  0.52478189868E+03  0.25500000920E-02 0. -1.
    10030    2    1    2    0    0  0.00000000000E+00  0.00000000000E+00  0.36968912568E+03  0.14192529230E+04  0.13702586653E+04 0.  0.
        4    1    3    3  502    0 -0.44333670342E+03  0.37207104365E+03  0.56458181300E+03  0.80854098882E+03  0.12699999809E+01 0.  1.
       -4    1    3    3    0  502  0.44333670342E+03 -0.37207104365E+03 -0.19489268733E+03  0.61071193422E+03  0.12699999809E+01 0. -1.
</event>
<event>
 5   0  0.1648213E-03  0.1405941E+04  0.7818609E-02  0.8949529E-01
       -2   -1    0    0    0  501  0.00000000000E+00  0.00000000000E+00  0.11463426808E+04  0.11463426808E+04  0.25500000920E-02 0.  1.
        2   -1    0    0  501    0  0.00000000000E+00  0.00000000000E+00 -0.43108187786E+03  0.43108187786E+03  0.25500000920E-02 0. -1.
    10030    2    1    2    0    0  0.00000000000E+00  0.00000000000E+00  0.71526080295E+03  0.15774245587E+04  0.14059410450E+04 0.  0.
        4    1    3    3  502    0  0.52118685228E+03 -0.87476607137E+02 -0.16245841599E+03  0.55288537837E+03  0.12699999809E+01 0. -1.
       -4    1    3    3    0  502 -0.52118685228E+03  0.87476607137E+02  0.87771921894E+03  0.10245391803E+04  0.12699999809E+01 0.  1.
</event>
<event>
 5   0  0.9007180E-04  0.1407350E+04  0.7818609E-02  0.8948516E-01
       -1   -1    0    0    0  501  0.00000000000E+00  0.00000000000E+00  0.49175887583E+03  0.49175887585E+03  0.50400001928E-02 0.  1.
        1   -1    0    0  501    0  0.00000000000E+00  0.00000000000E+00 -0.10069128237E+04  0.10069128237E+04  0.50400001928E-02 0. -1.
    10030    2    1    2    0    0  0.00000000000E+00  0.00000000000E+00 -0.51515394788E+03  0.14986716996E+04  0.14073497338E+04 0.  0.
        2    1    3    3  502    0  0.59601204564E+02 -0.61416890448E+03 -0.61775927159E+03  0.87314504205E+03  0.25500000920E-02 0. -1.
       -2    1    3    3    0  502 -0.59601204564E+02  0.61416890448E+03  0.10260532371E+03  0.62552665753E+03  0.25500000920E-02 0.  1.
</event>
<event>
 5   0  0.8673728E-04  0.1434335E+04  0.7818609E-02  0.8929333E-01
        1   -1    0    0  501    0  0.00000000000E+00  0.00000000000E+00  0.44821403257E+03  0.44821403260E+03  0.50400001928E-02 0.  1.
       -1   -1    0    0    0  501  0.00000000000E+00  0.00000000000E+00 -0.11475078818E+04  0.11475078819E+04  0.50400001928E-02 0. -1.
    10030    2    1    2    0    0  0.00000000000E+00  0.00000000000E+00 -0.69929384928E+03  0.15957219145E+04  0.14343348774E+04 0.  0.
        3    1    3    3  502    0  0.24264193874E+03  0.43458740995E+03  0.22476941326E+03  0.54613425699E+03  0.10100000352E+00 0.  1.
       -3    1    3    3    0  502 -0.24264193874E+03 -0.43458740995E+03 -0.92406326254E+03  0.10495876575E+04  0.10100000352E+00 0. -1.
</event>
<event>
 5   0  0.8609148E-04  0.1409787E+04  0.7818609E-02  0.8946765E-01
       -1   -1    0    0    0  501  0.00000000000E+00  0.00000000000E+00  0.10718422811E+04  0.10718422811E+04  0.50400001928E-02 0. -1.
        1   -1    0    0  501    0  0.00000000000E+00  0.00000000000E+00 -0.46357061743E+03  0.46357061746E+03  0.50400001928E-02 0.  1.
    10030    2    1    2    0    0  0.00000000000E+00  0.00000000000E+00  0.60827166369E+03  0.15354128986E+04  0.14097866336E+04 0.  0.
        5    1    3    3  502    0 -0.11774375185E+03  0.12328551178E+03  0.10490342848E+04  0.10628066283E+04  0.46999998093E+01 0. -1.
       -5    1    3    3    0  502  0.11774375185E+03 -0.12328551178E+03 -0.44076262112E+03  0.47260627026E+03  0.46999998093E+01 0.  1.
</event>
<event>
 5   0  0.1648213E-03  0.1407857E+04  0.7818609E-02  0.8948151E-01
       -2   -1    0    0    0  501  0.00000000000E+00  0.00000000000E+00  0.42302188232E+03  0.42302188233E+03  0.25500000920E-02 0.  1.
        2   -1    0    0  501    0  0.00000000000E+00  0.00000000000E+00 -0.11713702404E+04  0.11713702404E+04  0.25500000920E-02 0. -1.
    10030    2    1    2    0    0  0.00000000000E+00  0.00000000000E+00 -0.74834835808E+03  0.15943921227E+04  0.14078568734E+04 0.  0.
        4    1    3    3  502    0  0.42805014765E+02  0.58113083099E+03 -0.82142879386E+03  0.10071207417E+04  0.12699999809E+01 0. -1.
       -4    1    3    3    0  502 -0.42805014765E+02 -0.58113083099E+03  0.73080435777E+02  0.58727138106E+03  0.12699999809E+01 0.  1.
</event>
<event>
 5   0  0.1605214E-03  0.1418465E+04  0.7818609E-02  0.8940560E-01
        2   -1    0    0  501    0  0.00000000000E+00  0.00000000000E+00  0.12188167396E+04  0.12188167396E+04  0.25500000920E-02 0. -1.
       -2   -1    0    0    0  501  0.00000000000E+00  0.00000000000E+00 -0.41270395489E+03  0.41270395490E+03  0.25500000920E-02 0.  1.
    10030    2    1    2    0    0  0.00000000000E+00  0.00000000000E+00  0.80611278471E+03  0.16315206945E+04  0.14184646470E+04 0.  0.
        5    1    3    3  502    0  0.58202248324E+03  0.33868152224E+03  0.14706720337E+03  0.68927947656E+03  0.46999998093E+01 0.  1.
       -5    1    3    3    0  502 -0.58202248324E+03 -0.33868152224E+03  0.65904558134E+03  0.94224121794E+03  0.46999998093E+01 0. -1.
</event>
<event>
 5   0  0.1648463E-03  0.1411647E+04  0.7818609E-02  0.8945431E-01
       -2   -1    0    0    0  501  0.00000000000E+00  0.00000000000E+00  0.45605732423E+03  0.45605732424E+03  0.25500000920E-02 0.  1.
        2   -1    0    0  501    0  0.00000000000E+00  0.00000000000E+00 -0.10923770277E+04  0.10923770277E+04  0.25500000920E-02 0. -1.
    10030    2    1    2    0    0  0.00000000000E+00  0.00000000000E+00 -0.63631970349E+03  0.15484343520E+04  0.14116466191E+04 0.  0.
        1    1    3    3  502    0  0.46841325976E+01  0.29856993332E+03 -0.10196787822E+04  0.10625021248E+04  0.50400001928E-02 0. -1.
       -1    1    3    3    0  502 -0.46841325976E+01 -0.29856993332E+03  0.38335907872E+03  0.48593222721E+03  0.50400001928E-02 0.  1.
</event>
<event>
 5   0  0.1648463E-03  0.1400139E+04  0.7818609E-02  0.8953718E-01
        2   -1    0    0  501    0  0.00000000000E+00  0.00000000000E+00  0.43315493161E+03  0.43315493162E+03  0.25500000920E-02 0.  1.
       -2   -1    0    0    0  501  0.00000000000E+00  0.00000000000E+00 -0.11314603460E+04  0.11314603460E+04  0.25500000920E-02 0. -1.
    10030    2    1    2    0    0  0.00000000000E+00  0.00000000000E+00 -0.69830541437E+03  0.15646152776E+04  0.14001394628E+04 0.  0.
        1    1    3    3  502    0  0.22507276232E+03 -0.19477296803E+02  0.39130193746E+03  0.45183439413E+03  0.50400001928E-02 0.  1.
       -1    1    3    3    0  502 -0.22507276232E+03  0.19477296803E+02 -0.10896073518E+04  0.11127808835E+04  0.50400001928E-02 0. -1.
</event>
<event>
 5   0  0.6048000E-04  0.1403120E+04  0.7818609E-02  0.8951563E-01
        3   -1    0    0  501    0  0.00000000000E+00  0.00000000000E+00  0.42385808278E+03  0.42385809482E+03  0.10100000352E+00 0.  1.
       -3   -1    0    0    0  501  0.00000000000E+00  0.00000000000E+00 -0.11612055680E+04  0.11612055724E+04  0.10100000352E+00 0. -1.
    10030    2    1    2    0    0  0.00000000000E+00  0.00000000000E+00 -0.73734748522E+03  0.15850636672E+04  0.14031199219E+04 0.  0.
        2    1    3    3  502    0  0.53012249818E+02  0.69216374849E+03 -0.25410581686E+03  0.73923657885E+03  0.25500000920E-02 0. -1.
       -2    1    3    3    0  502 -0.53012249818E+02 -0.69216374849E+03 -0.48324166836E+03  0.84582708836E+03  0.25500000920E-02 0.  1.
</event>
<event>
 5   0  0.6048000E-04  0.1391697E+04  0.7818609E-02  0.8959851E-01
        3   -1    0    0  501    0  0.00000000000E+00  0.00000000000E+00  0.45148718391E+03  0.45148719521E+03  0.10100000352E+00 0. -1.
       -3   -1    0    0    0  501  0.00000000000E+00  0.00000000000E+00 -0.10724672442E+04  0.10724672489E+04  0.10100000352E+00 0.  1.
    10030    2    1    2    0    0  0.00000000000E+00  0.00000000000E+00 -0.62098006026E+03  0.15239544441E+04  0.13916971339E+04 0.  0.
        4    1    3    3  502    0 -0.42235867941E+02 -0.55693574876E+03 -0.76495161975E+03  0.94716096322E+03  0.12699999809E+01 0.  1.
       -4    1    3    3    0  502  0.42235867941E+02  0.55693574876E+03  0.14397155949E+03  0.57679348092E+03  0.12699999809E+01 0. -1.
</event>
<event>
 5   0  0.1648213E-03  0.1405354E+04  0.7818609E-02  0.8949952E-01
        2   -1    0    0  501    0  0.00000000000E+00  0.00000000000E+00  0.45011687519E+03  0.45011687520E+03  0.25500000920E-02 0. -1.
       -2   -1    0    0    0  501  0.00000000000E+00  0.00000000000E+00 -0.10969484064E+04  0.10969484064E+04  0.25500000920E-02 0.  1.
    10030    2    1    2    0    0  0.00000000000E+00  0.00000000000E+00 -0.64683153119E+03  0.15470652816E+04  0.14053540322E+04 0.  0.
        4    1    3    3  502    0  0.17054873499E+03 -0.53879828788E+03 -0.78308977646E+03  0.96572339566E+03  0.12699999809E+01 0.  1.
       -4    1    3    3    0  502 -0.17054873499E+03  0.53879828788E+03  0.13625824527E+03  0.58134188592E+03  0.12699999809E+01 0. -1.
</event>
<event>
 5   0  0.8502300E-04  0.1402294E+04  0.7818609E-02  0.8952159E-01
        1   -1    0    0  501    0  0.00000000000E+00  0.00000000000E+00  0.11224744187E+04  0.11224744187E+04  0.50400001928E-02 0.  1.
       -1   -1    0    0    0  501  0.00000000000E+00  0.00000000000E+00 -0.43796756690E+03  0.43796756693E+03  0.50400001928E-02 0. -1.
    10030    2    1    2    0    0  0.00000000000E+00  0.00000000000E+00  0.68450685180E+03  0.15604419856E+04  0.14022943915E+04 0.  0.
        4    1    3    3  502    0  0.33039882464E+01 -0.55767552919E+03 -0.13063504274E+03  0.57278271578E+03  0.12699999809E+01 0. -1.
       -4    1    3    3    0  502 -0.33039882464E+01  0.55767552919E+03  0.81514189454E+03  0.98765926986E+03  0.12699999809E+01 0.  1.
</event>
<event>
 5   0  0.1648213E-03  0.1244572E+04  0.7818609E-02  0.9074713E-01
        2   -1    0    0  501    0  0.00000000000E+00  0.00000000000E+00  0.72654365327E+03  0.72654365328E+03  0.25500000920E-02 0.  1.
       -2   -1    0    0    0  501  0.00000000000E+00  0.00000000000E+00 -0.53298912144E+03  0.53298912145E+03  0.25500000920E-02 0. -1.
    10030    2    1    2    0    0  0.00000000000E+00  0.00000000000E+00  0.19355453183E+03  0.12595327747E+04  0.12445719962E+04 0.  0.
        4    1    3    3  502    0  0.26494217526E+02  0.12233296181E+03  0.71367095378E+03  0.72456548377E+03  0.12699999809E+01 0.  1.
       -4    1    3    3    0  502 -0.26494217526E+02 -0.12233296181E+03 -0.52011642195E+03  0.53496729095E+03  0.12699999809E+01 0. -1.
</event>
<event>
 5   0  0.8673728E-04  0.1398544E+04  0.7818609E-02  0.8954873E-01
       -1   -1    0    0    0  501  0.00000000000E+00  0.00000000000E+00  0.77965844531E+03  0.77965844533E+03  0.50400001928E-02 0.  1.
        1   -1    0    0  501    0  0.00000000000E+00  0.00000000000E+00 -0.62717356987E+03  0.62717356989E+03  0.50400001928E-02 0. -1.
    10030    2    1    2    0    0  0.00000000000E+00  0.00000000000E+00  0.15248487544E+03  0.14068320152E+04  0.13985437719E+04 0.  0.
        3    1    3    3  502    0  0.23872855707E+03 -0.54529906802E+03 -0.29286367318E+03  0.66340902828E+03  0.10100000352E+00 0. -1.
       -3    1    3    3    0  502 -0.23872855707E+03  0.54529906802E+03  0.44534854862E+03  0.74342298693E+03  0.10100000352E+00 0.  1.
</event>
<event>
 5   0  0.8502300E-04  0.1407275E+04  0.7818609E-02  0.8948569E-01
        1   -1    0    0  501    0  0.00000000000E+00  0.00000000000E+00  0.46040745054E+03  0.46040745056E+03  0.50400001928E-02 0.  1.
       -1   -1    0    0    0  501  0.00000000000E+00  0.00000000000E+00 -0.10753641529E+04  0.10753641530E+04  0.50400001928E-02 0. -1.
    10030    2    1    2    0    0  0.00000000000E+00  0.00000000000E+00 -0.61495670240E+03  0.15357716035E+04  0.14072749100E+04 0.  0.
        4    1    3    3  502    0 -0.20711798008E+03  0.36269137610E+03  0.31049659765E+03  0.52043505072E+03  0.12699999809E+01 0.  1.
       -4    1    3    3    0  502  0.20711798008E+03 -0.36269137610E+03 -0.92545330005E+03  0.10153365528E+04  0.12699999809E+01 0. -1.
</event>
<event>
 5   0  0.9007180E-04  0.1387954E+04  0.7818609E-02  0.8962584E-01
        1   -1    0    0  501    0  0.00000000000E+00  0.00000000000E+00  0.12666014440E+04  0.12666014440E+04  0.50400001928E-02 0.  1.
       -1   -1    0    0    0  501  0.00000000000E+00  0.00000000000E+00 -0.38023358225E+03  0.38023358228E+03  0.50400001928E-02 0. -1.
    10030    2    1    2    0    0  0.00000000000E+00  0.00000000000E+00  0.88636786172E+03  0.16468350263E+04  0.13879544724E+04 0.  0.
        2    1    3    3  502    0 -0.60176088567E+03 -0.32912342908E+03  0.56856266092E+03  0.89089948618E+03  0.25500000920E-02 0.  1.
       -2    1    3    3    0  502  0.60176088567E+03  0.32912342908E+03  0.31780520080E+03  0.75593554007E+03  0.25500000920E-02 0. -1.
</event>
<event>
 5   0  0.1648463E-03  0.1402517E+04  0.7818609E-02  0.8951999E-01
        2   -1    0    0  501    0  0.00000000000E+00  0.00000000000E+00  0.12852692135E+04  0.12852692135E+04  0.25500000920E-02 0. -1.
       -2   -1    0    0    0  501  0.00000000000E+00  0.00000000000E+00 -0.38261514815E+03  0.38261514816E+03  0.25500000920E-02 0.  1.
    10030    2    1    2    0    0  0.00000000000E+00  0.00000000000E+00  0.90265406536E+03  0.16678843617E+04  0.14025169811E+04 0.  0.
        1    1    3    3  502    0 -0.51182305595E+03 -0.85285878271E+02  0.10123092764E+04  0.11375441058E+04  0.50400001928E-02 0.  1.
       -1    1    3    3    0  502  0.51182305595E+03  0.85285878271E+02 -0.10965521103E+03  0.53034025584E+03  0.50400001928E-02 0. -1.
</event>
<event>
 5   0  0.8673728E-04  0.1395865E+04  0.7818609E-02  0.8956817E-01
       -1   -1    0    0    0  501  0.00000000000E+00  0.00000000000E+00  0.86662906991E+03  0.86662906992E+03  0.50400001928E-02 0. -1.
        1   -1    0    0  501    0  0.00000000000E+00  0.00000000000E+00 -0.56207404912E+03  0.56207404914E+03  0.50400001928E-02 0.  1.
    10030    2    1    2    0    0  0.00000000000E+00  0.00000000000E+00  0.30455502079E+03  0.14287031191E+04  0.13958649081E+04 0.  0.
        3    1    3    3  502    0 -0.49781747294E+02 -0.27708448556E+02 -0.55968993079E+03  0.56258226893E+03  0.10100000352E+00 0.  1.
       -3    1    3    3    0  502  0.49781747294E+02  0.27708448556E+02  0.86424495159E+03  0.86612085013E+03  0.10100000352E+00 0. -1.
</event>
<event>
 5   0  0.1648463E-03  0.1273950E+04  0.7818609E-02  0.9050482E-01
        2   -1    0    0  501    0  0.00000000000E+00  0.00000000000E+00  0.21129800637E+04  0.21129800637E+04  0.25500000920E-02 0. -1.
       -2   -1    0    0    0  501  0.00000000000E+00  0.00000000000E+00 -0.19202139609E+03  0.19202139611E+03  0.25500000920E-02 0.  1.
    10030    2    1    2    0    0  0.00000000000E+00  0.00000000000E+00  0.19209586676E+04  0.23050014598E+04  0.12739503629E+04 0.  0.
        1    1    3    3  502    0 -0.88899114105E+02 -0.48117897874E+02 -0.17741614511E+03  0.20419322504E+03  0.50400001928E-02 0.  1.
       -1    1    3    3    0  502  0.88899114105E+02  0.48117897874E+02  0.20983748127E+04  0.21008082348E+04  0.50400001928E-02 0. -1.
</event>
<event>
 5   0  0.1578965E-03  0.1348356E+04  0.7818609E-02  0.8992074E-01
        2   -1    0    0  501    0  0.00000000000E+00  0.00000000000E+00  0.96426275511E+03  0.96426275511E+03  0.25500000920E-02 0.  1.
       -2   -1    0    0    0  501  0.00000000000E+00  0.00000000000E+00 -0.47136107685E+03  0.47136107686E+03  0.25500000920E-02 0. -1.
    10030    2    1    2    0    0  0.00000000000E+00  0.00000000000E+00  0.49290167825E+03  0.14356238320E+04  0.13483559332E+04 0.  0.
        2    1    3    3  502    0  0.20814907040E+03 -0.57961744907E+03  0.53849045232E+03  0.81807969662E+03  0.25500000920E-02 0. -1.
       -2    1    3    3    0  502 -0.20814907040E+03  0.57961744907E+03 -0.45588774060E+02  0.61754413535E+03  0.25500000920E-02 0.  1.
</event>
<event>
 5   0  0.1648213E-03  0.1419742E+04  0.7818609E-02  0.8939651E-01
        2   -1    0    0  501    0  0.00000000000E+00  0.00000000000E+00  0.85954945336E+03  0.85954945337E+03  0.25500000920E-02 0.  1.
       -2   -1    0    0    0  501  0.00000000000E+00  0.00000000000E+00 -0.58625718224E+03  0.58625718224E+03  0.25500000920E-02 0. -1.
    10030    2    1    2    0    0  0.00000000000E+00  0.00000000000E+00  0.27329227113E+03  0.14458066356E+04  0.14197422872E+04 0.  0.
        4    1    3    3  502    0 -0.14963586493E+03  0.61994102245E+03 -0.18084281099E+03  0.66289026134E+03  0.12699999809E+01 0. -1.
       -4    1    3    3    0  502  0.14963586493E+03 -0.61994102245E+03  0.45413508212E+03  0.78291637427E+03  0.12699999809E+01 0.  1.
</event>
<event>
 5   0  0.8502300E-04  0.1408079E+04  0.7818609E-02  0.8947991E-01
        1   -1    0    0  501    0  0.00000000000E+00  0.00000000000E+00  0.45743036736E+03  0.45743036739E+03  0.50400001928E-02 0. -1.
       -1   -1    0    0    0  501  0.00000000000E+00  0.00000000000E+00 -0.10836008322E+04  0.10836008322E+04  0.50400001928E-02 0.  1.
    10030    2    1    2    0    0  0.00000000000E+00  0.00000000000E+00 -0.62617046487E+03  0.15410311996E+04  0.14080794392E+04 0.  0.
        4    1    3    3  502    0 -0.20002872083E+03 -0.37791077752E+03 -0.92521991704E+03  0.10192455802E+04  0.12699999809E+01 0.  1.
       -4    1    3    3    0  502  0.20002872083E+03  0.37791077752E+03  0.29904945217E+03  0.52178561945E+03  0.12699999809E+01 0. -1.
</event>
<event>
 5   0  0.9639548E-04  0.1407860E+04  0.7818609E-02  0.8948149E-01
        1   -1    0    0  501    0  0.00000000000E+00  0.00000000000E+00  0.46828393906E+03  0.46828393908E+03  0.50400001928E-02 0.  1.
       -1   -1    0    0    0  501  0.00000000000E+00  0.00000000000E+00 -0.10581555846E+04  0.10581555847E+04  0.50400001928E-02 0. -1.
    10030    2    1    2    0    0  0.00000000000E+00  0.00000000000E+00 -0.58987164558E+03  0.15264395237E+04  0.14078597449E+04 0.  0.
        1    1    3    3  502    0 -0.59023097664E+03 -0.36018197175E+03 -0.43801109395E+03  0.81850924064E+03  0.50400001928E-02 0.  1.
       -1    1    3    3    0  502  0.59023097664E+03  0.36018197175E+03 -0.15186055163E+03  0.70793028310E+03  0.50400001928E-02 0. -1.
</event>
<event>
 5   0  0.1648213E-03  0.1406918E+04  0.7818609E-02  0.8948826E-01
        2   -1    0    0  501    0  0.00000000000E+00  0.00000000000E+00  0.25813205524E+04  0.25813205524E+04  0.25500000920E-02 0.  1.
       -2   -1    0    0    0  501  0.00000000000E+00  0.00000000000E+00 -0.19170588096E+03  0.19170588098E+03  0.25500000920E-02 0. -1.
    10030    2    1    2    0    0  0.00000000000E+00  0.00000000000E+00  0.23896146714E+04  0.27730264333E+04  0.14069176672E+04 0.  0.
        4    1    3    3  502    0 -0.23004438618E+03  0.10395600597E+03 -0.99350228037E+02  0.27129200412E+03  0.12699999809E+01 0. -1.
       -4    1    3    3    0  502  0.23004438618E+03 -0.10395600597E+03  0.24889648994E+04  0.25017344292E+04  0.12699999809E+01 0.  1.
</event>
<event>
 5   0  0.1605214E-03  0.1391460E+04  0.7818609E-02  0.8960024E-01
       -2   -1    0    0    0  501  0.00000000000E+00  0.00000000000E+00  0.20639143480E+03  0.20639143481E+03  0.25500000920E-02 0. -1.
        2   -1    0    0  501    0  0.00000000000E+00  0.00000000000E+00 -0.23452522176E+04  0.23452522176E+04  0.25500000920E-02 0.  1.
    10030    2    1    2    0    0  0.00000000000E+00  0.00000000000E+00 -0.21388607828E+04  0.25516436524E+04  0.13914596224E+04 0.  0.
        5    1    3    3  502    0 -0.57847394371E+03  0.36401250330E+03 -0.13076866442E+04  0.14755350404E+04  0.46999998093E+01 0. -1.
       -5    1    3    3    0  502  0.57847394371E+03 -0.36401250330E+03 -0.83117413862E+03  0.10761086120E+04  0.46999998093E+01 0.  1.
</event>
<event>
 5   0  0.9007180E-04  0.1377464E+04  0.7818609E-02  0.8970295E-01
        1   -1    0    0  501    0  0.00000000000E+00  0.00000000000E+00  0.79216719221E+03  0.79216719223E+03  0.50400001928E-02 0. -1.
       -1   -1    0    0    0  501  0.00000000000E+00  0.00000000000E+00 -0.59880239187E+03  0.59880239189E+03  0.50400001928E-02 0.  1.
    10030    2    1    2    0    0  0.00000000000E+00  0.00000000000E+00  0.19336480035E+03  0.13909695841E+04  0.13774637701E+04 0.  0.
        2    1    3    3  502    0  0.11773371869E+03  0.47291715134E+03 -0.39475108456E+03  0.62716846168E+03  0.25500000920E-02 0.  1.
       -2    1    3    3    0  502 -0.11773371869E+03 -0.47291715134E+03  0.58811588491E+03  0.76380112244E+03  0.25500000920E-02 0. -1.
</event>
<event>
 5   0  0.8673728E-04  0.1427830E+04  0.7818609E-02  0.8933916E-01
       -1   -1    0    0    0  501  0.00000000000E+00  0.00000000000E+00  0.50576185530E+03  0.50576185532E+03  0.50400001928E-02 0.  1.
        1   -1    0    0  501    0  0.00000000000E+00  0.00000000000E+00 -0.10077369492E+04  0.10077369492E+04  0.50400001928E-02 0. -1.
    10030    2    1    2    0    0  0.00000000000E+00  0.00000000000E+00 -0.50197509385E+03  0.15134988045E+04  0.14278303948E+04 0.  0.
        3    1    3    3  502    0  0.27179692917E+03 -0.19321857120E+03 -0.92010465869E+03  0.97867235585E+03  0.10100000352E+00 0. -1.
       -3    1    3    3    0  502 -0.27179692917E+03  0.19321857120E+03  0.41812956484E+03  0.53482644863E+03  0.10100000352E+00 0.  1.
</event>
<event>
 5   0  0.1578965E-03  0.1400100E+04  0.7818609E-02  0.8953746E-01
       -2   -1    0    0    0  501  0.00000000000E+00  0.00000000000E+00  0.44182002590E+03  0.44182002591E+03  0.25500000920E-02 0.  1.
        2   -1    0    0  501    0  0.00000000000E+00  0.00000000000E+00 -0.11092066961E+04  0.11092066961E+04  0.25500000920E-02 0. -1.
    10030    2    1    2    0    0  0.00000000000E+00  0.00000000000E+00 -0.66738667019E+03  0.15510267220E+04  0.14000996125E+04 0.  0.
        2    1    3    3  502    0 -0.25090848735E+03  0.36822679249E+03  0.26443898766E+03  0.51814478472E+03  0.25500000920E-02 0.  1.
       -2    1    3    3    0  502  0.25090848735E+03 -0.36822679249E+03 -0.93182565785E+03  0.10328819373E+04  0.25500000920E-02 0. -1.
</event>
<event>
 5   0  0.1648213E-03  0.1390638E+04  0.7818609E-02  0.8960623E-01
       -2   -1    0    0    0  501  0.00000000000E+00  0.00000000000E+00  0.41513066141E+03  0.41513066142E+03  0.25500000920E-02 0.  1.
        2   -1    0    0  501    0  0.00000000000E+00  0.00000000000E+00 -0.11646177867E+04  0.11646177867E+04  0.25500000920E-02 0. -1.
    10030    2    1    2    0    0  0.00000000000E+00  0.00000000000E+00 -0.74948712530E+03  0.15797484481E+04  0.13906380580E+04 0.  0.
        4    1    3    3  502    0 -0.32682497785E+03 -0.57325856631E+03 -0.12579105366E+03  0.67176257121E+03  0.12699999809E+01 0. -1.
       -4    1    3    3    0  502  0.32682497785E+03  0.57325856631E+03 -0.62369607164E+03  0.90798587692E+03  0.12699999809E+01 0.  1.
</event>
<event>
 5   0  0.9639548E-04  0.1428055E+04  0.7818609E-02  0.8933757E-01
        1   -1    0    0  501    0  0.00000000000E+00  0.00000000000E+00  0.10833499118E+04  0.10833499118E+04  0.50400001928E-02 0. -1.
       -1   -1    0    0    0  501  0.00000000000E+00  0.00000000000E+00 -0.47061012485E+03  0.47061012487E+03  0.50400001928E-02 0.  1.
    10030    2    1    2    0    0  0.00000000000E+00  0.00000000000E+00  0.61273978695E+03  0.15539600367E+04  0.14280552332E+04 0.  0.
        1    1    3    3  502    0  0.59394735437E+03  0.18658718290E+03  0.68683453536E+03  0.92700049384E+03  0.50400001928E-02 0.  1.
       -1    1    3    3    0  502 -0.59394735437E+03 -0.18658718290E+03 -0.74094748415E+02  0.62695954284E+03  0.50400001928E-02 0. -1.
</event>
<event>
 5   0  0.9639548E-04  0.1289112E+04  0.7818609E-02  0.9038244E-01
        1   -1    0    0  501    0  0.00000000000E+00  0.00000000000E+00  0.11831547303E+04  0.11831547303E+04  0.50400001928E-02 0. -1.
       -1   -1    0    0    0  501  0.00000000000E+00  0.00000000000E+00 -0.35113960061E+03  0.35113960064E+03  0.50400001928E-02 0.  1.
    10030    2    1    2    0    0  0.00000000000E+00  0.00000000000E+00  0.83201512971E+03  0.15342943310E+04  0.12891120657E+04 0.  0.
        1    1    3    3  502    0  0.48005578242E+03  0.26118987240E+03  0.92834092678E+01  0.54658932059E+03  0.50400001928E-02 0.  1.
       -1    1    3    3    0  502 -0.48005578242E+03 -0.26118987240E+03  0.82273172044E+03  0.98770501038E+03  0.50400001928E-02 0. -1.
</event>
<event>
 5   0  0.1706986E-03  0.1422793E+04  0.7818609E-02  0.8937483E-01
        2   -1    0    0  501    0  0.00000000000E+00  0.00000000000E+00  0.83399132161E+03  0.83399132161E+03  0.25500000920E-02 0. -1.
       -2   -1    0    0    0  501  0.00000000000E+00  0.00000000000E+00 -0.60682308337E+03  0.60682308338E+03  0.25500000920E-02 0.  1.
    10030    2    1    2    0    0  0.00000000000E+00  0.00000000000E+00  0.22716823824E+03  0.14408144050E+04  0.14227932883E+04 0.  0.
        3    1    3    3  502    0  0.73875762835E+02 -0.40056191822E+03  0.70421908245E+03  0.81353058022E+03  0.10100000352E+00 0. -1.
       -3    1    3    3    0  502 -0.73875762835E+02  0.40056191822E+03 -0.47705084421E+03  0.62728382478E+03  0.10100000352E+00 0.  1.
</event>
<event>
 5   0  0.8502300E-04  0.1408735E+04  0.7818609E-02  0.8947520E-01
        1   -1    0    0  501    0  0.00000000000E+00  0.00000000000E+00  0.61819021881E+03  0.61819021883E+03  0.50400001928E-02 0.  1.
       -1   -1    0    0    0  501  0.00000000000E+00  0.00000000000E+00 -0.80255863391E+03  0.80255863393E+03  0.50400001928E-02 0. -1.
    10030    2    1    2    0    0  0.00000000000E+00  0.00000000000E+00 -0.18436841510E+03  0.14207488528E+04  0.14087354578E+04 0.  0.
        4    1    3    3  502    0  0.29291765634E+03 -0.63672592917E+03 -0.21503587325E+02  0.70120230992E+03  0.12699999809E+01 0.  1.
       -4    1    3    3    0  502 -0.29291765634E+03  0.63672592917E+03 -0.16286482778E+03  0.71954654283E+03  0.12699999809E+01 0. -1.
</event>
<event>
 5   0  0.8673728E-04  0.1388323E+04  0.7818609E-02  0.8962314E-01
        1   -1    0    0  501    0  0.00000000000E+00  0.00000000000E+00  0.14035800165E+04  0.14035800165E+04  0.50400001928E-02 0. -1.
       -1   -1    0    0    0  501  0.00000000000E+00  0.00000000000E+00 -0.34330816889E+03  0.34330816893E+03  0.50400001928E-02 0.  1.
    10030    2    1    2    0    0  0.00000000000E+00  0.00000000000E+00  0.10602718476E+04  0.17468881854E+04  0.13883234283E+04 0.  0.
        3    1    3    3  502    0 -0.50429551993E+03 -0.11626018804E+03  0.11122550306E+04  0.12267606393E+04  0.10100000352E+00 0. -1.
       -3    1    3    3    0  502  0.50429551993E+03  0.11626018804E+03 -0.51983183030E+02  0.52012754615E+03  0.10100000352E+00 0.  1.
</event>
<event>
 5   0  0.9639548E-04  0.1380664E+04  0.7818609E-02  0.8967935E-01
        1   -1    0    0  501    0  0.00000000000E+00  0.00000000000E+00  0.17261930566E+04  0.17261930566E+04  0.50400001928E-02 0. -1.
       -1   -1    0    0    0  501  0.00000000000E+00  0.00000000000E+00 -0.27607458862E+03  0.27607458867E+03  0.50400001928E-02 0.  1.
    10030    2    1    2    0    0  0.00000000000E+00  0.00000000000E+00  0.14501184680E+04  0.20022676453E+04  0.13806636637E+04 0.  0.
        1    1    3    3  502    0 -0.13395044744E+03  0.63312175092E+03  0.37648638769E+03  0.74868409493E+03  0.50400001928E-02 0. -1.
       -1    1    3    3    0  502  0.13395044744E+03 -0.63312175092E+03  0.10736320803E+04  0.12535835504E+04  0.50400001928E-02 0.  1.
</event>
<event>
 5   0  0.8673728E-04  0.1389789E+04  0.7818609E-02  0.8961243E-01
        1   -1    0    0  501    0  0.00000000000E+00  0.00000000000E+00  0.68589937333E+03  0.68589937335E+03  0.50400001928E-02 0. -1.
       -1   -1    0    0    0  501  0.00000000000E+00  0.00000000000E+00 -0.70400795413E+03  0.70400795415E+03  0.50400001928E-02 0.  1.
    10030    2    1    2    0    0  0.00000000000E+00  0.00000000000E+00 -0.18108580796E+02  0.13899073275E+04  0.13897893575E+04 0.  0.
        3    1    3    3  502    0 -0.71007167264E+02 -0.23786556819E+03 -0.65815218472E+03  0.70341051654E+03  0.10100000352E+00 0.  1.
       -3    1    3    3    0  502  0.71007167264E+02  0.23786556819E+03  0.64004360392E+03  0.68649681096E+03  0.10100000352E+00 0. -1.
</event>
<event>
 5   0  0.6048000E-04  0.1377237E+04  0.7818609E-02  0.8970462E-01
       -4   -1    0    0    0  501  0.00000000000E+00  0.00000000000E+00  0.11707609163E+04  0.11707616051E+04  0.12699999809E+01 0. -1.
        4   -1    0    0  501    0  0.00000000000E+00  0.00000000000E+00 -0.40503030704E+03  0.40503229813E+03  0.12699999809E+01 0.  1.
    10030    2    1    2    0    0  0.00000000000E+00  0.00000000000E+00  0.76573060921E+03  0.15757939032E+04  0.13772374739E+04 0.  0.
        4    1    3    3  502    0  0.21853860523E+03  0.37788342254E+03 -0.22649431512E+03  0.49178886800E+03  0.12699999809E+01 0.  1.
       -4    1    3    3    0  502 -0.21853860523E+03 -0.37788342254E+03  0.99222492433E+03  0.10840050352E+04  0.12699999809E+01 0. -1.
</event>
<event>
 5   0  0.8502300E-04  0.1370146E+04  0.7818609E-02  0.8975716E-01
        1   -1    0    0  501    0  0.00000000000E+00  0.00000000000E+00  0.84681712484E+03  0.84681712485E+03  0.50400001928E-02 0. -1.
       -1   -1    0    0    0  501  0.00000000000E+00  0.00000000000E+00 -0.55422278538E+03  0.55422278541E+03  0.50400001928E-02 0.  1.
    10030    2    1    2    0    0  0.00000000000E+00  0.00000000000E+00  0.29259433945E+03  0.14010399103E+04  0.13701464822E+04 0.  0.
        4    1    3    3  502    0 -0.10265785800E+03 -0.41267184733E+03 -0.40292323421E+03  0.58582030944E+03  0.12699999809E+01 0.  1.
       -4    1    3    3    0  502  0.10265785800E+03  0.41267184733E+03  0.69551757366E+03  0.81521960082E+03  0.12699999809E+01 0. -1.
</event>
<event>
 5   0  0.9639548E-04  0.1404003E+04  0.7818609E-02  0.8950926E-01
        1   -1    0    0  501    0  0.00000000000E+00  0.00000000000E+00  0.86482075387E+03  0.86482075389E+03  0.50400001928E-02 0.  1.
       -1   -1    0    0    0  501  0.00000000000E+00  0.00000000000E+00 -0.56983641518E+03  0.56983641520E+03  0.50400001928E-02 0. -1.
    10030    2    1    2    0    0  0.00000000000E+00  0.00000000000E+00  0.29498433869E+03  0.14346571691E+04  0.14040033592E+04 0.  0.
        1    1    3    3  502    0 -0.70112717658E+03 -0.33675151703E+02  0.15734767345E+03  0.71935500551E+03  0.50400001928E-02 0. -1.
       -1    1    3    3    0  502  0.70112717658E+03  0.33675151703E+02  0.13763666524E+03  0.71530216358E+03  0.50400001928E-02 0.  1.
</event>
<event>
 5   0  0.8673728E-04  0.1320192E+04  0.7818609E-02  0.9013704E-01
        1   -1    0    0  501    0  0.00000000000E+00  0.00000000000E+00  0.15005599753E+04  0.15005599753E+04  0.50400001928E-02 0.  1.
       -1   -1    0    0    0  501  0.00000000000E+00  0.00000000000E+00 -0.29037613095E+03  0.29037613100E+03  0.50400001928E-02 0. -1.
    10030    2    1    2    0    0  0.00000000000E+00  0.00000000000E+00  0.12101838444E+04  0.17909361063E+04  0.13201921072E+04 0.  0.
        3    1    3    3  502    0  0.23153889342E+03 -0.31160596401E+03  0.13293265697E+04  0.13848529435E+04  0.10100000352E+00 0.  1.
       -3    1    3    3    0  502 -0.23153889342E+03  0.31160596401E+03 -0.11914272530E+03  0.40608316287E+03  0.10100000352E+00 0. -1.
</event>
<event>
 5   0  0.1605214E-03  0.1417333E+04  0.7818609E-02  0.8941366E-01
        2   -1    0    0  501    0  0.00000000000E+00  0.00000000000E+00  0.82073853136E+03  0.82073853136E+03  0.25500000920E-02 0. -1.
       -2   -1    0    0    0  501  0.00000000000E+00  0.00000000000E+00 -0.61189833605E+03  0.61189833605E+03  0.25500000920E-02 0.  1.
    10030    2    1    2    0    0  0.00000000000E+00  0.00000000000E+00  0.20884019531E+03  0.14326368674E+04  0.14173334705E+04 0.  0.
        5    1    3    3  502    0  0.31846103798E+03  0.11793768582E+03 -0.52427610495E+03  0.62467131731E+03  0.46999998093E+01 0.  1.
       -5    1    3    3    0  502 -0.31846103798E+03 -0.11793768582E+03  0.73311630026E+03  0.80796555011E+03  0.46999998093E+01 0. -1.
</event>
<event>
 5   0  0.1648213E-03  0.1410512E+04  0.7818609E-02  0.8946245E-01
       -2   -1    0    0    0  501  0.00000000000E+00  0.00000000000E+00  0.26615178935E+03  0.26615178936E+03  0.25500000920E-02 0. -1.
        2   -1    0    0  501    0  0.00000000000E+00  0.00000000000E+00 -0.18688048670E+04  0.18688048670E+04  0.25500000920E-02 0.  1.
    10030    2    1    2    0    0  0.00000000000E+00  0.00000000000E+00 -0.16026530777E+04  0.21349566564E+04  0.14105116225E+04 0.  0.
        4    1    3    3  502    0  0.30531201007E+03  0.30874435560E+03  0.39842220618E+02  0.43603614076E+03  0.12699999809E+01 0. -1.
       -4    1    3    3    0  502 -0.30531201007E+03 -0.30874435560E+03 -0.16424952983E+04  0.16989205156E+04  0.12699999809E+01 0.  1.
</event>
<event>
 5   0  0.8609148E-04  0.1307100E+04  0.7818609E-02  0.9023953E-01
       -1   -1    0    0    0  501  0.00000000000E+00  0.00000000000E+00  0.62949765441E+03  0.62949765443E+03  0.50400001928E-02 0.  1.
        1   -1    0    0  501    0  0.00000000000E+00  0.00000000000E+00 -0.67852174658E+03  0.67852174660E+03  0.50400001928E-02 0. -1.
    10030    2    1    2    0    0  0.00000000000E+00  0.00000000000E+00 -0.49024092164E+02  0.13080194010E+04  0.13071003756E+04 0.  0.
        5    1    3    3  502    0 -0.22207313445E+03 -0.44402663439E+02 -0.63798278445E+03  0.67700236102E+03  0.46999998093E+01 0. -1.
       -5    1    3    3    0  502  0.22207313445E+03  0.44402663439E+02  0.58895869229E+03  0.63101704001E+03  0.46999998093E+01 0.  1.
</event>
<event>
 5   0  0.1648213E-03  0.1388209E+04  0.7818609E-02  0.8962398E-01
        2   -1    0    0  501    0  0.00000000000E+00  0.00000000000E+00  0.12058299479E+04  0.12058299479E+04  0.25500000920E-02 0. -1.
       -2   -1    0    0    0  501  0.00000000000E+00  0.00000000000E+00 -0.39954307673E+03  0.39954307673E+03  0.25500000920E-02 0.  1.
    10030    2    1    2    0    0  0.00000000000E+00  0.00000000000E+00  0.80628687117E+03  0.16053730246E+04  0.13882089287E+04 0.  0.
        4    1    3    3  502    0  0.60814193982E+03  0.24444656427E+03  0.66732905315E+03  0.93537180834E+03  0.12699999809E+01 0. -1.
       -4    1    3    3    0  502 -0.60814193982E+03 -0.24444656427E+03  0.13895781802E+03  0.67000121630E+03  0.12699999809E+01 0.  1.
</event>
<event>
 5   0  0.8673728E-04  0.1381246E+04  0.7818609E-02  0.8967507E-01
        1   -1    0    0  501    0  0.00000000000E+00  0.00000000000E+00  0.65772778787E+03  0.65772778789E+03  0.50400001928E-02 0. -1.
       -1   -1    0    0    0  501  0.00000000000E+00  0.00000000000E+00 -0.72516353195E+03  0.72516353197E+03  0.50400001928E-02 0.  1.
    10030    2    1    2    0    0  0.00000000000E+00  0.00000000000E+00 -0.67435744075E+02  0.13828913199E+04  0.13812461124E+04 0.  0.
        3    1    3    3  502    0  0.42929453305E+03  0.64544727881E+02  0.50404420791E+03  0.66522206197E+03  0.10100000352E+00 0. -1.
       -3    1    3    3    0  502 -0.42929453305E+03 -0.64544727881E+02 -0.57147995198E+03  0.71766925789E+03  0.10100000352E+00 0.  1.
</event>
<event>
 5   0  0.1578965E-03  0.1382293E+04  0.7818609E-02  0.8966736E-01
       -2   -1    0    0    0  501  0.00000000000E+00  0.00000000000E+00  0.36515066039E+03  0.36515066040E+03  0.25500000920E-02 0. -1.
        2   -1    0    0  501    0  0.00000000000E+00  0.00000000000E+00 -0.13081824494E+04  0.13081824494E+04  0.25500000920E-02 0.  1.
    10030    2    1    2    0    0  0.00000000000E+00  0.00000000000E+00 -0.94303178897E+03  0.16733331098E+04  0.13822932906E+04 0.  0.
        2    1    3    3  502    0 -0.31826918194E+03 -0.41843670265E+03  0.71613319054E+02  0.53057799971E+03  0.25500000920E-02 0. -1.
       -2    1    3    3    0  502  0.31826918194E+03  0.41843670265E+03 -0.10146451080E+04  0.11427551101E+04  0.25500000920E-02 0.  1.
</event>
<event>
 5   0  0.1648463E-03  0.1444062E+04  0.7818609E-02  0.8922528E-01
       -2   -1    0    0    0  501  0.00000000000E+00  0.00000000000E+00  0.54593438371E+03  0.54593438372E+03  0.25500000920E-02 0. -1.
        2   -1    0    0  501    0  0.00000000000E+00  0.00000000000E+00 -0.95492935982E+03  0.95492935982E+03  0.25500000920E-02 0.  1.
    10030    2    1    2    0    0  0.00000000000E+00  0.00000000000E+00 -0.40899497611E+03  0.15008637435E+04  0.14440620091E+04 0.  0.
        1    1    3    3  502    0  0.37126083056E+03  0.31206915029E+03  0.35143195445E+03  0.59893754057E+03  0.50400001928E-02 0. -1.
       -1    1    3    3    0  502 -0.37126083056E+03 -0.31206915029E+03 -0.76042693056E+03  0.90192620297E+03  0.50400001928E-02 0.  1.
</event>
<event>
 5   0  0.8502300E-04  0.1400369E+04  0.7818609E-02  0.8953552E-01
       -1   -1    0    0    0  501  0.00000000000E+00  0.00000000000E+00  0.72866979219E+03  0.72866979221E+03  0.50400001928E-02 0.  1.
        1   -1    0    0  501    0  0.00000000000E+00  0.00000000000E+00 -0.67281272380E+03  0.67281272382E+03  0.50400001928E-02 0. -1.
    10030    2    1    2    0    0  0.00000000000E+00  0.00000000000E+00  0.55857068394E+02  0.14014825160E+04  0.14003689623E+04 0.  0.
        4    1    3    3  502    0 -0.36862802799E+03  0.19596663563E+03 -0.53462800031E+03  0.67832017286E+03  0.12699999809E+01 0. -1.
       -4    1    3    3    0  502  0.36862802799E+03 -0.19596663563E+03  0.59048506871E+03  0.72316234316E+03  0.12699999809E+01 0.  1.
</event>
<event>
 5   0  0.1648463E-03  0.1378358E+04  0.7818609E-02  0.8969635E-01
       -2   -1    0    0    0  501  0.00000000000E+00  0.00000000000E+00  0.24836235236E+03  0.24836235237E+03  0.25500000920E-02 0. -1.
        2   -1    0    0  501    0  0.00000000000E+00  0.00000000000E+00 -0.19123977992E+04  0.19123977992E+04  0.25500000920E-02 0.  1.
    10030    2    1    2    0    0  0.00000000000E+00  0.00000000000E+00 -0.16640354469E+04  0.21607601516E+04  0.13783578869E+04 0.  0.
        1    1    3    3  502    0 -0.36701919800E+02  0.47622058208E+02  0.24424321264E+03  0.25153456679E+03  0.50400001928E-02 0. -1.
       -1    1    3    3    0  502  0.36701919800E+02 -0.47622058208E+02 -0.19082786595E+04  0.19092255848E+04  0.50400001928E-02 0.  1.
</event>
<event>
 5   0  0.9007180E-04  0.1393461E+04  0.7818609E-02  0.8958565E-01
       -1   -1    0    0    0  501  0.00000000000E+00  0.00000000000E+00  0.46438886174E+03  0.46438886176E+03  0.50400001928E-02 0.  1.
        1   -1    0    0  501    0  0.00000000000E+00  0.00000000000E+00 -0.10453166935E+04  0.10453166935E+04  0.50400001928E-02 0. -1.
    10030    2    1    2    0    0  0.00000000000E+00  0.00000000000E+00 -0.58092783174E+03  0.15097055553E+04  0.13934610572E+04 0.  0.
        2    1    3    3  502    0 -0.18756642482E+03 -0.60288684053E+03 -0.60962251302E+03  0.87766355432E+03  0.25500000920E-02 0. -1.
       -2    1    3    3    0  502  0.18756642482E+03  0.60288684053E+03  0.28694681278E+02  0.63204200093E+03  0.25500000920E-02 0.  1.
</event>
<event>
 5   0  0.1648213E-03  0.1353113E+04  0.7818609E-02  0.8988475E-01
        2   -1    0    0  501    0  0.00000000000E+00  0.00000000000E+00  0.10720811895E+04  0.10720811895E+04  0.25500000920E-02 0. -1.
       -2   -1    0    0    0  501  0.00000000000E+00  0.00000000000E+00 -0.42695341611E+03  0.42695341611E+03  0.25500000920E-02 0.  1.
    10030    2    1    2    0    0  0.00000000000E+00  0.00000000000E+00  0.64512777342E+03  0.14990346056E+04  0.13531130422E+04 0.  0.
        4    1    3    3  502    0  0.18809854313E+03 -0.64975553888E+03  0.33674213955E+03  0.75561908636E+03  0.12699999809E+01 0. -1.
       -4    1    3    3    0  502 -0.18809854313E+03  0.64975553888E+03  0.30838563386E+03  0.74341551928E+03  0.12699999809E+01 0.  1.
</event>
<event>
 5   0  0.1706986E-03  0.1399708E+04  0.7818609E-02  0.8954030E-01
       -2   -1    0    0    0  501  0.00000000000E+00  0.00000000000E+00  0.10929070178E+04  0.10929070178E+04  0.25500000920E-02 0. -1.
        2   -1    0    0  501    0  0.00000000000E+00  0.00000000000E+00 -0.44815833764E+03  0.44815833765E+03  0.25500000920E-02 0.  1.
    10030    2    1    2    0    0  0.00000000000E+00  0.00000000000E+00  0.64474868012E+03  0.15410653554E+04  0.13997076727E+04 0.  0.
        3    1    3    3  502    0 -0.52626323737E+03 -0.45734599010E+03  0.25561186281E+03  0.74260068965E+03  0.10100000352E+00 0.  1.
       -3    1    3    3    0  502  0.52626323737E+03  0.45734599010E+03  0.38913681731E+03  0.79846466575E+03  0.10100000352E+00 0. -1.
</event>
<event>
 5   0  0.9007180E-04  0.1248295E+04  0.7818609E-02  0.9071603E-01
        1   -1    0    0  501    0  0.00000000000E+00  0.00000000000E+00  0.15510581594E+04  0.15510581594E+04  0.50400001928E-02 0. -1.
       -1   -1    0    0    0  501  0.00000000000E+00  0.00000000000E+00 -0.25115768174E+03  0.25115768179E+03  0.50400001928E-02 0.  1.
    10030    2    1    2    0    0  0.00000000000E+00  0.00000000000E+00  0.12999004777E+04  0.18022158412E+04  0.12482951119E+04 0.  0.
        2    1    3    3  502    0 -0.42680136798E+03 -0.37132735516E+03  0.10306076518E+04  0.11756681267E+04  0.25500000920E-02 0. -1.
       -2    1    3    3    0  502  0.42680136798E+03  0.37132735516E+03  0.26929282593E+03  0.62654771446E+03  0.25500000920E-02 0.  1.
</event>
<event>
 5   0  0.8502300E-04  0.1417114E+04  0.7818609E-02  0.8941523E-01
       -1   -1    0    0    0  501  0.00000000000E+00  0.00000000000E+00  0.33579490379E+03  0.33579490383E+03  0.50400001928E-02 0.  1.
        1   -1    0    0  501    0  0.00000000000E+00  0.00000000000E+00 -0.14951182921E+04  0.14951182921E+04  0.50400001928E-02 0. -1.
    10030    2    1    2    0    0  0.00000000000E+00  0.00000000000E+00 -0.11593233883E+04  0.18309131960E+04  0.14171141141E+04 0.  0.
        4    1    3    3  502    0  0.36047803318E+03  0.75780692361E+02  0.20236133656E+03  0.42028424807E+03  0.12699999809E+01 0.  1.
       -4    1    3    3    0  502 -0.36047803318E+03 -0.75780692361E+02 -0.13616847249E+04  0.14106289479E+04  0.12699999809E+01 0. -1.
</event>
<event>
 5   0  0.8673728E-04  0.1351275E+04  0.7818609E-02  0.8989864E-01
       -1   -1    0    0    0  501  0.00000000000E+00  0.00000000000E+00  0.12750505116E+04  0.12750505116E+04  0.50400001928E-02 0. -1.
        1   -1    0    0  501    0  0.00000000000E+00  0.00000000000E+00 -0.35801391662E+03  0.35801391666E+03  0.50400001928E-02 0.  1.
    10030    2    1    2    0    0  0.00000000000E+00  0.00000000000E+00  0.91703659494E+03  0.16330644282E+04  0.13512746983E+04 0.  0.
        3    1    3    3  502    0  0.17199696547E+03 -0.35984260709E+03  0.11176040971E+04  0.11866375125E+04  0.10100000352E+00 0. -1.
       -3    1    3    3    0  502 -0.17199696547E+03  0.35984260709E+03 -0.20056750212E+03  0.44642691576E+03  0.10100000352E+00 0.  1.
</event>
<event>
 5   0  0.8673728E-04  0.1452676E+04  0.7818609E-02  0.8916547E-01
       -1   -1    0    0    0  501  0.00000000000E+00  0.00000000000E+00  0.27389126712E+03  0.27389126716E+03  0.50400001928E-02 0.  1.
        1   -1    0    0  501    0  0.00000000000E+00  0.00000000000E+00 -0.19261919612E+04  0.19261919612E+04  0.50400001928E-02 0. -1.
    10030    2    1    2    0    0  0.00000000000E+00  0.00000000000E+00 -0.16523006941E+04  0.22000832284E+04  0.14526763673E+04 0.  0.
        3    1    3    3  502    0 -0.51560692211E+03 -0.30190488425E+03 -0.14516422294E+04  0.15697968753E+04  0.10100000352E+00 0. -1.
       -3    1    3    3    0  502  0.51560692211E+03  0.30190488425E+03 -0.20065846471E+03  0.63028635312E+03  0.10100000352E+00 0.  1.
</event>
<event>
 5   0  0.1706986E-03  0.1388974E+04  0.7818609E-02  0.8961839E-01
        2   -1    0    0  501    0  0.00000000000E+00  0.00000000000E+00  0.15494548872E+04  0.15494548872E+04  0.25500000920E-02 0. -1.
       -2   -1    0    0    0  501  0.00000000000E+00  0.00000000000E+00 -0.31127868371E+03  0.31127868372E+03  0.25500000920E-02 0.  1.
    10030    2    1    2    0    0  0.00000000000E+00  0.00000000000E+00  0.12381762035E+04  0.18607335709E+04  0.13889741218E+04 0.  0.
        3    1    3    3  502    0 -0.10061383159E+03 -0.30041531330E+03 -0.20883018729E+03  0.37945034049E+03  0.10100000352E+00 0.  1.
       -3    1    3    3    0  502  0.10061383159E+03  0.30041531330E+03  0.14470063908E+04  0.14812832304E+04  0.10100000352E+00 0. -1.
</event>
<event>
 5   0  0.1605214E-03  0.1382938E+04  0.7818609E-02  0.8966262E-01
        2   -1    0    0  501    0  0.00000000000E+00  0.00000000000E+00  0.66454265525E+03  0.66454265526E+03  0.25500000920E-02 0.  1.
       -2   -1    0    0    0  501  0.00000000000E+00  0.00000000000E+00 -0.71948628928E+03  0.71948628928E+03  0.25500000920E-02 0. -1.
    10030    2    1    2    0    0  0.00000000000E+00  0.00000000000E+00 -0.54943634021E+02  0.13840289445E+04  0.13829379293E+04 0.  0.
        5    1    3    3  502    0  0.85068082704E+02 -0.54808532841E+03 -0.44068146793E+03  0.70841820423E+03  0.46999998093E+01 0. -1.
       -5    1    3    3    0  502 -0.85068082704E+02  0.54808532841E+03  0.38573783391E+03  0.67561074031E+03  0.46999998093E+01 0.  1.
</event>
<event>
 5   0  0.1578965E-03  0.1393009E+04  0.7818609E-02  0.8958894E-01
        2   -1    0    0  501    0  0.00000000000E+00  0.00000000000E+00  0.18575205110E+04  0.18575205111E+04  0.25500000920E-02 0. -1.
       -2   -1    0    0    0  501  0.00000000000E+00  0.00000000000E+00 -0.26116467343E+03  0.26116467344E+03  0.25500000920E-02 0.  1.
    10030    2    1    2    0    0  0.00000000000E+00  0.00000000000E+00  0.15963558376E+04  0.21186851845E+04  0.13930093146E+04 0.  0.
        2    1    3    3  502    0 -0.39698539710E+03 -0.47528778598E+03  0.12830287005E+04  0.14246608478E+04  0.25500000920E-02 0.  1.
       -2    1    3    3    0  502  0.39698539710E+03  0.47528778598E+03  0.31332713711E+03  0.69402433666E+03  0.25500000920E-02 0. -1.
</event>
<event>
 5   0  0.8673728E-04  0.1409670E+04  0.7818609E-02  0.8946849E-01
        1   -1    0    0  501    0  0.00000000000E+00  0.00000000000E+00  0.10576176142E+04  0.10576176142E+04  0.50400001928E-02 0.  1.
       -1   -1    0    0    0  501  0.00000000000E+00  0.00000000000E+00 -0.46972766846E+03  0.46972766848E+03  0.50400001928E-02 0. -1.
    10030    2    1    2    0    0  0.00000000000E+00  0.00000000000E+00  0.58788994570E+03  0.15273452827E+04  0.14096698281E+04 0.  0.
        3    1    3    3  502    0  0.24395064407E+03 -0.63690797893E+03  0.48663511728E+03  0.83784093832E+03  0.10100000352E+00 0. -1.
       -3    1    3    3    0  502 -0.24395064407E+03  0.63690797893E+03  0.10125482842E+03  0.68950434433E+03  0.10100000352E+00 0.  1.
</event>
<event>
 5   0  0.1578965E-03  0.1401399E+04  0.7818609E-02  0.8952807E-01
       -2   -1    0    0    0  501  0.00000000000E+00  0.00000000000E+00  0.71866925657E+03  0.71866925657E+03  0.25500000920E-02 0. -1.
        2   -1    0    0  501    0  0.00000000000E+00  0.00000000000E+00 -0.68317887581E+03  0.68317887582E+03  0.25500000920E-02 0.  1.
    10030    2    1    2    0    0  0.00000000000E+00  0.00000000000E+00  0.35490380755E+02  0.14018481324E+04  0.14013988080E+04 0.  0.
        2    1    3    3  502    0  0.47936336529E+03  0.50287245657E+03 -0.73441654582E+02  0.69861550240E+03  0.25500000920E-02 0.  1.
       -2    1    3    3    0  502 -0.47936336529E+03 -0.50287245657E+03  0.10893203534E+03  0.70323262999E+03  0.25500000920E-02 0. -1.
</event>
<event>
 5   0  0.9639548E-04  0.1387069E+04  0.7818609E-02  0.8963232E-01
       -1   -1    0    0    0  501  0.00000000000E+00  0.00000000000E+00  0.87223652676E+03  0.87223652678E+03  0.50400001928E-02 0. -1.
        1   -1    0    0  501    0  0.00000000000E+00  0.00000000000E+00 -0.55144477735E+03  0.55144477738E+03  0.50400001928E-02 0.  1.
    10030    2    1    2    0    0  0.00000000000E+00  0.00000000000E+00  0.32079174941E+03  0.14236813042E+04  0.13870692518E+04 0.  0.
        1    1    3    3  502    0 -0.40055397432E+03 -0.55309503390E+03  0.28455438478E+03  0.73981673460E+03  0.50400001928E-02 0.  1.
       -1    1    3    3    0  502  0.40055397432E+03  0.55309503390E+03  0.36237364626E+02  0.68386456955E+03  0.50400001928E-02 0. -1.
</event>
<event>
 5   0  0.8609148E-04  0.1414022E+04  0.7818609E-02  0.8943731E-01
       -1   -1    0    0    0  501  0.00000000000E+00  0.00000000000E+00  0.53459559630E+03  0.53459559632E+03  0.50400001928E-02 0. -1.
        1   -1    0    0  501    0  0.00000000000E+00  0.00000000000E+00 -0.93503299512E+03  0.93503299513E+03  0.50400001928E-02 0.  1.
    10030    2    1    2    0    0  0.00000000000E+00  0.00000000000E+00 -0.40043739882E+03  0.14696285915E+04  0.14140219540E+04 0.  0.
        5    1    3    3  502    0 -0.46811567464E+02  0.19939403872E+02 -0.93311136776E+03  0.93450939926E+03  0.46999998093E+01 0.  1.
       -5    1    3    3    0  502  0.46811567464E+02 -0.19939403872E+02  0.53267396894E+03  0.53511919220E+03  0.46999998093E+01 0. -1.
</event>
<event>
 5   0  0.1648213E-03  0.1366367E+04  0.7818609E-02  0.8978530E-01
       -2   -1    0    0    0  501  0.00000000000E+00  0.00000000000E+00  0.10581448071E+04  0.10581448071E+04  0.25500000920E-02 0.  1.
        2   -1    0    0  501    0  0.00000000000E+00  0.00000000000E+00 -0.44109221031E+03  0.44109221031E+03  0.25500000920E-02 0. -1.
    10030    2    1    2    0    0  0.00000000000E+00  0.00000000000E+00  0.61705259676E+03  0.14992370174E+04  0.13663666152E+04 0.  0.
        4    1    3    3  502    0 -0.24465203903E+03  0.52940486836E+03 -0.81903878282E+02  0.58892613546E+03  0.12699999809E+01 0. -1.
       -4    1    3    3    0  502  0.24465203903E+03 -0.52940486836E+03  0.69895647504E+03  0.91031088193E+03  0.12699999809E+01 0.  1.
</event>
<event>
 5   0  0.8673728E-04  0.1263936E+04  0.7818609E-02  0.9058663E-01
       -1   -1    0    0    0  501  0.00000000000E+00  0.00000000000E+00  0.54115083932E+03  0.54115083935E+03  0.50400001928E-02 0.  1.
        1   -1    0    0  501    0  0.00000000000E+00  0.00000000000E+00 -0.73802682903E+03  0.73802682905E+03  0.50400001928E-02 0. -1.
    10030    2    1    2    0    0  0.00000000000E+00  0.00000000000E+00 -0.19687598971E+03  0.12791776684E+04  0.12639364509E+04 0.  0.
        3    1    3    3  502    0 -0.18741325044E+03 -0.52969732525E+03  0.19432667014E+03  0.59452993848E+03  0.10100000352E+00 0.  1.
       -3    1    3    3    0  502  0.18741325044E+03  0.52969732525E+03 -0.39120265985E+03  0.68464772992E+03  0.10100000352E+00 0. -1.
</event>
<event>
 5   0  0.6048000E-04  0.1412730E+04  0.7818609E-02  0.8944655E-01
        3   -1    0    0  501    0  0.00000000000E+00  0.00000000000E+00  0.45917808695E+03  0.45917809806E+03  0.10100000352E+00 0. -1.
       -3   -1    0    0    0  501  0.00000000000E+00  0.00000000000E+00 -0.10866180476E+04  0.10866180523E+04  0.10100000352E+00 0.  1.
    10030    2    1    2    0    0  0.00000000000E+00  0.00000000000E+00 -0.62743996066E+03  0.15457961504E+04  0.14127295687E+04 0.  0.
        1    1    3    3  502    0  0.60493161139E+03 -0.26328785826E+03 -0.58985631284E+03  0.88498204535E+03  0.50400001928E-02 0.  1.
       -1    1    3    3    0  502 -0.60493161139E+03  0.26328785826E+03 -0.37583647819E+02  0.66081410501E+03  0.50400001928E-02 0. -1.
</event>
<event>
 5   0  0.9639548E-04  0.1405660E+04  0.7818609E-02  0.8949732E-01
       -1   -1    0    0    0  501  0.00000000000E+00  0.00000000000E+00  0.50864668253E+03  0.50864668255E+03  0.50400001928E-02 0.  1.
        1   -1    0    0  501    0  0.00000000000E+00  0.00000000000E+00 -0.97114589024E+03  0.97114589025E+03  0.50400001928E-02 0. -1.
    10030    2    1    2    0    0  0.00000000000E+00  0.00000000000E+00 -0.46249920771E+03  0.14797925728E+04  0.14056601799E+04 0.  0.
        1    1    3    3  502    0 -0.43397144116E+03  0.14120653927E+03  0.33144836210E+03  0.56402882483E+03  0.50400001928E-02 0.  1.
       -1    1    3    3    0  502  0.43397144116E+03 -0.14120653927E+03 -0.79394756981E+03  0.91576374797E+03  0.50400001928E-02 0. -1.
</event>
<event>
 5   0  0.9007180E-04  0.1401775E+04  0.7818609E-02  0.8952534E-01
        1   -1    0    0  501    0  0.00000000000E+00  0.00000000000E+00  0.59329300585E+03  0.59329300587E+03  0.50400001928E-02 0. -1.
       -1   -1    0    0    0  501  0.00000000000E+00  0.00000000000E+00 -0.82799484088E+03  0.82799484090E+03  0.50400001928E-02 0.  1.
    10030    2    1    2    0    0  0.00000000000E+00  0.00000000000E+00 -0.23470183503E+03  0.14212878468E+04  0.14017753715E+04 0.  0.
        2    1    3    3  502    0  0.34025655001E+03 -0.14456863719E+02 -0.73846270301E+03  0.81321011091E+03  0.25500000920E-02 0.  1.
       -2    1    3    3    0  502 -0.34025655001E+03  0.14456863719E+02  0.50376086798E+03  0.60807773586E+03  0.25500000920E-02 0. -1.
</event>
<event>
 5   0  0.8502300E-04  0.1347914E+04  0.7818609E-02  0.8992409E-01
        1   -1    0    0  501    0  0.00000000000E+00  0.00000000000E+00  0.99435869847E+03  0.99435869848E+03  0.50400001928E-02 0. -1.
       -1   -1    0    0    0  501  0.00000000000E+00  0.00000000000E+00 -0.45679471958E+03  0.45679471961E+03  0.50400001928E-02 0.  1.
    10030    2    1    2    0    0  0.00000000000E+00  0.00000000000E+00  0.53756397889E+03  0.14511534181E+04  0.13479136513E+04 0.  0.
        4    1    3    3  502    0  0.15988052988E+03  0.45424201968E+03 -0.23883850834E+03  0.53753422425E+03  0.12699999809E+01 0.  1.
       -4    1    3    3    0  502 -0.15988052988E+03 -0.45424201968E+03  0.77640248723E+03  0.91361919384E+03  0.12699999809E+01 0. -1.
</event>
<event>
 5   0  0.6048000E-04  0.1459795E+04  0.7818609E-02  0.8911638E-01
       -3   -1    0    0    0  501  0.00000000000E+00  0.00000000000E+00  0.89898664309E+03  0.89898664877E+03  0.10100000352E+00 0.  1.
        3   -1    0    0  501    0  0.00000000000E+00  0.00000000000E+00 -0.59261214991E+03  0.59261215852E+03  0.10100000352E+00 0. -1.
    10030    2    1    2    0    0  0.00000000000E+00  0.00000000000E+00  0.30637449318E+03  0.14915988073E+04  0.14597950787E+04 0.  0.
        2    1    3    3  502    0  0.57063953122E+02 -0.52001598458E+03  0.67327302725E+03  0.85262505722E+03  0.25500000920E-02 0.  1.
       -2    1    3    3    0  502 -0.57063953122E+02  0.52001598458E+03 -0.36689853407E+03  0.63897375007E+03  0.25500000920E-02 0. -1.
</event>
<event>
 5   0  0.1648463E-03  0.1395562E+04  0.7818609E-02  0.8957037E-01
       -2   -1    0    0    0  501  0.00000000000E+00  0.00000000000E+00  0.36958016101E+03  0.36958016102E+03  0.25500000920E-02 0.  1.
        2   -1    0    0  501    0  0.00000000000E+00  0.00000000000E+00 -0.13174361805E+04  0.13174361805E+04  0.25500000920E-02 0. -1.
    10030    2    1    2    0    0  0.00000000000E+00  0.00000000000E+00 -0.94785601951E+03  0.16870163415E+04  0.13955619309E+04 0.  0.
        1    1    3    3  502    0 -0.56957602996E+03 -0.18652030389E+03 -0.90589577194E+03  0.10862107656E+04  0.50400001928E-02 0. -1.
       -1    1    3    3    0  502  0.56957602996E+03  0.18652030389E+03 -0.41960247567E+02  0.60080557593E+03  0.50400001928E-02 0.  1.
</event>
<event>
 5   0  0.9007180E-04  0.1412554E+04  0.7818609E-02  0.8944781E-01
        1   -1    0    0  501    0  0.00000000000E+00  0.00000000000E+00  0.59899675187E+03  0.59899675189E+03  0.50400001928E-02 0.  1.
       -1   -1    0    0    0  501  0.00000000000E+00  0.00000000000E+00 -0.83277152860E+03  0.83277152861E+03  0.50400001928E-02 0. -1.
    10030    2    1    2    0    0  0.00000000000E+00  0.00000000000E+00 -0.23377477673E+03  0.14317682805E+04  0.14125543398E+04 0.  0.
        2    1    3    3  502    0 -0.27501559798E+03 -0.27500293889E+03  0.48068014531E+03  0.61831512810E+03  0.25500000920E-02 0.  1.
       -2    1    3    3    0  502  0.27501559798E+03  0.27500293889E+03 -0.71445492204E+03  0.81345315241E+03  0.25500000920E-02 0. -1.
</event>
<event>
 5   0  0.1706986E-03  0.1401081E+04  0.7818609E-02  0.8953036E-01
        2   -1    0    0  501    0  0.00000000000E+00  0.00000000000E+00  0.87902931504E+03  0.87902931504E+03  0.25500000920E-02 0. -1.
       -2   -1    0    0    0  501  0.00000000000E+00  0.00000000000E+00 -0.55829446869E+03  0.55829446870E+03  0.25500000920E-02 0.  1.
    10030    2    1    2    0    0  0.00000000000E+00  0.00000000000E+00  0.32073484635E+03  0.14373237837E+04  0.14010813030E+04 0.  0.
        3    1    3    3  502    0  0.68479529272E+02 -0.62382893613E+03 -0.15898104007E+03  0.64740016125E+03  0.10100000352E+00 0.  1.
       -3    1    3    3    0  502 -0.68479529272E+02  0.62382893613E+03  0.47971588642E+03  0.78992362249E+03  0.10100000352E+00 0. -1.
</event>
<event>
 5   0  0.8502300E-04  0.1419410E+04  0.7818609E-02  0.8939887E-01
        1   -1    0    0  501    0  0.00000000000E+00  0.00000000000E+00  0.99826200663E+03  0.99826200664E+03  0.50400001928E-02 0. -1.
       -1   -1    0    0    0  501  0.00000000000E+00  0.00000000000E+00 -0.50455788222E+03  0.50455788225E+03  0.50400001928E-02 0.  1.
    10030    2    1    2    0    0  0.00000000000E+00  0.00000000000E+00  0.49370412441E+03  0.15028198889E+04  0.14194096857E+04 0.  0.
        4    1    3    3  502    0  0.26096083876E+03 -0.34608052256E+03 -0.34813851706E+03  0.55594453629E+03  0.12699999809E+01 0.  1.
       -4    1    3    3    0  502 -0.26096083876E+03  0.34608052256E+03  0.84184264147E+03  0.94687535260E+03  0.12699999809E+01 0. -1.
</event>
<event>
 5   0  0.1648463E-03  0.1404848E+04  0.7818609E-02  0.8950317E-01
       -2   -1    0    0    0  501  0.00000000000E+00  0.00000000000E+00  0.54390842729E+03  0.54390842730E+03  0.25500000920E-02 0.  1.
        2   -1    0    0  501    0  0.00000000000E+00  0.00000000000E+00 -0.90713728035E+03  0.90713728036E+03  0.25500000920E-02 0. -1.
    10030    2    1    2    0    0  0.00000000000E+00  0.00000000000E+00 -0.36322885306E+03  0.14510457077E+04  0.14048481932E+04 0.  0.
        1    1    3    3  502    0 -0.26975412085E+03 -0.54296679413E+02  0.48592314940E+03  0.55842342560E+03  0.50400001928E-02 0.  1.
       -1    1    3    3    0  502  0.26975412085E+03  0.54296679413E+02 -0.84915200246E+03  0.89262228206E+03  0.50400001928E-02 0. -1.
</event>
<event>
 5   0  0.8673728E-04  0.1385025E+04  0.7818609E-02  0.8964730E-01
       -1   -1    0    0    0  501  0.00000000000E+00  0.00000000000E+00  0.70206598261E+03  0.70206598263E+03  0.50400001928E-02 0.  1.
        1   -1    0    0  501    0  0.00000000000E+00  0.00000000000E+00 -0.68308941714E+03  0.68308941716E+03  0.50400001928E-02 0. -1.
    10030    2    1    2    0    0  0.00000000000E+00  0.00000000000E+00  0.18976565466E+02  0.13851553998E+04  0.13850254047E+04 0.  0.
        3    1    3    3  502    0 -0.59990598614E+03 -0.17463700978E+03 -0.28918427731E+03  0.68848589952E+03  0.10100000352E+00 0.  1.
       -3    1    3    3    0  502  0.59990598614E+03  0.17463700978E+03  0.30816084278E+03  0.69666950027E+03  0.10100000352E+00 0. -1.
</event>
<event>
 5   0  0.1648213E-03  0.1391875E+04  0.7818609E-02  0.8959721E-01
        2   -1    0    0  501    0  0.00000000000E+00  0.00000000000E+00  0.69986341016E+03  0.69986341016E+03  0.25500000920E-02 0. -1.
       -2   -1    0    0    0  501  0.00000000000E+00  0.00000000000E+00 -0.69203359042E+03  0.69203359042E+03  0.25500000920E-02 0.  1.
    10030    2    1    2    0    0  0.00000000000E+00  0.00000000000E+00  0.78298197419E+01  0.13918970006E+04  0.13918749779E+04 0.  0.
        4    1    3    3  502    0 -0.16666875672E+03 -0.57711284728E+03  0.35533142981E+03  0.69792531898E+03  0.12699999809E+01 0. -1.
       -4    1    3    3    0  502  0.16666875672E+03  0.57711284728E+03 -0.34750161007E+03  0.69397168160E+03  0.12699999809E+01 0.  1.
</event>
<event>
 5   0  0.1648213E-03  0.1430926E+04  0.7818609E-02  0.8931732E-01
       -2   -1    0    0    0  501  0.00000000000E+00  0.00000000000E+00  0.49781327158E+03  0.49781327159E+03  0.25500000920E-02 0. -1.
        2   -1    0    0  501    0  0.00000000000E+00  0.00000000000E+00 -0.10282714966E+04  0.10282714966E+04  0.25500000920E-02 0.  1.
    10030    2    1    2    0    0  0.00000000000E+00  0.00000000000E+00 -0.53045822503E+03  0.15260847682E+04  0.14309258511E+04 0.  0.
        4    1    3    3  502    0  0.18434325035E+03  0.65963223905E+03 -0.44619284066E+02  0.68635968570E+03  0.12699999809E+01 0. -1.
       -4    1    3    3    0  502 -0.18434325035E+03 -0.65963223905E+03 -0.48583894096E+03  0.83972508251E+03  0.12699999809E+01 0.  1.
</event>
<event>
 5   0  0.1605214E-03  0.1391827E+04  0.7818609E-02  0.8959756E-01
        2   -1    0    0  501    0  0.00000000000E+00  0.00000000000E+00  0.51144703693E+03  0.51144703694E+03  0.25500000920E-02 0.  1.
       -2   -1    0    0    0  501  0.00000000000E+00  0.00000000000E+00 -0.94691248373E+03  0.94691248374E+03  0.25500000920E-02 0. -1.
    10030    2    1    2    0    0  0.00000000000E+00  0.00000000000E+00 -0.43546544680E+03  0.14583595207E+04  0.13918269778E+04 0.  0.
        5    1    3    3  502    0  0.13737644653E+03  0.34106035881E+02  0.49618750405E+03  0.51600352607E+03  0.46999998093E+01 0.  1.
       -5    1    3    3    0  502 -0.13737644653E+03 -0.34106035881E+02 -0.93165295085E+03  0.94235599461E+03  0.46999998093E+01 0. -1.
</event>
<event>
 5   0  0.1578965E-03  0.1389491E+04  0.7818609E-02  0.8961461E-01
       -2   -1    0    0    0  501  0.00000000000E+00  0.00000000000E+00  0.10682360808E+04  0.10682360808E+04  0.25500000920E-02 0. -1.
        2   -1    0    0  501    0  0.00000000000E+00  0.00000000000E+00 -0.45183936823E+03  0.45183936824E+03  0.25500000920E-02 0.  1.
    10030    2    1    2    0    0  0.00000000000E+00  0.00000000000E+00  0.61639671256E+03  0.15200754490E+04  0.13894907209E+04 0.  0.
        2    1    3    3  502    0  0.15154815862E+03 -0.51335496695E+03  0.79273523883E+03  0.95651938055E+03  0.25500000920E-02 0. -1.
       -2    1    3    3    0  502 -0.15154815862E+03  0.51335496695E+03 -0.17633852627E+03  0.56355606849E+03  0.25500000920E-02 0.  1.
</event>
<event>
 5   0  0.1706986E-03  0.1403072E+04  0.7818609E-02  0.8951598E-01
        2   -1    0    0  501    0  0.00000000000E+00  0.00000000000E+00  0.51370575243E+03  0.51370575244E+03  0.25500000920E-02 0.  1.
       -2   -1    0    0    0  501  0.00000000000E+00  0.00000000000E+00 -0.95804374062E+03  0.95804374062E+03  0.25500000920E-02 0. -1.
    10030    2    1    2    0    0  0.00000000000E+00  0.00000000000E+00 -0.44433798818E+03  0.14717494931E+04  0.14030717453E+04 0.  0.
        3    1    3    3  502    0  0.32193458149E+03  0.31336072570E+03 -0.78735228722E+03  0.90651004052E+03  0.10100000352E+00 0. -1.
       -3    1    3    3    0  502 -0.32193458149E+03 -0.31336072570E+03  0.34301429903E+03  0.56523945254E+03  0.10100000352E+00 0.  1.
</event>
<event>
 5   0  0.1706986E-03  0.1404360E+04  0.7818609E-02  0.8950668E-01
        2   -1    0    0  501    0  0.00000000000E+00  0.00000000000E+00  0.40870706188E+03  0.40870706189E+03  0.25500000920E-02 0.  1.
       -2   -1    0    0    0  501  0.00000000000E+00  0.00000000000E+00 -0.12063825790E+04  0.12063825790E+04  0.25500000920E-02 0. -1.
    10030    2    1    2    0    0  0.00000000000E+00  0.00000000000E+00 -0.79767551714E+03  0.16150896409E+04  0.14043604657E+04 0.  0.
        3    1    3    3  502    0  0.42184001558E+03  0.56041776289E+03 -0.43592589518E+03  0.82586225486E+03  0.10100000352E+00 0. -1.
       -3    1    3    3    0  502 -0.42184001558E+03 -0.56041776289E+03 -0.36174962196E+03  0.78922738605E+03  0.10100000352E+00 0.  1.
</event>
<event>
 5   0  0.1578965E-03  0.1379277E+04  0.7818609E-02  0.8968957E-01
        2   -1    0    0  501    0  0.00000000000E+00  0.00000000000E+00  0.12409448643E+04  0.12409448643E+04  0.25500000920E-02 0.  1.
       -2   -1    0    0    0  501  0.00000000000E+00  0.00000000000E+00 -0.38325760900E+03  0.38325760901E+03  0.25500000920E-02 0. -1.
    10030    2    1    2    0    0  0.00000000000E+00  0.00000000000E+00  0.85768725532E+03  0.16242024733E+04  0.13792774364E+04 0.  0.
        2    1    3    3  502    0  0.56401389803E+03 -0.28083254990E+03  0.75903311364E+03  0.98646331197E+03  0.25500000920E-02 0. -1.
       -2    1    3    3    0  502 -0.56401389803E+03  0.28083254990E+03  0.98654141682E+02  0.63773916136E+03  0.25500000920E-02 0.  1.
</event>
<event>
 5   0  0.6048000E-04  0.1408627E+04  0.7818609E-02  0.8947598E-01
       -3   -1    0    0    0  501  0.00000000000E+00  0.00000000000E+00  0.63993752320E+03  0.63993753117E+03  0.10100000352E+00 0.  1.
        3   -1    0    0  501    0  0.00000000000E+00  0.00000000000E+00 -0.77516498516E+03  0.77516499174E+03  0.10100000352E+00 0. -1.
    10030    2    1    2    0    0  0.00000000000E+00  0.00000000000E+00 -0.13522746196E+03  0.14151025229E+04  0.14086265239E+04 0.  0.
        3    1    3    3  502    0 -0.72077082510E+01 -0.30622498725E+03 -0.70474667988E+03  0.76843580531E+03  0.10100000352E+00 0. -1.
       -3    1    3    3    0  502  0.72077082510E+01  0.30622498725E+03  0.56951921792E+03  0.64666671760E+03  0.10100000352E+00 0.  1.
</event>
<event>
 5   0  0.6048000E-04  0.1402152E+04  0.7818609E-02  0.8952262E-01
       -4   -1    0    0    0  501  0.00000000000E+00  0.00000000000E+00  0.12641853323E+04  0.12641859702E+04  0.12699999809E+01 0. -1.
        4   -1    0    0  501    0  0.00000000000E+00  0.00000000000E+00 -0.38879210641E+03  0.38879418065E+03  0.12699999809E+01 0.  1.
    10030    2    1    2    0    0  0.00000000000E+00  0.00000000000E+00  0.87539322588E+03  0.16529801509E+04  0.14021519458E+04 0.  0.
        3    1    3    3  502    0  0.70075056755E+03 -0.13432666766E+02  0.41812156346E+03  0.81612342602E+03  0.10100000352E+00 0.  1.
       -3    1    3    3    0  502 -0.70075056755E+03  0.13432666766E+02  0.45727166242E+03  0.83685672484E+03  0.10100000352E+00 0. -1.
</event>
<event>
 5   0  0.1706986E-03  0.1369622E+04  0.7818609E-02  0.8976106E-01
        2   -1    0    0  501    0  0.00000000000E+00  0.00000000000E+00  0.74115003483E+03  0.74115003484E+03  0.25500000920E-02 0.  1.
       -2   -1    0    0    0  501  0.00000000000E+00  0.00000000000E+00 -0.63275478420E+03  0.63275478421E+03  0.25500000920E-02 0. -1.
    10030    2    1    2    0    0  0.00000000000E+00  0.00000000000E+00  0.10839525063E+03  0.13739048190E+04  0.13696221820E+04 0.  0.
        3    1    3    3  502    0 -0.67605667355E+03 -0.90005670659E+02  0.11613673822E+03  0.69183914227E+03  0.10100000352E+00 0. -1.
       -3    1    3    3    0  502  0.67605667355E+03  0.90005670659E+02 -0.77414875922E+01  0.68206567678E+03  0.10100000352E+00 0.  1.
</event>
<event>
 5   0  0.8502300E-04  0.1385429E+04  0.7818609E-02  0.8964434E-01
        1   -1    0    0  501    0  0.00000000000E+00  0.00000000000E+00  0.12841497839E+04  0.12841497839E+04  0.50400001928E-02 0. -1.
       -1   -1    0    0    0  501  0.00000000000E+00  0.00000000000E+00 -0.37367420651E+03  0.37367420654E+03  0.50400001928E-02 0.  1.
    10030    2    1    2    0    0  0.00000000000E+00  0.00000000000E+00  0.91047557734E+03  0.16578239904E+04  0.13854293942E+04 0.  0.
        4    1    3    3  502    0  0.36018358232E+03  0.46776196298E+03  0.88886556906E+03  0.10670600169E+04  0.12699999809E+01 0.  1.
       -4    1    3    3    0  502 -0.36018358232E+03 -0.46776196298E+03  0.21610008281E+02  0.59076397347E+03  0.12699999809E+01 0. -1.
</event>
<event>
 5   0  0.1648463E-03  0.1416691E+04  0.7818609E-02  0.8941824E-01
        2   -1    0    0  501    0  0.00000000000E+00  0.00000000000E+00  0.98901712230E+03  0.98901712230E+03  0.25500000920E-02 0.  1.
       -2   -1    0    0    0  501  0.00000000000E+00  0.00000000000E+00 -0.50732547894E+03  0.50732547895E+03  0.25500000920E-02 0. -1.
    10030    2    1    2    0    0  0.00000000000E+00  0.00000000000E+00  0.48169164336E+03  0.14963426012E+04  0.14166913358E+04 0.  0.
        1    1    3    3  502    0 -0.11486168852E+03  0.20693942658E+02  0.97879168730E+03  0.98572542521E+03  0.50400001928E-02 0.  1.
       -1    1    3    3    0  502  0.11486168852E+03 -0.20693942658E+02 -0.49710004394E+03  0.51061717604E+03  0.50400001928E-02 0. -1.
</event>
<event>
 5   0  0.1578965E-03  0.1381026E+04  0.7818609E-02  0.8967668E-01
        2   -1    0    0  501    0  0.00000000000E+00  0.00000000000E+00  0.39042812707E+03  0.39042812708E+03  0.25500000920E-02 0.  1.
       -2   -1    0    0    0  501  0.00000000000E+00  0.00000000000E+00 -0.12212449504E+04  0.12212449505E+04  0.25500000920E-02 0. -1.
    10030    2    1    2    0    0  0.00000000000E+00  0.00000000000E+00 -0.83081682338E+03  0.16116730775E+04  0.13810262542E+04 0.  0.
        2    1    3    3  502    0  0.54908128512E+03  0.24659648154E+03 -0.81031419412E+03  0.10094103108E+04  0.25500000920E-02 0. -1.
       -2    1    3    3    0  502 -0.54908128512E+03 -0.24659648154E+03 -0.20502629261E+02  0.60226276673E+03  0.25500000920E-02 0.  1.
</event>
<event>
 5   0  0.9007180E-04  0.1454738E+04  0.7818609E-02  0.8915122E-01
        1   -1    0    0  501    0  0.00000000000E+00  0.00000000000E+00  0.24747977546E+04  0.24747977546E+04  0.50400001928E-02 0. -1.
       -1   -1    0    0    0  501  0.00000000000E+00  0.00000000000E+00 -0.21378146326E+03  0.21378146332E+03  0.50400001928E-02 0.  1.
    10030    2    1    2    0    0  0.00000000000E+00  0.00000000000E+00  0.22610162913E+04  0.26885792179E+04  0.14547383068E+04 0.  0.
        2    1    3    3  502    0 -0.24298050381E+03 -0.24901537968E+01  0.23975652985E+04  0.24098475235E+04  0.25500000920E-02 0. -1.
       -2    1    3    3    0  502  0.24298050381E+03  0.24901537968E+01 -0.13654900716E+03  0.27873169440E+03  0.25500000920E-02 0.  1.
</event>
<event>
 5   0  0.1605214E-03  0.1406661E+04  0.7818609E-02  0.8949011E-01
        2   -1    0    0  501    0  0.00000000000E+00  0.00000000000E+00  0.12573380052E+04  0.12573380052E+04  0.25500000920E-02 0.  1.
       -2   -1    0    0    0  501  0.00000000000E+00  0.00000000000E+00 -0.39342922538E+03  0.39342922538E+03  0.25500000920E-02 0. -1.
    10030    2    1    2    0    0  0.00000000000E+00  0.00000000000E+00  0.86390877984E+03  0.16507672306E+04  0.14066606093E+04 0.  0.
        5    1    3    3  502    0 -0.35244927005E+03  0.26560766552E+03  0.10746018626E+04  0.11617052866E+04  0.46999998093E+01 0.  1.
       -5    1    3    3    0  502  0.35244927005E+03 -0.26560766552E+03 -0.21069308272E+03  0.48906194398E+03  0.46999998093E+01 0. -1.
</event>
<event>
 5   0  0.8673728E-04  0.1450782E+04  0.7818609E-02  0.8917858E-01
        1   -1    0    0  501    0  0.00000000000E+00  0.00000000000E+00  0.12835326651E+04  0.12835326651E+04  0.50400001928E-02 0.  1.
       -1   -1    0    0    0  501  0.00000000000E+00  0.00000000000E+00 -0.40995622866E+03  0.40995622869E+03  0.50400001928E-02 0. -1.
    10030    2    1    2    0    0  0.00000000000E+00  0.00000000000E+00  0.87357643642E+03  0.16934888938E+04  0.14507821487E+04 0.  0.
        3    1    3    3  502    0 -0.27897009105E+02  0.27827899188E+03  0.12180686059E+04  0.12497634094E+04  0.10100000352E+00 0.  1.
       -3    1    3    3    0  502  0.27897009105E+02 -0.27827899188E+03 -0.34449216953E+03  0.44372548440E+03  0.10100000352E+00 0. -1.
</event>
<event>
 5   0  0.8673728E-04  0.1403490E+04  0.7818609E-02  0.8951296E-01
        1   -1    0    0  501    0  0.00000000000E+00  0.00000000000E+00  0.64248330048E+03  0.64248330050E+03  0.50400001928E-02 0.  1.
       -1   -1    0    0    0  501  0.00000000000E+00  0.00000000000E+00 -0.76647327295E+03  0.76647327296E+03  0.50400001928E-02 0. -1.
    10030    2    1    2    0    0  0.00000000000E+00  0.00000000000E+00 -0.12398997247E+03  0.14089565735E+04  0.14034903322E+04 0.  0.
        3    1    3    3  502    0  0.52959557509E+03 -0.34310220563E+03 -0.37020158131E+03  0.73160085953E+03  0.10100000352E+00 0. -1.
       -3    1    3    3    0  502 -0.52959557509E+03  0.34310220563E+03  0.24621160884E+03  0.67735571393E+03  0.10100000352E+00 0.  1.
</event>
<event>
 5   0  0.8502300E-04  0.1384289E+04  0.7818609E-02  0.8965270E-01
       -1   -1    0    0    0  501  0.00000000000E+00  0.00000000000E+00  0.53532566625E+03  0.53532566628E+03  0.50400001928E-02 0. -1.
        1   -1    0    0  501    0  0.00000000000E+00  0.00000000000E+00 -0.89490226232E+03  0.89490226234E+03  0.50400001928E-02 0.  1.
    10030    2    1    2    0    0  0.00000000000E+00  0.00000000000E+00 -0.35957659607E+03  0.14302279286E+04  0.13842892037E+04 0.  0.
        4    1    3    3  502    0  0.48190405730E+03 -0.86582016701E+02  0.32566512294E+03  0.58803686216E+03  0.12699999809E+01 0. -1.
       -4    1    3    3    0  502 -0.48190405730E+03  0.86582016701E+02 -0.68524171901E+03  0.84219106646E+03  0.12699999809E+01 0.  1.
</event>
<event>
 5   0  0.1648213E-03  0.1367175E+04  0.7818609E-02  0.8977928E-01
       -2   -1    0    0    0  501  0.00000000000E+00  0.00000000000E+00  0.45110757047E+03  0.45110757047E+03  0.25500000920E-02 0.  1.
        2   -1    0    0  501    0  0.00000000000E+00  0.00000000000E+00 -0.10358768552E+04  0.10358768552E+04  0.25500000920E-02 0. -1.
    10030    2    1    2    0    0  0.00000000000E+00  0.00000000000E+00 -0.58476928474E+03  0.14869844257E+04  0.13671750312E+04 0.  0.
        4    1    3    3  502    0 -0.18278707068E+03 -0.65767292489E+03 -0.25248927999E+03  0.72780302194E+03  0.12699999809E+01 0.  1.
       -4    1    3    3    0  502  0.18278707068E+03  0.65767292489E+03 -0.33228000475E+03  0.75918140375E+03  0.12699999809E+01 0. -1.
</event>
<event>
 5   0  0.1578965E-03  0.1456893E+04  0.7818609E-02  0.8913636E-01
       -2   -1    0    0    0  501  0.00000000000E+00  0.00000000000E+00  0.61407886296E+03  0.61407886296E+03  0.25500000920E-02 0. -1.
        2   -1    0    0  501    0  0.00000000000E+00  0.00000000000E+00 -0.86411419921E+03  0.86411419922E+03  0.25500000920E-02 0.  1.
    10030    2    1    2    0    0  0.00000000000E+00  0.00000000000E+00 -0.25003533626E+03  0.14781930622E+04  0.14568929472E+04 0.  0.
        2    1    3    3  502    0  0.42876336907E+03  0.58860682443E+03 -0.14367797948E+03  0.74225290988E+03  0.25500000920E-02 0.  1.
       -2    1    3    3    0  502 -0.42876336907E+03 -0.58860682443E+03 -0.10635735678E+03  0.73594015231E+03  0.25500000920E-02 0. -1.
</event>
<event>
 5   0  0.1648213E-03  0.1409735E+04  0.7818609E-02  0.8946802E-01
       -2   -1    0    0    0  501  0.00000000000E+00  0.00000000000E+00  0.72382229238E+03  0.72382229239E+03  0.25500000920E-02 0.  1.
        2   -1    0    0  501    0  0.00000000000E+00  0.00000000000E+00 -0.68640910855E+03  0.68640910855E+03  0.25500000920E-02 0. -1.
    10030    2    1    2    0    0  0.00000000000E+00  0.00000000000E+00  0.37413183836E+02  0.14102314009E+04  0.14097350311E+04 0.  0.
        4    1    3    3  502    0 -0.16149292546E+03  0.35891643048E+03  0.60366510928E+03  0.72063454406E+03  0.12699999809E+01 0.  1.
       -4    1    3    3    0  502  0.16149292546E+03 -0.35891643048E+03 -0.56625192544E+03  0.68959685687E+03  0.12699999809E+01 0. -1.
</event>
<event>
 5   0  0.1648463E-03  0.1397513E+04  0.7818609E-02  0.8955621E-01
       -2   -1    0    0    0  501  0.00000000000E+00  0.00000000000E+00  0.63303998632E+03  0.63303998633E+03  0.25500000920E-02 0.  1.
        2   -1    0    0  501    0  0.00000000000E+00  0.00000000000E+00 -0.77129494184E+03  0.77129494184E+03  0.25500000920E-02 0. -1.
    10030    2    1    2    0    0  0.00000000000E+00  0.00000000000E+00 -0.13825495552E+03  0.14043349282E+04  0.13975128471E+04 0.  0.
        1    1    3    3  502    0  0.52862844375E+03 -0.88342809278E+02 -0.51965530454E+03  0.74652134534E+03  0.50400001928E-02 0. -1.
       -1    1    3    3    0  502 -0.52862844375E+03  0.88342809278E+02  0.38140034902E+03  0.65781358283E+03  0.50400001928E-02 0.  1.
</event>
<event>
 5   0  0.1706986E-03  0.1428159E+04  0.7818609E-02  0.8933684E-01
       -2   -1    0    0    0  501  0.00000000000E+00  0.00000000000E+00  0.44970471196E+03  0.44970471197E+03  0.25500000920E-02 0.  1.
        2   -1    0    0  501    0  0.00000000000E+00  0.00000000000E+00 -0.11338757468E+04  0.11338757468E+04  0.25500000920E-02 0. -1.
    10030    2    1    2    0    0  0.00000000000E+00  0.00000000000E+00 -0.68417103489E+03  0.15835804588E+04  0.14281586272E+04 0.  0.
        3    1    3    3  502    0 -0.23094662906E+03  0.35912818896E+02 -0.10902627517E+04  0.11150331627E+04  0.10100000352E+00 0. -1.
       -3    1    3    3    0  502  0.23094662906E+03 -0.35912818896E+02  0.40609171680E+03  0.46854729610E+03  0.10100000352E+00 0.  1.
</event>
<event>
 5   0  0.9639548E-04  0.1398542E+04  0.7818609E-02  0.8954874E-01
       -1   -1    0    0    0  501  0.00000000000E+00  0.00000000000E+00  0.53104506106E+03  0.53104506108E+03  0.50400001928E-02 0.  1.
        1   -1    0    0  501    0  0.00000000000E+00  0.00000000000E+00 -0.92078834778E+03  0.92078834779E+03  0.50400001928E-02 0. -1.
    10030    2    1    2    0    0  0.00000000000E+00  0.00000000000E+00 -0.38974328672E+03  0.14518334089E+04  0.13985422473E+04 0.  0.
        1    1    3    3  502    0  0.12004163334E+03 -0.50751654003E+03 -0.67845142295E+03  0.85573323265E+03  0.50400001928E-02 0.  1.
       -1    1    3    3    0  502 -0.12004163334E+03  0.50751654003E+03  0.28870813623E+03  0.59610017622E+03  0.50400001928E-02 0. -1.
</event>
<event>
 5   0  0.1578965E-03  0.1435358E+04  0.7818609E-02  0.8928615E-01
        2   -1    0    0  501    0  0.00000000000E+00  0.00000000000E+00  0.13783186930E+04  0.13783186930E+04  0.25500000920E-02 0. -1.
       -2   -1    0    0    0  501  0.00000000000E+00  0.00000000000E+00 -0.37368961083E+03  0.37368961084E+03  0.25500000920E-02 0.  1.
    10030    2    1    2    0    0  0.00000000000E+00  0.00000000000E+00  0.10046290822E+04  0.17520083038E+04  0.14353583190E+04 0.  0.
        2    1    3    3  502    0  0.30414803828E+03 -0.22912533231E+02  0.12952698426E+04  0.13306971777E+04  0.25500000920E-02 0. -1.
       -2    1    3    3    0  502 -0.30414803828E+03  0.22912533231E+02 -0.29064076049E+03  0.42131112616E+03  0.25500000920E-02 0.  1.
</event>
<event>
 5   0  0.9007180E-04  0.1411653E+04  0.7818609E-02  0.8945426E-01
       -1   -1    0    0    0  501  0.00000000000E+00  0.00000000000E+00  0.48992770998E+03  0.48992771000E+03  0.50400001928E-02 0.  1.
        1   -1    0    0  501    0  0.00000000000E+00  0.00000000000E+00 -0.10168668423E+04  0.10168668423E+04  0.50400001928E-02 0. -1.
    10030    2    1    2    0    0  0.00000000000E+00  0.00000000000E+00 -0.52693913231E+03  0.15067945523E+04  0.14116532767E+04 0.  0.
        2    1    3    3  502    0  0.31911225195E+03  0.58995712130E+03 -0.28862566985E+02  0.67135317240E+03  0.25500000920E-02 0.  1.
       -2    1    3    3    0  502 -0.31911225195E+03 -0.58995712130E+03 -0.49807656533E+03  0.83544137990E+03  0.25500000920E-02 0. -1.
</event>
<event>
 5   0  0.1578965E-03  0.1395139E+04  0.7818609E-02  0.8957344E-01
       -2   -1    0    0    0  501  0.00000000000E+00  0.00000000000E+00  0.30803906319E+03  0.30803906320E+03  0.25500000920E-02 0. -1.
        2   -1    0    0  501    0  0.00000000000E+00  0.00000000000E+00 -0.15796812614E+04  0.15796812614E+04  0.25500000920E-02 0.  1.
    10030    2    1    2    0    0  0.00000000000E+00  0.00000000000E+00 -0.12716421982E+04  0.18877203246E+04  0.13951394710E+04 0.  0.
        2    1    3    3  502    0 -0.63860722488E+03  0.19811282967E+03 -0.36678256079E+03  0.76262528666E+03  0.25500000920E-02 0.  1.
       -2    1    3    3    0  502  0.63860722488E+03 -0.19811282967E+03 -0.90485963737E+03  0.11250950379E+04  0.25500000920E-02 0. -1.
</event>
<event>
 5   0  0.1648213E-03  0.1393482E+04  0.7818609E-02  0.8958550E-01
       -2   -1    0    0    0  501  0.00000000000E+00  0.00000000000E+00  0.12025201190E+04  0.12025201190E+04  0.25500000920E-02 0.  1.
        2   -1    0    0  501    0  0.00000000000E+00  0.00000000000E+00 -0.40369196368E+03  0.40369196369E+03  0.25500000920E-02 0. -1.
    10030    2    1    2    0    0  0.00000000000E+00  0.00000000000E+00  0.79882815530E+03  0.16062120827E+04  0.13934815509E+04 0.  0.
        4    1    3    3  502    0  0.74803372952E+02  0.25680169222E+03  0.11409824245E+04  0.11719151674E+04  0.12699999809E+01 0.  1.
       -4    1    3    3    0  502 -0.74803372952E+02 -0.25680169222E+03 -0.34215426922E+03  0.43429691523E+03  0.12699999809E+01 0. -1.
</event>
<event>
 5   0  0.9639548E-04  0.1232936E+04  0.7818609E-02  0.9084507E-01
       -1   -1    0    0    0  501  0.00000000000E+00  0.00000000000E+00  0.62926230468E+03  0.62926230470E+03  0.50400001928E-02 0.  1.
        1   -1    0    0  501    0  0.00000000000E+00  0.00000000000E+00 -0.60393346547E+03  0.60393346549E+03  0.50400001928E-02 0. -1.
    10030    2    1    2    0    0  0.00000000000E+00  0.00000000000E+00  0.25328839206E+02  0.12331957702E+04  0.12329356259E+04 0.  0.
        1    1    3    3  502    0  0.28036240552E+03  0.12472833499E+03 -0.52211869238E+03  0.60561387446E+03  0.50400001928E-02 0. -1.
       -1    1    3    3    0  502 -0.28036240552E+03 -0.12472833499E+03  0.54744753159E+03  0.62758189573E+03  0.50400001928E-02 0.  1.
</event>
<event>
 5   0  0.8673728E-04  0.1417610E+04  0.7818609E-02  0.8941170E-01
       -1   -1    0    0    0  501  0.00000000000E+00  0.00000000000E+00  0.35711435867E+03  0.35711435870E+03  0.50400001928E-02 0.  1.
        1   -1    0    0  501    0  0.00000000000E+00  0.00000000000E+00 -0.14068442308E+04  0.14068442309E+04  0.50400001928E-02 0. -1.
    10030    2    1    2    0    0  0.00000000000E+00  0.00000000000E+00 -0.10497298722E+04  0.17639585896E+04  0.14176096434E+04 0.  0.
        3    1    3    3  502    0 -0.43664196140E+03  0.13008333403E+03 -0.12005042358E+04  0.12840515202E+04  0.10100000352E+00 0. -1.
       -3    1    3    3    0  502  0.43664196140E+03 -0.13008333403E+03  0.15077436363E+03  0.47990706931E+03  0.10100000352E+00 0.  1.
</event>
<event>
 5   0  0.1706986E-03  0.1415498E+04  0.7818609E-02  0.8942676E-01
        2   -1    0    0  501    0  0.00000000000E+00  0.00000000000E+00  0.13819041620E+04  0.13819041620E+04  0.25500000920E-02 0. -1.
       -2   -1    0    0    0  501  0.00000000000E+00  0.00000000000E+00 -0.36247713598E+03  0.36247713599E+03  0.25500000920E-02 0.  1.
    10030    2    1    2    0    0  0.00000000000E+00  0.00000000000E+00  0.10194270260E+04  0.17443812980E+04  0.14154980224E+04 0.  0.
        3    1    3    3  502    0  0.19444148351E+03  0.41618239186E+03  0.11732293649E+04  0.12599533431E+04  0.10100000352E+00 0. -1.
       -3    1    3    3    0  502 -0.19444148351E+03 -0.41618239186E+03 -0.15380233893E+03  0.48442795488E+03  0.10100000352E+00 0.  1.
</event>
<event>
 5   0  0.8609148E-04  0.1369902E+04  0.7818609E-02  0.8975898E-01
       -1   -1    0    0    0  501  0.00000000000E+00  0.00000000000E+00  0.55841461565E+03  0.55841461567E+03  0.50400001928E-02 0.  1.
        1   -1    0    0  501    0  0.00000000000E+00  0.00000000000E+00 -0.84016077376E+03  0.84016077377E+03  0.50400001928E-02 0. -1.
    10030    2    1    2    0    0  0.00000000000E+00  0.00000000000E+00 -0.28174615811E+03  0.13985753894E+04  0.13699022674E+04 0.  0.
        5    1    3    3  502    0 -0.57910450280E+03  0.75234329031E+02 -0.50629462076E+03  0.77290268627E+03  0.46999998093E+01 0. -1.
       -5    1    3    3    0  502  0.57910450280E+03 -0.75234329031E+02  0.22454846266E+03  0.62567270318E+03  0.46999998093E+01 0.  1.
</event>
<event>
 5   0  0.8502300E-04  0.1415260E+04  0.7818609E-02  0.8942846E-01
        1   -1    0    0  501    0  0.00000000000E+00  0.00000000000E+00  0.52278101623E+03  0.52278101625E+03  0.50400001928E-02 0.  1.
       -1   -1    0    0    0  501  0.00000000000E+00  0.00000000000E+00 -0.95783890440E+03  0.95783890441E+03  0.50400001928E-02 0. -1.
    10030    2    1    2    0    0  0.00000000000E+00  0.00000000000E+00 -0.43505788817E+03  0.14806199207E+04  0.14152596876E+04 0.  0.
        4    1    3    3  502    0 -0.30336773103E+02  0.54189529447E+03  0.25749730650E+03  0.60073064324E+03  0.12699999809E+01 0.  1.
       -4    1    3    3    0  502  0.30336773103E+02 -0.54189529447E+03 -0.69255519467E+03  0.87988927743E+03  0.12699999809E+01 0. -1.
</event>
<event>
 5   0  0.1648213E-03  0.1402416E+04  0.7818609E-02  0.8952071E-01
        2   -1    0    0  501    0  0.00000000000E+00  0.00000000000E+00  0.96892105273E+03  0.96892105273E+03  0.25500000920E-02 0. -1.
       -2   -1    0    0    0  501  0.00000000000E+00  0.00000000000E+00 -0.50746436313E+03  0.50746436314E+03  0.25500000920E-02 0.  1.
    10030    2    1    2    0    0  0.00000000000E+00  0.00000000000E+00  0.46145668960E+03  0.14763854159E+04  0.14024163504E+04 0.  0.
        4    1    3    3  502    0 -0.57414349355E+02  0.25389883510E+02  0.96595547645E+03  0.96799413690E+03  0.12699999809E+01 0. -1.
       -4    1    3    3    0  502  0.57414349355E+02 -0.25389883510E+02 -0.50449878685E+03  0.50839127897E+03  0.12699999809E+01 0.  1.
</event>
<event>
 5   0  0.1648463E-03  0.1403833E+04  0.7818609E-02  0.8951048E-01
       -2   -1    0    0    0  501  0.00000000000E+00  0.00000000000E+00  0.62051127528E+03  0.62051127529E+03  0.25500000920E-02 0.  1.
        2   -1    0    0  501    0  0.00000000000E+00  0.00000000000E+00 -0.79400188203E+03  0.79400188204E+03  0.25500000920E-02 0. -1.
    10030    2    1    2    0    0  0.00000000000E+00  0.00000000000E+00 -0.17349060675E+03  0.14145131573E+04  0.14038334950E+04 0.  0.
        1    1    3    3  502    0 -0.31310015654E+03  0.62820927257E+03 -0.89686794833E+02  0.70761735377E+03  0.50400001928E-02 0.  1.
       -1    1    3    3    0  502  0.31310015654E+03 -0.62820927257E+03 -0.83803811919E+02  0.70689580355E+03  0.50400001928E-02 0. -1.
</event>
<event>
 5   0  0.9007180E-04  0.1363463E+04  0.7818609E-02  0.8980699E-01
        1   -1    0    0  501    0  0.00000000000E+00  0.00000000000E+00  0.13900619993E+04  0.13900619993E+04  0.50400001928E-02 0.  1.
       -1   -1    0    0    0  501  0.00000000000E+00  0.00000000000E+00 -0.33434321208E+03  0.33434321212E+03  0.50400001928E-02 0. -1.
    10030    2    1    2    0    0  0.00000000000E+00  0.00000000000E+00  0.10557187872E+04  0.17244052114E+04  0.13634629351E+04 0.  0.
        2    1    3    3  502    0 -0.20149547343E+03  0.24812364538E+02 -0.29522446615E+03  0.35829256853E+03  0.25500000920E-02 0. -1.
       -2    1    3    3    0  502  0.20149547343E+03 -0.24812364538E+02  0.13509432534E+04  0.13661126429E+04  0.25500000920E-02 0.  1.
</event>
<event>
 5   0  0.1578965E-03  0.1391931E+04  0.7818609E-02  0.8959680E-01
        2   -1    0    0  501    0  0.00000000000E+00  0.00000000000E+00  0.23559400561E+04  0.23559400561E+04  0.25500000920E-02 0.  1.
       -2   -1    0    0    0  501  0.00000000000E+00  0.00000000000E+00 -0.20559446913E+03  0.20559446915E+03  0.25500000920E-02 0. -1.
    10030    2    1    2    0    0  0.00000000000E+00  0.00000000000E+00  0.21503455869E+04  0.25615345252E+04  0.13919313850E+04 0.  0.
        2    1    3    3  502    0 -0.96089276065E+02  0.77252140512E+02  0.23356825429E+04  0.23389343692E+04  0.25500000920E-02 0.  1.
       -2    1    3    3    0  502  0.96089276065E+02 -0.77252140512E+02 -0.18533695599E+03  0.22260015600E+03  0.25500000920E-02 0. -1.
</event>
<event>
 5   0  0.1648463E-03  0.1399532E+04  0.7818609E-02  0.8954158E-01
        2   -1    0    0  501    0  0.00000000000E+00  0.00000000000E+00  0.13534622868E+04  0.13534622868E+04  0.25500000920E-02 0.  1.
       -2   -1    0    0    0  501  0.00000000000E+00  0.00000000000E+00 -0.36179223529E+03  0.36179223530E+03  0.25500000920E-02 0. -1.
    10030    2    1    2    0    0  0.00000000000E+00  0.00000000000E+00  0.99167005152E+03  0.17152545221E+04  0.13995315590E+04 0.  0.
        1    1    3    3  502    0 -0.24589190318E+03 -0.59199007932E+03  0.83978132093E+03  0.10564789392E+04  0.50400001928E-02 0.  1.
       -1    1    3    3    0  502  0.24589190318E+03  0.59199007932E+03  0.15188873059E+03  0.65877558286E+03  0.50400001928E-02 0. -1.
</event>
<event>
 5   0  0.1706986E-03  0.1398828E+04  0.7818609E-02  0.8954667E-01
       -2   -1    0    0    0  501  0.00000000000E+00  0.00000000000E+00  0.41191300854E+03  0.41191300855E+03  0.25500000920E-02 0.  1.
        2   -1    0    0  501    0  0.00000000000E+00  0.00000000000E+00 -0.11875808391E+04  0.11875808391E+04  0.25500000920E-02 0. -1.
    10030    2    1    2    0    0  0.00000000000E+00  0.00000000000E+00 -0.77566783059E+03  0.15994938477E+04  0.13988280757E+04 0.  0.
        3    1    3    3  502    0  0.24608720862E+03 -0.53498929472E+03 -0.81933779516E+03  0.10090029200E+04  0.10100000352E+00 0. -1.
       -3    1    3    3    0  502 -0.24608720862E+03  0.53498929472E+03  0.43669964576E+02  0.59049092772E+03  0.10100000352E+00 0.  1.
</event>
<event>
 5   0  0.1578965E-03  0.1347558E+04  0.7818609E-02  0.8992679E-01
        2   -1    0    0  501    0  0.00000000000E+00  0.00000000000E+00  0.68635317685E+03  0.68635317685E+03  0.25500000920E-02 0.  1.
       -2   -1    0    0    0  501  0.00000000000E+00  0.00000000000E+00 -0.66143546466E+03  0.66143546467E+03  0.25500000920E-02 0. -1.
    10030    2    1    2    0    0  0.00000000000E+00  0.00000000000E+00  0.24917712181E+02  0.13477886415E+04  0.13475582844E+04 0.  0.
        2    1    3    3  502    0  0.10612705947E+03  0.10566159260E+03 -0.64457886151E+03  0.66174710699E+03  0.25500000920E-02 0. -1.
       -2    1    3    3    0  502 -0.10612705947E+03 -0.10566159260E+03  0.66949657369E+03  0.68604153453E+03  0.25500000920E-02 0.  1.
</event>
<event>
 5   0  0.8609148E-04  0.1380692E+04  0.7818609E-02  0.8967915E-01
       -1   -1    0    0    0  501  0.00000000000E+00  0.00000000000E+00  0.67540782314E+03  0.67540782316E+03  0.50400001928E-02 0.  1.
        1   -1    0    0  501    0  0.00000000000E+00  0.00000000000E+00 -0.70561419373E+03  0.70561419375E+03  0.50400001928E-02 0. -1.
    10030    2    1    2    0    0  0.00000000000E+00  0.00000000000E+00 -0.30206370591E+02  0.13810220169E+04  0.13806916333E+04 0.  0.
        5    1    3    3  502    0  0.62250667335E+03 -0.22611750496E+02 -0.31271329964E+03  0.69702047847E+03  0.46999998093E+01 0. -1.
       -5    1    3    3    0  502 -0.62250667335E+03  0.22611750496E+02  0.28250692905E+03  0.68400153844E+03  0.46999998093E+01 0.  1.
</event>
<event>
 5   0  0.1648213E-03  0.1487039E+04  0.7818609E-02  0.8893118E-01
       -2   -1    0    0    0  501  0.00000000000E+00  0.00000000000E+00  0.43534721349E+03  0.43534721350E+03  0.25500000920E-02 0. -1.
        2   -1    0    0  501    0  0.00000000000E+00  0.00000000000E+00 -0.12698390302E+04  0.12698390302E+04  0.25500000920E-02 0.  1.
    10030    2    1    2    0    0  0.00000000000E+00  0.00000000000E+00 -0.83449181667E+03  0.17051862437E+04  0.14870385111E+04 0.  0.
        4    1    3    3  502    0 -0.45106045988E+02  0.40726103008E+03  0.29419139055E+03  0.50442669356E+03  0.12699999809E+01 0. -1.
       -4    1    3    3    0  502  0.45106045988E+02 -0.40726103008E+03 -0.11286832072E+04  0.12007595501E+04  0.12699999809E+01 0.  1.
</event>
<event>
 5   0  0.8673728E-04  0.1388745E+04  0.7818609E-02  0.8962006E-01
        1   -1    0    0  501    0  0.00000000000E+00  0.00000000000E+00  0.12063551324E+04  0.12063551324E+04  0.50400001928E-02 0.  1.
       -1   -1    0    0    0  501  0.00000000000E+00  0.00000000000E+00 -0.39967781027E+03  0.39967781030E+03  0.50400001928E-02 0. -1.
    10030    2    1    2    0    0  0.00000000000E+00  0.00000000000E+00  0.80667732215E+03  0.16060329427E+04  0.13887453010E+04 0.  0.
        3    1    3    3  502    0 -0.65598716916E+03  0.62859047618E+02  0.65639793528E+03  0.93012294112E+03  0.10100000352E+00 0. -1.
       -3    1    3    3    0  502  0.65598716916E+03 -0.62859047618E+02  0.15027938688E+03  0.67591000162E+03  0.10100000352E+00 0.  1.
</event>
<event>
 5   0  0.8673728E-04  0.1415451E+04  0.7818609E-02  0.8942709E-01
        1   -1    0    0  501    0  0.00000000000E+00  0.00000000000E+00  0.16060327942E+04  0.16060327942E+04  0.50400001928E-02 0.  1.
       -1   -1    0    0    0  501  0.00000000000E+00  0.00000000000E+00 -0.31187140969E+03  0.31187140973E+03  0.50400001928E-02 0. -1.
    10030    2    1    2    0    0  0.00000000000E+00  0.00000000000E+00  0.12941613845E+04  0.19179042040E+04  0.14154514638E+04 0.  0.
        3    1    3    3  502    0  0.10799982410E+03 -0.58946504796E+03  0.11572123487E+04  0.13031782053E+04  0.10100000352E+00 0.  1.
       -3    1    3    3    0  502 -0.10799982410E+03  0.58946504796E+03  0.13694903589E+03  0.61472599864E+03  0.10100000352E+00 0. -1.
</event>
<event>
 5   0  0.1706986E-03  0.1396923E+04  0.7818609E-02  0.8956049E-01
        2   -1    0    0  501    0  0.00000000000E+00  0.00000000000E+00  0.69848953530E+03  0.69848953530E+03  0.25500000920E-02 0.  1.
       -2   -1    0    0    0  501  0.00000000000E+00  0.00000000000E+00 -0.69843342478E+03  0.69843342479E+03  0.25500000920E-02 0. -1.
    10030    2    1    2    0    0  0.00000000000E+00  0.00000000000E+00  0.56110513618E-01  0.13969229601E+04  0.13969229590E+04 0.  0.
        3    1    3    3  502    0 -0.46948790387E+03 -0.43727080651E+03  0.27611459627E+03  0.69847256967E+03  0.10100000352E+00 0. -1.
       -3    1    3    3    0  502  0.46948790387E+03  0.43727080651E+03 -0.27605848576E+03  0.69845039041E+03  0.10100000352E+00 0.  1.
</event>
<event>
 5   0  0.6048000E-04  0.1394929E+04  0.7818609E-02  0.8957497E-01
       -3   -1    0    0    0  501  0.00000000000E+00  0.00000000000E+00  0.69399692808E+03  0.69399693543E+03  0.10100000352E+00 0. -1.
        3   -1    0    0  501    0  0.00000000000E+00  0.00000000000E+00 -0.70094988172E+03  0.70094988900E+03  0.10100000352E+00 0.  1.
    10030    2    1    2    0    0  0.00000000000E+00  0.00000000000E+00 -0.69529536406E+01  0.13949468244E+04  0.13949294962E+04 0.  0.
        1    1    3    3  502    0  0.67399389769E+03  0.11688067866E+03 -0.13959652677E+03  0.69815188711E+03  0.50400001928E-02 0. -1.
       -1    1    3    3    0  502 -0.67399389769E+03 -0.11688067866E+03  0.13264357312E+03  0.69679493732E+03  0.50400001928E-02 0.  1.
</event>
<event>
 5   0  0.8673728E-04  0.1437838E+04  0.7818609E-02  0.8926876E-01
        1   -1    0    0  501    0  0.00000000000E+00  0.00000000000E+00  0.12220179318E+04  0.12220179318E+04  0.50400001928E-02 0. -1.
       -1   -1    0    0    0  501  0.00000000000E+00  0.00000000000E+00 -0.42294339136E+03  0.42294339139E+03  0.50400001928E-02 0.  1.
    10030    2    1    2    0    0  0.00000000000E+00  0.00000000000E+00  0.79907454043E+03  0.16449613232E+04  0.14378378329E+04 0.  0.
        3    1    3    3  502    0  0.48687068677E+03 -0.33031602870E+03  0.87220200343E+03  0.10520874913E+04  0.10100000352E+00 0. -1.
       -3    1    3    3    0  502 -0.48687068677E+03  0.33031602870E+03 -0.73127463002E+02  0.59287383185E+03  0.10100000352E+00 0.  1.
</event>
<event>
 5   0  0.8502300E-04  0.1400389E+04  0.7818609E-02  0.8953537E-01
        1   -1    0    0  501    0  0.00000000000E+00  0.00000000000E+00  0.69005774856E+03  0.69005774857E+03  0.50400001928E-02 0. -1.
       -1   -1    0    0    0  501  0.00000000000E+00  0.00000000000E+00 -0.71048064986E+03  0.71048064988E+03  0.50400001928E-02 0.  1.
    10030    2    1    2    0    0  0.00000000000E+00  0.00000000000E+00 -0.20422901304E+02  0.14005383985E+04  0.14003894853E+04 0.  0.
        4    1    3    3  502    0  0.29958298001E+03  0.63101166764E+03  0.38222803507E+02  0.69956292227E+03  0.12699999809E+01 0.  1.
       -4    1    3    3    0  502 -0.29958298001E+03 -0.63101166764E+03 -0.58645704812E+02  0.70097547618E+03  0.12699999809E+01 0. -1.
</event>
<event>
 5   0  0.8609148E-04  0.1391584E+04  0.7818609E-02  0.8959933E-01
       -1   -1    0    0    0  501  0.00000000000E+00  0.00000000000E+00  0.39289797152E+03  0.39289797155E+03  0.50400001928E-02 0. -1.
        1   -1    0    0  501    0  0.00000000000E+00  0.00000000000E+00 -0.12321936920E+04  0.12321936920E+04  0.50400001928E-02 0.  1.
    10030    2    1    2    0    0  0.00000000000E+00  0.00000000000E+00 -0.83929572052E+03  0.16250916636E+04  0.13915838489E+04 0.  0.
        5    1    3    3  502    0 -0.33073053119E+03  0.18016877285E+03  0.26355093144E+03  0.45970061391E+03  0.46999998093E+01 0. -1.
       -5    1    3    3    0  502  0.33073053119E+03 -0.18016877285E+03 -0.11028466520E+04  0.11653910497E+04  0.46999998093E+01 0.  1.
</event>
<event>
 5   0  0.8502300E-04  0.1403030E+04  0.7818609E-02  0.8951628E-01
       -1   -1    0    0    0  501  0.00000000000E+00  0.00000000000E+00  0.12649655428E+04  0.12649655428E+04  0.50400001928E-02 0. -1.
        1   -1    0    0  501    0  0.00000000000E+00  0.00000000000E+00 -0.38904086076E+03  0.38904086080E+03  0.50400001928E-02 0.  1.
    10030    2    1    2    0    0  0.00000000000E+00  0.00000000000E+00  0.87592468201E+03  0.16540064036E+04  0.14030299835E+04 0.  0.
        4    1    3    3  502    0  0.52786819549E+03  0.45140605988E+03  0.32179966442E+03  0.76548605450E+03  0.12699999809E+01 0.  1.
       -4    1    3    3    0  502 -0.52786819549E+03 -0.45140605988E+03  0.55412501759E+03  0.88852034908E+03  0.12699999809E+01 0. -1.
</event>
<event>
 5   0  0.1706986E-03  0.1384759E+04  0.7818609E-02  0.8964925E-01
        2   -1    0    0  501    0  0.00000000000E+00  0.00000000000E+00  0.12087332786E+04  0.12087332786E+04  0.25500000920E-02 0. -1.
       -2   -1    0    0    0  501  0.00000000000E+00  0.00000000000E+00 -0.39660499035E+03  0.39660499036E+03  0.25500000920E-02 0.  1.
    10030    2    1    2    0    0  0.00000000000E+00  0.00000000000E+00  0.81212828825E+03  0.16053382690E+04  0.13847594019E+04 0.  0.
        3    1    3    3  502    0  0.36403900498E+03 -0.41350170991E+03  0.89225010508E+03  0.10486268743E+04  0.10100000352E+00 0. -1.
       -3    1    3    3    0  502 -0.36403900498E+03  0.41350170991E+03 -0.80121816833E+02  0.55671139469E+03  0.10100000352E+00 0.  1.
</event>
<event>
 5   0  0.9639548E-04  0.1401667E+04  0.7818609E-02  0.8952613E-01
       -1   -1    0    0    0  501  0.00000000000E+00  0.00000000000E+00  0.55884591224E+03  0.55884591227E+03  0.50400001928E-02 0.  1.
        1   -1    0    0  501    0  0.00000000000E+00  0.00000000000E+00 -0.87889629859E+03  0.87889629860E+03  0.50400001928E-02 0. -1.
    10030    2    1    2    0    0  0.00000000000E+00  0.00000000000E+00 -0.32005038634E+03  0.14377422109E+04  0.14016670129E+04 0.  0.
        1    1    3    3  502    0 -0.56797684432E+03  0.16129457845E+03  0.22725547996E+03  0.63266001132E+03  0.50400001928E-02 0.  1.
       -1    1    3    3    0  502  0.56797684432E+03 -0.16129457845E+03 -0.54730586631E+03  0.80508219956E+03  0.50400001928E-02 0. -1.
</event>
<event>
 5   0  0.1706986E-03  0.1397937E+04  0.7818609E-02  0.8955313E-01
       -2   -1    0    0    0  501  0.00000000000E+00  0.00000000000E+00  0.11781516549E+04  0.11781516549E+04  0.25500000920E-02 0. -1.
        2   -1    0    0  501    0  0.00000000000E+00  0.00000000000E+00 -0.41468113673E+03  0.41468113674E+03  0.25500000920E-02 0.  1.
    10030    2    1    2    0    0  0.00000000000E+00  0.00000000000E+00  0.76347051816E+03  0.15928327916E+04  0.13979374342E+04 0.  0.
        3    1    3    3  502    0 -0.42203726463E+03 -0.30778197404E+03 -0.14746453609E+03  0.54276237516E+03  0.10100000352E+00 0.  1.
       -3    1    3    3    0  502  0.42203726463E+03  0.30778197404E+03  0.91093505425E+03  0.10500704165E+04  0.10100000352E+00 0. -1.
</event>
<event>
 5   0  0.1648213E-03  0.1395680E+04  0.7818609E-02  0.8956951E-01
        2   -1    0    0  501    0  0.00000000000E+00  0.00000000000E+00  0.51572072057E+03  0.51572072057E+03  0.25500000920E-02 0. -1.
       -2   -1    0    0    0  501  0.00000000000E+00  0.00000000000E+00 -0.94427246096E+03  0.94427246096E+03  0.25500000920E-02 0.  1.
    10030    2    1    2    0    0  0.00000000000E+00  0.00000000000E+00 -0.42855174039E+03  0.14599931815E+04  0.13956802986E+04 0.  0.
        4    1    3    3  502    0 -0.55909592666E+03  0.37007008424E+03 -0.41668393079E+03  0.78940942073E+03  0.12699999809E+01 0. -1.
       -4    1    3    3    0  502  0.55909592666E+03 -0.37007008424E+03 -0.11867809602E+02  0.67058376081E+03  0.12699999809E+01 0.  1.
</event>
<event>
 5   0  0.8502300E-04  0.1411760E+04  0.7818609E-02  0.8945350E-01
       -1   -1    0    0    0  501  0.00000000000E+00  0.00000000000E+00  0.80645884548E+03  0.80645884549E+03  0.50400001928E-02 0.  1.
        1   -1    0    0  501    0  0.00000000000E+00  0.00000000000E+00 -0.61784522871E+03  0.61784522873E+03  0.50400001928E-02 0. -1.
    10030    2    1    2    0    0  0.00000000000E+00  0.00000000000E+00  0.18861361676E+03  0.14243040742E+04  0.14117602486E+04 0.  0.
        4    1    3    3  502    0  0.58222585792E+03  0.29122926639E+03  0.36961179535E+03  0.74860932895E+03  0.12699999809E+01 0.  1.
       -4    1    3    3    0  502 -0.58222585792E+03 -0.29122926639E+03 -0.18099817859E+03  0.67569474527E+03  0.12699999809E+01 0. -1.
</event>
<event>
 5   0  0.9639548E-04  0.1402378E+04  0.7818609E-02  0.8952099E-01
       -1   -1    0    0    0  501  0.00000000000E+00  0.00000000000E+00  0.85235525860E+03  0.85235525861E+03  0.50400001928E-02 0. -1.
        1   -1    0    0  501    0  0.00000000000E+00  0.00000000000E+00 -0.57683195611E+03  0.57683195614E+03  0.50400001928E-02 0.  1.
    10030    2    1    2    0    0  0.00000000000E+00  0.00000000000E+00  0.27552330248E+03  0.14291872147E+04  0.14023776255E+04 0.  0.
        1    1    3    3  502    0  0.66997165498E+03 -0.30166388811E+02  0.34635411784E+03  0.75480673318E+03  0.50400001928E-02 0. -1.
       -1    1    3    3    0  502 -0.66997165498E+03  0.30166388811E+02 -0.70830815360E+02  0.67438048156E+03  0.50400001928E-02 0.  1.
</event>
<event>
 5   0  0.1578965E-03  0.1403849E+04  0.7818609E-02  0.8951037E-01
       -2   -1    0    0    0  501  0.00000000000E+00  0.00000000000E+00  0.28385522441E+03  0.28385522442E+03  0.25500000920E-02 0.  1.
        2   -1    0    0  501    0  0.00000000000E+00  0.00000000000E+00 -0.17357365990E+04  0.17357365990E+04  0.25500000920E-02 0. -1.
    10030    2    1    2    0    0  0.00000000000E+00  0.00000000000E+00 -0.14518813746E+04  0.20195918235E+04  0.14038488549E+04 0.  0.
        2    1    3    3  502    0 -0.27915612863E+02  0.26502354645E+01  0.28304912720E+03  0.28443472644E+03  0.25500000920E-02 0.  1.
       -2    1    3    3    0  502  0.27915612863E+02 -0.26502354645E+01 -0.17349305018E+04  0.17351570970E+04  0.25500000920E-02 0. -1.
</event>
<event>
 5   0  0.1706986E-03  0.1409963E+04  0.7818609E-02  0.8946639E-01
        2   -1    0    0  501    0  0.00000000000E+00  0.00000000000E+00  0.12307824898E+04  0.12307824898E+04  0.25500000920E-02 0. -1.
       -2   -1    0    0    0  501  0.00000000000E+00  0.00000000000E+00 -0.40380704052E+03  0.40380704053E+03  0.25500000920E-02 0.  1.
    10030    2    1    2    0    0  0.00000000000E+00  0.00000000000E+00  0.82697544930E+03  0.16345895304E+04  0.14099626020E+04 0.  0.
        3    1    3    3  502    0 -0.61912845827E+03  0.13756825915E+03  0.56626907022E+02  0.63675088580E+03  0.10100000352E+00 0.  1.
       -3    1    3    3    0  502  0.61912845827E+03 -0.13756825915E+03  0.77034854228E+03  0.99783864455E+03  0.10100000352E+00 0. -1.
</event>
<event>
 5   0  0.8502300E-04  0.1383419E+04  0.7818609E-02  0.8965909E-01
       -1   -1    0    0    0  501  0.00000000000E+00  0.00000000000E+00  0.56526339719E+03  0.56526339721E+03  0.50400001928E-02 0.  1.
        1   -1    0    0  501    0  0.00000000000E+00  0.00000000000E+00 -0.84644083102E+03  0.84644083103E+03  0.50400001928E-02 0. -1.
    10030    2    1    2    0    0  0.00000000000E+00  0.00000000000E+00 -0.28117743383E+03  0.14117042282E+04  0.13834189816E+04 0.  0.
        4    1    3    3  502    0  0.50351686647E+03 -0.17281754150E+03 -0.59128083300E+03  0.79561911355E+03  0.12699999809E+01 0. -1.
       -4    1    3    3    0  502 -0.50351686647E+03  0.17281754150E+03  0.31010339917E+03  0.61608511469E+03  0.12699999809E+01 0.  1.
</event>
<event>
 5   0  0.9007180E-04  0.1366622E+04  0.7818609E-02  0.8978340E-01
       -1   -1    0    0    0  501  0.00000000000E+00  0.00000000000E+00  0.78944380961E+03  0.78944380963E+03  0.50400001928E-02 0.  1.
        1   -1    0    0  501    0  0.00000000000E+00  0.00000000000E+00 -0.59144694027E+03  0.59144694029E+03  0.50400001928E-02 0. -1.
    10030    2    1    2    0    0  0.00000000000E+00  0.00000000000E+00  0.19799686934E+03  0.13808907499E+04  0.13666222971E+04 0.  0.
        2    1    3    3  502    0 -0.33225302363E+02 -0.63680914370E+03  0.34709057152E+03  0.72601767958E+03  0.25500000920E-02 0.  1.
       -2    1    3    3    0  502  0.33225302363E+02  0.63680914370E+03 -0.14909370218E+03  0.65487307034E+03  0.25500000920E-02 0. -1.
</event>
<event>
 5   0  0.9639548E-04  0.1396966E+04  0.7818609E-02  0.8956018E-01
       -1   -1    0    0    0  501  0.00000000000E+00  0.00000000000E+00  0.49778205974E+03  0.49778205976E+03  0.50400001928E-02 0. -1.
        1   -1    0    0  501    0  0.00000000000E+00  0.00000000000E+00 -0.98010457039E+03  0.98010457041E+03  0.50400001928E-02 0.  1.
    10030    2    1    2    0    0  0.00000000000E+00  0.00000000000E+00 -0.48232251066E+03  0.14778866302E+04  0.13969659578E+04 0.  0.
        1    1    3    3  502    0 -0.21493160344E+03 -0.36168302116E+03  0.34869134085E+03  0.54643924928E+03  0.50400001928E-02 0. -1.
       -1    1    3    3    0  502  0.21493160344E+03  0.36168302116E+03 -0.83101385150E+03  0.93144738089E+03  0.50400001928E-02 0.  1.
</event>
<event>
 5   0  0.1578965E-03  0.1404842E+04  0.7818609E-02  0.8950321E-01
        2   -1    0    0  501    0  0.00000000000E+00  0.00000000000E+00  0.19691062843E+04  0.19691062843E+04  0.25500000920E-02 0.  1.
       -2   -1    0    0    0  501  0.00000000000E+00  0.00000000000E+00 -0.25056824997E+03  0.25056824998E+03  0.25500000920E-02 0. -1.
    10030    2    1    2    0    0  0.00000000000E+00  0.00000000000E+00  0.17185380343E+04  0.22196745343E+04  0.14048423622E+04 0.  0.
        2    1    3    3  502    0 -0.16145756872E+03 -0.67356210583E+03  0.10438069897E+04  0.12527120533E+04  0.25500000920E-02 0.  1.
       -2    1    3    3    0  502  0.16145756872E+03  0.67356210583E+03  0.67473104465E+03  0.96696248093E+03  0.25500000920E-02 0. -1.
</event>
<event>
 5   0  0.8609148E-04  0.1394618E+04  0.7818609E-02  0.8957724E-01
        1   -1    0    0  501    0  0.00000000000E+00  0.00000000000E+00  0.12904403066E+04  0.12904403066E+04  0.50400001928E-02 0. -1.
       -1   -1    0    0    0  501  0.00000000000E+00  0.00000000000E+00 -0.37680139064E+03  0.37680139067E+03  0.50400001928E-02 0.  1.
    10030    2    1    2    0    0  0.00000000000E+00  0.00000000000E+00  0.91363891592E+03  0.16672416972E+04  0.13946178001E+04 0.  0.
        5    1    3    3  502    0 -0.38646599684E+03  0.10754045669E+03  0.11386605722E+04  0.12072658801E+04  0.46999998093E+01 0. -1.
       -5    1    3    3    0  502  0.38646599684E+03 -0.10754045669E+03 -0.22502165630E+03  0.45997581713E+03  0.46999998093E+01 0.  1.
</event>
<event>
 5   0  0.8673728E-04  0.1408217E+04  0.7818609E-02  0.8947892E-01
       -1   -1    0    0    0  501  0.00000000000E+00  0.00000000000E+00  0.99296405310E+03  0.99296405311E+03  0.50400001928E-02 0.  1.
        1   -1    0    0  501    0  0.00000000000E+00  0.00000000000E+00 -0.49928203354E+03  0.49928203356E+03  0.50400001928E-02 0. -1.
    10030    2    1    2    0    0  0.00000000000E+00  0.00000000000E+00  0.49368201956E+03  0.14922460867E+04  0.14082174714E+04 0.  0.
        3    1    3    3  502    0  0.51585250822E+03  0.30760870409E+02 -0.25994182827E+03  0.57846331402E+03  0.10100000352E+00 0. -1.
       -3    1    3    3    0  502 -0.51585250822E+03 -0.30760870409E+02  0.75362384783E+03  0.91378277265E+03  0.10100000352E+00 0.  1.
</event>
<event>
 5   0  0.1706986E-03  0.1407518E+04  0.7818609E-02  0.8948394E-01
        2   -1    0    0  501    0  0.00000000000E+00  0.00000000000E+00  0.65029535179E+03  0.65029535180E+03  0.25500000920E-02 0. -1.
       -2   -1    0    0    0  501  0.00000000000E+00  0.00000000000E+00 -0.76161866035E+03  0.76161866036E+03  0.25500000920E-02 0.  1.
    10030    2    1    2    0    0  0.00000000000E+00  0.00000000000E+00 -0.11132330856E+03  0.14119140122E+04  0.14075184896E+04 0.  0.
        3    1    3    3  502    0  0.40306503988E+03 -0.36108221508E+03  0.39567149498E+03  0.67037134080E+03  0.10100000352E+00 0. -1.
       -3    1    3    3    0  502 -0.40306503988E+03  0.36108221508E+03 -0.50699480354E+03  0.74154267136E+03  0.10100000352E+00 0.  1.
</event>
<event>
 5   0  0.1706986E-03  0.1355156E+04  0.7818609E-02  0.8986934E-01
       -2   -1    0    0    0  501  0.00000000000E+00  0.00000000000E+00  0.60372894532E+03  0.60372894532E+03  0.25500000920E-02 0. -1.
        2   -1    0    0  501    0  0.00000000000E+00  0.00000000000E+00 -0.76046088562E+03  0.76046088562E+03  0.25500000920E-02 0.  1.
    10030    2    1    2    0    0  0.00000000000E+00  0.00000000000E+00 -0.15673194030E+03  0.13641898309E+04  0.13551564462E+04 0.  0.
        3    1    3    3  502    0 -0.37295562879E+03  0.43968867853E+03  0.27994234668E+03  0.64092882814E+03  0.10100000352E+00 0. -1.
       -3    1    3    3    0  502  0.37295562879E+03 -0.43968867853E+03 -0.43667428698E+03  0.72326100281E+03  0.10100000352E+00 0.  1.
</event>
<event>
 5   0  0.9639548E-04  0.1421960E+04  0.7818609E-02  0.8938074E-01
        1   -1    0    0  501    0  0.00000000000E+00  0.00000000000E+00  0.42870107704E+03  0.42870107707E+03  0.50400001928E-02 0. -1.
       -1   -1    0    0    0  501  0.00000000000E+00  0.00000000000E+00 -0.11791265694E+04  0.11791265694E+04  0.50400001928E-02 0.  1.
    10030    2    1    2    0    0  0.00000000000E+00  0.00000000000E+00 -0.75042549238E+03  0.16078276465E+04  0.14219603796E+04 0.  0.
        1    1    3    3  502    0 -0.26358079045E+03  0.51597441321E+03  0.90701518133E+02  0.58645647204E+03  0.50400001928E-02 0. -1.
       -1    1    3    3    0  502  0.26358079045E+03 -0.51597441321E+03 -0.84112701051E+03  0.10213711745E+04  0.50400001928E-02 0.  1.
</event>
<event>
 5   0  0.1648463E-03  0.1410786E+04  0.7818609E-02  0.8946048E-01
        2   -1    0    0  501    0  0.00000000000E+00  0.00000000000E+00  0.69860212586E+03  0.69860212586E+03  0.25500000920E-02 0. -1.
       -2   -1    0    0    0  501  0.00000000000E+00  0.00000000000E+00 -0.71224965179E+03  0.71224965179E+03  0.25500000920E-02 0.  1.
    10030    2    1    2    0    0  0.00000000000E+00  0.00000000000E+00 -0.13647525929E+02  0.14108517777E+04  0.14107857681E+04 0.  0.
        1    1    3    3  502    0 -0.10606930481E+03  0.17912678845E+03 -0.68083008736E+03  0.71194572240E+03  0.50400001928E-02 0.  1.
       -1    1    3    3    0  502  0.10606930481E+03 -0.17912678845E+03  0.66718256143E+03  0.69890605525E+03  0.50400001928E-02 0. -1.
</event>
<event>
 5   0  0.9007180E-04  0.1427616E+04  0.7818609E-02  0.8934068E-01
       -1   -1    0    0    0  501  0.00000000000E+00  0.00000000000E+00  0.45108979859E+03  0.45108979861E+03  0.50400001928E-02 0.  1.
        1   -1    0    0  501    0  0.00000000000E+00  0.00000000000E+00 -0.11295356422E+04  0.11295356422E+04  0.50400001928E-02 0. -1.
    10030    2    1    2    0    0  0.00000000000E+00  0.00000000000E+00 -0.67844584360E+03  0.15806254408E+04  0.14276162024E+04 0.  0.
        2    1    3    3  502    0  0.17663676192E+03  0.26282591954E+03  0.36906307838E+03  0.48629781561E+03  0.25500000920E-02 0.  1.
       -2    1    3    3    0  502 -0.17663676192E+03 -0.26282591954E+03 -0.10475089220E+04  0.10943276252E+04  0.25500000920E-02 0. -1.
</event>
<event>
 5   0  0.9639548E-04  0.1431626E+04  0.7818609E-02  0.8931239E-01
        1   -1    0    0  501    0  0.00000000000E+00  0.00000000000E+00  0.38319982061E+03  0.38319982064E+03  0.50400001928E-02 0. -1.
       -1   -1    0    0    0  501  0.00000000000E+00  0.00000000000E+00 -0.13371299173E+04  0.13371299173E+04  0.50400001928E-02 0.  1.
    10030    2    1    2    0    0  0.00000000000E+00  0.00000000000E+00 -0.95393009666E+03  0.17203297379E+04  0.14316255718E+04 0.  0.
        1    1    3    3  502    0  0.53023349249E+03 -0.43109081309E+03 -0.22092056021E+03  0.71818712021E+03  0.50400001928E-02 0. -1.
       -1    1    3    3    0  502 -0.53023349249E+03  0.43109081309E+03 -0.73300953645E+03  0.10021426177E+04  0.50400001928E-02 0.  1.
</event>
<event>
 5   0  0.6048000E-04  0.1375274E+04  0.7818609E-02  0.8971914E-01
        4   -1    0    0  501    0  0.00000000000E+00  0.00000000000E+00  0.41382450657E+03  0.41382645534E+03  0.12699999809E+01 0.  1.
       -4   -1    0    0    0  501  0.00000000000E+00  0.00000000000E+00 -0.11426156292E+04  0.11426163350E+04  0.12699999809E+01 0. -1.
    10030    2    1    2    0    0  0.00000000000E+00  0.00000000000E+00 -0.72879112262E+03  0.15564427903E+04  0.13752736670E+04 0.  0.
        5    1    3    3  502    0 -0.20356015028E+03 -0.37839068071E+02 -0.11064827396E+04  0.11256974162E+04  0.46999998093E+01 0. -1.
       -5    1    3    3    0  502  0.20356015028E+03  0.37839068071E+02  0.37769161693E+03  0.43074537415E+03  0.46999998093E+01 0.  1.
</event>
<event>
 5   0  0.1706986E-03  0.1397745E+04  0.7818609E-02  0.8955453E-01
        2   -1    0    0  501    0  0.00000000000E+00  0.00000000000E+00  0.11306035293E+04  0.11306035293E+04  0.25500000920E-02 0.  1.
       -2   -1    0    0    0  501  0.00000000000E+00  0.00000000000E+00 -0.43200153206E+03  0.43200153207E+03  0.25500000920E-02 0. -1.
    10030    2    1    2    0    0  0.00000000000E+00  0.00000000000E+00  0.69860199725E+03  0.15626050614E+04  0.13977445501E+04 0.  0.
        3    1    3    3  502    0 -0.49992767972E+02  0.60293815107E+03 -0.41802930430E+02  0.60644965665E+03  0.10100000352E+00 0. -1.
       -3    1    3    3    0  502  0.49992767972E+02 -0.60293815107E+03  0.74040492768E+03  0.95615540473E+03  0.10100000352E+00 0.  1.
</event>
<event>
 5   0  0.8502300E-04  0.1484451E+04  0.7818609E-02  0.8894859E-01
        1   -1    0    0  501    0  0.00000000000E+00  0.00000000000E+00  0.53381588142E+03  0.53381588144E+03  0.50400001928E-02 0.  1.
       -1   -1    0    0    0  501  0.00000000000E+00  0.00000000000E+00 -0.10320009558E+04  0.10320009558E+04  0.50400001928E-02 0. -1.
    10030    2    1    2    0    0  0.00000000000E+00  0.00000000000E+00 -0.49818507437E+03  0.15658168372E+04  0.14844507400E+04 0.  0.
        4    1    3    3  502    0 -0.70825358086E+03 -0.22061872876E+03 -0.27495434585E+03  0.79113669077E+03  0.12699999809E+01 0. -1.
       -4    1    3    3    0  502  0.70825358086E+03  0.22061872876E+03 -0.22323072852E+03  0.77468014647E+03  0.12699999809E+01 0.  1.
</event>
<event>
 5   0  0.9007180E-04  0.1395640E+04  0.7818609E-02  0.8956981E-01
        1   -1    0    0  501    0  0.00000000000E+00  0.00000000000E+00  0.10336574254E+04  0.10336574254E+04  0.50400001928E-02 0.  1.
       -1   -1    0    0    0  501  0.00000000000E+00  0.00000000000E+00 -0.47109671546E+03  0.47109671549E+03  0.50400001928E-02 0. -1.
    10030    2    1    2    0    0  0.00000000000E+00  0.00000000000E+00  0.56256070997E+03  0.15047541409E+04  0.13956398075E+04 0.  0.
        2    1    3    3  502    0  0.13883284493E+03 -0.31446411481E+03 -0.37347941982E+03  0.50759148473E+03  0.25500000920E-02 0. -1.
       -2    1    3    3    0  502 -0.13883284493E+03  0.31446411481E+03  0.93604012979E+03  0.99716265620E+03  0.25500000920E-02 0.  1.
</event>
<event>
 5   0  0.1578965E-03  0.1438113E+04  0.7818609E-02  0.8926684E-01
        2   -1    0    0  501    0  0.00000000000E+00  0.00000000000E+00  0.15263439082E+04  0.15263439082E+04  0.25500000920E-02 0. -1.
       -2   -1    0    0    0  501  0.00000000000E+00  0.00000000000E+00 -0.33874537000E+03  0.33874537001E+03  0.25500000920E-02 0.  1.
    10030    2    1    2    0    0  0.00000000000E+00  0.00000000000E+00  0.11875985382E+04  0.18650892783E+04  0.14381125574E+04 0.  0.
        2    1    3    3  502    0  0.44957773803E+03  0.86922510120E+02 -0.12521059419E+03  0.47471397515E+03  0.25500000920E-02 0.  1.
       -2    1    3    3    0  502 -0.44957773803E+03 -0.86922510120E+02  0.13128091324E+04  0.13903753031E+04  0.25500000920E-02 0. -1.
</event>
<event>
 5   0  0.8673728E-04  0.1391391E+04  0.7818609E-02  0.8960074E-01
       -1   -1    0    0    0  501  0.00000000000E+00  0.00000000000E+00  0.49175823329E+03  0.49175823332E+03  0.50400001928E-02 0. -1.
        1   -1    0    0  501    0  0.00000000000E+00  0.00000000000E+00 -0.98420818882E+03  0.98420818884E+03  0.50400001928E-02 0.  1.
    10030    2    1    2    0    0  0.00000000000E+00  0.00000000000E+00 -0.49244995553E+03  0.14759664222E+04  0.13913913614E+04 0.  0.
        3    1    3    3  502    0  0.35274515149E+03 -0.42335583665E+03 -0.69669404650E+03  0.88828031102E+03  0.10100000352E+00 0.  1.
       -3    1    3    3    0  502 -0.35274515149E+03  0.42335583665E+03  0.20424409096E+03  0.58768611113E+03  0.10100000352E+00 0. -1.
</event>
<event>
 5   0  0.1605214E-03  0.1461754E+04  0.7818609E-02  0.8910292E-01
        2   -1    0    0  501    0  0.00000000000E+00  0.00000000000E+00  0.12542332275E+04  0.12542332275E+04  0.25500000920E-02 0.  1.
       -2   -1    0    0    0  501  0.00000000000E+00  0.00000000000E+00 -0.42590245482E+03  0.42590245482E+03  0.25500000920E-02 0. -1.
    10030    2    1    2    0    0  0.00000000000E+00  0.00000000000E+00  0.82833077271E+03  0.16801356823E+04  0.14617537556E+04 0.  0.
        5    1    3    3  502    0 -0.18289681386E+03  0.61765414956E+03  0.81101718476E+03  0.10357214186E+04  0.46999998093E+01 0.  1.
       -5    1    3    3    0  502  0.18289681386E+03 -0.61765414956E+03  0.17313587949E+02  0.64441426374E+03  0.46999998093E+01 0. -1.
</event>
<event>
 5   0  0.8673728E-04  0.1399237E+04  0.7818609E-02  0.8954371E-01
       -1   -1    0    0    0  501  0.00000000000E+00  0.00000000000E+00  0.95694243557E+03  0.95694243558E+03  0.50400001928E-02 0. -1.
        1   -1    0    0  501    0  0.00000000000E+00  0.00000000000E+00 -0.51148926943E+03  0.51148926946E+03  0.50400001928E-02 0.  1.
    10030    2    1    2    0    0  0.00000000000E+00  0.00000000000E+00  0.44545316614E+03  0.14684317050E+04  0.13992366309E+04 0.  0.
        3    1    3    3  502    0  0.96396518392E+02  0.35057558998E+03 -0.40455279470E+03  0.54392877011E+03  0.10100000352E+00 0.  1.
       -3    1    3    3    0  502 -0.96396518392E+02 -0.35057558998E+03  0.85000596084E+03  0.92450293494E+03  0.10100000352E+00 0. -1.
</event>
<event>
 5   0  0.1578965E-03  0.1379435E+04  0.7818609E-02  0.8968841E-01
        2   -1    0    0  501    0  0.00000000000E+00  0.00000000000E+00  0.46497688409E+03  0.46497688410E+03  0.25500000920E-02 0. -1.
       -2   -1    0    0    0  501  0.00000000000E+00  0.00000000000E+00 -0.10230833816E+04  0.10230833816E+04  0.25500000920E-02 0.  1.
    10030    2    1    2    0    0  0.00000000000E+00  0.00000000000E+00 -0.55810649749E+03  0.14880602657E+04  0.13794348451E+04 0.  0.
        2    1    3    3  502    0  0.40821810746E+03  0.45745182525E+03 -0.61985160777E+03  0.87184873192E+03  0.25500000920E-02 0.  1.
       -2    1    3    3    0  502 -0.40821810746E+03 -0.45745182525E+03  0.61745110281E+02  0.61621153376E+03  0.25500000920E-02 0. -1.
</event>
<event>
 5   0  0.1578965E-03  0.1387897E+04  0.7818609E-02  0.8962626E-01
       -2   -1    0    0    0  501  0.00000000000E+00  0.00000000000E+00  0.27312034796E+03  0.27312034797E+03  0.25500000920E-02 0.  1.
        2   -1    0    0  501    0  0.00000000000E+00  0.00000000000E+00 -0.17631945895E+04  0.17631945895E+04  0.25500000920E-02 0. -1.
    10030    2    1    2    0    0  0.00000000000E+00  0.00000000000E+00 -0.14900742415E+04  0.20363149374E+04  0.13878967106E+04 0.  0.
        2    1    3    3  502    0  0.28684017910E+03 -0.47047939641E+03 -0.12613792470E+03  0.56527774310E+03  0.25500000920E-02 0.  1.
       -2    1    3    3    0  502 -0.28684017910E+03  0.47047939641E+03 -0.13639363168E+04  0.14710371943E+04  0.25500000920E-02 0. -1.
</event>
<event>
 5   0  0.9639548E-04  0.1352337E+04  0.7818609E-02  0.8989061E-01
       -1   -1    0    0    0  501  0.00000000000E+00  0.00000000000E+00  0.28109553691E+03  0.28109553695E+03  0.50400001928E-02 0.  1.
        1   -1    0    0  501    0  0.00000000000E+00  0.00000000000E+00 -0.16265077911E+04  0.16265077911E+04  0.50400001928E-02 0. -1.
    10030    2    1    2    0    0  0.00000000000E+00  0.00000000000E+00 -0.13454122542E+04  0.19076033281E+04  0.13523373557E+04 0.  0.
        1    1    3    3  502    0  0.27084319063E+03  0.34345636688E+03 -0.14000680714E+04  0.14668022752E+04  0.50400001928E-02 0. -1.
       -1    1    3    3    0  502 -0.27084319063E+03 -0.34345636688E+03  0.54655817198E+02  0.44080105290E+03  0.50400001928E-02 0.  1.
</event>
<event>
 5   0  0.1706986E-03  0.1399061E+04  0.7818609E-02  0.8954498E-01
       -2   -1    0    0    0  501  0.00000000000E+00  0.00000000000E+00  0.29990169924E+03  0.29990169925E+03  0.25500000920E-02 0. -1.
        2   -1    0    0  501    0  0.00000000000E+00  0.00000000000E+00 -0.16316787792E+04  0.16316787792E+04  0.25500000920E-02 0.  1.
    10030    2    1    2    0    0  0.00000000000E+00  0.00000000000E+00 -0.13317770799E+04  0.19315804784E+04  0.13990614547E+04 0.  0.
        3    1    3    3  502    0 -0.17420140669E+03 -0.39356624502E+03  0.95464630200E+02  0.44085601406E+03  0.10100000352E+00 0. -1.
       -3    1    3    3    0  502  0.17420140669E+03  0.39356624502E+03 -0.14272417101E+04  0.14907244644E+04  0.10100000352E+00 0.  1.
</event>
<event>
 5   0  0.1578965E-03  0.1497032E+04  0.7818609E-02  0.8886429E-01
       -2   -1    0    0    0  501  0.00000000000E+00  0.00000000000E+00  0.60086455353E+03  0.60086455354E+03  0.25500000920E-02 0. -1.
        2   -1    0    0  501    0  0.00000000000E+00  0.00000000000E+00 -0.93244967108E+03  0.93244967109E+03  0.25500000920E-02 0.  1.
    10030    2    1    2    0    0  0.00000000000E+00  0.00000000000E+00 -0.33158511755E+03  0.15333142246E+04  0.14970316701E+04 0.  0.
        2    1    3    3  502    0 -0.20653338403E+03  0.38690566552E+03 -0.78706085239E+03  0.90100877804E+03  0.25500000920E-02 0.  1.
       -2    1    3    3    0  502  0.20653338403E+03 -0.38690566552E+03  0.45547573485E+03  0.63230544658E+03  0.25500000920E-02 0. -1.
</event>
<event>
 5   0  0.8673728E-04  0.1357289E+04  0.7818609E-02  0.8985328E-01
       -1   -1    0    0    0  501  0.00000000000E+00  0.00000000000E+00  0.65111938160E+03  0.65111938162E+03  0.50400001928E-02 0. -1.
        1   -1    0    0  501    0  0.00000000000E+00  0.00000000000E+00 -0.70733369889E+03  0.70733369891E+03  0.50400001928E-02 0.  1.
    10030    2    1    2    0    0  0.00000000000E+00  0.00000000000E+00 -0.56214317285E+02  0.13584530805E+04  0.13572894763E+04 0.  0.
        3    1    3    3  502    0 -0.43987836136E+03 -0.19614243026E+03  0.45041761573E+03  0.65942464657E+03  0.10100000352E+00 0. -1.
       -3    1    3    3    0  502  0.43987836136E+03  0.19614243026E+03 -0.50663193301E+03  0.69902843396E+03  0.10100000352E+00 0.  1.
</event>
<event>
 5   0  0.8673728E-04  0.1436247E+04  0.7818609E-02  0.8927991E-01
        1   -1    0    0  501    0  0.00000000000E+00  0.00000000000E+00  0.47325031423E+03  0.47325031425E+03  0.50400001928E-02 0. -1.
       -1   -1    0    0    0  501  0.00000000000E+00  0.00000000000E+00 -0.10897016293E+04  0.10897016293E+04  0.50400001928E-02 0.  1.
    10030    2    1    2    0    0  0.00000000000E+00  0.00000000000E+00 -0.61645131505E+03  0.15629519435E+04  0.14362473861E+04 0.  0.
        3    1    3    3  502    0 -0.57511563036E+03 -0.17811852970E+03 -0.73418726709E+03  0.94948151760E+03  0.10100000352E+00 0.  1.
       -3    1    3    3    0  502  0.57511563036E+03  0.17811852970E+03  0.11773595204E+03  0.61347042595E+03  0.10100000352E+00 0. -1.
</event>
<event>
 5   0  0.8502300E-04  0.1401581E+04  0.7818609E-02  0.8952675E-01
       -1   -1    0    0    0  501  0.00000000000E+00  0.00000000000E+00  0.26763612833E+03  0.26763612838E+03  0.50400001928E-02 0.  1.
        1   -1    0    0  501    0  0.00000000000E+00  0.00000000000E+00 -0.18349803059E+04  0.18349803059E+04  0.50400001928E-02 0. -1.
    10030    2    1    2    0    0  0.00000000000E+00  0.00000000000E+00 -0.15673441776E+04  0.21026164343E+04  0.14015805716E+04 0.  0.
        4    1    3    3  502    0  0.69535295000E+03  0.33013498793E+02 -0.90461817957E+03  0.11414645329E+04  0.12699999809E+01 0.  1.
       -4    1    3    3    0  502 -0.69535295000E+03 -0.33013498793E+02 -0.66272599799E+03  0.96115190137E+03  0.12699999809E+01 0. -1.
</event>
<event>
 5   0  0.1706986E-03  0.1397715E+04  0.7818609E-02  0.8955474E-01
       -2   -1    0    0    0  501  0.00000000000E+00  0.00000000000E+00  0.29964405742E+03  0.29964405743E+03  0.25500000920E-02 0.  1.
        2   -1    0    0  501    0  0.00000000000E+00  0.00000000000E+00 -0.16299391101E+04  0.16299391101E+04  0.25500000920E-02 0. -1.
    10030    2    1    2    0    0  0.00000000000E+00  0.00000000000E+00 -0.13302950527E+04  0.19295831675E+04  0.13977146609E+04 0.  0.
        3    1    3    3  502    0  0.25922498207E+03 -0.11767495437E+03 -0.15462620197E+04  0.15722503713E+04  0.10100000352E+00 0. -1.
       -3    1    3    3    0  502 -0.25922498207E+03  0.11767495437E+03  0.21596696703E+03  0.35733279623E+03  0.10100000352E+00 0.  1.
</event>
<event>
 5   0  0.1578965E-03  0.1396559E+04  0.7818609E-02  0.8956313E-01
        2   -1    0    0  501    0  0.00000000000E+00  0.00000000000E+00  0.92603394112E+03  0.92603394113E+03  0.25500000920E-02 0. -1.
       -2   -1    0    0    0  501  0.00000000000E+00  0.00000000000E+00 -0.52654042539E+03  0.52654042539E+03  0.25500000920E-02 0.  1.
    10030    2    1    2    0    0  0.00000000000E+00  0.00000000000E+00  0.39949351574E+03  0.14525743665E+04  0.13965590647E+04 0.  0.
        2    1    3    3  502    0  0.25069688930E+03  0.35537698153E+02 -0.47711000853E+03  0.54013500029E+03  0.25500000920E-02 0.  1.
       -2    1    3    3    0  502 -0.25069688930E+03 -0.35537698153E+02  0.87660352426E+03  0.91243936623E+03  0.25500000920E-02 0. -1.
</event>
<event>
 5   0  0.1648213E-03  0.1404733E+04  0.7818609E-02  0.8950400E-01
       -2   -1    0    0    0  501  0.00000000000E+00  0.00000000000E+00  0.80019216016E+03  0.80019216017E+03  0.25500000920E-02 0. -1.
        2   -1    0    0  501    0  0.00000000000E+00  0.00000000000E+00 -0.61650016215E+03  0.61650016215E+03  0.25500000920E-02 0.  1.
    10030    2    1    2    0    0  0.00000000000E+00  0.00000000000E+00  0.18369199802E+03  0.14166923223E+04  0.14047328522E+04 0.  0.
        4    1    3    3  502    0 -0.33099295178E+03  0.56624945482E+03 -0.16153432055E+03  0.67549221226E+03  0.12699999809E+01 0.  1.
       -4    1    3    3    0  502  0.33099295178E+03 -0.56624945482E+03  0.34522631857E+03  0.74120011006E+03  0.12699999809E+01 0. -1.
</event>
<event>
 5   0  0.9007180E-04  0.1396730E+04  0.7818609E-02  0.8956189E-01
        1   -1    0    0  501    0  0.00000000000E+00  0.00000000000E+00  0.16139700713E+04  0.16139700714E+04  0.50400001928E-02 0.  1.
       -1   -1    0    0    0  501  0.00000000000E+00  0.00000000000E+00 -0.30218267435E+03  0.30218267439E+03  0.50400001928E-02 0. -1.
    10030    2    1    2    0    0  0.00000000000E+00  0.00000000000E+00  0.13117873970E+04  0.19161527457E+04  0.13967301708E+04 0.  0.
        2    1    3    3  502    0 -0.21489058620E+03  0.18873788995E+03  0.15299402015E+04  0.15564436949E+04  0.25500000920E-02 0.  1.
       -2    1    3    3    0  502  0.21489058620E+03 -0.18873788995E+03 -0.21815280453E+03  0.35970905085E+03  0.25500000920E-02 0. -1.
</event>
<event>
 5   0  0.6048000E-04  0.1369653E+04  0.7818609E-02  0.8976083E-01
        3   -1    0    0  501    0  0.00000000000E+00  0.00000000000E+00  0.78604483815E+03  0.78604484464E+03  0.10100000352E+00 0.  1.
       -3   -1    0    0    0  501  0.00000000000E+00  0.00000000000E+00 -0.59664153015E+03  0.59664153870E+03  0.10100000352E+00 0. -1.
    10030    2    1    2    0    0  0.00000000000E+00  0.00000000000E+00  0.18940330800E+03  0.13826863833E+04  0.13696525186E+04 0.  0.
        3    1    3    3  502    0 -0.37565819924E+03  0.57234652543E+03  0.11181488498E+03  0.69368739828E+03  0.10100000352E+00 0.  1.
       -3    1    3    3    0  502  0.37565819924E+03 -0.57234652543E+03  0.77588423019E+02  0.68899898506E+03  0.10100000352E+00 0. -1.
</event>
<event>
 5   0  0.1706986E-03  0.1358675E+04  0.7818609E-02  0.8984287E-01
       -2   -1    0    0    0  501  0.00000000000E+00  0.00000000000E+00  0.27378712988E+03  0.27378712989E+03  0.25500000920E-02 0.  1.
        2   -1    0    0  501    0  0.00000000000E+00  0.00000000000E+00 -0.16856137667E+04  0.16856137667E+04  0.25500000920E-02 0. -1.
    10030    2    1    2    0    0  0.00000000000E+00  0.00000000000E+00 -0.14118266368E+04  0.19594008966E+04  0.13586748769E+04 0.  0.
        3    1    3    3  502    0 -0.65075713855E+03 -0.14068279748E+02 -0.42546757347E+03  0.77762808343E+03  0.10100000352E+00 0.  1.
       -3    1    3    3    0  502  0.65075713855E+03  0.14068279748E+02 -0.98635906338E+03  0.11817728132E+04  0.10100000352E+00 0. -1.
</event>
<event>
 5   0  0.1578965E-03  0.1414897E+04  0.7818609E-02  0.8943106E-01
       -2   -1    0    0    0  501  0.00000000000E+00  0.00000000000E+00  0.36776017844E+03  0.36776017845E+03  0.25500000920E-02 0.  1.
        2   -1    0    0  501    0  0.00000000000E+00  0.00000000000E+00 -0.13608951924E+04  0.13608951924E+04  0.25500000920E-02 0. -1.
    10030    2    1    2    0    0  0.00000000000E+00  0.00000000000E+00 -0.99313501391E+03  0.17286553708E+04  0.14148965457E+04 0.  0.
        2    1    3    3  502    0  0.44601557212E+03  0.50155483028E+03 -0.22338617538E+03  0.70738145418E+03  0.25500000920E-02 0. -1.
       -2    1    3    3    0  502 -0.44601557212E+03 -0.50155483028E+03 -0.76974883853E+03  0.10212739166E+04  0.25500000920E-02 0.  1.
</event>
<event>
 5   0  0.9639548E-04  0.1771665E+04  0.7818609E-02  0.8721514E-01
       -1   -1    0    0    0  501  0.00000000000E+00  0.00000000000E+00  0.61580487646E+03  0.61580487648E+03  0.50400001928E-02 0. -1.
        1   -1    0    0  501    0  0.00000000000E+00  0.00000000000E+00 -0.12742663665E+04  0.12742663665E+04  0.50400001928E-02 0.  1.
    10030    2    1    2    0    0  0.00000000000E+00  0.00000000000E+00 -0.65846149003E+03  0.18900712430E+04  0.17716652533E+04 0.  0.
        1    1    3    3  502    0 -0.27158079474E+01  0.46593446341E+03 -0.11329726410E+04  0.12250425728E+04  0.50400001928E-02 0.  1.
       -1    1    3    3    0  502  0.27158079474E+01 -0.46593446341E+03  0.47451115096E+03  0.66502867022E+03  0.50400001928E-02 0. -1.
</event>
<event>
 5   0  0.8609148E-04  0.1457510E+04  0.7818609E-02  0.8913211E-01
        1   -1    0    0  501    0  0.00000000000E+00  0.00000000000E+00  0.10471926700E+04  0.10471926700E+04  0.50400001928E-02 0.  1.
       -1   -1    0    0    0  501  0.00000000000E+00  0.00000000000E+00 -0.50714994566E+03  0.50714994568E+03  0.50400001928E-02 0. -1.
    10030    2    1    2    0    0  0.00000000000E+00  0.00000000000E+00  0.54004272430E+03  0.15543426157E+04  0.14575098019E+04 0.  0.
        5    1    3    3  502    0 -0.26877100174E+02 -0.23532695138E+02 -0.50619945061E+03  0.50748018686E+03  0.46999998093E+01 0. -1.
       -5    1    3    3    0  502  0.26877100174E+02  0.23532695138E+02  0.10462421749E+04  0.10468624288E+04  0.46999998093E+01 0.  1.
</event>
<event>
 5   0  0.8502300E-04  0.1387209E+04  0.7818609E-02  0.8963130E-01
        1   -1    0    0  501    0  0.00000000000E+00  0.00000000000E+00  0.14940844420E+04  0.14940844421E+04  0.50400001928E-02 0. -1.
       -1   -1    0    0    0  501  0.00000000000E+00  0.00000000000E+00 -0.32199450963E+03  0.32199450967E+03  0.50400001928E-02 0.  1.
    10030    2    1    2    0    0  0.00000000000E+00  0.00000000000E+00  0.11720899324E+04  0.18160789517E+04  0.13872086899E+04 0.  0.
        4    1    3    3  502    0  0.34438508196E+03 -0.44590657804E+03  0.11156511775E+04  0.12498451599E+04  0.12699999809E+01 0. -1.
       -4    1    3    3    0  502 -0.34438508196E+03  0.44590657804E+03  0.56438754897E+02  0.56623379179E+03  0.12699999809E+01 0.  1.
</event>
<event>
 5   0  0.8673728E-04  0.1412412E+04  0.7818609E-02  0.8944883E-01
       -1   -1    0    0    0  501  0.00000000000E+00  0.00000000000E+00  0.36541918257E+03  0.36541918261E+03  0.50400001928E-02 0.  1.
        1   -1    0    0  501    0  0.00000000000E+00  0.00000000000E+00 -0.13648070097E+04  0.13648070097E+04  0.50400001928E-02 0. -1.
    10030    2    1    2    0    0  0.00000000000E+00  0.00000000000E+00 -0.99938782711E+03  0.17302261923E+04  0.14124116424E+04 0.  0.
        3    1    3    3  502    0 -0.13723396932E+03 -0.28261123707E+03  0.27509754204E+03  0.41758944131E+03  0.10100000352E+00 0.  1.
       -3    1    3    3    0  502  0.13723396932E+03  0.28261123707E+03 -0.12744853692E+04  0.13126367510E+04  0.10100000352E+00 0. -1.
</event>
<event>
 5   0  0.1706986E-03  0.1405527E+04  0.7818609E-02  0.8949827E-01
        2   -1    0    0  501    0  0.00000000000E+00  0.00000000000E+00  0.23873405962E+04  0.23873405962E+04  0.25500000920E-02 0. -1.
       -2   -1    0    0    0  501  0.00000000000E+00  0.00000000000E+00 -0.20687312438E+03  0.20687312439E+03  0.25500000920E-02 0.  1.
    10030    2    1    2    0    0  0.00000000000E+00  0.00000000000E+00  0.21804674718E+04  0.25942137206E+04  0.14055271013E+04 0.  0.
        3    1    3    3  502    0  0.30715842744E+03  0.26365277530E+03  0.21505490186E+04  0.21883144603E+04  0.10100000352E+00 0. -1.
       -3    1    3    3    0  502 -0.30715842744E+03 -0.26365277530E+03  0.29918453206E+02  0.40589926030E+03  0.10100000352E+00 0.  1.
</event>
<event>
 5   0  0.9007180E-04  0.1395392E+04  0.7818609E-02  0.8957161E-01
        1   -1    0    0  501    0  0.00000000000E+00  0.00000000000E+00  0.90852727697E+03  0.90852727698E+03  0.50400001928E-02 0. -1.
       -1   -1    0    0    0  501  0.00000000000E+00  0.00000000000E+00 -0.53579005349E+03  0.53579005351E+03  0.50400001928E-02 0.  1.
    10030    2    1    2    0    0  0.00000000000E+00  0.00000000000E+00  0.37273722348E+03  0.14443173305E+04  0.13953922436E+04 0.  0.
        2    1    3    3  502    0 -0.54143220395E+03  0.39833681292E+03 -0.71598143388E+01  0.67221448285E+03  0.25500000920E-02 0.  1.
       -2    1    3    3    0  502  0.54143220395E+03 -0.39833681292E+03  0.37989703782E+03  0.77210284765E+03  0.25500000920E-02 0. -1.
</event>
<event>
 5   0  0.1648463E-03  0.1388357E+04  0.7818609E-02  0.8962290E-01
        2   -1    0    0  501    0  0.00000000000E+00  0.00000000000E+00  0.73181812219E+03  0.73181812220E+03  0.25500000920E-02 0.  1.
       -2   -1    0    0    0  501  0.00000000000E+00  0.00000000000E+00 -0.65847495768E+03  0.65847495769E+03  0.25500000920E-02 0. -1.
    10030    2    1    2    0    0  0.00000000000E+00  0.00000000000E+00  0.73343164510E+02  0.13902930799E+04  0.13883571688E+04 0.  0.
        1    1    3    3  502    0 -0.31845538810E+03 -0.53837686552E+03  0.33812360178E+03  0.71104926246E+03  0.50400001928E-02 0.  1.
       -1    1    3    3    0  502  0.31845538810E+03  0.53837686552E+03 -0.26478043727E+03  0.67924381743E+03  0.50400001928E-02 0. -1.
</event>
<event>
 5   0  0.9007180E-04  0.1419604E+04  0.7818609E-02  0.8939749E-01
        1   -1    0    0  501    0  0.00000000000E+00  0.00000000000E+00  0.81396337447E+03  0.81396337449E+03  0.50400001928E-02 0. -1.
       -1   -1    0    0    0  501  0.00000000000E+00  0.00000000000E+00 -0.61897025975E+03  0.61897025977E+03  0.50400001928E-02 0.  1.
    10030    2    1    2    0    0  0.00000000000E+00  0.00000000000E+00  0.19499311472E+03  0.14329336343E+04  0.14196043411E+04 0.  0.
        2    1    3    3  502    0 -0.77680445066E+02 -0.27463093787E+03  0.75349309296E+03  0.80573459944E+03  0.25500000920E-02 0. -1.
       -2    1    3    3    0  502  0.77680445066E+02  0.27463093787E+03 -0.55849997824E+03  0.62719903482E+03  0.25500000920E-02 0.  1.
</event>
<event>
 5   0  0.8673728E-04  0.1396266E+04  0.7818609E-02  0.8956526E-01
       -1   -1    0    0    0  501  0.00000000000E+00  0.00000000000E+00  0.10695595564E+04  0.10695595564E+04  0.50400001928E-02 0.  1.
        1   -1    0    0  501    0  0.00000000000E+00  0.00000000000E+00 -0.45569164963E+03  0.45569164965E+03  0.50400001928E-02 0. -1.
    10030    2    1    2    0    0  0.00000000000E+00  0.00000000000E+00  0.61386790677E+03  0.15252512061E+04  0.13962655316E+04 0.  0.
        3    1    3    3  502    0  0.35694923964E+03  0.65468909258E+02 -0.34455857357E+03  0.50041938270E+03  0.10100000352E+00 0. -1.
       -3    1    3    3    0  502 -0.35694923964E+03 -0.65468909258E+02  0.95842648034E+03  0.10248318234E+04  0.10100000352E+00 0.  1.
</event>
<event>
 5   0  0.1648463E-03  0.1348929E+04  0.7818609E-02  0.8991639E-01
        2   -1    0    0  501    0  0.00000000000E+00  0.00000000000E+00  0.24010046561E+04  0.24010046561E+04  0.25500000920E-02 0. -1.
       -2   -1    0    0    0  501  0.00000000000E+00  0.00000000000E+00 -0.18946336969E+03  0.18946336971E+03  0.25500000920E-02 0.  1.
    10030    2    1    2    0    0  0.00000000000E+00  0.00000000000E+00  0.22115412864E+04  0.25904680258E+04  0.13489291053E+04 0.  0.
        1    1    3    3  502    0 -0.20881081280E+03 -0.23103131073E+03  0.22546783272E+04  0.22760825515E+04  0.50400001928E-02 0. -1.
       -1    1    3    3    0  502  0.20881081280E+03  0.23103131073E+03 -0.43137040881E+02  0.31438547422E+03  0.50400001928E-02 0.  1.
</event>
<event>
 5   0  0.8502300E-04  0.1378635E+04  0.7818609E-02  0.8969431E-01
        1   -1    0    0  501    0  0.00000000000E+00  0.00000000000E+00  0.45131545302E+03  0.45131545305E+03  0.50400001928E-02 0. -1.
       -1   -1    0    0    0  501  0.00000000000E+00  0.00000000000E+00 -0.10528296394E+04  0.10528296394E+04  0.50400001928E-02 0.  1.
    10030    2    1    2    0    0  0.00000000000E+00  0.00000000000E+00 -0.60151418638E+03  0.15041450925E+04  0.13786345211E+04 0.  0.
        4    1    3    3  502    0 -0.11375299843E+02 -0.46659968510E+03 -0.85419717646E+03  0.97339565068E+03  0.12699999809E+01 0.  1.
       -4    1    3    3    0  502  0.11375299843E+02  0.46659968510E+03  0.25268299009E+03  0.53074944179E+03  0.12699999809E+01 0. -1.
</event>
<event>
 5   0  0.1578965E-03  0.1397584E+04  0.7818609E-02  0.8955569E-01
       -2   -1    0    0    0  501  0.00000000000E+00  0.00000000000E+00  0.31745553457E+03  0.31745553458E+03  0.25500000920E-02 0.  1.
        2   -1    0    0  501    0  0.00000000000E+00  0.00000000000E+00 -0.15382009963E+04  0.15382009963E+04  0.25500000920E-02 0. -1.
    10030    2    1    2    0    0  0.00000000000E+00  0.00000000000E+00 -0.12207454617E+04  0.18556565309E+04  0.13975842294E+04 0.  0.
        2    1    3    3  502    0 -0.41717640657E+03 -0.41344084438E+03 -0.10767755514E+03  0.59712975297E+03  0.25500000920E-02 0.  1.
       -2    1    3    3    0  502  0.41717640657E+03  0.41344084438E+03 -0.11130679066E+04  0.12585267779E+04  0.25500000920E-02 0. -1.
</event>
<event>
 5   0  0.8609148E-04  0.1391443E+04  0.7818609E-02  0.8960036E-01
       -1   -1    0    0    0  501  0.00000000000E+00  0.00000000000E+00  0.25861326818E+03  0.25861326823E+03  0.50400001928E-02 0.  1.
        1   -1    0    0  501    0  0.00000000000E+00  0.00000000000E+00 -0.18716312404E+04  0.18716312405E+04  0.50400001928E-02 0. -1.
    10030    2    1    2    0    0  0.00000000000E+00  0.00000000000E+00 -0.16130179723E+04  0.21302445087E+04  0.13914433829E+04 0.  0.
        5    1    3    3  502    0 -0.36449993433E+03  0.35491191837E+03 -0.80014048196E+02  0.51502136833E+03  0.46999998093E+01 0.  1.
       -5    1    3    3    0  502  0.36449993433E+03 -0.35491191837E+03 -0.15330039241E+04  0.16152231404E+04  0.46999998093E+01 0. -1.
</event>
<event>
 5   0  0.1706986E-03  0.1398781E+04  0.7818609E-02  0.8954701E-01
       -2   -1    0    0    0  501  0.00000000000E+00  0.00000000000E+00  0.53796085702E+03  0.53796085703E+03  0.25500000920E-02 0. -1.
        2   -1    0    0  501    0  0.00000000000E+00  0.00000000000E+00 -0.90926153555E+03  0.90926153556E+03  0.25500000920E-02 0.  1.
    10030    2    1    2    0    0  0.00000000000E+00  0.00000000000E+00 -0.37130067853E+03  0.14472223926E+04  0.13987810621E+04 0.  0.
        3    1    3    3  502    0 -0.65069996850E+03  0.20165646854E+03 -0.21827605792E+02  0.68158068847E+03  0.10100000352E+00 0.  1.
       -3    1    3    3    0  502  0.65069996850E+03 -0.20165646854E+03 -0.34947307274E+03  0.76564170412E+03  0.10100000352E+00 0. -1.
</event>
<event>
 5   0  0.9007180E-04  0.1401652E+04  0.7818609E-02  0.8952623E-01
        1   -1    0    0  501    0  0.00000000000E+00  0.00000000000E+00  0.53187974239E+03  0.53187974241E+03  0.50400001928E-02 0.  1.
       -1   -1    0    0    0  501  0.00000000000E+00  0.00000000000E+00 -0.92343657237E+03  0.92343657238E+03  0.50400001928E-02 0. -1.
    10030    2    1    2    0    0  0.00000000000E+00  0.00000000000E+00 -0.39155682998E+03  0.14553163148E+04  0.14016521769E+04 0.  0.
        2    1    3    3  502    0 -0.10917356475E+03 -0.69222152984E+03 -0.18723585937E+03  0.72535975947E+03  0.25500000920E-02 0.  1.
       -2    1    3    3    0  502  0.10917356475E+03  0.69222152984E+03 -0.20432097061E+03  0.72995655532E+03  0.25500000920E-02 0. -1.
</event>
<event>
 5   0  0.1578965E-03  0.1395483E+04  0.7818609E-02  0.8957095E-01
        2   -1    0    0  501    0  0.00000000000E+00  0.00000000000E+00  0.14518026344E+04  0.14518026344E+04  0.25500000920E-02 0. -1.
       -2   -1    0    0    0  501  0.00000000000E+00  0.00000000000E+00 -0.33533707250E+03  0.33533707251E+03  0.25500000920E-02 0.  1.
    10030    2    1    2    0    0  0.00000000000E+00  0.00000000000E+00  0.11164655619E+04  0.17871397069E+04  0.13954830637E+04 0.  0.
        2    1    3    3  502    0 -0.56552587048E+03 -0.40588954807E+03  0.49711683572E+03  0.85538937553E+03  0.25500000920E-02 0.  1.
       -2    1    3    3    0  502  0.56552587048E+03  0.40588954807E+03  0.61934872622E+03  0.93175033141E+03  0.25500000920E-02 0. -1.
</event>
<event>
 5   0  0.1648463E-03  0.1397304E+04  0.7818609E-02  0.8955773E-01
        2   -1    0    0  501    0  0.00000000000E+00  0.00000000000E+00  0.21922494499E+04  0.21922494499E+04  0.25500000920E-02 0. -1.
       -2   -1    0    0    0  501  0.00000000000E+00  0.00000000000E+00 -0.22265456957E+03  0.22265456958E+03  0.25500000920E-02 0.  1.
    10030    2    1    2    0    0  0.00000000000E+00  0.00000000000E+00  0.19695948803E+04  0.24149040195E+04  0.13973036287E+04 0.  0.
        1    1    3    3  502    0  0.26300268125E+02 -0.57169545851E+03  0.16773683101E+04  0.17723125709E+04  0.50400001928E-02 0. -1.
       -1    1    3    3    0  502 -0.26300268125E+02  0.57169545851E+03  0.29222657026E+03  0.64259144857E+03  0.50400001928E-02 0.  1.
</event>
<event>
 5   0  0.8673728E-04  0.1421957E+04  0.7818609E-02  0.8938077E-01
        1   -1    0    0  501    0  0.00000000000E+00  0.00000000000E+00  0.80100017851E+03  0.80100017853E+03  0.50400001928E-02 0. -1.
       -1   -1    0    0    0  501  0.00000000000E+00  0.00000000000E+00 -0.63107400456E+03  0.63107400458E+03  0.50400001928E-02 0.  1.
    10030    2    1    2    0    0  0.00000000000E+00  0.00000000000E+00  0.16992617395E+03  0.14320741831E+04  0.14219569478E+04 0.  0.
        3    1    3    3  502    0 -0.50169789153E+03 -0.30537345841E+03 -0.31855794448E+03  0.66815634222E+03  0.10100000352E+00 0.  1.
       -3    1    3    3    0  502  0.50169789153E+03  0.30537345841E+03  0.48848411843E+03  0.76391784088E+03  0.10100000352E+00 0. -1.
</event>
<event>
 5   0  0.8502300E-04  0.1392945E+04  0.7818609E-02  0.8958941E-01
        1   -1    0    0  501    0  0.00000000000E+00  0.00000000000E+00  0.95201746764E+03  0.95201746765E+03  0.50400001928E-02 0.  1.
       -1   -1    0    0    0  501  0.00000000000E+00  0.00000000000E+00 -0.50952215419E+03  0.50952215421E+03  0.50400001928E-02 0. -1.
    10030    2    1    2    0    0  0.00000000000E+00  0.00000000000E+00  0.44249531345E+03  0.14615396219E+04  0.13929450685E+04 0.  0.
        4    1    3    3  502    0 -0.14534080625E+03  0.14653976819E+02  0.93576196002E+03  0.94709595487E+03  0.12699999809E+01 0.  1.
       -4    1    3    3    0  502  0.14534080625E+03 -0.14653976819E+02 -0.49326664657E+03  0.51444366700E+03  0.12699999809E+01 0. -1.
</event>
<event>
 5   0  0.1578965E-03  0.1399334E+04  0.7818609E-02  0.8954301E-01
        2   -1    0    0  501    0  0.00000000000E+00  0.00000000000E+00  0.68050769443E+03  0.68050769443E+03  0.25500000920E-02 0. -1.
       -2   -1    0    0    0  501  0.00000000000E+00  0.00000000000E+00 -0.71936541300E+03  0.71936541301E+03  0.25500000920E-02 0.  1.
    10030    2    1    2    0    0  0.00000000000E+00  0.00000000000E+00 -0.38857718578E+02  0.13998731074E+04  0.13993336967E+04 0.  0.
        2    1    3    3  502    0 -0.47144681279E+03  0.30723525510E+03 -0.43537525739E+03  0.71148240598E+03  0.25500000920E-02 0.  1.
       -2    1    3    3    0  502  0.47144681279E+03 -0.30723525510E+03  0.39651753881E+03  0.68839070146E+03  0.25500000920E-02 0. -1.
</event>
<event>
 5   0  0.1648213E-03  0.1351831E+04  0.7818609E-02  0.8989443E-01
       -2   -1    0    0    0  501  0.00000000000E+00  0.00000000000E+00  0.31589959050E+03  0.31589959051E+03  0.25500000920E-02 0. -1.
        2   -1    0    0  501    0  0.00000000000E+00  0.00000000000E+00 -0.14462251550E+04  0.14462251550E+04  0.25500000920E-02 0.  1.
    10030    2    1    2    0    0  0.00000000000E+00  0.00000000000E+00 -0.11303255645E+04  0.17621247456E+04  0.13518312532E+04 0.  0.
        4    1    3    3  502    0  0.27872977121E+03 -0.51049259622E+03 -0.11631744784E+03  0.59314782115E+03  0.12699999809E+01 0. -1.
       -4    1    3    3    0  502 -0.27872977121E+03  0.51049259622E+03 -0.10140081167E+04  0.11689769244E+04  0.12699999809E+01 0.  1.
</event>
<event>
 5   0  0.1706986E-03  0.1402208E+04  0.7818609E-02  0.8952222E-01
       -2   -1    0    0    0  501  0.00000000000E+00  0.00000000000E+00  0.11204234050E+04  0.11204234050E+04  0.25500000920E-02 0. -1.
        2   -1    0    0  501    0  0.00000000000E+00  0.00000000000E+00 -0.43871535654E+03  0.43871535654E+03  0.25500000920E-02 0.  1.
    10030    2    1    2    0    0  0.00000000000E+00  0.00000000000E+00  0.68170804842E+03  0.15591387615E+04  0.14022081922E+04 0.  0.
        3    1    3    3  502    0 -0.60457856950E+03 -0.11091632787E+03  0.71583426578E+03  0.94352338856E+03  0.10100000352E+00 0. -1.
       -3    1    3    3    0  502  0.60457856950E+03  0.11091632787E+03 -0.34126217359E+02  0.61561537294E+03  0.10100000352E+00 0.  1.
</event>
<event>
 5   0  0.1605214E-03  0.1418613E+04  0.7818609E-02  0.8940455E-01
        2   -1    0    0  501    0  0.00000000000E+00  0.00000000000E+00  0.21621069202E+04  0.21621069202E+04  0.25500000920E-02 0. -1.
       -2   -1    0    0    0  501  0.00000000000E+00  0.00000000000E+00 -0.23269691285E+03  0.23269691286E+03  0.25500000920E-02 0.  1.
    10030    2    1    2    0    0  0.00000000000E+00  0.00000000000E+00  0.19294100073E+04  0.23948038330E+04  0.14186128515E+04 0.  0.
        5    1    3    3  502    0  0.27073444139E+03 -0.58813377065E+03  0.47574401343E+03  0.80346308331E+03  0.46999998093E+01 0. -1.
       -5    1    3    3    0  502 -0.27073444139E+03  0.58813377065E+03  0.14536659939E+04  0.15913407497E+04  0.46999998093E+01 0.  1.
</event>
<event>
 5   0  0.8502300E-04  0.1394490E+04  0.7818609E-02  0.8957816E-01
        1   -1    0    0  501    0  0.00000000000E+00  0.00000000000E+00  0.59448193617E+03  0.59448193619E+03  0.50400001928E-02 0.  1.
       -1   -1    0    0    0  501  0.00000000000E+00  0.00000000000E+00 -0.81777237928E+03  0.81777237930E+03  0.50400001928E-02 0. -1.
    10030    2    1    2    0    0  0.00000000000E+00  0.00000000000E+00 -0.22329044311E+03  0.14122543155E+04  0.13944904552E+04 0.  0.
        4    1    3    3  502    0 -0.34411609714E+03 -0.60556841544E+03 -0.79296181506E+02  0.70101247592E+03  0.12699999809E+01 0.  1.
       -4    1    3    3    0  502  0.34411609714E+03  0.60556841544E+03 -0.14399426160E+03  0.71124183957E+03  0.12699999809E+01 0. -1.
</event>
<event>
 5   0  0.8609148E-04  0.1402658E+04  0.7818609E-02  0.8951897E-01
       -1   -1    0    0    0  501  0.00000000000E+00  0.00000000000E+00  0.41125167132E+03  0.41125167135E+03  0.50400001928E-02 0.  1.
        1   -1    0    0  501    0  0.00000000000E+00  0.00000000000E+00 -0.11960127089E+04  0.11960127089E+04  0.50400001928E-02 0. -1.
    10030    2    1    2    0    0  0.00000000000E+00  0.00000000000E+00 -0.78476103758E+03  0.16072643803E+04  0.14026577993E+04 0.  0.
        5    1    3    3  502    0  0.26120484100E+03 -0.25954462736E+03  0.29155044416E+03  0.46969685335E+03  0.46999998093E+01 0.  1.
       -5    1    3    3    0  502 -0.26120484100E+03  0.25954462736E+03 -0.10763114817E+04  0.11375675269E+04  0.46999998093E+01 0. -1.
</event>
<event>
 5   0  0.9639548E-04  0.1160092E+04  0.7818609E-02  0.9148523E-01
        1   -1    0    0  501    0  0.00000000000E+00  0.00000000000E+00  0.11208166537E+04  0.11208166537E+04  0.50400001928E-02 0. -1.
       -1   -1    0    0    0  501  0.00000000000E+00  0.00000000000E+00 -0.30018590181E+03  0.30018590185E+03  0.50400001928E-02 0.  1.
    10030    2    1    2    0    0  0.00000000000E+00  0.00000000000E+00  0.82063075191E+03  0.14210025556E+04  0.11600919929E+04 0.  0.
        1    1    3    3  502    0 -0.22294895127E+02  0.22490030769E+02 -0.29912621884E+03  0.30079787009E+03  0.50400001928E-02 0.  1.
       -1    1    3    3    0  502  0.22294895127E+02 -0.22490030769E+02  0.11197569707E+04  0.11202046855E+04  0.50400001928E-02 0. -1.
</event>
<event>
 5   0  0.1648213E-03  0.1442319E+04  0.7818609E-02  0.8923743E-01
        2   -1    0    0  501    0  0.00000000000E+00  0.00000000000E+00  0.10680637538E+04  0.10680637538E+04  0.25500000920E-02 0.  1.
       -2   -1    0    0    0  501  0.00000000000E+00  0.00000000000E+00 -0.48692873118E+03  0.48692873119E+03  0.25500000920E-02 0. -1.
    10030    2    1    2    0    0  0.00000000000E+00  0.00000000000E+00  0.58113502261E+03  0.15549924850E+04  0.14423188669E+04 0.  0.
        4    1    3    3  502    0  0.65663411849E+03  0.61017509948E+02 -0.24084312723E+02  0.65990390900E+03  0.12699999809E+01 0. -1.
       -4    1    3    3    0  502 -0.65663411849E+03 -0.61017509948E+02  0.60521933534E+03  0.89508857598E+03  0.12699999809E+01 0.  1.
</event>
<event>
 5   0  0.1648213E-03  0.1395745E+04  0.7818609E-02  0.8956904E-01
        2   -1    0    0  501    0  0.00000000000E+00  0.00000000000E+00  0.82409550819E+03  0.82409550819E+03  0.25500000920E-02 0. -1.
       -2   -1    0    0    0  501  0.00000000000E+00  0.00000000000E+00 -0.59098278184E+03  0.59098278184E+03  0.25500000920E-02 0.  1.
    10030    2    1    2    0    0  0.00000000000E+00  0.00000000000E+00  0.23311272635E+03  0.14150782900E+04  0.13957453291E+04 0.  0.
        4    1    3    3  502    0 -0.45315251981E+03 -0.16542403208E+03  0.62783540468E+03  0.79176462719E+03  0.12699999809E+01 0. -1.
       -4    1    3    3    0  502  0.45315251981E+03  0.16542403208E+03 -0.39472267833E+03  0.62331366284E+03  0.12699999809E+01 0.  1.
</event>
<event>
 5   0  0.6048000E-04  0.1383140E+04  0.7818609E-02  0.8966114E-01
       -3   -1    0    0    0  501  0.00000000000E+00  0.00000000000E+00  0.76229145232E+03  0.76229145901E+03  0.10100000352E+00 0. -1.
        3   -1    0    0  501    0  0.00000000000E+00  0.00000000000E+00 -0.62740976270E+03  0.62740977083E+03  0.10100000352E+00 0.  1.
    10030    2    1    2    0    0  0.00000000000E+00  0.00000000000E+00  0.13488168962E+03  0.13897012298E+04  0.13831400645E+04 0.  0.
        4    1    3    3  502    0  0.55489615058E+03 -0.33411071412E+03 -0.17604689996E+03  0.67121816953E+03  0.12699999809E+01 0. -1.
       -4    1    3    3    0  502 -0.55489615058E+03  0.33411071412E+03  0.31092858958E+03  0.71848306030E+03  0.12699999809E+01 0.  1.
</event>
<event>
 5   0  0.1578965E-03  0.1343971E+04  0.7818609E-02  0.8995404E-01
       -2   -1    0    0    0  501  0.00000000000E+00  0.00000000000E+00  0.52999934254E+03  0.52999934255E+03  0.25500000920E-02 0.  1.
        2   -1    0    0  501    0  0.00000000000E+00  0.00000000000E+00 -0.85200998183E+03  0.85200998184E+03  0.25500000920E-02 0. -1.
    10030    2    1    2    0    0  0.00000000000E+00  0.00000000000E+00 -0.32201063929E+03  0.13820093244E+04  0.13439713244E+04 0.  0.
        2    1    3    3  502    0 -0.51759214112E+03  0.19458178951E+03  0.23164076485E+03  0.59951742368E+03  0.25500000920E-02 0.  1.
       -2    1    3    3    0  502  0.51759214112E+03 -0.19458178951E+03 -0.55365140414E+03  0.78249190070E+03  0.25500000920E-02 0. -1.
</event>
<event>
 5   0  0.9007180E-04  0.1404733E+04  0.7818609E-02  0.8950400E-01
        1   -1    0    0  501    0  0.00000000000E+00  0.00000000000E+00  0.74534385028E+03  0.74534385030E+03  0.50400001928E-02 0. -1.
       -1   -1    0    0    0  501  0.00000000000E+00  0.00000000000E+00 -0.66186706574E+03  0.66186706576E+03  0.50400001928E-02 0.  1.
    10030    2    1    2    0    0  0.00000000000E+00  0.00000000000E+00  0.83476784537E+02  0.14072109161E+04  0.14047327820E+04 0.  0.
        2    1    3    3  502    0  0.30739099061E+03 -0.63141899352E+03  0.29911605154E+02  0.70290388434E+03  0.25500000920E-02 0. -1.
       -2    1    3    3    0  502 -0.30739099061E+03  0.63141899352E+03  0.53565179383E+02  0.70430703172E+03  0.25500000920E-02 0.  1.
</event>
<event>
 5   0  0.8673728E-04  0.1442672E+04  0.7818609E-02  0.8923497E-01
        1   -1    0    0  501    0  0.00000000000E+00  0.00000000000E+00  0.10928994690E+04  0.10928994690E+04  0.50400001928E-02 0.  1.
       -1   -1    0    0    0  501  0.00000000000E+00  0.00000000000E+00 -0.47609661530E+03  0.47609661532E+03  0.50400001928E-02 0. -1.
    10030    2    1    2    0    0  0.00000000000E+00  0.00000000000E+00  0.61680285370E+03  0.15689960843E+04  0.14426721569E+04 0.  0.
        3    1    3    3  502    0 -0.29412427880E+03  0.55083850726E+03 -0.84317928844E+02  0.63011243106E+03  0.10100000352E+00 0. -1.
       -3    1    3    3    0  502  0.29412427880E+03 -0.55083850726E+03  0.70112078255E+03  0.93888365327E+03  0.10100000352E+00 0.  1.
</event>
<event>
 5   0  0.1605214E-03  0.1386384E+04  0.7818609E-02  0.8963734E-01
       -2   -1    0    0    0  501  0.00000000000E+00  0.00000000000E+00  0.11757905544E+04  0.11757905544E+04  0.25500000920E-02 0.  1.
        2   -1    0    0  501    0  0.00000000000E+00  0.00000000000E+00 -0.40867417297E+03  0.40867417297E+03  0.25500000920E-02 0. -1.
    10030    2    1    2    0    0  0.00000000000E+00  0.00000000000E+00  0.76711638144E+03  0.15844647274E+04  0.13863841205E+04 0.  0.
        5    1    3    3  502    0  0.63913227126E+03 -0.26187548998E+03  0.45043653877E+03  0.82461142235E+03  0.46999998093E+01 0.  1.
       -5    1    3    3    0  502 -0.63913227126E+03  0.26187548998E+03  0.31667984267E+03  0.75985330503E+03  0.46999998093E+01 0. -1.
</event>
<event>
 5   0  0.1648463E-03  0.1402516E+04  0.7818609E-02  0.8951999E-01
       -2   -1    0    0    0  501  0.00000000000E+00  0.00000000000E+00  0.73370991438E+03  0.73370991439E+03  0.25500000920E-02 0.  1.
        2   -1    0    0  501    0  0.00000000000E+00  0.00000000000E+00 -0.67024148343E+03  0.67024148343E+03  0.25500000920E-02 0. -1.
    10030    2    1    2    0    0  0.00000000000E+00  0.00000000000E+00  0.63468430955E+02  0.14039513978E+04  0.14025160554E+04 0.  0.
        1    1    3    3  502    0 -0.40915990157E+03  0.21220241170E+03  0.56078349752E+03  0.72589242985E+03  0.50400001928E-02 0. -1.
       -1    1    3    3    0  502  0.40915990157E+03 -0.21220241170E+03 -0.49731506657E+03  0.67805896797E+03  0.50400001928E-02 0.  1.
</event>
<event>
 5   0  0.8502300E-04  0.1430365E+04  0.7818609E-02  0.8932127E-01
        1   -1    0    0  501    0  0.00000000000E+00  0.00000000000E+00  0.12399219459E+04  0.12399219459E+04  0.50400001928E-02 0. -1.
       -1   -1    0    0    0  501  0.00000000000E+00  0.00000000000E+00 -0.41251471204E+03  0.41251471207E+03  0.50400001928E-02 0.  1.
    10030    2    1    2    0    0  0.00000000000E+00  0.00000000000E+00  0.82740723389E+03  0.16524366580E+04  0.14303650506E+04 0.  0.
        4    1    3    3  502    0  0.13307864453E+03  0.69806814181E+03  0.50666667582E+03  0.87276674405E+03  0.12699999809E+01 0. -1.
       -4    1    3    3    0  502 -0.13307864453E+03 -0.69806814181E+03  0.32074055807E+03  0.77966991396E+03  0.12699999809E+01 0.  1.
</event>
<event>
 5   0  0.8502300E-04  0.1354471E+04  0.7818609E-02  0.8987450E-01
       -1   -1    0    0    0  501  0.00000000000E+00  0.00000000000E+00  0.31119947889E+03  0.31119947893E+03  0.50400001928E-02 0.  1.
        1   -1    0    0  501    0  0.00000000000E+00  0.00000000000E+00 -0.14738070950E+04  0.14738070950E+04  0.50400001928E-02 0. -1.
    10030    2    1    2    0    0  0.00000000000E+00  0.00000000000E+00 -0.11626076161E+04  0.17850065739E+04  0.13544711145E+04 0.  0.
        4    1    3    3  502    0  0.53931870615E+02 -0.37583618933E+03  0.15773963889E+03  0.41115069556E+03  0.12699999809E+01 0.  1.
       -4    1    3    3    0  502 -0.53931870615E+02  0.37583618933E+03 -0.13203472550E+04  0.13738558784E+04  0.12699999809E+01 0. -1.
</event>
<event>
 5   0  0.8609148E-04  0.1399066E+04  0.7818609E-02  0.8954495E-01
        1   -1    0    0  501    0  0.00000000000E+00  0.00000000000E+00  0.83704268276E+03  0.83704268277E+03  0.50400001928E-02 0.  1.
       -1   -1    0    0    0  501  0.00000000000E+00  0.00000000000E+00 -0.58461330582E+03  0.58461330584E+03  0.50400001928E-02 0. -1.
    10030    2    1    2    0    0  0.00000000000E+00  0.00000000000E+00  0.25242937694E+03  0.14216559886E+04  0.13990658168E+04 0.  0.
        5    1    3    3  502    0  0.22480266392E+02 -0.61791887325E+03 -0.20616794542E+03  0.65181010119E+03  0.46999998093E+01 0. -1.
       -5    1    3    3    0  502 -0.22480266392E+02  0.61791887325E+03  0.45859732236E+03  0.76984588742E+03  0.46999998093E+01 0.  1.
</event>
<event>
 5   0  0.1648213E-03  0.1376449E+04  0.7818609E-02  0.8971045E-01
       -2   -1    0    0    0  501  0.00000000000E+00  0.00000000000E+00  0.89236960435E+03  0.89236960436E+03  0.25500000920E-02 0. -1.
        2   -1    0    0  501    0  0.00000000000E+00  0.00000000000E+00 -0.53078094574E+03  0.53078094575E+03  0.25500000920E-02 0.  1.
    10030    2    1    2    0    0  0.00000000000E+00  0.00000000000E+00  0.36158865861E+03  0.14231505501E+04  0.13764487387E+04 0.  0.
        4    1    3    3  502    0  0.15351767623E+03  0.63525455145E+03  0.40383360738E+03  0.76824424333E+03  0.12699999809E+01 0. -1.
       -4    1    3    3    0  502 -0.15351767623E+03 -0.63525455145E+03 -0.42244948768E+02  0.65490630678E+03  0.12699999809E+01 0.  1.
</event>
<event>
 5   0  0.8609148E-04  0.1379788E+04  0.7818609E-02  0.8968581E-01
       -1   -1    0    0    0  501  0.00000000000E+00  0.00000000000E+00  0.33052699326E+03  0.33052699330E+03  0.50400001928E-02 0. -1.
        1   -1    0    0  501    0  0.00000000000E+00  0.00000000000E+00 -0.14399834315E+04  0.14399834315E+04  0.50400001928E-02 0.  1.
    10030    2    1    2    0    0  0.00000000000E+00  0.00000000000E+00 -0.11094564382E+04  0.17705104248E+04  0.13797875112E+04 0.  0.
        5    1    3    3  502    0 -0.48694316307E+03 -0.63587665000E+02  0.67015671981E+02  0.49565131442E+03  0.46999998093E+01 0. -1.
       -5    1    3    3    0  502  0.48694316307E+03  0.63587665000E+02 -0.11764721102E+04  0.12748591104E+04  0.46999998093E+01 0.  1.
</event>
<event>
 5   0  0.1706986E-03  0.1385819E+04  0.7818609E-02  0.8964148E-01
       -2   -1    0    0    0  501  0.00000000000E+00  0.00000000000E+00  0.39135742582E+03  0.39135742583E+03  0.25500000920E-02 0. -1.
        2   -1    0    0  501    0  0.00000000000E+00  0.00000000000E+00 -0.12268156957E+04  0.12268156957E+04  0.25500000920E-02 0.  1.
    10030    2    1    2    0    0  0.00000000000E+00  0.00000000000E+00 -0.83545826992E+03  0.16181731216E+04  0.13858187943E+04 0.  0.
        3    1    3    3  502    0  0.62484309828E+02  0.37093358955E+03  0.26175541756E+03  0.45827058127E+03  0.10100000352E+00 0. -1.
       -3    1    3    3    0  502 -0.62484309828E+02 -0.37093358955E+03 -0.10972136875E+04  0.11599025403E+04  0.10100000352E+00 0.  1.
</event>
<event>
 5   0  0.1706986E-03  0.1445965E+04  0.7818609E-02  0.8921203E-01
        2   -1    0    0  501    0  0.00000000000E+00  0.00000000000E+00  0.51124163591E+03  0.51124163592E+03  0.25500000920E-02 0. -1.
       -2   -1    0    0    0  501  0.00000000000E+00  0.00000000000E+00 -0.10224200621E+04  0.10224200621E+04  0.25500000920E-02 0.  1.
    10030    2    1    2    0    0  0.00000000000E+00  0.00000000000E+00 -0.51117842614E+03  0.15336616980E+04  0.14459650136E+04 0.  0.
        3    1    3    3  502    0 -0.48035145074E+03 -0.40605676674E+03  0.12252008981E+03  0.64080480386E+03  0.10100000352E+00 0. -1.
       -3    1    3    3    0  502  0.48035145074E+03  0.40605676674E+03 -0.63369851595E+03  0.89285689411E+03  0.10100000352E+00 0.  1.
</event>
<event>
 5   0  0.6048000E-04  0.1367554E+04  0.7818609E-02  0.8977645E-01
       -3   -1    0    0    0  501  0.00000000000E+00  0.00000000000E+00  0.72434143634E+03  0.72434144338E+03  0.10100000352E+00 0.  1.
        3   -1    0    0  501    0  0.00000000000E+00  0.00000000000E+00 -0.64548457147E+03  0.64548457937E+03  0.10100000352E+00 0. -1.
    10030    2    1    2    0    0  0.00000000000E+00  0.00000000000E+00  0.78856864875E+02  0.13698260228E+04  0.13675543600E+04 0.  0.
        1    1    3    3  502    0  0.13230163683E+03  0.70928405890E+02  0.70763225176E+03  0.72337954465E+03  0.50400001928E-02 0.  1.
       -1    1    3    3    0  502 -0.13230163683E+03 -0.70928405890E+02 -0.62877538688E+03  0.64644647810E+03  0.50400001928E-02 0. -1.
</event>
<event>
 5   0  0.8609148E-04  0.1390344E+04  0.7818609E-02  0.8960838E-01
       -1   -1    0    0    0  501  0.00000000000E+00  0.00000000000E+00  0.43564471678E+03  0.43564471681E+03  0.50400001928E-02 0. -1.
        1   -1    0    0  501    0  0.00000000000E+00  0.00000000000E+00 -0.11093084912E+04  0.11093084912E+04  0.50400001928E-02 0.  1.
    10030    2    1    2    0    0  0.00000000000E+00  0.00000000000E+00 -0.67366377440E+03  0.15449532080E+04  0.13903443940E+04 0.  0.
        5    1    3    3  502    0  0.50879012251E+03 -0.47353110434E+03 -0.35012912224E+03  0.77827475083E+03  0.46999998093E+01 0. -1.
       -5    1    3    3    0  502 -0.50879012251E+03  0.47353110434E+03 -0.32353465217E+03  0.76667845717E+03  0.46999998093E+01 0.  1.
</event>
<event>
 5   0  0.1706986E-03  0.1518665E+04  0.7818609E-02  0.8872135E-01
       -2   -1    0    0    0  501  0.00000000000E+00  0.00000000000E+00  0.24220864042E+03  0.24220864044E+03  0.25500000920E-02 0.  1.
        2   -1    0    0  501    0  0.00000000000E+00  0.00000000000E+00 -0.23805322746E+04  0.23805322746E+04  0.25500000920E-02 0. -1.
    10030    2    1    2    0    0  0.00000000000E+00  0.00000000000E+00 -0.21383236342E+04  0.26227409151E+04  0.15186645261E+04 0.  0.
        3    1    3    3  502    0  0.30067268258E+03 -0.27029663669E+02 -0.22724403207E+04  0.22924047824E+04  0.10100000352E+00 0. -1.
       -3    1    3    3    0  502 -0.30067268258E+03  0.27029663669E+02  0.13411668651E+03  0.33033613270E+03  0.10100000352E+00 0.  1.
</event>
<event>
 5   0  0.6048000E-04  0.1405860E+04  0.7818609E-02  0.8949588E-01
       -3   -1    0    0    0  501  0.00000000000E+00  0.00000000000E+00  0.33965895362E+03  0.33965896863E+03  0.10100000352E+00 0.  1.
        3   -1    0    0  501    0  0.00000000000E+00  0.00000000000E+00 -0.14547252228E+04  0.14547252263E+04  0.10100000352E+00 0. -1.
    10030    2    1    2    0    0  0.00000000000E+00  0.00000000000E+00 -0.11150662692E+04  0.17943841950E+04  0.14058598274E+04 0.  0.
        5    1    3    3  502    0  0.38891530210E+02  0.64443209126E+03 -0.20270692855E+03  0.67669598806E+03  0.46999998093E+01 0.  1.
       -5    1    3    3    0  502 -0.38891530210E+02 -0.64443209126E+03 -0.91235934064E+03  0.11176882069E+04  0.46999998093E+01 0. -1.
</event>
<event>
 5   0  0.1578965E-03  0.1639921E+04  0.7818609E-02  0.8796392E-01
        2   -1    0    0  501    0  0.00000000000E+00  0.00000000000E+00  0.70160796600E+03  0.70160796600E+03  0.25500000920E-02 0. -1.
       -2   -1    0    0    0  501  0.00000000000E+00  0.00000000000E+00 -0.95827738947E+03  0.95827738947E+03  0.25500000920E-02 0.  1.
    10030    2    1    2    0    0  0.00000000000E+00  0.00000000000E+00 -0.25666942347E+03  0.16598853555E+04  0.16399207909E+04 0.  0.
        2    1    3    3  502    0  0.42512531871E+02  0.44671496659E+03  0.56629514285E+03  0.72253149797E+03  0.25500000920E-02 0. -1.
       -2    1    3    3    0  502 -0.42512531871E+02 -0.44671496659E+03 -0.82296456632E+03  0.93735385750E+03  0.25500000920E-02 0.  1.
</event>
<event>
 5   0  0.1648463E-03  0.1405441E+04  0.7818609E-02  0.8949889E-01
        2   -1    0    0  501    0  0.00000000000E+00  0.00000000000E+00  0.95713253513E+03  0.95713253513E+03  0.25500000920E-02 0.  1.
       -2   -1    0    0    0  501  0.00000000000E+00  0.00000000000E+00 -0.51593311133E+03  0.51593311134E+03  0.25500000920E-02 0. -1.
    10030    2    1    2    0    0  0.00000000000E+00  0.00000000000E+00  0.44119942380E+03  0.14730656465E+04  0.14054413781E+04 0.  0.
        1    1    3    3  502    0  0.42340225060E+02  0.37952937204E+03 -0.39768315427E+03  0.55135027896E+03  0.50400001928E-02 0. -1.
       -1    1    3    3    0  502 -0.42340225060E+02 -0.37952937204E+03  0.83888257806E+03  0.92171536751E+03  0.50400001928E-02 0.  1.
</event>
<event>
 5   0  0.9639548E-04  0.1421633E+04  0.7818609E-02  0.8938306E-01
       -1   -1    0    0    0  501  0.00000000000E+00  0.00000000000E+00  0.43350727696E+03  0.43350727699E+03  0.50400001928E-02 0.  1.
        1   -1    0    0  501    0  0.00000000000E+00  0.00000000000E+00 -0.11655175057E+04  0.11655175057E+04  0.50400001928E-02 0. -1.
    10030    2    1    2    0    0  0.00000000000E+00  0.00000000000E+00 -0.73201022877E+03  0.15990247827E+04  0.14216333145E+04 0.  0.
        1    1    3    3  502    0 -0.26648202534E+03 -0.10039569762E+03 -0.10985542070E+04  0.11348626840E+04  0.50400001928E-02 0. -1.
       -1    1    3    3    0  502  0.26648202534E+03  0.10039569762E+03  0.36654397818E+03  0.46416209873E+03  0.50400001928E-02 0.  1.
</event>
<event>
 5   0  0.1648213E-03  0.1395492E+04  0.7818609E-02  0.8957088E-01
       -2   -1    0    0    0  501  0.00000000000E+00  0.00000000000E+00  0.12058992357E+04  0.12058992357E+04  0.25500000920E-02 0.  1.
        2   -1    0    0  501    0  0.00000000000E+00  0.00000000000E+00 -0.40372292014E+03  0.40372292015E+03  0.25500000920E-02 0. -1.
    10030    2    1    2    0    0  0.00000000000E+00  0.00000000000E+00  0.80217631560E+03  0.16096221559E+04  0.13954915419E+04 0.  0.
        4    1    3    3  502    0  0.27827568219E+03  0.33951963694E+03  0.10266514740E+04  0.11165687624E+04  0.12699999809E+01 0.  1.
       -4    1    3    3    0  502 -0.27827568219E+03 -0.33951963694E+03 -0.22447515843E+03  0.49305339348E+03  0.12699999809E+01 0. -1.
</event>
<event>
 5   0  0.1648213E-03  0.1413181E+04  0.7818609E-02  0.8944332E-01
       -2   -1    0    0    0  501  0.00000000000E+00  0.00000000000E+00  0.66268312566E+03  0.66268312567E+03  0.25500000920E-02 0.  1.
        2   -1    0    0  501    0  0.00000000000E+00  0.00000000000E+00 -0.75340739692E+03  0.75340739692E+03  0.25500000920E-02 0. -1.
    10030    2    1    2    0    0  0.00000000000E+00  0.00000000000E+00 -0.90724271256E+02  0.14160905226E+04  0.14131813312E+04 0.  0.
        4    1    3    3  502    0  0.68408718040E+03  0.14437747083E+02 -0.22203458010E+03  0.71936408486E+03  0.12699999809E+01 0. -1.
       -4    1    3    3    0  502 -0.68408718040E+03 -0.14437747083E+02  0.13131030884E+03  0.69672643773E+03  0.12699999809E+01 0.  1.
</event>
<event>
 5   0  0.1605214E-03  0.1404758E+04  0.7818609E-02  0.8950382E-01
        2   -1    0    0  501    0  0.00000000000E+00  0.00000000000E+00  0.55280908908E+03  0.55280908908E+03  0.25500000920E-02 0. -1.
       -2   -1    0    0    0  501  0.00000000000E+00  0.00000000000E+00 -0.89241700315E+03  0.89241700315E+03  0.25500000920E-02 0.  1.
    10030    2    1    2    0    0  0.00000000000E+00  0.00000000000E+00 -0.33960791407E+03  0.14452260922E+04  0.14047579586E+04 0.  0.
        5    1    3    3  502    0 -0.53035806467E+03  0.39226354668E+03  0.78315362134E+02  0.66430847711E+03  0.46999998093E+01 0. -1.
       -5    1    3    3    0  502  0.53035806467E+03 -0.39226354668E+03 -0.41792327621E+03  0.78091761512E+03  0.46999998093E+01 0.  1.
</event>
<event>
 5   0  0.8502300E-04  0.1396493E+04  0.7818609E-02  0.8956361E-01
        1   -1    0    0  501    0  0.00000000000E+00  0.00000000000E+00  0.17422821134E+04  0.17422821134E+04  0.50400001928E-02 0. -1.
       -1   -1    0    0    0  501  0.00000000000E+00  0.00000000000E+00 -0.27983314533E+03  0.27983314538E+03  0.50400001928E-02 0.  1.
    10030    2    1    2    0    0  0.00000000000E+00  0.00000000000E+00  0.14624489680E+04  0.20221152587E+04  0.13964931563E+04 0.  0.
        4    1    3    3  502    0 -0.37478727722E+03  0.35729555609E+03  0.14095001594E+04  0.15016051178E+04  0.12699999809E+01 0. -1.
       -4    1    3    3    0  502  0.37478727722E+03 -0.35729555609E+03  0.52948808609E+02  0.52051014092E+03  0.12699999809E+01 0.  1.
</event>
<event>
 5   0  0.9007180E-04  0.1397618E+04  0.7818609E-02  0.8955545E-01
        1   -1    0    0  501    0  0.00000000000E+00  0.00000000000E+00  0.44676564015E+03  0.44676564018E+03  0.50400001928E-02 0.  1.
       -1   -1    0    0    0  501  0.00000000000E+00  0.00000000000E+00 -0.10930426361E+04  0.10930426361E+04  0.50400001928E-02 0. -1.
    10030    2    1    2    0    0  0.00000000000E+00  0.00000000000E+00 -0.64627699595E+03  0.15398082763E+04  0.13976178205E+04 0.  0.
        2    1    3    3  502    0  0.11088712765E+03 -0.19828218748E+03 -0.10512213639E+04  0.10754897196E+04  0.25500000920E-02 0. -1.
       -2    1    3    3    0  502 -0.11088712765E+03  0.19828218748E+03  0.40494436797E+03  0.46431855671E+03  0.25500000920E-02 0.  1.
</event>
<event>
 5   0  0.1706986E-03  0.1414742E+04  0.7818609E-02  0.8943216E-01
       -2   -1    0    0    0  501  0.00000000000E+00  0.00000000000E+00  0.61050433745E+03  0.61050433745E+03  0.25500000920E-02 0. -1.
        2   -1    0    0  501    0  0.00000000000E+00  0.00000000000E+00 -0.81960714803E+03  0.81960714804E+03  0.25500000920E-02 0.  1.
    10030    2    1    2    0    0  0.00000000000E+00  0.00000000000E+00 -0.20910281058E+03  0.14301114855E+04  0.14147419820E+04 0.  0.
        3    1    3    3  502    0 -0.47850212658E+03  0.56180538845E+02 -0.62810974907E+03  0.79160748175E+03  0.10100000352E+00 0.  1.
       -3    1    3    3    0  502  0.47850212658E+03 -0.56180538845E+02  0.41900693849E+03  0.63850400374E+03  0.10100000352E+00 0. -1.
</event>
<event>
 5   0  0.1648213E-03  0.1374755E+04  0.7818609E-02  0.8972297E-01
        2   -1    0    0  501    0  0.00000000000E+00  0.00000000000E+00  0.35554120063E+03  0.35554120064E+03  0.25500000920E-02 0.  1.
       -2   -1    0    0    0  501  0.00000000000E+00  0.00000000000E+00 -0.13289265452E+04  0.13289265452E+04  0.25500000920E-02 0. -1.
    10030    2    1    2    0    0  0.00000000000E+00  0.00000000000E+00 -0.97338534461E+03  0.16844677459E+04  0.13747554538E+04 0.  0.
        4    1    3    3  502    0 -0.18939956216E+03  0.10128842538E+03 -0.12867533432E+04  0.13045563684E+04  0.12699999809E+01 0. -1.
       -4    1    3    3    0  502  0.18939956216E+03 -0.10128842538E+03  0.31336799861E+03  0.37991137744E+03  0.12699999809E+01 0.  1.
</event>
<event>
 5   0  0.1648213E-03  0.1390053E+04  0.7818609E-02  0.8961050E-01
       -2   -1    0    0    0  501  0.00000000000E+00  0.00000000000E+00  0.11669206524E+04  0.11669206524E+04  0.25500000920E-02 0.  1.
        2   -1    0    0  501    0  0.00000000000E+00  0.00000000000E+00 -0.41396290619E+03  0.41396290620E+03  0.25500000920E-02 0. -1.
    10030    2    1    2    0    0  0.00000000000E+00  0.00000000000E+00  0.75295774626E+03  0.15808835586E+04  0.13900530416E+04 0.  0.
        4    1    3    3  502    0 -0.12872869775E+03  0.46599562977E+03  0.94436608696E+03  0.10609203192E+04  0.12699999809E+01 0.  1.
       -4    1    3    3    0  502  0.12872869775E+03 -0.46599562977E+03 -0.19140834070E+03  0.51996323945E+03  0.12699999809E+01 0. -1.
</event>
<event>
 5   0  0.8673728E-04  0.1406753E+04  0.7818609E-02  0.8948945E-01
       -1   -1    0    0    0  501  0.00000000000E+00  0.00000000000E+00  0.43412127590E+03  0.43412127593E+03  0.50400001928E-02 0. -1.
        1   -1    0    0  501    0  0.00000000000E+00  0.00000000000E+00 -0.11396326970E+04  0.11396326971E+04  0.50400001928E-02 0.  1.
    10030    2    1    2    0    0  0.00000000000E+00  0.00000000000E+00 -0.70551142114E+03  0.15737539730E+04  0.14067534262E+04 0.  0.
        3    1    3    3  502    0  0.29792535482E+03  0.57187059681E+03 -0.38432480106E+02  0.64596637859E+03  0.10100000352E+00 0. -1.
       -3    1    3    3    0  502 -0.29792535482E+03 -0.57187059681E+03 -0.66707894104E+03  0.92778759440E+03  0.10100000352E+00 0.  1.
</event>
<event>
 5   0  0.9639548E-04  0.1455170E+04  0.7818609E-02  0.8914824E-01
       -1   -1    0    0    0  501  0.00000000000E+00  0.00000000000E+00  0.30433399073E+03  0.30433399077E+03  0.50400001928E-02 0. -1.
        1   -1    0    0  501    0  0.00000000000E+00  0.00000000000E+00 -0.17394707296E+04  0.17394707296E+04  0.50400001928E-02 0.  1.
    10030    2    1    2    0    0  0.00000000000E+00  0.00000000000E+00 -0.14351367388E+04  0.20438047203E+04  0.14551701879E+04 0.  0.
        1    1    3    3  502    0 -0.72214024994E+03  0.48824584242E+02 -0.61331523438E+03  0.94869697868E+03  0.50400001928E-02 0. -1.
       -1    1    3    3    0  502  0.72214024994E+03 -0.48824584242E+02 -0.82182150446E+03  0.10951077417E+04  0.50400001928E-02 0.  1.
</event>
<event>
 5   0  0.8502300E-04  0.1442791E+04  0.7818609E-02  0.8923414E-01
       -1   -1    0    0    0  501  0.00000000000E+00  0.00000000000E+00  0.67625443455E+03  0.67625443457E+03  0.50400001928E-02 0. -1.
        1   -1    0    0  501    0  0.00000000000E+00  0.00000000000E+00 -0.76954987095E+03  0.76954987097E+03  0.50400001928E-02 0.  1.
    10030    2    1    2    0    0  0.00000000000E+00  0.00000000000E+00 -0.93295436400E+02  0.14458043055E+04  0.14427910630E+04 0.  0.
        4    1    3    3  502    0 -0.10668147646E+03 -0.33003450671E+02 -0.76083508567E+03  0.76898751983E+03  0.12699999809E+01 0.  1.
       -4    1    3    3    0  502  0.10668147646E+03  0.33003450671E+02  0.66753964927E+03  0.67681678571E+03  0.12699999809E+01 0. -1.
</event>
<event>
 5   0  0.1648463E-03  0.1381110E+04  0.7818609E-02  0.8967606E-01
        2   -1    0    0  501    0  0.00000000000E+00  0.00000000000E+00  0.25177910604E+04  0.25177910604E+04  0.25500000920E-02 0.  1.
       -2   -1    0    0    0  501  0.00000000000E+00  0.00000000000E+00 -0.18939875140E+03  0.18939875142E+03  0.25500000920E-02 0. -1.
    10030    2    1    2    0    0  0.00000000000E+00  0.00000000000E+00  0.23283923090E+04  0.27071898118E+04  0.13811103984E+04 0.  0.
        1    1    3    3  502    0 -0.29122695970E+03 -0.60064423016E+03  0.15108712482E+04  0.16517622595E+04  0.50400001928E-02 0.  1.
       -1    1    3    3    0  502  0.29122695970E+03  0.60064423016E+03  0.81752106079E+03  0.10554275523E+04  0.50400001928E-02 0. -1.
</event>
<event>
 5   0  0.1648213E-03  0.1413961E+04  0.7818609E-02  0.8943774E-01
        2   -1    0    0  501    0  0.00000000000E+00  0.00000000000E+00  0.12045014302E+04  0.12045014302E+04  0.25500000920E-02 0.  1.
       -2   -1    0    0    0  501  0.00000000000E+00  0.00000000000E+00 -0.41496138256E+03  0.41496138257E+03  0.25500000920E-02 0. -1.
    10030    2    1    2    0    0  0.00000000000E+00  0.00000000000E+00  0.78954004764E+03  0.16194628128E+04  0.14139612141E+04 0.  0.
        4    1    3    3  502    0  0.27472150105E+03  0.35546914925E+03  0.10199918689E+04  0.11145471029E+04  0.12699999809E+01 0.  1.
       -4    1    3    3    0  502 -0.27472150105E+03 -0.35546914925E+03 -0.23045182124E+03  0.50491570982E+03  0.12699999809E+01 0. -1.
</event>
<event>
 5   0  0.8609148E-04  0.1375734E+04  0.7818609E-02  0.8971573E-01
        1   -1    0    0  501    0  0.00000000000E+00  0.00000000000E+00  0.81919541048E+03  0.81919541050E+03  0.50400001928E-02 0.  1.
       -1   -1    0    0    0  501  0.00000000000E+00  0.00000000000E+00 -0.57759221777E+03  0.57759221779E+03  0.50400001928E-02 0. -1.
    10030    2    1    2    0    0  0.00000000000E+00  0.00000000000E+00  0.24160319271E+03  0.13967876283E+04  0.13757338317E+04 0.  0.
        5    1    3    3  502    0 -0.68283698802E+03 -0.80253820497E+02  0.99704376156E+02  0.69474461533E+03  0.46999998093E+01 0. -1.
       -5    1    3    3    0  502  0.68283698802E+03  0.80253820497E+02  0.14189881656E+03  0.70204301296E+03  0.46999998093E+01 0.  1.
</event>
<event>
 5   0  0.1648463E-03  0.1409754E+04  0.7818609E-02  0.8946788E-01
       -2   -1    0    0    0  501  0.00000000000E+00  0.00000000000E+00  0.12285448658E+04  0.12285448658E+04  0.25500000920E-02 0.  1.
        2   -1    0    0  501    0  0.00000000000E+00  0.00000000000E+00 -0.40442292381E+03  0.40442292382E+03  0.25500000920E-02 0. -1.
    10030    2    1    2    0    0  0.00000000000E+00  0.00000000000E+00  0.82412194196E+03  0.16329677896E+04  0.14097541724E+04 0.  0.
        1    1    3    3  502    0 -0.46531755492E+03 -0.50391302346E+03  0.60027864892E+03  0.91147310355E+03  0.50400001928E-02 0.  1.
       -1    1    3    3    0  502  0.46531755492E+03  0.50391302346E+03  0.22384329304E+03  0.72149468604E+03  0.50400001928E-02 0. -1.
</event>
<event>
 5   0  0.8673728E-04  0.1428288E+04  0.7818609E-02  0.8933593E-01
        1   -1    0    0  501    0  0.00000000000E+00  0.00000000000E+00  0.66462830394E+03  0.66462830396E+03  0.50400001928E-02 0. -1.
       -1   -1    0    0    0  501  0.00000000000E+00  0.00000000000E+00 -0.76734863186E+03  0.76734863188E+03  0.50400001928E-02 0.  1.
    10030    2    1    2    0    0  0.00000000000E+00  0.00000000000E+00 -0.10272032792E+03  0.14319769358E+04  0.14282879538E+04 0.  0.
        3    1    3    3  502    0  0.33937564517E+03  0.47428720595E+03  0.36186626226E+03  0.68634640250E+03  0.10100000352E+00 0. -1.
       -3    1    3    3    0  502 -0.33937564517E+03 -0.47428720595E+03 -0.46458659018E+03  0.74563053334E+03  0.10100000352E+00 0.  1.
</event>
<event>
 5   0  0.6048000E-04  0.1381517E+04  0.7818609E-02  0.8967307E-01
       -3   -1    0    0    0  501  0.00000000000E+00  0.00000000000E+00  0.86476937240E+03  0.86476937830E+03  0.10100000352E+00 0.  1.
        3   -1    0    0  501    0  0.00000000000E+00  0.00000000000E+00 -0.55176266065E+03  0.55176266989E+03  0.10100000352E+00 0. -1.
    10030    2    1    2    0    0  0.00000000000E+00  0.00000000000E+00  0.31300671175E+03  0.14165320482E+04  0.13815172246E+04 0.  0.
        2    1    3    3  502    0 -0.50965113060E+03  0.16246664801E+03  0.60462469189E+03  0.80728601170E+03  0.25500000920E-02 0. -1.
       -2    1    3    3    0  502  0.50965113060E+03 -0.16246664801E+03 -0.29161798014E+03  0.60924603649E+03  0.25500000920E-02 0.  1.
</event>
<event>
 5   0  0.8609148E-04  0.1376717E+04  0.7818609E-02  0.8970847E-01
        1   -1    0    0  501    0  0.00000000000E+00  0.00000000000E+00  0.92515383843E+03  0.92515383845E+03  0.50400001928E-02 0. -1.
       -1   -1    0    0    0  501  0.00000000000E+00  0.00000000000E+00 -0.51217121460E+03  0.51217121463E+03  0.50400001928E-02 0.  1.
    10030    2    1    2    0    0  0.00000000000E+00  0.00000000000E+00  0.41298262383E+03  0.14373250531E+04  0.13767166232E+04 0.  0.
        5    1    3    3  502    0  0.13317195032E+03 -0.43881451828E+03  0.74243477902E+03  0.87265367753E+03  0.46999998093E+01 0. -1.
       -5    1    3    3    0  502 -0.13317195032E+03  0.43881451828E+03 -0.32945215519E+03  0.56467137555E+03  0.46999998093E+01 0.  1.
</event>
<event>
 5   0  0.6048000E-04  0.1409393E+04  0.7818609E-02  0.8947047E-01
        4   -1    0    0  501    0  0.00000000000E+00  0.00000000000E+00  0.34754916876E+03  0.34755148915E+03  0.12699999809E+01 0.  1.
       -4   -1    0    0    0  501  0.00000000000E+00  0.00000000000E+00 -0.14288466881E+04  0.14288472525E+04  0.12699999809E+01 0. -1.
    10030    2    1    2    0    0  0.00000000000E+00  0.00000000000E+00 -0.10812975193E+04  0.17763987417E+04  0.14093928352E+04 0.  0.
        3    1    3    3  502    0  0.45121180983E+03  0.52621118428E+03 -0.70060897960E+03  0.98556748134E+03  0.10100000352E+00 0. -1.
       -3    1    3    3    0  502 -0.45121180983E+03 -0.52621118428E+03 -0.38068853974E+03  0.79083126031E+03  0.10100000352E+00 0.  1.
</event>
<event>
 5   0  0.1605214E-03  0.1399943E+04  0.7818609E-02  0.8953860E-01
        2   -1    0    0  501    0  0.00000000000E+00  0.00000000000E+00  0.40702787654E+03  0.40702787655E+03  0.25500000920E-02 0.  1.
       -2   -1    0    0    0  501  0.00000000000E+00  0.00000000000E+00 -0.12037506964E+04  0.12037506964E+04  0.25500000920E-02 0. -1.
    10030    2    1    2    0    0  0.00000000000E+00  0.00000000000E+00 -0.79672281989E+03  0.16107785730E+04  0.13999429844E+04 0.  0.
        5    1    3    3  502    0  0.10308218972E+03 -0.30729353627E+03 -0.11121830599E+04  0.11584595392E+04  0.46999998093E+01 0. -1.
       -5    1    3    3    0  502 -0.10308218972E+03  0.30729353627E+03  0.31546024002E+03  0.45231903376E+03  0.46999998093E+01 0.  1.
</event>
<event>
 5   0  0.1648213E-03  0.1399539E+04  0.7818609E-02  0.8954152E-01
       -2   -1    0    0    0  501  0.00000000000E+00  0.00000000000E+00  0.25620205976E+03  0.25620205978E+03  0.25500000920E-02 0.  1.
        2   -1    0    0  501    0  0.00000000000E+00  0.00000000000E+00 -0.19112933240E+04  0.19112933240E+04  0.25500000920E-02 0. -1.
    10030    2    1    2    0    0  0.00000000000E+00  0.00000000000E+00 -0.16550912643E+04  0.21674953838E+04  0.13995389047E+04 0.  0.
        4    1    3    3  502    0  0.28401775455E+03  0.38974119576E+03 -0.42248768600E+02  0.48409798174E+03  0.12699999809E+01 0.  1.
       -4    1    3    3    0  502 -0.28401775455E+03 -0.38974119576E+03 -0.16128424957E+04  0.16833974021E+04  0.12699999809E+01 0. -1.
</event>
<event>
 5   0  0.9639548E-04  0.1386189E+04  0.7818609E-02  0.8963877E-01
        1   -1    0    0  501    0  0.00000000000E+00  0.00000000000E+00  0.77868218993E+03  0.77868218994E+03  0.50400001928E-02 0.  1.
       -1   -1    0    0    0  501  0.00000000000E+00  0.00000000000E+00 -0.61691430676E+03  0.61691430678E+03  0.50400001928E-02 0. -1.
    10030    2    1    2    0    0  0.00000000000E+00  0.00000000000E+00  0.16176788317E+03  0.13955964967E+04  0.13861892849E+04 0.  0.
        1    1    3    3  502    0 -0.57932820727E+03  0.28797970541E+03  0.33122112963E+03  0.72681560193E+03  0.50400001928E-02 0. -1.
       -1    1    3    3    0  502  0.57932820727E+03 -0.28797970541E+03 -0.16945324646E+03  0.66878089479E+03  0.50400001928E-02 0.  1.
</event>
<event>
 5   0  0.1605214E-03  0.1380742E+04  0.7818609E-02  0.8967878E-01
        2   -1    0    0  501    0  0.00000000000E+00  0.00000000000E+00  0.20424689850E+04  0.20424689850E+04  0.25500000920E-02 0. -1.
       -2   -1    0    0    0  501  0.00000000000E+00  0.00000000000E+00 -0.23335086251E+03  0.23335086253E+03  0.25500000920E-02 0.  1.
    10030    2    1    2    0    0  0.00000000000E+00  0.00000000000E+00  0.18091181225E+04  0.22758198475E+04  0.13807416838E+04 0.  0.
        5    1    3    3  502    0 -0.60339144489E+03  0.30405375902E+03  0.67111132552E+03  0.95233524842E+03  0.46999998093E+01 0.  1.
       -5    1    3    3    0  502  0.60339144489E+03 -0.30405375902E+03  0.11380067970E+04  0.13234845991E+04  0.46999998093E+01 0. -1.
</event>
<event>
 5   0  0.8609148E-04  0.1379291E+04  0.7818609E-02  0.8968947E-01
       -1   -1    0    0    0  501  0.00000000000E+00  0.00000000000E+00  0.39961859298E+03  0.39961859301E+03  0.50400001928E-02 0.  1.
        1   -1    0    0  501    0  0.00000000000E+00  0.00000000000E+00 -0.11901623736E+04  0.11901623736E+04  0.50400001928E-02 0. -1.
    10030    2    1    2    0    0  0.00000000000E+00  0.00000000000E+00 -0.79054378060E+03  0.15897809666E+04  0.13792911414E+04 0.  0.
        5    1    3    3  502    0  0.34672298257E+03  0.13809522820E+02 -0.10821923465E+04  0.11364725665E+04  0.46999998093E+01 0. -1.
       -5    1    3    3    0  502 -0.34672298257E+03 -0.13809522820E+02  0.29164856594E+03  0.45330840007E+03  0.46999998093E+01 0.  1.
</event>
<event>
 5   0  0.1706986E-03  0.1393244E+04  0.7818609E-02  0.8958723E-01
        2   -1    0    0  501    0  0.00000000000E+00  0.00000000000E+00  0.88490961668E+03  0.88490961668E+03  0.25500000920E-02 0.  1.
       -2   -1    0    0    0  501  0.00000000000E+00  0.00000000000E+00 -0.54839750577E+03  0.54839750578E+03  0.25500000920E-02 0. -1.
    10030    2    1    2    0    0  0.00000000000E+00  0.00000000000E+00  0.33651211090E+03  0.14333071225E+04  0.13932440226E+04 0.  0.
        3    1    3    3  502    0  0.13681373256E+03 -0.27643672389E+03 -0.47432243253E+03  0.56578886515E+03  0.10100000352E+00 0. -1.
       -3    1    3    3    0  502 -0.13681373256E+03  0.27643672389E+03  0.81083454343E+03  0.86751825730E+03  0.10100000352E+00 0.  1.
</event>
<event>
 5   0  0.1605214E-03  0.1378082E+04  0.7818609E-02  0.8969838E-01
        2   -1    0    0  501    0  0.00000000000E+00  0.00000000000E+00  0.10328372569E+04  0.10328372569E+04  0.25500000920E-02 0.  1.
       -2   -1    0    0    0  501  0.00000000000E+00  0.00000000000E+00 -0.45968298728E+03  0.45968298729E+03  0.25500000920E-02 0. -1.
    10030    2    1    2    0    0  0.00000000000E+00  0.00000000000E+00  0.57315426962E+03  0.14925202442E+04  0.13780823134E+04 0.  0.
        5    1    3    3  502    0 -0.24426722495E+03  0.13805318639E+03 -0.39499114487E+03  0.48452580322E+03  0.46999998093E+01 0. -1.
       -5    1    3    3    0  502  0.24426722495E+03 -0.13805318639E+03  0.96814541449E+03  0.10079944410E+04  0.46999998093E+01 0.  1.
</event>
<event>
 5   0  0.8502300E-04  0.1389110E+04  0.7818609E-02  0.8961739E-01
        1   -1    0    0  501    0  0.00000000000E+00  0.00000000000E+00  0.14684446656E+04  0.14684446656E+04  0.50400001928E-02 0.  1.
       -1   -1    0    0    0  501  0.00000000000E+00  0.00000000000E+00 -0.32851533255E+03  0.32851533259E+03  0.50400001928E-02 0. -1.
    10030    2    1    2    0    0  0.00000000000E+00  0.00000000000E+00  0.11399293331E+04  0.17969599982E+04  0.13891099132E+04 0.  0.
        4    1    3    3  502    0 -0.23241103711E+02  0.72681061618E+02  0.14630043306E+04  0.14649935051E+04  0.12699999809E+01 0.  1.
       -4    1    3    3    0  502  0.23241103711E+02 -0.72681061618E+02 -0.32307499755E+03  0.33196649314E+03  0.12699999809E+01 0. -1.
</event>
<event>
 5   0  0.1706986E-03  0.1290318E+04  0.7818609E-02  0.9037278E-01
        2   -1    0    0  501    0  0.00000000000E+00  0.00000000000E+00  0.96498709169E+03  0.96498709169E+03  0.25500000920E-02 0.  1.
       -2   -1    0    0    0  501  0.00000000000E+00  0.00000000000E+00 -0.43133259796E+03  0.43133259797E+03  0.25500000920E-02 0. -1.
    10030    2    1    2    0    0  0.00000000000E+00  0.00000000000E+00  0.53365449373E+03  0.13963196897E+04  0.12903183937E+04 0.  0.
        3    1    3    3  502    0 -0.13944250002E+03 -0.35934592619E+03 -0.29302962338E+03  0.48419012367E+03  0.10100000352E+00 0. -1.
       -3    1    3    3    0  502  0.13944250002E+03  0.35934592619E+03  0.82668411710E+03  0.91212956599E+03  0.10100000352E+00 0.  1.
</event>
<event>
 5   0  0.1578965E-03  0.1404065E+04  0.7818609E-02  0.8950882E-01
       -2   -1    0    0    0  501  0.00000000000E+00  0.00000000000E+00  0.24516335299E+03  0.24516335301E+03  0.25500000920E-02 0. -1.
        2   -1    0    0  501    0  0.00000000000E+00  0.00000000000E+00 -0.20102898937E+04  0.20102898937E+04  0.25500000920E-02 0.  1.
    10030    2    1    2    0    0  0.00000000000E+00  0.00000000000E+00 -0.17651265407E+04  0.22554532467E+04  0.14040646863E+04 0.  0.
        2    1    3    3  502    0 -0.63925640999E+03 -0.28861923208E+02 -0.41874754094E+03  0.76474261773E+03  0.25500000920E-02 0. -1.
       -2    1    3    3    0  502  0.63925640999E+03  0.28861923208E+02 -0.13463789997E+04  0.14907106289E+04  0.25500000920E-02 0.  1.
</event>
<event>
 5   0  0.1648213E-03  0.1417476E+04  0.7818609E-02  0.8941265E-01
       -2   -1    0    0    0  501  0.00000000000E+00  0.00000000000E+00  0.49374341896E+03  0.49374341897E+03  0.25500000920E-02 0. -1.
        2   -1    0    0  501    0  0.00000000000E+00  0.00000000000E+00 -0.10173491614E+04  0.10173491614E+04  0.25500000920E-02 0.  1.
    10030    2    1    2    0    0  0.00000000000E+00  0.00000000000E+00 -0.52360574246E+03  0.15110925804E+04  0.14174758598E+04 0.  0.
        4    1    3    3  502    0 -0.37332536624E+03 -0.12475277102E+03  0.36650612747E+03  0.53783216465E+03  0.12699999809E+01 0. -1.
       -4    1    3    3    0  502  0.37332536624E+03  0.12475277102E+03 -0.89011186993E+03  0.97326041574E+03  0.12699999809E+01 0.  1.
</event>
<event>
 5   0  0.1605214E-03  0.1401343E+04  0.7818609E-02  0.8952847E-01
       -2   -1    0    0    0  501  0.00000000000E+00  0.00000000000E+00  0.41466102204E+03  0.41466102205E+03  0.25500000920E-02 0. -1.
        2   -1    0    0  501    0  0.00000000000E+00  0.00000000000E+00 -0.11839563772E+04  0.11839563772E+04  0.25500000920E-02 0.  1.
    10030    2    1    2    0    0  0.00000000000E+00  0.00000000000E+00 -0.76929535518E+03  0.15986173993E+04  0.14013430150E+04 0.  0.
        5    1    3    3  502    0 -0.69490683618E+03  0.26292983703E+02 -0.48232654897E+03  0.84631425711E+03  0.46999998093E+01 0.  1.
       -5    1    3    3    0  502  0.69490683618E+03 -0.26292983703E+02 -0.28696880622E+03  0.75230314216E+03  0.46999998093E+01 0. -1.
</event>
<event>
 5   0  0.1648463E-03  0.1325848E+04  0.7818609E-02  0.9009315E-01
       -2   -1    0    0    0  501  0.00000000000E+00  0.00000000000E+00  0.66533213534E+03  0.66533213534E+03  0.25500000920E-02 0. -1.
        2   -1    0    0  501    0  0.00000000000E+00  0.00000000000E+00 -0.66052433046E+03  0.66052433047E+03  0.25500000920E-02 0.  1.
    10030    2    1    2    0    0  0.00000000000E+00  0.00000000000E+00  0.48078048776E+01  0.13258564658E+04  0.13258477488E+04 0.  0.
        1    1    3    3  502    0  0.21053340916E+02  0.65548925601E+03 -0.94336876775E+02  0.66257743265E+03  0.50400001928E-02 0. -1.
       -1    1    3    3    0  502 -0.21053340916E+02 -0.65548925601E+03  0.99144681652E+02  0.66327903316E+03  0.50400001928E-02 0.  1.
</event>
<event>
 5   0  0.1648463E-03  0.1411638E+04  0.7818609E-02  0.8945437E-01
       -2   -1    0    0    0  501  0.00000000000E+00  0.00000000000E+00  0.70825634707E+03  0.70825634708E+03  0.25500000920E-02 0.  1.
        2   -1    0    0  501    0  0.00000000000E+00  0.00000000000E+00 -0.70338994692E+03  0.70338994692E+03  0.25500000920E-02 0. -1.
    10030    2    1    2    0    0  0.00000000000E+00  0.00000000000E+00  0.48664001520E+01  0.14116462940E+04  0.14116379059E+04 0.  0.
        1    1    3    3  502    0 -0.15414399681E+03 -0.31760222595E+03 -0.60875685874E+03  0.70371617771E+03  0.50400001928E-02 0. -1.
       -1    1    3    3    0  502  0.15414399681E+03  0.31760222595E+03  0.61362325889E+03  0.70793011629E+03  0.50400001928E-02 0.  1.
</event>
<event>
 5   0  0.9639548E-04  0.1397458E+04  0.7818609E-02  0.8955660E-01
       -1   -1    0    0    0  501  0.00000000000E+00  0.00000000000E+00  0.66237304890E+03  0.66237304892E+03  0.50400001928E-02 0.  1.
        1   -1    0    0  501    0  0.00000000000E+00  0.00000000000E+00 -0.73708066597E+03  0.73708066599E+03  0.50400001928E-02 0. -1.
    10030    2    1    2    0    0  0.00000000000E+00  0.00000000000E+00 -0.74707617069E+02  0.13994537149E+04  0.13974582184E+04 0.  0.
        1    1    3    3  502    0 -0.15509234282E+03 -0.63681955097E+03 -0.27983504940E+03  0.71267133393E+03  0.50400001928E-02 0.  1.
       -1    1    3    3    0  502  0.15509234282E+03  0.63681955097E+03  0.20512743233E+03  0.68678238098E+03  0.50400001928E-02 0. -1.
</event>
<event>
 5   0  0.9007180E-04  0.1419649E+04  0.7818609E-02  0.8939717E-01
        1   -1    0    0  501    0  0.00000000000E+00  0.00000000000E+00  0.15346294366E+04  0.15346294366E+04  0.50400001928E-02 0.  1.
       -1   -1    0    0    0  501  0.00000000000E+00  0.00000000000E+00 -0.32832088039E+03  0.32832088043E+03  0.50400001928E-02 0. -1.
    10030    2    1    2    0    0  0.00000000000E+00  0.00000000000E+00  0.12063085562E+04  0.18629503171E+04  0.14196490943E+04 0.  0.
        2    1    3    3  502    0 -0.25498066277E+03 -0.56491570742E+03  0.14913090624E+03  0.63748327200E+03  0.25500000920E-02 0. -1.
       -2    1    3    3    0  502  0.25498066277E+03  0.56491570742E+03  0.10571776500E+04  0.12254670451E+04  0.25500000920E-02 0.  1.
</event>
<event>
 5   0  0.1648463E-03  0.1325301E+04  0.7818609E-02  0.9009738E-01
        2   -1    0    0  501    0  0.00000000000E+00  0.00000000000E+00  0.79361799215E+03  0.79361799215E+03  0.25500000920E-02 0. -1.
       -2   -1    0    0    0  501  0.00000000000E+00  0.00000000000E+00 -0.55329594063E+03  0.55329594064E+03  0.25500000920E-02 0.  1.
    10030    2    1    2    0    0  0.00000000000E+00  0.00000000000E+00  0.24032205152E+03  0.13469139328E+04  0.13253008918E+04 0.  0.
        1    1    3    3  502    0 -0.60800212853E+03  0.19040976706E+03 -0.64972099496E+02  0.64042473517E+03  0.50400001928E-02 0.  1.
       -1    1    3    3    0  502  0.60800212853E+03 -0.19040976706E+03  0.30529415101E+03  0.70648919762E+03  0.50400001928E-02 0. -1.
</event>
<event>
 5   0  0.8609148E-04  0.1391171E+04  0.7818609E-02  0.8960234E-01
        1   -1    0    0  501    0  0.00000000000E+00  0.00000000000E+00  0.14580369021E+04  0.14580369021E+04  0.50400001928E-02 0.  1.
       -1   -1    0    0    0  501  0.00000000000E+00  0.00000000000E+00 -0.33184300335E+03  0.33184300339E+03  0.50400001928E-02 0. -1.
    10030    2    1    2    0    0  0.00000000000E+00  0.00000000000E+00  0.11261938988E+04  0.17898799055E+04  0.13911712255E+04 0.  0.
        5    1    3    3  502    0 -0.14903445788E+03  0.48348975336E+03  0.11772290019E+04  0.12813523419E+04  0.46999998093E+01 0.  1.
       -5    1    3    3    0  502  0.14903445788E+03 -0.48348975336E+03 -0.51035103080E+02  0.50852756365E+03  0.46999998093E+01 0. -1.
</event>
<event>
 5   0  0.1605214E-03  0.1376003E+04  0.7818609E-02  0.8971374E-01
       -2   -1    0    0    0  501  0.00000000000E+00  0.00000000000E+00  0.27982144157E+03  0.27982144158E+03  0.25500000920E-02 0. -1.
        2   -1    0    0  501    0  0.00000000000E+00  0.00000000000E+00 -0.16916008186E+04  0.16916008186E+04  0.25500000920E-02 0.  1.
    10030    2    1    2    0    0  0.00000000000E+00  0.00000000000E+00 -0.14117793770E+04  0.19714222602E+04  0.13760031681E+04 0.  0.
        5    1    3    3  502    0 -0.33089387818E+03 -0.39769458798E+03 -0.13556425082E+04  0.14510135920E+04  0.46999998093E+01 0.  1.
       -5    1    3    3    0  502  0.33089387818E+03  0.39769458798E+03 -0.56136868796E+02  0.52040866822E+03  0.46999998093E+01 0. -1.
</event>
<event>
 5   0  0.8673728E-04  0.1374635E+04  0.7818609E-02  0.8972386E-01
       -1   -1    0    0    0  501  0.00000000000E+00  0.00000000000E+00  0.10413304109E+04  0.10413304109E+04  0.50400001928E-02 0. -1.
        1   -1    0    0  501    0  0.00000000000E+00  0.00000000000E+00 -0.45365576811E+03  0.45365576813E+03  0.50400001928E-02 0.  1.
    10030    2    1    2    0    0  0.00000000000E+00  0.00000000000E+00  0.58767464278E+03  0.14949861790E+04  0.13746352934E+04 0.  0.
        3    1    3    3  502    0  0.26118673619E+03 -0.87492833143E+02 -0.39100221465E+03  0.47828469458E+03  0.10100000352E+00 0.  1.
       -3    1    3    3    0  502 -0.26118673619E+03  0.87492833143E+02  0.97867685743E+03  0.10167014845E+04  0.10100000352E+00 0. -1.
</event>
<event>
 5   0  0.1578965E-03  0.1389440E+04  0.7818609E-02  0.8961498E-01
        2   -1    0    0  501    0  0.00000000000E+00  0.00000000000E+00  0.83523761160E+03  0.83523761161E+03  0.25500000920E-02 0.  1.
       -2   -1    0    0    0  501  0.00000000000E+00  0.00000000000E+00 -0.57784269181E+03  0.57784269182E+03  0.25500000920E-02 0. -1.
    10030    2    1    2    0    0  0.00000000000E+00  0.00000000000E+00  0.25739491979E+03  0.14130803034E+04  0.13894401028E+04 0.  0.
        2    1    3    3  502    0 -0.55214957866E+03 -0.42115114374E+03  0.10839517918E+03  0.70284205762E+03  0.25500000920E-02 0.  1.
       -2    1    3    3    0  502  0.55214957866E+03  0.42115114374E+03  0.14899974061E+03  0.71023824580E+03  0.25500000920E-02 0. -1.
</event>
<event>
 5   0  0.8502300E-04  0.1409155E+04  0.7818609E-02  0.8947218E-01
        1   -1    0    0  501    0  0.00000000000E+00  0.00000000000E+00  0.96521032304E+03  0.96521032305E+03  0.50400001928E-02 0. -1.
       -1   -1    0    0    0  501  0.00000000000E+00  0.00000000000E+00 -0.51432255533E+03  0.51432255535E+03  0.50400001928E-02 0.  1.
    10030    2    1    2    0    0  0.00000000000E+00  0.00000000000E+00  0.45088776771E+03  0.14795328784E+04  0.14091549805E+04 0.  0.
        4    1    3    3  502    0  0.71651049414E+02  0.39983706142E+03  0.82989059689E+03  0.92397162525E+03  0.12699999809E+01 0. -1.
       -4    1    3    3    0  502 -0.71651049414E+02 -0.39983706142E+03 -0.37900282918E+03  0.55556125314E+03  0.12699999809E+01 0.  1.
</event>
<event>
 5   0  0.8609148E-04  0.1388074E+04  0.7818609E-02  0.8962496E-01
       -1   -1    0    0    0  501  0.00000000000E+00  0.00000000000E+00  0.44167438255E+03  0.44167438258E+03  0.50400001928E-02 0.  1.
        1   -1    0    0  501    0  0.00000000000E+00  0.00000000000E+00 -0.10905944753E+04  0.10905944754E+04  0.50400001928E-02 0. -1.
    10030    2    1    2    0    0  0.00000000000E+00  0.00000000000E+00 -0.64892009278E+03  0.15322688579E+04  0.13880744095E+04 0.  0.
        5    1    3    3  502    0 -0.22567778506E+03  0.51598902621E+03  0.12324555066E+03  0.57652987225E+03  0.46999998093E+01 0.  1.
       -5    1    3    3    0  502  0.22567778506E+03 -0.51598902621E+03 -0.77216564345E+03  0.95573898568E+03  0.46999998093E+01 0. -1.
</event>
<event>
 5   0  0.9639548E-04  0.1431898E+04  0.7818609E-02  0.8931047E-01
        1   -1    0    0  501    0  0.00000000000E+00  0.00000000000E+00  0.55841467245E+03  0.55841467248E+03  0.50400001928E-02 0.  1.
       -1   -1    0    0    0  501  0.00000000000E+00  0.00000000000E+00 -0.91792566990E+03  0.91792566991E+03  0.50400001928E-02 0. -1.
    10030    2    1    2    0    0  0.00000000000E+00  0.00000000000E+00 -0.35951099744E+03  0.14763403424E+04  0.14318982678E+04 0.  0.
        1    1    3    3  502    0 -0.26207661630E+03  0.39176670328E+03 -0.73538587931E+03  0.87347449541E+03  0.50400001928E-02 0. -1.
       -1    1    3    3    0  502  0.26207661630E+03 -0.39176670328E+03  0.37587488186E+03  0.60286584698E+03  0.50400001928E-02 0.  1.
</event>
<event>
 5   0  0.9007180E-04  0.1374338E+04  0.7818609E-02  0.8972606E-01
       -1   -1    0    0    0  501  0.00000000000E+00  0.00000000000E+00  0.11021933957E+04  0.11021933958E+04  0.50400001928E-02 0.  1.
        1   -1    0    0  501    0  0.00000000000E+00  0.00000000000E+00 -0.42841989289E+03  0.42841989292E+03  0.50400001928E-02 0. -1.
    10030    2    1    2    0    0  0.00000000000E+00  0.00000000000E+00  0.67377350285E+03  0.15306132887E+04  0.13743384977E+04 0.  0.
        2    1    3    3  502    0  0.62860547382E+03 -0.24644000839E+03  0.47918049998E+03  0.82794412312E+03  0.25500000920E-02 0.  1.
       -2    1    3    3    0  502 -0.62860547382E+03  0.24644000839E+03  0.19459300288E+03  0.70266916555E+03  0.25500000920E-02 0. -1.
</event>
<event>
 5   0  0.1706986E-03  0.1406480E+04  0.7818609E-02  0.8949141E-01
        2   -1    0    0  501    0  0.00000000000E+00  0.00000000000E+00  0.12738009241E+04  0.12738009241E+04  0.25500000920E-02 0. -1.
       -2   -1    0    0    0  501  0.00000000000E+00  0.00000000000E+00 -0.38824481518E+03  0.38824481518E+03  0.25500000920E-02 0.  1.
    10030    2    1    2    0    0  0.00000000000E+00  0.00000000000E+00  0.88555610893E+03  0.16620457393E+04  0.14064801518E+04 0.  0.
        3    1    3    3  502    0 -0.52328525335E+03  0.46973949113E+03  0.43332823045E+03  0.82598790028E+03  0.10100000352E+00 0. -1.
       -3    1    3    3    0  502  0.52328525335E+03 -0.46973949113E+03  0.45222787847E+03  0.83605783901E+03  0.10100000352E+00 0.  1.
</event>
<event>
 5   0  0.1648463E-03  0.1407801E+04  0.7818609E-02  0.8948191E-01
       -2   -1    0    0    0  501  0.00000000000E+00  0.00000000000E+00  0.13181446694E+04  0.13181446694E+04  0.25500000920E-02 0. -1.
        2   -1    0    0  501    0  0.00000000000E+00  0.00000000000E+00 -0.37588866915E+03  0.37588866916E+03  0.25500000920E-02 0.  1.
    10030    2    1    2    0    0  0.00000000000E+00  0.00000000000E+00  0.94225600026E+03  0.16940333386E+04  0.14078006188E+04 0.  0.
        1    1    3    3  502    0  0.23488354188E+03 -0.57138943581E+03  0.87709347394E+03  0.10728229713E+04  0.50400001928E-02 0. -1.
       -1    1    3    3    0  502 -0.23488354188E+03  0.57138943581E+03  0.65162526327E+02  0.62121036732E+03  0.50400001928E-02 0.  1.
</event>
<event>
 5   0  0.9007180E-04  0.1374896E+04  0.7818609E-02  0.8972193E-01
       -1   -1    0    0    0  501  0.00000000000E+00  0.00000000000E+00  0.10414445673E+04  0.10414445673E+04  0.50400001928E-02 0.  1.
        1   -1    0    0  501    0  0.00000000000E+00  0.00000000000E+00 -0.45377836683E+03  0.45377836686E+03  0.50400001928E-02 0. -1.
    10030    2    1    2    0    0  0.00000000000E+00  0.00000000000E+00  0.58766620049E+03  0.14952229342E+04  0.13748963815E+04 0.  0.
        2    1    3    3  502    0  0.31937822519E+03  0.26899379981E+03 -0.30005952382E+03  0.51419435324E+03  0.25500000920E-02 0. -1.
       -2    1    3    3    0  502 -0.31937822519E+03 -0.26899379981E+03  0.88772572430E+03  0.98102858096E+03  0.25500000920E-02 0.  1.
</event>
<event>
 5   0  0.8502300E-04  0.1374350E+04  0.7818609E-02  0.8972598E-01
       -1   -1    0    0    0  501  0.00000000000E+00  0.00000000000E+00  0.38861404528E+03  0.38861404532E+03  0.50400001928E-02 0. -1.
        1   -1    0    0  501    0  0.00000000000E+00  0.00000000000E+00 -0.12151110230E+04  0.12151110230E+04  0.50400001928E-02 0.  1.
    10030    2    1    2    0    0  0.00000000000E+00  0.00000000000E+00 -0.82649697773E+03  0.16037250683E+04  0.13743496064E+04 0.  0.
        4    1    3    3  502    0  0.99470486097E+02  0.43765512757E+03  0.19395455150E+03  0.48893391091E+03  0.12699999809E+01 0. -1.
       -4    1    3    3    0  502 -0.99470486097E+02 -0.43765512757E+03 -0.10204515292E+04  0.11147911574E+04  0.12699999809E+01 0.  1.
</event>
<event>
 5   0  0.8673728E-04  0.1399236E+04  0.7818609E-02  0.8954372E-01
        1   -1    0    0  501    0  0.00000000000E+00  0.00000000000E+00  0.14959879548E+04  0.14959879548E+04  0.50400001928E-02 0. -1.
       -1   -1    0    0    0  501  0.00000000000E+00  0.00000000000E+00 -0.32718545767E+03  0.32718545771E+03  0.50400001928E-02 0.  1.
    10030    2    1    2    0    0  0.00000000000E+00  0.00000000000E+00  0.11688024972E+04  0.18231734125E+04  0.13992362255E+04 0.  0.
        3    1    3    3  502    0  0.17738512845E+03 -0.44832698872E+03  0.12449516612E+04  0.13350532654E+04  0.10100000352E+00 0. -1.
       -3    1    3    3    0  502 -0.17738512845E+03  0.44832698872E+03 -0.76149164059E+02  0.48812014709E+03  0.10100000352E+00 0.  1.
</event>
<event>
 5   0  0.8502300E-04  0.1402480E+04  0.7818609E-02  0.8952025E-01
        1   -1    0    0  501    0  0.00000000000E+00  0.00000000000E+00  0.56139668311E+03  0.56139668314E+03  0.50400001928E-02 0. -1.
       -1   -1    0    0    0  501  0.00000000000E+00  0.00000000000E+00 -0.87591851026E+03  0.87591851028E+03  0.50400001928E-02 0.  1.
    10030    2    1    2    0    0  0.00000000000E+00  0.00000000000E+00 -0.31452182715E+03  0.14373151934E+04  0.14024802977E+04 0.  0.
        4    1    3    3  502    0  0.33516184804E+03 -0.60303569934E+03 -0.28587957853E+03  0.74680269508E+03  0.12699999809E+01 0. -1.
       -4    1    3    3    0  502 -0.33516184804E+03  0.60303569934E+03 -0.28642248617E+02  0.69051249834E+03  0.12699999809E+01 0.  1.
</event>
<event>
 5   0  0.1578965E-03  0.1404322E+04  0.7818609E-02  0.8950696E-01
       -2   -1    0    0    0  501  0.00000000000E+00  0.00000000000E+00  0.27052087788E+03  0.27052087789E+03  0.25500000920E-02 0. -1.
        2   -1    0    0  501    0  0.00000000000E+00  0.00000000000E+00 -0.18225201667E+04  0.18225201667E+04  0.25500000920E-02 0.  1.
    10030    2    1    2    0    0  0.00000000000E+00  0.00000000000E+00 -0.15519992888E+04  0.20930410446E+04  0.14043215522E+04 0.  0.
        2    1    3    3  502    0  0.56255668573E+03 -0.30897426162E+03 -0.12004307937E+04  0.13612381164E+04  0.25500000920E-02 0.  1.
       -2    1    3    3    0  502 -0.56255668573E+03  0.30897426162E+03 -0.35156849514E+03  0.73180292824E+03  0.25500000920E-02 0. -1.
</event>
<event>
 5   0  0.1648463E-03  0.1398855E+04  0.7818609E-02  0.8954648E-01
        2   -1    0    0  501    0  0.00000000000E+00  0.00000000000E+00  0.13318692380E+04  0.13318692380E+04  0.25500000920E-02 0. -1.
       -2   -1    0    0    0  501  0.00000000000E+00  0.00000000000E+00 -0.36730225732E+03  0.36730225733E+03  0.25500000920E-02 0.  1.
    10030    2    1    2    0    0  0.00000000000E+00  0.00000000000E+00  0.96456698071E+03  0.16991714954E+04  0.13988546423E+04 0.  0.
        1    1    3    3  502    0 -0.48374928879E+03  0.49820626846E+03  0.58373512738E+03  0.90717669684E+03  0.50400001928E-02 0. -1.
       -1    1    3    3    0  502  0.48374928879E+03 -0.49820626846E+03  0.38083185333E+03  0.79199479851E+03  0.50400001928E-02 0.  1.
</event>
<event>
 5   0  0.9639548E-04  0.1419700E+04  0.7818609E-02  0.8939681E-01
       -1   -1    0    0    0  501  0.00000000000E+00  0.00000000000E+00  0.40488644559E+03  0.40488644562E+03  0.50400001928E-02 0.  1.
        1   -1    0    0  501    0  0.00000000000E+00  0.00000000000E+00 -0.12445142228E+04  0.12445142228E+04  0.50400001928E-02 0. -1.
    10030    2    1    2    0    0  0.00000000000E+00  0.00000000000E+00 -0.83962777724E+03  0.16494006685E+04  0.14196998841E+04 0.  0.
        1    1    3    3  502    0 -0.45344785967E+03 -0.54030758790E+03 -0.32730923048E+03  0.77761081742E+03  0.50400001928E-02 0. -1.
       -1    1    3    3    0  502  0.45344785967E+03  0.54030758790E+03 -0.51231854675E+03  0.87178985103E+03  0.50400001928E-02 0.  1.
</event>
<event>
 5   0  0.1578965E-03  0.1392572E+04  0.7818609E-02  0.8959213E-01
        2   -1    0    0  501    0  0.00000000000E+00  0.00000000000E+00  0.15496376596E+04  0.15496376596E+04  0.25500000920E-02 0. -1.
       -2   -1    0    0    0  501  0.00000000000E+00  0.00000000000E+00 -0.31285666305E+03  0.31285666306E+03  0.25500000920E-02 0.  1.
    10030    2    1    2    0    0  0.00000000000E+00  0.00000000000E+00  0.12367809966E+04  0.18624943227E+04  0.13925723926E+04 0.  0.
        2    1    3    3  502    0 -0.19722992686E+03 -0.38881710869E+02 -0.27320052013E+03  0.33919014681E+03  0.25500000920E-02 0.  1.
       -2    1    3    3    0  502  0.19722992686E+03  0.38881710869E+02  0.15099815167E+04  0.15233041759E+04  0.25500000920E-02 0. -1.
</event>
<event>
 5   0  0.8673728E-04  0.1401609E+04  0.7818609E-02  0.8952655E-01
       -1   -1    0    0    0  501  0.00000000000E+00  0.00000000000E+00  0.10771098413E+04  0.10771098413E+04  0.50400001928E-02 0.  1.
        1   -1    0    0  501    0  0.00000000000E+00  0.00000000000E+00 -0.45596722004E+03  0.45596722007E+03  0.50400001928E-02 0. -1.
    10030    2    1    2    0    0  0.00000000000E+00  0.00000000000E+00  0.62114262125E+03  0.15330770614E+04  0.14016087615E+04 0.  0.
        3    1    3    3  502    0  0.64520605683E+02  0.67446848806E+03  0.50640736876E+03  0.84588361095E+03  0.10100000352E+00 0.  1.
       -3    1    3    3    0  502 -0.64520605683E+02 -0.67446848806E+03  0.11473525248E+03  0.68719345042E+03  0.10100000352E+00 0. -1.
</event>
<event>
 5   0  0.1648463E-03  0.1407136E+04  0.7818609E-02  0.8948669E-01
        2   -1    0    0  501    0  0.00000000000E+00  0.00000000000E+00  0.11550079443E+04  0.11550079443E+04  0.25500000920E-02 0.  1.
       -2   -1    0    0    0  501  0.00000000000E+00  0.00000000000E+00 -0.42857538656E+03  0.42857538657E+03  0.25500000920E-02 0. -1.
    10030    2    1    2    0    0  0.00000000000E+00  0.00000000000E+00  0.72643255774E+03  0.15835833309E+04  0.14071360648E+04 0.  0.
        1    1    3    3  502    0  0.57831572319E+03  0.28986520880E+03  0.51872122461E+02  0.64896966961E+03  0.50400001928E-02 0.  1.
       -1    1    3    3    0  502 -0.57831572319E+03 -0.28986520880E+03  0.67456043528E+03  0.93461366127E+03  0.50400001928E-02 0. -1.
</event>
<event>
 5   0  0.8673728E-04  0.1415826E+04  0.7818609E-02  0.8942442E-01
        1   -1    0    0  501    0  0.00000000000E+00  0.00000000000E+00  0.65815166414E+03  0.65815166415E+03  0.50400001928E-02 0.  1.
       -1   -1    0    0    0  501  0.00000000000E+00  0.00000000000E+00 -0.76143645419E+03  0.76143645421E+03  0.50400001928E-02 0. -1.
    10030    2    1    2    0    0  0.00000000000E+00  0.00000000000E+00 -0.10328479006E+03  0.14195881184E+04  0.14158257936E+04 0.  0.
        3    1    3    3  502    0 -0.47820586885E+03  0.36941583679E+03 -0.42139292932E+03  0.73669595123E+03  0.10100000352E+00 0. -1.
       -3    1    3    3    0  502  0.47820586885E+03 -0.36941583679E+03  0.31810813926E+03  0.68289216714E+03  0.10100000352E+00 0.  1.
</event>
<event>
 5   0  0.6048000E-04  0.1394581E+04  0.7818609E-02  0.8957751E-01
       -4   -1    0    0    0  501  0.00000000000E+00  0.00000000000E+00  0.46719897145E+03  0.46720069758E+03  0.12699999809E+01 0. -1.
        4   -1    0    0  501    0  0.00000000000E+00  0.00000000000E+00 -0.10406957013E+04  0.10406964762E+04  0.12699999809E+01 0.  1.
    10030    2    1    2    0    0  0.00000000000E+00  0.00000000000E+00 -0.57349672985E+03  0.15078971738E+04  0.13945807211E+04 0.  0.
        2    1    3    3  502    0 -0.87456344416E+02  0.22705305497E+03 -0.99330695981E+03  0.10226731728E+04  0.25500000920E-02 0.  1.
       -2    1    3    3    0  502  0.87456344416E+02 -0.22705305497E+03  0.41981022997E+03  0.48522400099E+03  0.25500000920E-02 0. -1.
</event>
<event>
 5   0  0.1648463E-03  0.1415543E+04  0.7818609E-02  0.8942644E-01
        2   -1    0    0  501    0  0.00000000000E+00  0.00000000000E+00  0.17228582300E+04  0.17228582300E+04  0.25500000920E-02 0. -1.
       -2   -1    0    0    0  501  0.00000000000E+00  0.00000000000E+00 -0.29076124348E+03  0.29076124349E+03  0.25500000920E-02 0.  1.
    10030    2    1    2    0    0  0.00000000000E+00  0.00000000000E+00  0.14320969865E+04  0.20136194735E+04  0.14155428659E+04 0.  0.
        1    1    3    3  502    0 -0.60932116501E+03  0.33606059646E+03  0.53204738077E+03  0.87594715710E+03  0.50400001928E-02 0. -1.
       -1    1    3    3    0  502  0.60932116501E+03 -0.33606059646E+03  0.90004960573E+03  0.11376723164E+04  0.50400001928E-02 0.  1.
</event>
<event>
 5   0  0.9007180E-04  0.1397853E+04  0.7818609E-02  0.8955374E-01
        1   -1    0    0  501    0  0.00000000000E+00  0.00000000000E+00  0.11766986116E+04  0.11766986116E+04  0.50400001928E-02 0. -1.
       -1   -1    0    0    0  501  0.00000000000E+00  0.00000000000E+00 -0.41514323527E+03  0.41514323530E+03  0.50400001928E-02 0.  1.
    10030    2    1    2    0    0  0.00000000000E+00  0.00000000000E+00  0.76155537631E+03  0.15918418469E+04  0.13978533093E+04 0.  0.
        2    1    3    3  502    0 -0.16800202866E+03 -0.61302966750E+03  0.49810082882E+02  0.63758222939E+03  0.25500000920E-02 0.  1.
       -2    1    3    3    0  502  0.16800202866E+03  0.61302966750E+03  0.71174529342E+03  0.95425961750E+03  0.25500000920E-02 0. -1.
</event>
<event>
 5   0  0.1578965E-03  0.1399584E+04  0.7818609E-02  0.8954120E-01
        2   -1    0    0  501    0  0.00000000000E+00  0.00000000000E+00  0.22154060748E+04  0.22154060748E+04  0.25500000920E-02 0.  1.
       -2   -1    0    0    0  501  0.00000000000E+00  0.00000000000E+00 -0.22104697151E+03  0.22104697152E+03  0.25500000920E-02 0. -1.
    10030    2    1    2    0    0  0.00000000000E+00  0.00000000000E+00  0.19943591033E+04  0.24364530463E+04  0.13995839432E+04 0.  0.
        2    1    3    3  502    0 -0.23805670646E+03  0.67089181922E+01  0.21426909938E+04  0.21558851315E+04  0.25500000920E-02 0.  1.
       -2    1    3    3    0  502  0.23805670646E+03 -0.67089181922E+01 -0.14833189055E+03  0.28056791484E+03  0.25500000920E-02 0. -1.
</event>
<event>
 5   0  0.1648463E-03  0.1402203E+04  0.7818609E-02  0.8952226E-01
        2   -1    0    0  501    0  0.00000000000E+00  0.00000000000E+00  0.15729822238E+04  0.15729822238E+04  0.25500000920E-02 0. -1.
       -2   -1    0    0    0  501  0.00000000000E+00  0.00000000000E+00 -0.31249127756E+03  0.31249127757E+03  0.25500000920E-02 0.  1.
    10030    2    1    2    0    0  0.00000000000E+00  0.00000000000E+00  0.12604909463E+04  0.18854735014E+04  0.14022028736E+04 0.  0.
        1    1    3    3  502    0  0.68996483203E+03 -0.12235827911E+03  0.59957661666E+03  0.92223377578E+03  0.50400001928E-02 0. -1.
       -1    1    3    3    0  502 -0.68996483203E+03  0.12235827911E+03  0.66091432962E+03  0.96323972563E+03  0.50400001928E-02 0.  1.
</event>
<event>
 5   0  0.9007180E-04  0.1368538E+04  0.7818609E-02  0.8976912E-01
       -1   -1    0    0    0  501  0.00000000000E+00  0.00000000000E+00  0.26662461785E+03  0.26662461790E+03  0.50400001928E-02 0. -1.
        1   -1    0    0  501    0  0.00000000000E+00  0.00000000000E+00 -0.17561179171E+04  0.17561179171E+04  0.50400001928E-02 0.  1.
    10030    2    1    2    0    0  0.00000000000E+00  0.00000000000E+00 -0.14894932992E+04  0.20227425350E+04  0.13685382985E+04 0.  0.
        2    1    3    3  502    0 -0.51867142490E+03  0.44301357599E+03 -0.82493163018E+03  0.10704173345E+04  0.25500000920E-02 0.  1.
       -2    1    3    3    0  502  0.51867142490E+03 -0.44301357599E+03 -0.66456166907E+03  0.95232520051E+03  0.25500000920E-02 0. -1.
</event>
<event>
 5   0  0.8502300E-04  0.1436503E+04  0.7818609E-02  0.8927811E-01
       -1   -1    0    0    0  501  0.00000000000E+00  0.00000000000E+00  0.11117234840E+04  0.11117234840E+04  0.50400001928E-02 0. -1.
        1   -1    0    0  501    0  0.00000000000E+00  0.00000000000E+00 -0.46404110683E+03  0.46404110686E+03  0.50400001928E-02 0.  1.
    10030    2    1    2    0    0  0.00000000000E+00  0.00000000000E+00  0.64768237721E+03  0.15757645909E+04  0.14365032489E+04 0.  0.
        4    1    3    3  502    0 -0.64233259732E+03 -0.21404258748E+03  0.58682984464E+03  0.89597783136E+03  0.12699999809E+01 0. -1.
       -4    1    3    3    0  502  0.64233259732E+03  0.21404258748E+03  0.60852532570E+02  0.67978675954E+03  0.12699999809E+01 0.  1.
</event>
<event>
 5   0  0.1605214E-03  0.1387144E+04  0.7818609E-02  0.8963177E-01
        2   -1    0    0  501    0  0.00000000000E+00  0.00000000000E+00  0.99240172035E+03  0.99240172035E+03  0.25500000920E-02 0.  1.
       -2   -1    0    0    0  501  0.00000000000E+00  0.00000000000E+00 -0.48472514706E+03  0.48472514707E+03  0.25500000920E-02 0. -1.
    10030    2    1    2    0    0  0.00000000000E+00  0.00000000000E+00  0.50767657329E+03  0.14771268674E+04  0.13871439289E+04 0.  0.
        5    1    3    3  502    0 -0.63670996659E+02  0.13428750481E+03  0.97522949426E+03  0.98649976495E+03  0.46999998093E+01 0.  1.
       -5    1    3    3    0  502  0.63670996659E+02 -0.13428750481E+03 -0.46755292098E+03  0.49062710247E+03  0.46999998093E+01 0. -1.
</event>
<event>
 5   0  0.8609148E-04  0.1409198E+04  0.7818609E-02  0.8947187E-01
       -1   -1    0    0    0  501  0.00000000000E+00  0.00000000000E+00  0.15543529525E+04  0.15543529525E+04  0.50400001928E-02 0.  1.
        1   -1    0    0  501    0  0.00000000000E+00  0.00000000000E+00 -0.31939967901E+03  0.31939967905E+03  0.50400001928E-02 0. -1.
    10030    2    1    2    0    0  0.00000000000E+00  0.00000000000E+00  0.12349532735E+04  0.18737526316E+04  0.14091981183E+04 0.  0.
        5    1    3    3  502    0 -0.10868061907E+03  0.41073340911E+03 -0.12988661646E+03  0.44430398766E+03  0.46999998093E+01 0. -1.
       -5    1    3    3    0  502  0.10868061907E+03 -0.41073340911E+03  0.13648398900E+04  0.14294486439E+04  0.46999998093E+01 0.  1.
</event>
<event>
 5   0  0.8673728E-04  0.1380253E+04  0.7818609E-02  0.8968238E-01
       -1   -1    0    0    0  501  0.00000000000E+00  0.00000000000E+00  0.92048590736E+03  0.92048590738E+03  0.50400001928E-02 0. -1.
        1   -1    0    0  501    0  0.00000000000E+00  0.00000000000E+00 -0.51741670902E+03  0.51741670904E+03  0.50400001928E-02 0.  1.
    10030    2    1    2    0    0  0.00000000000E+00  0.00000000000E+00  0.40306919834E+03  0.14379026164E+04  0.13802532940E+04 0.  0.
        3    1    3    3  502    0 -0.61959408750E+03 -0.24677552844E+03  0.38637059582E+03  0.77076406392E+03  0.10100000352E+00 0.  1.
       -3    1    3    3    0  502  0.61959408750E+03  0.24677552844E+03  0.16698602518E+02  0.66713855250E+03  0.10100000352E+00 0. -1.
</event>
<event>
 5   0  0.1706986E-03  0.1410263E+04  0.7818609E-02  0.8946423E-01
        2   -1    0    0  501    0  0.00000000000E+00  0.00000000000E+00  0.11223069709E+04  0.11223069709E+04  0.25500000920E-02 0. -1.
       -2   -1    0    0    0  501  0.00000000000E+00  0.00000000000E+00 -0.44302505879E+03  0.44302505879E+03  0.25500000920E-02 0.  1.
    10030    2    1    2    0    0  0.00000000000E+00  0.00000000000E+00  0.67928191208E+03  0.15653320297E+04  0.14102625454E+04 0.  0.
        3    1    3    3  502    0  0.37212835230E+03 -0.36691406912E+03  0.86509161449E+03  0.10106873683E+04  0.10100000352E+00 0. -1.
       -3    1    3    3    0  502 -0.37212835230E+03  0.36691406912E+03 -0.18580970241E+03  0.55464466140E+03  0.10100000352E+00 0.  1.
</event>
<event>
 5   0  0.1605214E-03  0.1386571E+04  0.7818609E-02  0.8963597E-01
       -2   -1    0    0    0  501  0.00000000000E+00  0.00000000000E+00  0.55560408859E+03  0.55560408859E+03  0.25500000920E-02 0.  1.
        2   -1    0    0  501    0  0.00000000000E+00  0.00000000000E+00 -0.86508454904E+03  0.86508454904E+03  0.25500000920E-02 0. -1.
    10030    2    1    2    0    0  0.00000000000E+00  0.00000000000E+00 -0.30948046045E+03  0.14206886376E+04  0.13865706075E+04 0.  0.
        5    1    3    3  502    0 -0.10092309618E+03 -0.15922046434E+03  0.52882314282E+03  0.56143800547E+03  0.46999998093E+01 0.  1.
       -5    1    3    3    0  502  0.10092309618E+03  0.15922046434E+03 -0.83830360327E+03  0.85925063216E+03  0.46999998093E+01 0. -1.
</event>
<event>
 5   0  0.8609148E-04  0.1310047E+04  0.7818609E-02  0.9021636E-01
        1   -1    0    0  501    0  0.00000000000E+00  0.00000000000E+00  0.14889653170E+04  0.14889653170E+04  0.50400001928E-02 0.  1.
       -1   -1    0    0    0  501  0.00000000000E+00  0.00000000000E+00 -0.28815690910E+03  0.28815690915E+03  0.50400001928E-02 0. -1.
    10030    2    1    2    0    0  0.00000000000E+00  0.00000000000E+00  0.12008084079E+04  0.17771222262E+04  0.13100467832E+04 0.  0.
        5    1    3    3  502    0  0.26648318246E+03  0.38062353062E+03 -0.25876573168E+02  0.46538075340E+03  0.46999998093E+01 0. -1.
       -5    1    3    3    0  502 -0.26648318246E+03 -0.38062353062E+03  0.12266849811E+04  0.13117414728E+04  0.46999998093E+01 0.  1.
</event>
<event>
 5   0  0.9007180E-04  0.1420278E+04  0.7818609E-02  0.8939270E-01
       -1   -1    0    0    0  501  0.00000000000E+00  0.00000000000E+00  0.15802401954E+04  0.15802401954E+04  0.50400001928E-02 0. -1.
        1   -1    0    0  501    0  0.00000000000E+00  0.00000000000E+00 -0.31912683605E+03  0.31912683609E+03  0.50400001928E-02 0.  1.
    10030    2    1    2    0    0  0.00000000000E+00  0.00000000000E+00  0.12611133593E+04  0.18993670315E+04  0.14202775134E+04 0.  0.
        2    1    3    3  502    0 -0.32872800198E+03 -0.53011893029E+03  0.10844759818E+04  0.12510700758E+04  0.25500000920E-02 0. -1.
       -2    1    3    3    0  502  0.32872800198E+03  0.53011893029E+03  0.17663737752E+03  0.64829695563E+03  0.25500000920E-02 0.  1.
</event>
<event>
 5   0  0.1648213E-03  0.1400325E+04  0.7818609E-02  0.8953583E-01
        2   -1    0    0  501    0  0.00000000000E+00  0.00000000000E+00  0.46985041679E+03  0.46985041680E+03  0.25500000920E-02 0. -1.
       -2   -1    0    0    0  501  0.00000000000E+00  0.00000000000E+00 -0.10433698525E+04  0.10433698525E+04  0.25500000920E-02 0.  1.
    10030    2    1    2    0    0  0.00000000000E+00  0.00000000000E+00 -0.57351943573E+03  0.15132202693E+04  0.14003253338E+04 0.  0.
        4    1    3    3  502    0 -0.25412771171E+03 -0.64332900114E+03 -0.40401102455E+03  0.80104907367E+03  0.12699999809E+01 0. -1.
       -4    1    3    3    0  502  0.25412771171E+03  0.64332900114E+03 -0.16950841118E+03  0.71217119566E+03  0.12699999809E+01 0.  1.
</event>
<event>
 5   0  0.6048000E-04  0.1384581E+04  0.7818609E-02  0.8965056E-01
        4   -1    0    0  501    0  0.00000000000E+00  0.00000000000E+00  0.52288458223E+03  0.52288612454E+03  0.12699999809E+01 0. -1.
       -4   -1    0    0    0  501  0.00000000000E+00  0.00000000000E+00 -0.91657787181E+03  0.91657875166E+03  0.12699999809E+01 0.  1.
    10030    2    1    2    0    0  0.00000000000E+00  0.00000000000E+00 -0.39369328958E+03  0.14394648762E+04  0.13845810643E+04 0.  0.
        2    1    3    3  502    0  0.34217365861E+03  0.23657568770E+03 -0.77214897924E+03  0.87707748506E+03  0.25500000920E-02 0.  1.
       -2    1    3    3    0  502 -0.34217365861E+03 -0.23657568770E+03  0.37845568966E+03  0.56238739113E+03  0.25500000920E-02 0. -1.
</event>
<event>
 5   0  0.9639548E-04  0.1407145E+04  0.7818609E-02  0.8948662E-01
        1   -1    0    0  501    0  0.00000000000E+00  0.00000000000E+00  0.10236222949E+04  0.10236222949E+04  0.50400001928E-02 0.  1.
       -1   -1    0    0    0  501  0.00000000000E+00  0.00000000000E+00 -0.48359107161E+03  0.48359107164E+03  0.50400001928E-02 0. -1.
    10030    2    1    2    0    0  0.00000000000E+00  0.00000000000E+00  0.54003122326E+03  0.15072133665E+04  0.14071454829E+04 0.  0.
        1    1    3    3  502    0 -0.58668399278E+03  0.26925043839E+03  0.56977583706E+03  0.86101011055E+03  0.50400001928E-02 0.  1.
       -1    1    3    3    0  502  0.58668399278E+03 -0.26925043839E+03 -0.29744613795E+02  0.64620325597E+03  0.50400001928E-02 0. -1.
</event>
<event>
 5   0  0.1578965E-03  0.1402105E+04  0.7818609E-02  0.8952296E-01
       -2   -1    0    0    0  501  0.00000000000E+00  0.00000000000E+00  0.19656724380E+03  0.19656724382E+03  0.25500000920E-02 0. -1.
        2   -1    0    0  501    0  0.00000000000E+00  0.00000000000E+00 -0.25002871021E+04  0.25002871021E+04  0.25500000920E-02 0.  1.
    10030    2    1    2    0    0  0.00000000000E+00  0.00000000000E+00 -0.23037198583E+04  0.26968543459E+04  0.14021049096E+04 0.  0.
        2    1    3    3  502    0  0.65766512796E+03  0.20646852361E+03 -0.13975920752E+04  0.15583376657E+04  0.25500000920E-02 0.  1.
       -2    1    3    3    0  502 -0.65766512796E+03 -0.20646852361E+03 -0.90612778315E+03  0.11385166802E+04  0.25500000920E-02 0. -1.
</event>
<event>
 5   0  0.9007180E-04  0.1392393E+04  0.7818609E-02  0.8959344E-01
       -1   -1    0    0    0  501  0.00000000000E+00  0.00000000000E+00  0.97828772806E+03  0.97828772807E+03  0.50400001928E-02 0.  1.
        1   -1    0    0  501    0  0.00000000000E+00  0.00000000000E+00 -0.49544663746E+03  0.49544663749E+03  0.50400001928E-02 0. -1.
    10030    2    1    2    0    0  0.00000000000E+00  0.00000000000E+00  0.48284109060E+03  0.14737343656E+04  0.13923927109E+04 0.  0.
        2    1    3    3  502    0  0.26209647502E+03 -0.60096408807E+03  0.48927354915E+03  0.81807151477E+03  0.25500000920E-02 0.  1.
       -2    1    3    3    0  502 -0.26209647502E+03  0.60096408807E+03 -0.64324585567E+01  0.65566285079E+03  0.25500000920E-02 0. -1.
</event>
<event>
 5   0  0.1648463E-03  0.1390291E+04  0.7818609E-02  0.8960877E-01
        2   -1    0    0  501    0  0.00000000000E+00  0.00000000000E+00  0.22782622207E+04  0.22782622207E+04  0.25500000920E-02 0.  1.
       -2   -1    0    0    0  501  0.00000000000E+00  0.00000000000E+00 -0.21210345770E+03  0.21210345772E+03  0.25500000920E-02 0. -1.
    10030    2    1    2    0    0  0.00000000000E+00  0.00000000000E+00  0.20661587630E+04  0.24903656785E+04  0.13902910409E+04 0.  0.
        1    1    3    3  502    0 -0.19600081917E+03  0.20846971173E+03 -0.10172175945E+03  0.30368282499E+03  0.50400001928E-02 0. -1.
       -1    1    3    3    0  502  0.19600081917E+03 -0.20846971173E+03  0.21678805225E+04  0.21866828535E+04  0.50400001928E-02 0.  1.
</event>
<event>
 5   0  0.8673728E-04  0.1409981E+04  0.7818609E-02  0.8946625E-01
       -1   -1    0    0    0  501  0.00000000000E+00  0.00000000000E+00  0.30311826946E+03  0.30311826950E+03  0.50400001928E-02 0.  1.
        1   -1    0    0  501    0  0.00000000000E+00  0.00000000000E+00 -0.16396619667E+04  0.16396619667E+04  0.50400001928E-02 0. -1.
    10030    2    1    2    0    0  0.00000000000E+00  0.00000000000E+00 -0.13365436972E+04  0.19427802362E+04  0.14099808479E+04 0.  0.
        3    1    3    3  502    0 -0.45366556977E+03 -0.41607492608E+03 -0.19479373095E+03  0.64565888914E+03  0.10100000352E+00 0.  1.
       -3    1    3    3    0  502  0.45366556977E+03  0.41607492608E+03 -0.11417499663E+04  0.12971213471E+04  0.10100000352E+00 0. -1.
</event>
<event>
 5   0  0.8673728E-04  0.1419180E+04  0.7818609E-02  0.8940051E-01
       -1   -1    0    0    0  501  0.00000000000E+00  0.00000000000E+00  0.45470999702E+03  0.45470999704E+03  0.50400001928E-02 0.  1.
        1   -1    0    0  501    0  0.00000000000E+00  0.00000000000E+00 -0.11073390641E+04  0.11073390641E+04  0.50400001928E-02 0. -1.
    10030    2    1    2    0    0  0.00000000000E+00  0.00000000000E+00 -0.65262906710E+03  0.15620490612E+04  0.14191802459E+04 0.  0.
        3    1    3    3  502    0 -0.48870168676E+03 -0.50465066527E+03 -0.43647229588E+03  0.82704879413E+03  0.10100000352E+00 0. -1.
       -3    1    3    3    0  502  0.48870168676E+03  0.50465066527E+03 -0.21615677121E+03  0.73500026703E+03  0.10100000352E+00 0.  1.
</event>
<event>
 5   0  0.1648213E-03  0.1402358E+04  0.7818609E-02  0.8952113E-01
       -2   -1    0    0    0  501  0.00000000000E+00  0.00000000000E+00  0.37677503678E+03  0.37677503679E+03  0.25500000920E-02 0.  1.
        2   -1    0    0  501    0  0.00000000000E+00  0.00000000000E+00 -0.13048953909E+04  0.13048953909E+04  0.25500000920E-02 0. -1.
    10030    2    1    2    0    0  0.00000000000E+00  0.00000000000E+00 -0.92812035414E+03  0.16816704277E+04  0.14023580269E+04 0.  0.
        4    1    3    3  502    0 -0.80382409243E+02 -0.68858692817E+03 -0.59004249719E+03  0.91036533916E+03  0.12699999809E+01 0. -1.
       -4    1    3    3    0  502  0.80382409243E+02  0.68858692817E+03 -0.33807785695E+03  0.77130508855E+03  0.12699999809E+01 0.  1.
</event>
<event>
 5   0  0.1648463E-03  0.1424674E+04  0.7818609E-02  0.8936149E-01
       -2   -1    0    0    0  501  0.00000000000E+00  0.00000000000E+00  0.11625371398E+04  0.11625371398E+04  0.25500000920E-02 0.  1.
        2   -1    0    0  501    0  0.00000000000E+00  0.00000000000E+00 -0.43647981869E+03  0.43647981870E+03  0.25500000920E-02 0. -1.
    10030    2    1    2    0    0  0.00000000000E+00  0.00000000000E+00  0.72605732115E+03  0.15990169585E+04  0.14246739978E+04 0.  0.
        1    1    3    3  502    0  0.17315890714E+03 -0.57447462132E+03 -0.67908710954E+02  0.60383498633E+03  0.50400001928E-02 0. -1.
       -1    1    3    3    0  502 -0.17315890714E+03  0.57447462132E+03  0.79396603210E+03  0.99518197222E+03  0.50400001928E-02 0.  1.
</event>
<event>
 5   0  0.6048000E-04  0.1415589E+04  0.7818609E-02  0.8942611E-01
        4   -1    0    0  501    0  0.00000000000E+00  0.00000000000E+00  0.81132692854E+03  0.81132792253E+03  0.12699999809E+01 0. -1.
       -4   -1    0    0    0  501  0.00000000000E+00  0.00000000000E+00 -0.61747148736E+03  0.61747279341E+03  0.12699999809E+01 0.  1.
    10030    2    1    2    0    0  0.00000000000E+00  0.00000000000E+00  0.19385544118E+03  0.14288007159E+04  0.14155887658E+04 0.  0.
        5    1    3    3  502    0  0.44761276298E+03 -0.77662849042E+02 -0.45087348232E+03  0.64007631636E+03  0.46999998093E+01 0.  1.
       -5    1    3    3    0  502 -0.44761276298E+03  0.77662849042E+02  0.64472892350E+03  0.78872439958E+03  0.46999998093E+01 0. -1.
</event>
<event>
 5   0  0.8502300E-04  0.1375926E+04  0.7818609E-02  0.8971431E-01
        1   -1    0    0  501    0  0.00000000000E+00  0.00000000000E+00  0.42125573139E+03  0.42125573142E+03  0.50400001928E-02 0. -1.
       -1   -1    0    0    0  501  0.00000000000E+00  0.00000000000E+00 -0.11235286983E+04  0.11235286983E+04  0.50400001928E-02 0.  1.
    10030    2    1    2    0    0  0.00000000000E+00  0.00000000000E+00 -0.70227296691E+03  0.15447844297E+04  0.13759257299E+04 0.  0.
        4    1    3    3  502    0  0.34695523671E+03  0.58044537963E+02 -0.10149161320E+04  0.10741524438E+04  0.12699999809E+01 0.  1.
       -4    1    3    3    0  502 -0.34695523671E+03 -0.58044537963E+02  0.31264316504E+03  0.47063198597E+03  0.12699999809E+01 0. -1.
</event>
<event>
 5   0  0.8609148E-04  0.1380071E+04  0.7818609E-02  0.8968372E-01
        1   -1    0    0  501    0  0.00000000000E+00  0.00000000000E+00  0.61513124111E+03  0.61513124113E+03  0.50400001928E-02 0. -1.
       -1   -1    0    0    0  501  0.00000000000E+00  0.00000000000E+00 -0.77406036488E+03  0.77406036490E+03  0.50400001928E-02 0.  1.
    10030    2    1    2    0    0  0.00000000000E+00  0.00000000000E+00 -0.15892912377E+03  0.13891916060E+04  0.13800705967E+04 0.  0.
        5    1    3    3  502    0 -0.39909084696E+03  0.51531228258E+02 -0.64370254003E+03  0.75914690387E+03  0.46999998093E+01 0.  1.
       -5    1    3    3    0  502  0.39909084696E+03 -0.51531228258E+02  0.48477341626E+03  0.63004470216E+03  0.46999998093E+01 0. -1.
</event>
<event>
 5   0  0.1578965E-03  0.1454007E+04  0.7818609E-02  0.8915627E-01
        2   -1    0    0  501    0  0.00000000000E+00  0.00000000000E+00  0.73889725457E+03  0.73889725458E+03  0.25500000920E-02 0.  1.
       -2   -1    0    0    0  501  0.00000000000E+00  0.00000000000E+00 -0.71530127495E+03  0.71530127495E+03  0.25500000920E-02 0. -1.
    10030    2    1    2    0    0  0.00000000000E+00  0.00000000000E+00  0.23595979626E+02  0.14541985295E+04  0.14540070815E+04 0.  0.
        2    1    3    3  502    0  0.15228848238E+03  0.54950815084E+03 -0.43924161010E+03  0.71978064836E+03  0.25500000920E-02 0.  1.
       -2    1    3    3    0  502 -0.15228848238E+03 -0.54950815084E+03  0.46283758973E+03  0.73441788117E+03  0.25500000920E-02 0. -1.
</event>
<event>
 5   0  0.8502300E-04  0.1411774E+04  0.7818609E-02  0.8945340E-01
        1   -1    0    0  501    0  0.00000000000E+00  0.00000000000E+00  0.13110563398E+04  0.13110563399E+04  0.50400001928E-02 0.  1.
       -1   -1    0    0    0  501  0.00000000000E+00  0.00000000000E+00 -0.38005731125E+03  0.38005731128E+03  0.50400001928E-02 0. -1.
    10030    2    1    2    0    0  0.00000000000E+00  0.00000000000E+00  0.93099902860E+03  0.16911136511E+04  0.14117741285E+04 0.  0.
        4    1    3    3  502    0 -0.34042726497E+03  0.26804051286E+02 -0.27453022590E+03  0.43815252793E+03  0.12699999809E+01 0. -1.
       -4    1    3    3    0  502  0.34042726497E+03 -0.26804051286E+02  0.12055292545E+04  0.12529611232E+04  0.12699999809E+01 0.  1.
</event>
<event>
 5   0  0.1605214E-03  0.1455848E+04  0.7818609E-02  0.8914356E-01
        2   -1    0    0  501    0  0.00000000000E+00  0.00000000000E+00  0.74769321303E+03  0.74769321303E+03  0.25500000920E-02 0.  1.
       -2   -1    0    0    0  501  0.00000000000E+00  0.00000000000E+00 -0.70867735102E+03  0.70867735102E+03  0.25500000920E-02 0. -1.
    10030    2    1    2    0    0  0.00000000000E+00  0.00000000000E+00  0.39015862010E+02  0.14563705641E+04  0.14558478569E+04 0.  0.
        5    1    3    3  502    0 -0.40631975699E+03  0.11869472920E+03 -0.57287608622E+03  0.71231543843E+03  0.46999998093E+01 0. -1.
       -5    1    3    3    0  502  0.40631975699E+03 -0.11869472920E+03  0.61189194823E+03  0.74405512563E+03  0.46999998093E+01 0.  1.
</event>
<event>
 5   0  0.8609148E-04  0.1410566E+04  0.7818609E-02  0.8946206E-01
        1   -1    0    0  501    0  0.00000000000E+00  0.00000000000E+00  0.66788478227E+03  0.66788478229E+03  0.50400001928E-02 0. -1.
       -1   -1    0    0    0  501  0.00000000000E+00  0.00000000000E+00 -0.74477544856E+03  0.74477544857E+03  0.50400001928E-02 0.  1.
    10030    2    1    2    0    0  0.00000000000E+00  0.00000000000E+00 -0.76890666288E+02  0.14126602309E+04  0.14105661109E+04 0.  0.
        5    1    3    3  502    0  0.60088364945E+03  0.34397066846E+03  0.96011638162E+02  0.69901166342E+03  0.46999998093E+01 0. -1.
       -5    1    3    3    0  502 -0.60088364945E+03 -0.34397066846E+03 -0.17290230445E+03  0.71364856745E+03  0.46999998093E+01 0.  1.
</event>
<event>
 5   0  0.9639548E-04  0.1426915E+04  0.7818609E-02  0.8934563E-01
        1   -1    0    0  501    0  0.00000000000E+00  0.00000000000E+00  0.61768377529E+03  0.61768377531E+03  0.50400001928E-02 0.  1.
       -1   -1    0    0    0  501  0.00000000000E+00  0.00000000000E+00 -0.82408093594E+03  0.82408093596E+03  0.50400001928E-02 0. -1.
    10030    2    1    2    0    0  0.00000000000E+00  0.00000000000E+00 -0.20639716065E+03  0.14417647113E+04  0.14269147468E+04 0.  0.
        1    1    3    3  502    0 -0.62741647632E+03 -0.12356387951E+02 -0.44616786547E+03  0.76998044084E+03  0.50400001928E-02 0. -1.
       -1    1    3    3    0  502  0.62741647632E+03  0.12356387951E+02  0.23977070482E+03  0.67178427043E+03  0.50400001928E-02 0.  1.
</event>
<event>
 5   0  0.1578965E-03  0.1415375E+04  0.7818609E-02  0.8942764E-01
        2   -1    0    0  501    0  0.00000000000E+00  0.00000000000E+00  0.14998226732E+04  0.14998226732E+04  0.25500000920E-02 0. -1.
       -2   -1    0    0    0  501  0.00000000000E+00  0.00000000000E+00 -0.33392073462E+03  0.33392073463E+03  0.25500000920E-02 0.  1.
    10030    2    1    2    0    0  0.00000000000E+00  0.00000000000E+00  0.11659019386E+04  0.18337434078E+04  0.14153754115E+04 0.  0.
        2    1    3    3  502    0  0.34180256094E+03 -0.26646748963E+03  0.13077719321E+04  0.13777159867E+04  0.25500000920E-02 0. -1.
       -2    1    3    3    0  502 -0.34180256094E+03  0.26646748963E+03 -0.14186999355E+03  0.45602742107E+03  0.25500000920E-02 0.  1.
</event>
<event>
 5   0  0.8609148E-04  0.1412340E+04  0.7818609E-02  0.8944934E-01
        1   -1    0    0  501    0  0.00000000000E+00  0.00000000000E+00  0.14730121841E+04  0.14730121841E+04  0.50400001928E-02 0. -1.
       -1   -1    0    0    0  501  0.00000000000E+00  0.00000000000E+00 -0.33854185490E+03  0.33854185494E+03  0.50400001928E-02 0.  1.
    10030    2    1    2    0    0  0.00000000000E+00  0.00000000000E+00  0.11344703292E+04  0.18115540390E+04  0.14123402949E+04 0.  0.
        5    1    3    3  502    0  0.29977640753E+03 -0.16056673723E+02  0.13870658578E+04  0.14191890273E+04  0.46999998093E+01 0. -1.
       -5    1    3    3    0  502 -0.29977640753E+03  0.16056673723E+02 -0.25259552869E+03  0.39236501168E+03  0.46999998093E+01 0.  1.
</event>
<event>
 5   0  0.1648463E-03  0.1406449E+04  0.7818609E-02  0.8949164E-01
        2   -1    0    0  501    0  0.00000000000E+00  0.00000000000E+00  0.85817142680E+03  0.85817142681E+03  0.25500000920E-02 0. -1.
       -2   -1    0    0    0  501  0.00000000000E+00  0.00000000000E+00 -0.57625372649E+03  0.57625372649E+03  0.25500000920E-02 0.  1.
    10030    2    1    2    0    0  0.00000000000E+00  0.00000000000E+00  0.28191770031E+03  0.14344251533E+04  0.14064486946E+04 0.  0.
        1    1    3    3  502    0 -0.69242396677E+03 -0.88444952094E+02  0.54112084463E+02  0.70014396878E+03  0.50400001928E-02 0. -1.
       -1    1    3    3    0  502  0.69242396677E+03  0.88444952094E+02  0.22780561585E+03  0.73428118452E+03  0.50400001928E-02 0.  1.
</event>
<event>
 5   0  0.9639548E-04  0.1390626E+04  0.7818609E-02  0.8960632E-01
        1   -1    0    0  501    0  0.00000000000E+00  0.00000000000E+00  0.75201832073E+03  0.75201832075E+03  0.50400001928E-02 0.  1.
       -1   -1    0    0    0  501  0.00000000000E+00  0.00000000000E+00 -0.64288315301E+03  0.64288315303E+03  0.50400001928E-02 0. -1.
    10030    2    1    2    0    0  0.00000000000E+00  0.00000000000E+00  0.10913516773E+03  0.13949014738E+04  0.13906256278E+04 0.  0.
        1    1    3    3  502    0  0.14610787096E+03 -0.67970075832E+03  0.65522626890E+02  0.69830784435E+03  0.50400001928E-02 0.  1.
       -1    1    3    3    0  502 -0.14610787096E+03  0.67970075832E+03  0.43612540838E+02  0.69659362943E+03  0.50400001928E-02 0. -1.
</event>
<event>
 5   0  0.9007180E-04  0.1396838E+04  0.7818609E-02  0.8956110E-01
       -1   -1    0    0    0  501  0.00000000000E+00  0.00000000000E+00  0.45667830070E+03  0.45667830073E+03  0.50400001928E-02 0. -1.
        1   -1    0    0  501    0  0.00000000000E+00  0.00000000000E+00 -0.10681245293E+04  0.10681245294E+04  0.50400001928E-02 0.  1.
    10030    2    1    2    0    0  0.00000000000E+00  0.00000000000E+00 -0.61144622864E+03  0.15248028301E+04  0.13968382799E+04 0.  0.
        2    1    3    3  502    0 -0.62005322113E+03 -0.14932712295E+03  0.50019591414E+01  0.63780060072E+03  0.25500000920E-02 0. -1.
       -2    1    3    3    0  502  0.62005322113E+03  0.14932712295E+03 -0.61644818778E+03  0.88700222937E+03  0.25500000920E-02 0.  1.
</event>
<event>
 5   0  0.1648213E-03  0.1395122E+04  0.7818609E-02  0.8957357E-01
        2   -1    0    0  501    0  0.00000000000E+00  0.00000000000E+00  0.12718230298E+04  0.12718230298E+04  0.25500000920E-02 0. -1.
       -2   -1    0    0    0  501  0.00000000000E+00  0.00000000000E+00 -0.38259369730E+03  0.38259369731E+03  0.25500000920E-02 0.  1.
    10030    2    1    2    0    0  0.00000000000E+00  0.00000000000E+00  0.88922933246E+03  0.16544167271E+04  0.13951221814E+04 0.  0.
        4    1    3    3  502    0 -0.14718933968E+03 -0.23842572043E+03 -0.31292336119E+03  0.42004067512E+03  0.12699999809E+01 0.  1.
       -4    1    3    3    0  502  0.14718933968E+03  0.23842572043E+03  0.12021526936E+04  0.12343760519E+04  0.12699999809E+01 0. -1.
</event>
<event>
 5   0  0.1578965E-03  0.1457190E+04  0.7818609E-02  0.8913431E-01
        2   -1    0    0  501    0  0.00000000000E+00  0.00000000000E+00  0.57378817805E+03  0.57378817805E+03  0.25500000920E-02 0. -1.
       -2   -1    0    0    0  501  0.00000000000E+00  0.00000000000E+00 -0.92516868053E+03  0.92516868053E+03  0.25500000920E-02 0.  1.
    10030    2    1    2    0    0  0.00000000000E+00  0.00000000000E+00 -0.35138050248E+03  0.14989568586E+04  0.14571902437E+04 0.  0.
        2    1    3    3  502    0 -0.67667187552E+02 -0.82005534037E+02 -0.91714617536E+03  0.92328807144E+03  0.25500000920E-02 0.  1.
       -2    1    3    3    0  502  0.67667187552E+02  0.82005534037E+02  0.56576567288E+03  0.57566878715E+03  0.25500000920E-02 0. -1.
</event>
<event>
 5   0  0.1648213E-03  0.1410803E+04  0.7818609E-02  0.8946036E-01
       -2   -1    0    0    0  501  0.00000000000E+00  0.00000000000E+00  0.84097369170E+03  0.84097369171E+03  0.25500000920E-02 0. -1.
        2   -1    0    0  501    0  0.00000000000E+00  0.00000000000E+00 -0.59168464598E+03  0.59168464598E+03  0.25500000920E-02 0.  1.
    10030    2    1    2    0    0  0.00000000000E+00  0.00000000000E+00  0.24928904572E+03  0.14326583377E+04  0.14108029218E+04 0.  0.
        4    1    3    3  502    0 -0.60337615228E+03  0.29061417264E+03  0.34959417532E+03  0.75547142818E+03  0.12699999809E+01 0. -1.
       -4    1    3    3    0  502  0.60337615228E+03 -0.29061417264E+03 -0.10030512959E+03  0.67718690951E+03  0.12699999809E+01 0.  1.
</event>
<event>
 5   0  0.9007180E-04  0.1397197E+04  0.7818609E-02  0.8955850E-01
       -1   -1    0    0    0  501  0.00000000000E+00  0.00000000000E+00  0.36599810145E+03  0.36599810148E+03  0.50400001928E-02 0.  1.
        1   -1    0    0  501    0  0.00000000000E+00  0.00000000000E+00 -0.13334499694E+04  0.13334499694E+04  0.50400001928E-02 0. -1.
    10030    2    1    2    0    0  0.00000000000E+00  0.00000000000E+00 -0.96745186792E+03  0.16994480709E+04  0.13971974194E+04 0.  0.
        2    1    3    3  502    0  0.34941666812E+03  0.26672144441E+03 -0.11441450319E+04  0.12256835607E+04  0.25500000920E-02 0. -1.
       -2    1    3    3    0  502 -0.34941666812E+03 -0.26672144441E+03  0.17669316401E+03  0.47376451016E+03  0.25500000920E-02 0.  1.
</event>
<event>
 5   0  0.1648463E-03  0.1627690E+04  0.7818609E-02  0.8803716E-01
       -2   -1    0    0    0  501  0.00000000000E+00  0.00000000000E+00  0.10211625501E+04  0.10211625501E+04  0.25500000920E-02 0. -1.
        2   -1    0    0  501    0  0.00000000000E+00  0.00000000000E+00 -0.64861690420E+03  0.64861690421E+03  0.25500000920E-02 0.  1.
    10030    2    1    2    0    0  0.00000000000E+00  0.00000000000E+00  0.37254564588E+03  0.16697794543E+04  0.16276895182E+04 0.  0.
        1    1    3    3  502    0 -0.80181493701E+03  0.19871736409E+02  0.32783096353E+03  0.86647286154E+03  0.50400001928E-02 0.  1.
       -1    1    3    3    0  502  0.80181493701E+03 -0.19871736409E+02  0.44714682354E+02  0.80330659275E+03  0.50400001928E-02 0. -1.
</event>
<event>
 5   0  0.8502300E-04  0.1417424E+04  0.7818609E-02  0.8941302E-01
       -1   -1    0    0    0  501  0.00000000000E+00  0.00000000000E+00  0.11126600120E+04  0.11126600120E+04  0.50400001928E-02 0. -1.
        1   -1    0    0  501    0  0.00000000000E+00  0.00000000000E+00 -0.45141603130E+03  0.45141603133E+03  0.50400001928E-02 0.  1.
    10030    2    1    2    0    0  0.00000000000E+00  0.00000000000E+00  0.66124398067E+03  0.15640760433E+04  0.14174238136E+04 0.  0.
        4    1    3    3  502    0  0.66422269670E+02  0.15404476258E+03  0.10904346270E+04  0.11032637924E+04  0.12699999809E+01 0. -1.
       -4    1    3    3    0  502 -0.66422269670E+02 -0.15404476258E+03 -0.42919064637E+03  0.46081225094E+03  0.12699999809E+01 0.  1.
</event>
<event>
 5   0  0.9007180E-04  0.1402702E+04  0.7818609E-02  0.8951865E-01
        1   -1    0    0  501    0  0.00000000000E+00  0.00000000000E+00  0.68403446609E+03  0.68403446611E+03  0.50400001928E-02 0. -1.
       -1   -1    0    0    0  501  0.00000000000E+00  0.00000000000E+00 -0.71910596391E+03  0.71910596393E+03  0.50400001928E-02 0.  1.
    10030    2    1    2    0    0  0.00000000000E+00  0.00000000000E+00 -0.35071497821E+02  0.14031404300E+04  0.14027020555E+04 0.  0.
        2    1    3    3  502    0  0.34083977083E+03  0.46579983585E+03 -0.41609724981E+03  0.71153226052E+03  0.25500000920E-02 0.  1.
       -2    1    3    3    0  502 -0.34083977083E+03 -0.46579983585E+03  0.38102575198E+03  0.69160816951E+03  0.25500000920E-02 0. -1.
</event>
<event>
 5   0  0.9639548E-04  0.1418709E+04  0.7818609E-02  0.8940386E-01
        1   -1    0    0  501    0  0.00000000000E+00  0.00000000000E+00  0.19549824407E+04  0.19549824407E+04  0.50400001928E-02 0. -1.
       -1   -1    0    0    0  501  0.00000000000E+00  0.00000000000E+00 -0.25738532040E+03  0.25738532045E+03  0.50400001928E-02 0.  1.
    10030    2    1    2    0    0  0.00000000000E+00  0.00000000000E+00  0.16975971203E+04  0.22123677611E+04  0.14187089651E+04 0.  0.
        1    1    3    3  502    0 -0.14071109095E+03 -0.32575987165E+03 -0.10902845113E+03  0.37122272058E+03  0.50400001928E-02 0.  1.
       -1    1    3    3    0  502  0.14071109095E+03  0.32575987165E+03  0.18066255714E+04  0.18411450406E+04  0.50400001928E-02 0. -1.
</event>
<event>
 5   0  0.1648463E-03  0.1383141E+04  0.7818609E-02  0.8966113E-01
        2   -1    0    0  501    0  0.00000000000E+00  0.00000000000E+00  0.26278144768E+04  0.26278144768E+04  0.25500000920E-02 0.  1.
       -2   -1    0    0    0  501  0.00000000000E+00  0.00000000000E+00 -0.18200278243E+03  0.18200278245E+03  0.25500000920E-02 0. -1.
    10030    2    1    2    0    0  0.00000000000E+00  0.00000000000E+00  0.24458116943E+04  0.28098172592E+04  0.13831406964E+04 0.  0.
        1    1    3    3  502    0  0.20664219229E+03 -0.57189402985E+03  0.18920784187E+04  0.19873913856E+04  0.50400001928E-02 0.  1.
       -1    1    3    3    0  502 -0.20664219229E+03  0.57189402985E+03  0.55373327561E+03  0.82242587359E+03  0.50400001928E-02 0. -1.
</event>
<event>
 5   0  0.8673728E-04  0.1399034E+04  0.7818609E-02  0.8954518E-01
       -1   -1    0    0    0  501  0.00000000000E+00  0.00000000000E+00  0.61113379924E+03  0.61113379926E+03  0.50400001928E-02 0.  1.
        1   -1    0    0  501    0  0.00000000000E+00  0.00000000000E+00 -0.80068247565E+03  0.80068247567E+03  0.50400001928E-02 0. -1.
    10030    2    1    2    0    0  0.00000000000E+00  0.00000000000E+00 -0.18954867642E+03  0.14118162749E+04  0.13990341288E+04 0.  0.
        3    1    3    3  502    0  0.50451092721E+03 -0.29249222277E+03  0.29507261970E+03  0.65356777548E+03  0.10100000352E+00 0.  1.
       -3    1    3    3    0  502 -0.50451092721E+03  0.29249222277E+03 -0.48462129612E+03  0.75824849944E+03  0.10100000352E+00 0. -1.
</event>
<event>
 5   0  0.8609148E-04  0.1383511E+04  0.7818609E-02  0.8965842E-01
       -1   -1    0    0    0  501  0.00000000000E+00  0.00000000000E+00  0.38147866965E+03  0.38147866969E+03  0.50400001928E-02 0. -1.
        1   -1    0    0  501    0  0.00000000000E+00  0.00000000000E+00 -0.12543964943E+04  0.12543964943E+04  0.50400001928E-02 0.  1.
    10030    2    1    2    0    0  0.00000000000E+00  0.00000000000E+00 -0.87291782464E+03  0.16358751640E+04  0.13835107602E+04 0.  0.
        5    1    3    3  502    0  0.36922319185E+03 -0.18649270558E+03  0.21910980596E+03  0.46812016801E+03  0.46999998093E+01 0. -1.
       -5    1    3    3    0  502 -0.36922319185E+03  0.18649270558E+03 -0.10920276306E+04  0.11677549960E+04  0.46999998093E+01 0.  1.
</event>
<event>
 5   0  0.8673728E-04  0.1257016E+04  0.7818609E-02  0.9064364E-01
        1   -1    0    0  501    0  0.00000000000E+00  0.00000000000E+00  0.74171087426E+03  0.74171087427E+03  0.50400001928E-02 0. -1.
       -1   -1    0    0    0  501  0.00000000000E+00  0.00000000000E+00 -0.53258230752E+03  0.53258230755E+03  0.50400001928E-02 0.  1.
    10030    2    1    2    0    0  0.00000000000E+00  0.00000000000E+00  0.20912856673E+03  0.12742931818E+04  0.12570156546E+04 0.  0.
        3    1    3    3  502    0  0.54806783039E+03  0.86556981318E+02  0.40383650513E+03  0.68626116807E+03  0.10100000352E+00 0. -1.
       -3    1    3    3    0  502 -0.54806783039E+03 -0.86556981318E+02 -0.19470793839E+03  0.58803201375E+03  0.10100000352E+00 0.  1.
</event>
<event>
 5   0  0.1578965E-03  0.1472400E+04  0.7818609E-02  0.8903017E-01
        2   -1    0    0  501    0  0.00000000000E+00  0.00000000000E+00  0.13354628964E+04  0.13354628964E+04  0.25500000920E-02 0. -1.
       -2   -1    0    0    0  501  0.00000000000E+00  0.00000000000E+00 -0.40584444850E+03  0.40584444851E+03  0.25500000920E-02 0.  1.
    10030    2    1    2    0    0  0.00000000000E+00  0.00000000000E+00  0.92961844788E+03  0.17413073449E+04  0.14723996777E+04 0.  0.
        2    1    3    3  502    0  0.33451271618E+03 -0.56751316380E+03  0.85349828277E+03  0.10781601305E+04  0.25500000920E-02 0.  1.
       -2    1    3    3    0  502 -0.33451271618E+03  0.56751316380E+03  0.76120165116E+02  0.66314721437E+03  0.25500000920E-02 0. -1.
</event>
<event>
 5   0  0.1578965E-03  0.1406890E+04  0.7818609E-02  0.8948846E-01
       -2   -1    0    0    0  501  0.00000000000E+00  0.00000000000E+00  0.27103199244E+03  0.27103199245E+03  0.25500000920E-02 0.  1.
        2   -1    0    0  501    0  0.00000000000E+00  0.00000000000E+00 -0.18257432660E+04  0.18257432660E+04  0.25500000920E-02 0. -1.
    10030    2    1    2    0    0  0.00000000000E+00  0.00000000000E+00 -0.15547112735E+04  0.20967752584E+04  0.14068899532E+04 0.  0.
        2    1    3    3  502    0  0.35475879216E+02 -0.57659965316E+03 -0.17914815451E+03  0.60483035581E+03  0.25500000920E-02 0.  1.
       -2    1    3    3    0  502 -0.35475879216E+02  0.57659965316E+03 -0.13755631190E+04  0.14919449026E+04  0.25500000920E-02 0. -1.
</event>
<event>
 5   0  0.1648213E-03  0.1412340E+04  0.7818609E-02  0.8944934E-01
       -2   -1    0    0    0  501  0.00000000000E+00  0.00000000000E+00  0.45122688541E+03  0.45122688542E+03  0.25500000920E-02 0.  1.
        2   -1    0    0  501    0  0.00000000000E+00  0.00000000000E+00 -0.11051559056E+04  0.11051559056E+04  0.25500000920E-02 0. -1.
    10030    2    1    2    0    0  0.00000000000E+00  0.00000000000E+00 -0.65392902023E+03  0.15563827911E+04  0.14123399834E+04 0.  0.
        4    1    3    3  502    0  0.18072538362E+03 -0.36723397517E+02  0.42422023488E+03  0.46257398629E+03  0.12699999809E+01 0.  1.
       -4    1    3    3    0  502 -0.18072538362E+03  0.36723397517E+02 -0.10781492551E+04  0.10938088048E+04  0.12699999809E+01 0. -1.
</event>
<event>
 5   0  0.6048000E-04  0.1180389E+04  0.7818609E-02  0.9130197E-01
        3   -1    0    0  501    0  0.00000000000E+00  0.00000000000E+00  0.62721587452E+03  0.62721588265E+03  0.10100000352E+00 0.  1.
       -3   -1    0    0    0  501  0.00000000000E+00  0.00000000000E+00 -0.55535847327E+03  0.55535848246E+03  0.10100000352E+00 0. -1.
    10030    2    1    2    0    0  0.00000000000E+00  0.00000000000E+00  0.71857401243E+02  0.11825743651E+04  0.11803891913E+04 0.  0.
        1    1    3    3  502    0 -0.68736753564E+02 -0.58591323031E+03  0.53585343326E+02  0.59236006262E+03  0.50400001928E-02 0. -1.
       -1    1    3    3    0  502  0.68736753564E+02  0.58591323031E+03  0.18272057917E+02  0.59021430249E+03  0.50400001928E-02 0.  1.
</event>
<event>
 5   0  0.8673728E-04  0.1367874E+04  0.7818609E-02  0.8977407E-01
       -1   -1    0    0    0  501  0.00000000000E+00  0.00000000000E+00  0.69049560345E+03  0.69049560347E+03  0.50400001928E-02 0. -1.
        1   -1    0    0  501    0  0.00000000000E+00  0.00000000000E+00 -0.67744088615E+03  0.67744088616E+03  0.50400001928E-02 0.  1.
    10030    2    1    2    0    0  0.00000000000E+00  0.00000000000E+00  0.13054717306E+02  0.13679364896E+04  0.13678741953E+04 0.  0.
        3    1    3    3  502    0  0.19217168474E+03  0.46577180886E+03  0.46903799803E+03  0.68838215270E+03  0.10100000352E+00 0. -1.
       -3    1    3    3    0  502 -0.19217168474E+03 -0.46577180886E+03 -0.45598328073E+03  0.67955433694E+03  0.10100000352E+00 0.  1.
</event>
<event>
 5   0  0.8502300E-04  0.1409358E+04  0.7818609E-02  0.8947072E-01
        1   -1    0    0  501    0  0.00000000000E+00  0.00000000000E+00  0.19961468208E+04  0.19961468208E+04  0.50400001928E-02 0. -1.
       -1   -1    0    0    0  501  0.00000000000E+00  0.00000000000E+00 -0.24876564994E+03  0.24876564999E+03  0.50400001928E-02 0.  1.
    10030    2    1    2    0    0  0.00000000000E+00  0.00000000000E+00  0.17473811709E+04  0.22449124708E+04  0.14093583807E+04 0.  0.
        4    1    3    3  502    0  0.54941756106E+03  0.28724187662E+03  0.34013292606E+03  0.70714890396E+03  0.12699999809E+01 0.  1.
       -4    1    3    3    0  502 -0.54941756106E+03 -0.28724187662E+03  0.14072482448E+04  0.15377635668E+04  0.12699999809E+01 0. -1.
</event>
<event>
 5   0  0.1605214E-03  0.1408742E+04  0.7818609E-02  0.8947515E-01
        2   -1    0    0  501    0  0.00000000000E+00  0.00000000000E+00  0.11711507828E+04  0.11711507828E+04  0.25500000920E-02 0.  1.
       -2   -1    0    0    0  501  0.00000000000E+00  0.00000000000E+00 -0.42363322428E+03  0.42363322429E+03  0.25500000920E-02 0. -1.
    10030    2    1    2    0    0  0.00000000000E+00  0.00000000000E+00  0.74751755853E+03  0.15947840071E+04  0.14087418248E+04 0.  0.
        5    1    3    3  502    0 -0.46457444562E+03  0.57187177404E+02 -0.22207248090E+03  0.51811009019E+03  0.46999998093E+01 0. -1.
       -5    1    3    3    0  502  0.46457444562E+03 -0.57187177404E+02  0.96959003944E+03  0.10766739169E+04  0.46999998093E+01 0.  1.
</event>
<event>
 5   0  0.8609148E-04  0.1390471E+04  0.7818609E-02  0.8960745E-01
       -1   -1    0    0    0  501  0.00000000000E+00  0.00000000000E+00  0.61423610770E+03  0.61423610772E+03  0.50400001928E-02 0. -1.
        1   -1    0    0  501    0  0.00000000000E+00  0.00000000000E+00 -0.78691624299E+03  0.78691624301E+03  0.50400001928E-02 0.  1.
    10030    2    1    2    0    0  0.00000000000E+00  0.00000000000E+00 -0.17268013529E+03  0.14011523507E+04  0.13904709565E+04 0.  0.
        5    1    3    3  502    0  0.52060309450E+03  0.70212448739E+02  0.37254026987E+03  0.64402306840E+03  0.46999998093E+01 0. -1.
       -5    1    3    3    0  502 -0.52060309450E+03 -0.70212448739E+02 -0.54522040516E+03  0.75712928233E+03  0.46999998093E+01 0.  1.
</event>
<event>
 5   0  0.9007180E-04  0.1389935E+04  0.7818609E-02  0.8961136E-01
       -1   -1    0    0    0  501  0.00000000000E+00  0.00000000000E+00  0.49022627106E+03  0.49022627109E+03  0.50400001928E-02 0.  1.
        1   -1    0    0  501    0  0.00000000000E+00  0.00000000000E+00 -0.98521885283E+03  0.98521885285E+03  0.50400001928E-02 0. -1.
    10030    2    1    2    0    0  0.00000000000E+00  0.00000000000E+00 -0.49499258177E+03  0.14754451239E+04  0.13899354869E+04 0.  0.
        2    1    3    3  502    0  0.21347148228E+03 -0.49299038817E+03  0.22050135664E+03  0.58071545946E+03  0.25500000920E-02 0.  1.
       -2    1    3    3    0  502 -0.21347148228E+03  0.49299038817E+03 -0.71549393841E+03  0.89472966447E+03  0.25500000920E-02 0. -1.
</event>
<event>
 5   0  0.1605214E-03  0.1380952E+04  0.7818609E-02  0.8967723E-01
        2   -1    0    0  501    0  0.00000000000E+00  0.00000000000E+00  0.91874912378E+03  0.91874912378E+03  0.25500000920E-02 0. -1.
       -2   -1    0    0    0  501  0.00000000000E+00  0.00000000000E+00 -0.51892007228E+03  0.51892007228E+03  0.25500000920E-02 0.  1.
    10030    2    1    2    0    0  0.00000000000E+00  0.00000000000E+00  0.39982905150E+03  0.14376691961E+04  0.13809523695E+04 0.  0.
        5    1    3    3  502    0 -0.50364581297E+03 -0.72989696264E+02  0.68571510074E+03  0.85394021457E+03  0.46999998093E+01 0. -1.
       -5    1    3    3    0  502  0.50364581297E+03  0.72989696264E+02 -0.28588604924E+03  0.58372898149E+03  0.46999998093E+01 0.  1.
</event>
<event>
 5   0  0.8673728E-04  0.1402094E+04  0.7818609E-02  0.8952305E-01
        1   -1    0    0  501    0  0.00000000000E+00  0.00000000000E+00  0.10235407015E+04  0.10235407015E+04  0.50400001928E-02 0.  1.
       -1   -1    0    0    0  501  0.00000000000E+00  0.00000000000E+00 -0.48016317927E+03  0.48016317930E+03  0.50400001928E-02 0. -1.
    10030    2    1    2    0    0  0.00000000000E+00  0.00000000000E+00  0.54337752219E+03  0.15037038808E+04  0.14020935166E+04 0.  0.
        3    1    3    3  502    0  0.54004513704E+03 -0.32720579033E+03  0.59831574174E+03  0.86988166797E+03  0.10100000352E+00 0.  1.
       -3    1    3    3    0  502 -0.54004513704E+03  0.32720579033E+03 -0.54938219544E+02  0.63382221280E+03  0.10100000352E+00 0. -1.
</event>
<event>
 5   0  0.8673728E-04  0.1565072E+04  0.7818609E-02  0.8842297E-01
       -1   -1    0    0    0  501  0.00000000000E+00  0.00000000000E+00  0.76989125310E+03  0.76989125312E+03  0.50400001928E-02 0. -1.
        1   -1    0    0  501    0  0.00000000000E+00  0.00000000000E+00 -0.79538869738E+03  0.79538869739E+03  0.50400001928E-02 0.  1.
    10030    2    1    2    0    0  0.00000000000E+00  0.00000000000E+00 -0.25497444276E+02  0.15652799505E+04  0.15650722679E+04 0.  0.
        3    1    3    3  502    0 -0.40431796798E+03 -0.53619756691E+03 -0.41452574220E+03  0.78918467493E+03  0.10100000352E+00 0.  1.
       -3    1    3    3    0  502  0.40431796798E+03  0.53619756691E+03  0.38902829792E+03  0.77609527558E+03  0.10100000352E+00 0. -1.
</event>
<event>
 5   0  0.8673728E-04  0.1403106E+04  0.7818609E-02  0.8951573E-01
       -1   -1    0    0    0  501  0.00000000000E+00  0.00000000000E+00  0.41019164174E+03  0.41019164177E+03  0.50400001928E-02 0. -1.
        1   -1    0    0  501    0  0.00000000000E+00  0.00000000000E+00 -0.11998705857E+04  0.11998705857E+04  0.50400001928E-02 0.  1.
    10030    2    1    2    0    0  0.00000000000E+00  0.00000000000E+00 -0.78967894394E+03  0.16100622275E+04  0.14031063901E+04 0.  0.
        3    1    3    3  502    0 -0.13235113476E+03 -0.68870440058E+03 -0.41619345702E+03  0.81550449301E+03  0.10100000352E+00 0.  1.
       -3    1    3    3    0  502  0.13235113476E+03  0.68870440058E+03 -0.37348548693E+03  0.79455773446E+03  0.10100000352E+00 0. -1.
</event>
<event>
 5   0  0.6048000E-04  0.1409178E+04  0.7818609E-02  0.8947202E-01
       -4   -1    0    0    0  501  0.00000000000E+00  0.00000000000E+00  0.38839944237E+03  0.38840151870E+03  0.12699999809E+01 0. -1.
        4   -1    0    0  501    0  0.00000000000E+00  0.00000000000E+00 -0.12781772960E+04  0.12781779269E+04  0.12699999809E+01 0.  1.
    10030    2    1    2    0    0  0.00000000000E+00  0.00000000000E+00 -0.88977785361E+03  0.16665794456E+04  0.14091779234E+04 0.  0.
        5    1    3    3  502    0 -0.14115854520E+03 -0.62801686919E+03 -0.78374258211E+03  0.10142018773E+04  0.46999998093E+01 0.  1.
       -5    1    3    3    0  502  0.14115854520E+03  0.62801686919E+03 -0.10603527151E+03  0.65237756834E+03  0.46999998093E+01 0. -1.
</event>
<event>
 5   0  0.8502300E-04  0.1464550E+04  0.7818609E-02  0.8908375E-01
       -1   -1    0    0    0  501  0.00000000000E+00  0.00000000000E+00  0.50715320609E+03  0.50715320612E+03  0.50400001928E-02 0. -1.
        1   -1    0    0  501    0  0.00000000000E+00  0.00000000000E+00 -0.10573267630E+04  0.10573267630E+04  0.50400001928E-02 0.  1.
    10030    2    1    2    0    0  0.00000000000E+00  0.00000000000E+00 -0.55017355689E+03  0.15644799691E+04  0.14645499756E+04 0.  0.
        4    1    3    3  502    0  0.62239382842E+03  0.35595641378E+03 -0.11611741101E+03  0.72633594996E+03  0.12699999809E+01 0. -1.
       -4    1    3    3    0  502 -0.62239382842E+03 -0.35595641378E+03 -0.43405614588E+03  0.83814401915E+03  0.12699999809E+01 0.  1.
</event>
<event>
 5   0  0.8502300E-04  0.1404942E+04  0.7818609E-02  0.8950249E-01
       -1   -1    0    0    0  501  0.00000000000E+00  0.00000000000E+00  0.50773368850E+03  0.50773368853E+03  0.50400001928E-02 0. -1.
        1   -1    0    0  501    0  0.00000000000E+00  0.00000000000E+00 -0.97189855248E+03  0.97189855249E+03  0.50400001928E-02 0.  1.
    10030    2    1    2    0    0  0.00000000000E+00  0.00000000000E+00 -0.46416486397E+03  0.14796322410E+04  0.14049421866E+04 0.  0.
        4    1    3    3  502    0 -0.40215331942E+03 -0.16961620858E+03 -0.81176874790E+03  0.92166537502E+03  0.12699999809E+01 0.  1.
       -4    1    3    3    0  502  0.40215331942E+03  0.16961620858E+03  0.34760388393E+03  0.55796686600E+03  0.12699999809E+01 0. -1.
</event>
<event>
 5   0  0.1706986E-03  0.1269304E+04  0.7818609E-02  0.9054268E-01
        2   -1    0    0  501    0  0.00000000000E+00  0.00000000000E+00  0.67323985252E+03  0.67323985252E+03  0.25500000920E-02 0. -1.
       -2   -1    0    0    0  501  0.00000000000E+00  0.00000000000E+00 -0.59827560574E+03  0.59827560575E+03  0.25500000920E-02 0.  1.
    10030    2    1    2    0    0  0.00000000000E+00  0.00000000000E+00  0.74964246777E+02  0.12715154583E+04  0.12693037156E+04 0.  0.
        3    1    3    3  502    0  0.37290978498E+03 -0.26232418315E+03 -0.40477020664E+03  0.60968402898E+03  0.10100000352E+00 0.  1.
       -3    1    3    3    0  502 -0.37290978498E+03  0.26232418315E+03  0.47973445342E+03  0.66183142929E+03  0.10100000352E+00 0. -1.
</event>
<event>
 5   0  0.1648213E-03  0.1417934E+04  0.7818609E-02  0.8940938E-01
       -2   -1    0    0    0  501  0.00000000000E+00  0.00000000000E+00  0.42152282650E+03  0.42152282651E+03  0.25500000920E-02 0. -1.
        2   -1    0    0  501    0  0.00000000000E+00  0.00000000000E+00 -0.11924247317E+04  0.11924247317E+04  0.25500000920E-02 0.  1.
    10030    2    1    2    0    0  0.00000000000E+00  0.00000000000E+00 -0.77090190522E+03  0.16139475582E+04  0.14179340511E+04 0.  0.
        4    1    3    3  502    0 -0.48444977248E+03 -0.55555952782E+02 -0.97123445247E+03  0.10867732148E+04  0.12699999809E+01 0.  1.
       -4    1    3    3    0  502  0.48444977248E+03  0.55555952782E+02  0.20033254725E+03  0.52717434339E+03  0.12699999809E+01 0. -1.
</event>
<event>
 5   0  0.1648213E-03  0.1403541E+04  0.7818609E-02  0.8951259E-01
        2   -1    0    0  501    0  0.00000000000E+00  0.00000000000E+00  0.11153721632E+04  0.11153721632E+04  0.25500000920E-02 0.  1.
       -2   -1    0    0    0  501  0.00000000000E+00  0.00000000000E+00 -0.44154047783E+03  0.44154047784E+03  0.25500000920E-02 0. -1.
    10030    2    1    2    0    0  0.00000000000E+00  0.00000000000E+00  0.67383168535E+03  0.15569126410E+04  0.14035411756E+04 0.  0.
        4    1    3    3  502    0 -0.24691656964E+03  0.42432081099E+03  0.89317521793E+03  0.10192053404E+04  0.12699999809E+01 0.  1.
       -4    1    3    3    0  502  0.24691656964E+03 -0.42432081099E+03 -0.21934353259E+03  0.53770730066E+03  0.12699999809E+01 0. -1.
</event>
<event>
 5   0  0.8609148E-04  0.1417823E+04  0.7818609E-02  0.8941018E-01
       -1   -1    0    0    0  501  0.00000000000E+00  0.00000000000E+00  0.40562236033E+03  0.40562236036E+03  0.50400001928E-02 0.  1.
        1   -1    0    0  501    0  0.00000000000E+00  0.00000000000E+00 -0.12389737802E+04  0.12389737802E+04  0.50400001928E-02 0. -1.
    10030    2    1    2    0    0  0.00000000000E+00  0.00000000000E+00 -0.83335141983E+03  0.16445961405E+04  0.14178229355E+04 0.  0.
        5    1    3    3  502    0 -0.43988697532E+03  0.87081910278E+02 -0.10535366343E+04  0.11450088821E+04  0.46999998093E+01 0. -1.
       -5    1    3    3    0  502  0.43988697532E+03 -0.87081910278E+02  0.22018521448E+03  0.49958725847E+03  0.46999998093E+01 0.  1.
</event>
<event>
 5   0  0.8673728E-04  0.1411046E+04  0.7818609E-02  0.8945861E-01
       -1   -1    0    0    0  501  0.00000000000E+00  0.00000000000E+00  0.44705294999E+03  0.44705295001E+03  0.50400001928E-02 0.  1.
        1   -1    0    0  501    0  0.00000000000E+00  0.00000000000E+00 -0.11134315072E+04  0.11134315072E+04  0.50400001928E-02 0. -1.
    10030    2    1    2    0    0  0.00000000000E+00  0.00000000000E+00 -0.66637855725E+03  0.15604844573E+04  0.14110461934E+04 0.  0.
        3    1    3    3  502    0  0.27534934470E+03  0.63739615437E+03 -0.47163400467E+03  0.83936271290E+03  0.10100000352E+00 0. -1.
       -3    1    3    3    0  502 -0.27534934470E+03 -0.63739615437E+03 -0.19474455257E+03  0.72112174436E+03  0.10100000352E+00 0.  1.
</event>
<event>
 5   0  0.1648213E-03  0.1408684E+04  0.7818609E-02  0.8947557E-01
        2   -1    0    0  501    0  0.00000000000E+00  0.00000000000E+00  0.80256366108E+03  0.80256366108E+03  0.25500000920E-02 0. -1.
       -2   -1    0    0    0  501  0.00000000000E+00  0.00000000000E+00 -0.61814097244E+03  0.61814097245E+03  0.25500000920E-02 0.  1.
    10030    2    1    2    0    0  0.00000000000E+00  0.00000000000E+00  0.18442268864E+03  0.14207046335E+04  0.14086837571E+04 0.  0.
        4    1    3    3  502    0  0.43748044791E+03 -0.29817216553E+03  0.56071835825E+03  0.77116954866E+03  0.12699999809E+01 0. -1.
       -4    1    3    3    0  502 -0.43748044791E+03  0.29817216553E+03 -0.37629566962E+03  0.64953508487E+03  0.12699999809E+01 0.  1.
</event>
<event>
 5   0  0.1605214E-03  0.1239632E+04  0.7818609E-02  0.9078857E-01
        2   -1    0    0  501    0  0.00000000000E+00  0.00000000000E+00  0.78888075520E+03  0.78888075521E+03  0.25500000920E-02 0.  1.
       -2   -1    0    0    0  501  0.00000000000E+00  0.00000000000E+00 -0.48698317055E+03  0.48698317055E+03  0.25500000920E-02 0. -1.
    10030    2    1    2    0    0  0.00000000000E+00  0.00000000000E+00  0.30189758465E+03  0.12758639258E+04  0.12396316410E+04 0.  0.
        5    1    3    3  502    0  0.15913456915E+03 -0.32522434000E+03 -0.36679996217E+03  0.51542117213E+03  0.46999998093E+01 0. -1.
       -5    1    3    3    0  502 -0.15913456915E+03  0.32522434000E+03  0.66869754682E+03  0.76044275363E+03  0.46999998093E+01 0.  1.
</event>
<event>
 5   0  0.8609148E-04  0.1372512E+04  0.7818609E-02  0.8973959E-01
       -1   -1    0    0    0  501  0.00000000000E+00  0.00000000000E+00  0.88948027691E+03  0.88948027692E+03  0.50400001928E-02 0. -1.
        1   -1    0    0  501    0  0.00000000000E+00  0.00000000000E+00 -0.52946368719E+03  0.52946368722E+03  0.50400001928E-02 0.  1.
    10030    2    1    2    0    0  0.00000000000E+00  0.00000000000E+00  0.36001658972E+03  0.14189439641E+04  0.13725123054E+04 0.  0.
        5    1    3    3  502    0 -0.17624815872E+03  0.29648012941E+03 -0.43332508413E+03  0.55385611771E+03  0.46999998093E+01 0.  1.
       -5    1    3    3    0  502  0.17624815872E+03 -0.29648012941E+03  0.79334167385E+03  0.86508784643E+03  0.46999998093E+01 0. -1.
</event>
<event>
 5   0  0.8673728E-04  0.1396838E+04  0.7818609E-02  0.8956111E-01
        1   -1    0    0  501    0  0.00000000000E+00  0.00000000000E+00  0.12926235204E+04  0.12926235204E+04  0.50400001928E-02 0.  1.
       -1   -1    0    0    0  501  0.00000000000E+00  0.00000000000E+00 -0.37736348306E+03  0.37736348309E+03  0.50400001928E-02 0. -1.
    10030    2    1    2    0    0  0.00000000000E+00  0.00000000000E+00  0.91526003732E+03  0.16699870035E+04  0.13968377343E+04 0.  0.
        3    1    3    3  502    0  0.41998490775E+03 -0.55519242647E+03  0.52486779447E+03  0.87184411739E+03  0.10100000352E+00 0. -1.
       -3    1    3    3    0  502 -0.41998490775E+03  0.55519242647E+03  0.39039224284E+03  0.79814288609E+03  0.10100000352E+00 0.  1.
</event>
<event>
 5   0  0.1578965E-03  0.1404211E+04  0.7818609E-02  0.8950776E-01
        2   -1    0    0  501    0  0.00000000000E+00  0.00000000000E+00  0.46954478787E+03  0.46954478788E+03  0.25500000920E-02 0.  1.
       -2   -1    0    0    0  501  0.00000000000E+00  0.00000000000E+00 -0.10498505702E+04  0.10498505702E+04  0.25500000920E-02 0. -1.
    10030    2    1    2    0    0  0.00000000000E+00  0.00000000000E+00 -0.58030578229E+03  0.15193953580E+04  0.14042106156E+04 0.  0.
        2    1    3    3  502    0  0.46989534449E+03  0.34292071960E+02  0.27309889897E+03  0.54457376874E+03  0.25500000920E-02 0.  1.
       -2    1    3    3    0  502 -0.46989534449E+03 -0.34292071960E+02 -0.85340468126E+03  0.97482158931E+03  0.25500000920E-02 0. -1.
</event>
<event>
 5   0  0.1605214E-03  0.1432939E+04  0.7818609E-02  0.8930315E-01
       -2   -1    0    0    0  501  0.00000000000E+00  0.00000000000E+00  0.28547332021E+03  0.28547332022E+03  0.25500000920E-02 0.  1.
        2   -1    0    0  501    0  0.00000000000E+00  0.00000000000E+00 -0.17981661406E+04  0.17981661406E+04  0.25500000920E-02 0. -1.
    10030    2    1    2    0    0  0.00000000000E+00  0.00000000000E+00 -0.15126928204E+04  0.20836394608E+04  0.14329388800E+04 0.  0.
        5    1    3    3  502    0  0.34824186425E+03 -0.56873973896E+03 -0.37557961032E+03  0.76538841144E+03  0.46999998093E+01 0.  1.
       -5    1    3    3    0  502 -0.34824186425E+03  0.56873973896E+03 -0.11371132100E+04  0.13182510494E+04  0.46999998093E+01 0. -1.
</event>
<event>
 5   0  0.1648463E-03  0.1306088E+04  0.7818609E-02  0.9024751E-01
        2   -1    0    0  501    0  0.00000000000E+00  0.00000000000E+00  0.18201029114E+04  0.18201029114E+04  0.25500000920E-02 0.  1.
       -2   -1    0    0    0  501  0.00000000000E+00  0.00000000000E+00 -0.23430890033E+03  0.23430890034E+03  0.25500000920E-02 0. -1.
    10030    2    1    2    0    0  0.00000000000E+00  0.00000000000E+00  0.15857940111E+04  0.20544118118E+04  0.13060877638E+04 0.  0.
        1    1    3    3  502    0  0.30122372206E+03 -0.57227110571E+03  0.93564922475E+03  0.11373958946E+04  0.50400001928E-02 0.  1.
       -1    1    3    3    0  502 -0.30122372206E+03  0.57227110571E+03  0.65014478633E+03  0.91701591719E+03  0.50400001928E-02 0. -1.
</event>
<event>
 5   0  0.1648213E-03  0.1391813E+04  0.7818609E-02  0.8959766E-01
        2   -1    0    0  501    0  0.00000000000E+00  0.00000000000E+00  0.13658069333E+04  0.13658069333E+04  0.25500000920E-02 0. -1.
       -2   -1    0    0    0  501  0.00000000000E+00  0.00000000000E+00 -0.35457864779E+03  0.35457864780E+03  0.25500000920E-02 0.  1.
    10030    2    1    2    0    0  0.00000000000E+00  0.00000000000E+00  0.10112282855E+04  0.17203855811E+04  0.13918131707E+04 0.  0.
        4    1    3    3  502    0 -0.65541868015E+03  0.27575794977E+02  0.21850848459E+03  0.69143448099E+03  0.12699999809E+01 0.  1.
       -4    1    3    3    0  502  0.65541868015E+03 -0.27575794977E+02  0.79271980095E+03  0.10289511001E+04  0.12699999809E+01 0. -1.
</event>
<event>
 5   0  0.1605214E-03  0.1381490E+04  0.7818609E-02  0.8967327E-01
        2   -1    0    0  501    0  0.00000000000E+00  0.00000000000E+00  0.51188841010E+03  0.51188841011E+03  0.25500000920E-02 0. -1.
       -2   -1    0    0    0  501  0.00000000000E+00  0.00000000000E+00 -0.93209532231E+03  0.93209532231E+03  0.25500000920E-02 0.  1.
    10030    2    1    2    0    0  0.00000000000E+00  0.00000000000E+00 -0.42020691221E+03  0.14439837324E+04  0.13814901992E+04 0.  0.
        5    1    3    3  502    0  0.13690136144E+03 -0.59738482712E+03  0.12289264184E+03  0.62508823845E+03  0.46999998093E+01 0. -1.
       -5    1    3    3    0  502 -0.13690136144E+03  0.59738482712E+03 -0.54309955405E+03  0.81889549397E+03  0.46999998093E+01 0.  1.
</event>
<event>
 5   0  0.1706986E-03  0.1383911E+04  0.7818609E-02  0.8965548E-01
       -2   -1    0    0    0  501  0.00000000000E+00  0.00000000000E+00  0.79716738728E+03  0.79716738728E+03  0.25500000920E-02 0. -1.
        2   -1    0    0  501    0  0.00000000000E+00  0.00000000000E+00 -0.60062979084E+03  0.60062979085E+03  0.25500000920E-02 0.  1.
    10030    2    1    2    0    0  0.00000000000E+00  0.00000000000E+00  0.19653759643E+03  0.13977971781E+04  0.13839110970E+04 0.  0.
        3    1    3    3  502    0 -0.28141198937E+03 -0.24133371173E+03  0.68839819066E+03  0.78187386916E+03  0.10100000352E+00 0. -1.
       -3    1    3    3    0  502  0.28141198937E+03  0.24133371173E+03 -0.49186059422E+03  0.61592330897E+03  0.10100000352E+00 0.  1.
</event>
<event>
 5   0  0.8502300E-04  0.1422633E+04  0.7818609E-02  0.8937597E-01
       -1   -1    0    0    0  501  0.00000000000E+00  0.00000000000E+00  0.51995373867E+03  0.51995373870E+03  0.50400001928E-02 0.  1.
        1   -1    0    0  501    0  0.00000000000E+00  0.00000000000E+00 -0.97310736022E+03  0.97310736024E+03  0.50400001928E-02 0. -1.
    10030    2    1    2    0    0  0.00000000000E+00  0.00000000000E+00 -0.45315362155E+03  0.14930610989E+04  0.14226325036E+04 0.  0.
        4    1    3    3  502    0 -0.69308367005E+03  0.59095420171E+02 -0.70514360060E+02  0.69916459453E+03  0.12699999809E+01 0.  1.
       -4    1    3    3    0  502  0.69308367005E+03 -0.59095420171E+02 -0.38263926149E+03  0.79389650440E+03  0.12699999809E+01 0. -1.
</event>
<event>
 5   0  0.1605214E-03  0.1397977E+04  0.7818609E-02  0.8955284E-01
        2   -1    0    0  501    0  0.00000000000E+00  0.00000000000E+00  0.14637030846E+04  0.14637030846E+04  0.25500000920E-02 0.  1.
       -2   -1    0    0    0  501  0.00000000000E+00  0.00000000000E+00 -0.33380064157E+03  0.33380064158E+03  0.25500000920E-02 0. -1.
    10030    2    1    2    0    0  0.00000000000E+00  0.00000000000E+00  0.11299024431E+04  0.17975037262E+04  0.13979771511E+04 0.  0.
        5    1    3    3  502    0 -0.69475841610E+03  0.41304467774E+02  0.48194437104E+03  0.84657414476E+03  0.46999998093E+01 0.  1.
       -5    1    3    3    0  502  0.69475841610E+03 -0.41304467774E+02  0.64795807201E+03  0.95092958145E+03  0.46999998093E+01 0. -1.
</event>
<event>
 5   0  0.8609148E-04  0.1454355E+04  0.7818609E-02  0.8915387E-01
       -1   -1    0    0    0  501  0.00000000000E+00  0.00000000000E+00  0.78494865183E+03  0.78494865184E+03  0.50400001928E-02 0. -1.
        1   -1    0    0  501    0  0.00000000000E+00  0.00000000000E+00 -0.67365861749E+03  0.67365861751E+03  0.50400001928E-02 0.  1.
    10030    2    1    2    0    0  0.00000000000E+00  0.00000000000E+00  0.11129003434E+03  0.14586072693E+04  0.14543554223E+04 0.  0.
        5    1    3    3  502    0 -0.39414131242E+03 -0.58474953395E+03  0.23360656105E+03  0.74288189302E+03  0.46999998093E+01 0. -1.
       -5    1    3    3    0  502  0.39414131242E+03  0.58474953395E+03 -0.12231652671E+03  0.71572537633E+03  0.46999998093E+01 0.  1.
</event>
<event>
 5   0  0.8609148E-04  0.1389037E+04  0.7818609E-02  0.8961792E-01
        1   -1    0    0  501    0  0.00000000000E+00  0.00000000000E+00  0.14188926256E+04  0.14188926256E+04  0.50400001928E-02 0. -1.
       -1   -1    0    0    0  501  0.00000000000E+00  0.00000000000E+00 -0.33995246185E+03  0.33995246188E+03  0.50400001928E-02 0.  1.
    10030    2    1    2    0    0  0.00000000000E+00  0.00000000000E+00  0.10789401637E+04  0.17588450875E+04  0.13890371359E+04 0.  0.
        5    1    3    3  502    0  0.63634885691E+03  0.22152769879E+03  0.75255710425E+03  0.10101379481E+04  0.46999998093E+01 0. -1.
       -5    1    3    3    0  502 -0.63634885691E+03 -0.22152769879E+03  0.32638305947E+03  0.74870713936E+03  0.46999998093E+01 0.  1.
</event>
<event>
 5   0  0.8609148E-04  0.1393794E+04  0.7818609E-02  0.8958323E-01
        1   -1    0    0  501    0  0.00000000000E+00  0.00000000000E+00  0.11509166154E+04  0.11509166155E+04  0.50400001928E-02 0.  1.
       -1   -1    0    0    0  501  0.00000000000E+00  0.00000000000E+00 -0.42198153720E+03  0.42198153723E+03  0.50400001928E-02 0. -1.
    10030    2    1    2    0    0  0.00000000000E+00  0.00000000000E+00  0.72893507824E+03  0.15728981527E+04  0.13937941923E+04 0.  0.
        5    1    3    3  502    0  0.62302008059E+03 -0.20633788606E+03  0.62891780009E+03  0.90900441875E+03  0.46999998093E+01 0.  1.
       -5    1    3    3    0  502 -0.62302008059E+03  0.20633788606E+03  0.10001727815E+03  0.66389373394E+03  0.46999998093E+01 0. -1.
</event>
<event>
 5   0  0.9639548E-04  0.1407122E+04  0.7818609E-02  0.8948679E-01
        1   -1    0    0  501    0  0.00000000000E+00  0.00000000000E+00  0.48000357477E+03  0.48000357480E+03  0.50400001928E-02 0. -1.
       -1   -1    0    0    0  501  0.00000000000E+00  0.00000000000E+00 -0.10312385266E+04  0.10312385267E+04  0.50400001928E-02 0.  1.
    10030    2    1    2    0    0  0.00000000000E+00  0.00000000000E+00 -0.55123495187E+03  0.15112421015E+04  0.14071221401E+04 0.  0.
        1    1    3    3  502    0 -0.41901875716E+03  0.19868951361E+03 -0.84386529957E+03  0.96289297719E+03  0.50400001928E-02 0.  1.
       -1    1    3    3    0  502  0.41901875716E+03 -0.19868951361E+03  0.29263034770E+03  0.54834912427E+03  0.50400001928E-02 0. -1.
</event>
<event>
 5   0  0.1706986E-03  0.1228679E+04  0.7818609E-02  0.9088118E-01
       -2   -1    0    0    0  501  0.00000000000E+00  0.00000000000E+00  0.21578707842E+03  0.21578707843E+03  0.25500000920E-02 0. -1.
        2   -1    0    0  501    0  0.00000000000E+00  0.00000000000E+00 -0.17490062280E+04  0.17490062280E+04  0.25500000920E-02 0.  1.
    10030    2    1    2    0    0  0.00000000000E+00  0.00000000000E+00 -0.15332191496E+04  0.19647933064E+04  0.12286788744E+04 0.  0.
        3    1    3    3  502    0 -0.10104075673E+03 -0.57016730420E+03 -0.10947700585E+04  0.12384754662E+04  0.10100000352E+00 0.  1.
       -3    1    3    3    0  502  0.10104075673E+03  0.57016730420E+03 -0.43844909109E+03  0.72631784019E+03  0.10100000352E+00 0. -1.
</event>
<event>
 5   0  0.6048000E-04  0.1388130E+04  0.7818609E-02  0.8962455E-01
       -4   -1    0    0    0  501  0.00000000000E+00  0.00000000000E+00  0.52309061984E+03  0.52309216154E+03  0.12699999809E+01 0.  1.
        4   -1    0    0  501    0  0.00000000000E+00  0.00000000000E+00 -0.92092039678E+03  0.92092127248E+03  0.12699999809E+01 0. -1.
    10030    2    1    2    0    0  0.00000000000E+00  0.00000000000E+00 -0.39782977694E+03  0.14440134340E+04  0.13881304932E+04 0.  0.
        3    1    3    3  502    0  0.50942805250E+03 -0.42494378746E+03 -0.41116925204E+03  0.78048339328E+03  0.10100000352E+00 0.  1.
       -3    1    3    3    0  502 -0.50942805250E+03  0.42494378746E+03  0.13339475096E+02  0.66353004074E+03  0.10100000352E+00 0. -1.
</event>
<event>
 5   0  0.8502300E-04  0.1410175E+04  0.7818609E-02  0.8946486E-01
       -1   -1    0    0    0  501  0.00000000000E+00  0.00000000000E+00  0.72637591811E+03  0.72637591813E+03  0.50400001928E-02 0.  1.
        1   -1    0    0  501    0  0.00000000000E+00  0.00000000000E+00 -0.68442308431E+03  0.68442308432E+03  0.50400001928E-02 0. -1.
    10030    2    1    2    0    0  0.00000000000E+00  0.00000000000E+00  0.41952833802E+02  0.14107990025E+04  0.14101750902E+04 0.  0.
        4    1    3    3  502    0  0.66429811935E+03 -0.22550781158E+03  0.91725941219E+02  0.70750337501E+03  0.12699999809E+01 0. -1.
       -4    1    3    3    0  502 -0.66429811935E+03  0.22550781158E+03 -0.49773107417E+02  0.70329562744E+03  0.12699999809E+01 0.  1.
</event>
<event>
 5   0  0.1578965E-03  0.1403645E+04  0.7818609E-02  0.8951185E-01
        2   -1    0    0  501    0  0.00000000000E+00  0.00000000000E+00  0.14032411153E+04  0.14032411153E+04  0.25500000920E-02 0.  1.
       -2   -1    0    0    0  501  0.00000000000E+00  0.00000000000E+00 -0.35101207895E+03  0.35101207896E+03  0.25500000920E-02 0. -1.
    10030    2    1    2    0    0  0.00000000000E+00  0.00000000000E+00  0.10522290364E+04  0.17542531943E+04  0.14036446576E+04 0.  0.
        2    1    3    3  502    0 -0.39297714018E+03  0.55210673812E+03  0.75418458471E+03  0.10139266595E+04  0.25500000920E-02 0. -1.
       -2    1    3    3    0  502  0.39297714018E+03 -0.55210673812E+03  0.29804445167E+03  0.74032653482E+03  0.25500000920E-02 0.  1.
</event>
<event>
 5   0  0.1578965E-03  0.1396642E+04  0.7818609E-02  0.8956252E-01
       -2   -1    0    0    0  501  0.00000000000E+00  0.00000000000E+00  0.40372772354E+03  0.40372772355E+03  0.25500000920E-02 0. -1.
        2   -1    0    0  501    0  0.00000000000E+00  0.00000000000E+00 -0.12078747820E+04  0.12078747820E+04  0.25500000920E-02 0.  1.
    10030    2    1    2    0    0  0.00000000000E+00  0.00000000000E+00 -0.80414705849E+03  0.16116025056E+04  0.13966424540E+04 0.  0.
        2    1    3    3  502    0  0.43509658736E+03  0.17840736665E+03 -0.99778087952E+03  0.11030434771E+04  0.25500000920E-02 0. -1.
       -2    1    3    3    0  502 -0.43509658736E+03 -0.17840736665E+03  0.19363382103E+03  0.50855902849E+03  0.25500000920E-02 0.  1.
</event>
<event>
 5   0  0.9639548E-04  0.1405955E+04  0.7818609E-02  0.8949519E-01
       -1   -1    0    0    0  501  0.00000000000E+00  0.00000000000E+00  0.15090739233E+04  0.15090739234E+04  0.50400001928E-02 0. -1.
        1   -1    0    0  501    0  0.00000000000E+00  0.00000000000E+00 -0.32747080407E+03  0.32747080411E+03  0.50400001928E-02 0.  1.
    10030    2    1    2    0    0  0.00000000000E+00  0.00000000000E+00  0.11816031193E+04  0.18365447275E+04  0.14059554063E+04 0.  0.
        1    1    3    3  502    0 -0.28343794941E+03 -0.21380078462E+03  0.13833584640E+04  0.14281906338E+04  0.50400001928E-02 0. -1.
       -1    1    3    3    0  502  0.28343794941E+03  0.21380078462E+03 -0.20175534468E+03  0.40835409365E+03  0.50400001928E-02 0.  1.
</event>
<event>
 5   0  0.1605214E-03  0.1387000E+04  0.7818609E-02  0.8963283E-01
        2   -1    0    0  501    0  0.00000000000E+00  0.00000000000E+00  0.13369849195E+04  0.13369849195E+04  0.25500000920E-02 0.  1.
       -2   -1    0    0    0  501  0.00000000000E+00  0.00000000000E+00 -0.35972158639E+03  0.35972158640E+03  0.25500000920E-02 0. -1.
    10030    2    1    2    0    0  0.00000000000E+00  0.00000000000E+00  0.97726333315E+03  0.16967065059E+04  0.13870001244E+04 0.  0.
        5    1    3    3  502    0 -0.68145293807E+03 -0.71270868151E+02  0.35766166072E+03  0.77291758745E+03  0.46999998093E+01 0. -1.
       -5    1    3    3    0  502  0.68145293807E+03  0.71270868151E+02  0.61960167243E+03  0.92378891849E+03  0.46999998093E+01 0.  1.
</event>
<event>
 5   0  0.8673728E-04  0.1399821E+04  0.7818609E-02  0.8953948E-01
        1   -1    0    0  501    0  0.00000000000E+00  0.00000000000E+00  0.86625956190E+03  0.86625956192E+03  0.50400001928E-02 0.  1.
       -1   -1    0    0    0  501  0.00000000000E+00  0.00000000000E+00 -0.56550594284E+03  0.56550594287E+03  0.50400001928E-02 0. -1.
    10030    2    1    2    0    0  0.00000000000E+00  0.00000000000E+00  0.30075361906E+03  0.14317655048E+04  0.13998213176E+04 0.  0.
        3    1    3    3  502    0  0.45680601621E+03  0.34050765459E+03 -0.26541906046E+03  0.62854155562E+03  0.10100000352E+00 0. -1.
       -3    1    3    3    0  502 -0.45680601621E+03 -0.34050765459E+03  0.56617267952E+03  0.80322394917E+03  0.10100000352E+00 0.  1.
</event>
<event>
 5   0  0.1648213E-03  0.1425147E+04  0.7818609E-02  0.8935814E-01
        2   -1    0    0  501    0  0.00000000000E+00  0.00000000000E+00  0.49028743985E+03  0.49028743985E+03  0.25500000920E-02 0.  1.
       -2   -1    0    0    0  501  0.00000000000E+00  0.00000000000E+00 -0.10356392285E+04  0.10356392285E+04  0.25500000920E-02 0. -1.
    10030    2    1    2    0    0  0.00000000000E+00  0.00000000000E+00 -0.54535178869E+03  0.15259266684E+04  0.14251468780E+04 0.  0.
        4    1    3    3  502    0 -0.17871033306E+02  0.13250636940E+03  0.47673459970E+03  0.49513109700E+03  0.12699999809E+01 0.  1.
       -4    1    3    3    0  502  0.17871033306E+02 -0.13250636940E+03 -0.10220863884E+04  0.10307955714E+04  0.12699999809E+01 0. -1.
</event>
<event>
 5   0  0.6048000E-04  0.1402203E+04  0.7818609E-02  0.8952226E-01
        4   -1    0    0  501    0  0.00000000000E+00  0.00000000000E+00  0.80867527263E+03  0.80867626988E+03  0.12699999809E+01 0.  1.
       -4   -1    0    0    0  501  0.00000000000E+00  0.00000000000E+00 -0.60783559545E+03  0.60783692221E+03  0.12699999809E+01 0. -1.
    10030    2    1    2    0    0  0.00000000000E+00  0.00000000000E+00  0.20083967718E+03  0.14165131921E+04  0.14022029266E+04 0.  0.
        5    1    3    3  502    0 -0.21757194399E+03  0.15385632170E+03 -0.55466700191E+03  0.61537540700E+03  0.46999998093E+01 0. -1.
       -5    1    3    3    0  502  0.21757194399E+03 -0.15385632170E+03  0.75550667909E+03  0.80113778509E+03  0.46999998093E+01 0.  1.
</event>
<event>
 5   0  0.8673728E-04  0.1431689E+04  0.7818609E-02  0.8931195E-01
        1   -1    0    0  501    0  0.00000000000E+00  0.00000000000E+00  0.10982384885E+04  0.10982384885E+04  0.50400001928E-02 0.  1.
       -1   -1    0    0    0  501  0.00000000000E+00  0.00000000000E+00 -0.46659540971E+03  0.46659540974E+03  0.50400001928E-02 0. -1.
    10030    2    1    2    0    0  0.00000000000E+00  0.00000000000E+00  0.63164307876E+03  0.15648338982E+04  0.14316885660E+04 0.  0.
        3    1    3    3  502    0  0.14407036129E+03 -0.40797535569E+03 -0.30750684396E+03  0.53081129334E+03  0.10100000352E+00 0. -1.
       -3    1    3    3    0  502 -0.14407036129E+03  0.40797535569E+03  0.93914992273E+03  0.10340226049E+04  0.10100000352E+00 0.  1.
</event>
<event>
 5   0  0.9639548E-04  0.1270647E+04  0.7818609E-02  0.9053172E-01
        1   -1    0    0  501    0  0.00000000000E+00  0.00000000000E+00  0.16265361375E+04  0.16265361375E+04  0.50400001928E-02 0.  1.
       -1   -1    0    0    0  501  0.00000000000E+00  0.00000000000E+00 -0.24815664501E+03  0.24815664506E+03  0.50400001928E-02 0. -1.
    10030    2    1    2    0    0  0.00000000000E+00  0.00000000000E+00  0.13783794925E+04  0.18746927826E+04  0.12706466872E+04 0.  0.
        1    1    3    3  502    0 -0.20809122437E+03 -0.31343549794E+03  0.14445118017E+04  0.14927016160E+04  0.50400001928E-02 0.  1.
       -1    1    3    3    0  502  0.20809122437E+03  0.31343549794E+03 -0.66132309188E+02  0.38199116662E+03  0.50400001928E-02 0. -1.
</event>
<event>
 5   0  0.8673728E-04  0.1005832E+04  0.7818609E-02  0.9302171E-01
       -1   -1    0    0    0  501  0.00000000000E+00  0.00000000000E+00  0.46811578595E+03  0.46811578598E+03  0.50400001928E-02 0. -1.
        1   -1    0    0  501    0  0.00000000000E+00  0.00000000000E+00 -0.54030354554E+03  0.54030354556E+03  0.50400001928E-02 0.  1.
    10030    2    1    2    0    0  0.00000000000E+00  0.00000000000E+00 -0.72187759591E+02  0.10084193315E+04  0.10058322303E+04 0.  0.
        3    1    3    3  502    0 -0.19843833808E+03  0.24395864538E+03 -0.42957119734E+03  0.53237676364E+03  0.10100000352E+00 0.  1.
       -3    1    3    3    0  502  0.19843833808E+03 -0.24395864538E+03  0.35738343775E+03  0.47604256790E+03  0.10100000352E+00 0. -1.
</event>
<event>
 5   0  0.1648213E-03  0.1383964E+04  0.7818609E-02  0.8965509E-01
       -2   -1    0    0    0  501  0.00000000000E+00  0.00000000000E+00  0.26095675923E+03  0.26095675924E+03  0.25500000920E-02 0. -1.
        2   -1    0    0  501    0  0.00000000000E+00  0.00000000000E+00 -0.18349369943E+04  0.18349369943E+04  0.25500000920E-02 0.  1.
    10030    2    1    2    0    0  0.00000000000E+00  0.00000000000E+00 -0.15739802351E+04  0.20958937535E+04  0.13839641779E+04 0.  0.
        4    1    3    3  502    0 -0.60342971386E+03  0.34944475434E+02 -0.12971677553E+04  0.14310815261E+04  0.12699999809E+01 0. -1.
       -4    1    3    3    0  502  0.60342971386E+03 -0.34944475434E+02 -0.27681247976E+03  0.66481222746E+03  0.12699999809E+01 0.  1.
</event>
<event>
 5   0  0.1648463E-03  0.1393252E+04  0.7818609E-02  0.8958718E-01
       -2   -1    0    0    0  501  0.00000000000E+00  0.00000000000E+00  0.66389922323E+03  0.66389922324E+03  0.25500000920E-02 0.  1.
        2   -1    0    0  501    0  0.00000000000E+00  0.00000000000E+00 -0.73096578663E+03  0.73096578663E+03  0.25500000920E-02 0. -1.
    10030    2    1    2    0    0  0.00000000000E+00  0.00000000000E+00 -0.67066563392E+02  0.13948650099E+04  0.13932517618E+04 0.  0.
        1    1    3    3  502    0 -0.30368071917E+03  0.11983464560E+03 -0.64963620404E+03  0.72705537554E+03  0.50400001928E-02 0. -1.
       -1    1    3    3    0  502  0.30368071917E+03 -0.11983464560E+03  0.58256964064E+03  0.66780963433E+03  0.50400001928E-02 0.  1.
</event>
<event>
 5   0  0.6048000E-04  0.1424103E+04  0.7818609E-02  0.8936554E-01
       -4   -1    0    0    0  501  0.00000000000E+00  0.00000000000E+00  0.81127775919E+03  0.81127875324E+03  0.12699999809E+01 0.  1.
        4   -1    0    0  501    0  0.00000000000E+00  0.00000000000E+00 -0.62495975388E+03  0.62496104429E+03  0.12699999809E+01 0. -1.
    10030    2    1    2    0    0  0.00000000000E+00  0.00000000000E+00  0.18631800531E+03  0.14362397975E+04  0.14241033519E+04 0.  0.
        5    1    3    3  502    0 -0.78306251850E+02  0.69989987990E+03  0.19895191200E+03  0.73184401634E+03  0.46999998093E+01 0.  1.
       -5    1    3    3    0  502  0.78306251850E+02 -0.69989987990E+03 -0.12633906697E+02  0.70439578119E+03  0.46999998093E+01 0. -1.
</event>
<event>
 5   0  0.9007180E-04  0.1387778E+04  0.7818609E-02  0.8962713E-01
       -1   -1    0    0    0  501  0.00000000000E+00  0.00000000000E+00  0.76140373210E+03  0.76140373212E+03  0.50400001928E-02 0. -1.
        1   -1    0    0  501    0  0.00000000000E+00  0.00000000000E+00 -0.63236086910E+03  0.63236086912E+03  0.50400001928E-02 0.  1.
    10030    2    1    2    0    0  0.00000000000E+00  0.00000000000E+00  0.12904286300E+03  0.13937646012E+04  0.13877779733E+04 0.  0.
        2    1    3    3  502    0 -0.15034434827E+03  0.39362330992E+03  0.61820647567E+03  0.74814569419E+03  0.25500000920E-02 0. -1.
       -2    1    3    3    0  502  0.15034434827E+03 -0.39362330992E+03 -0.48916361267E+03  0.64561890705E+03  0.25500000920E-02 0.  1.
</event>
<event>
 5   0  0.6048000E-04  0.1430688E+04  0.7818609E-02  0.8931900E-01
       -3   -1    0    0    0  501  0.00000000000E+00  0.00000000000E+00  0.96076065989E+03  0.96076066520E+03  0.10100000352E+00 0.  1.
        3   -1    0    0  501    0  0.00000000000E+00  0.00000000000E+00 -0.53261623651E+03  0.53261624608E+03  0.10100000352E+00 0. -1.
    10030    2    1    2    0    0  0.00000000000E+00  0.00000000000E+00  0.42814442339E+03  0.14933769113E+04  0.14306875801E+04 0.  0.
        2    1    3    3  502    0 -0.61532498786E+03 -0.35117536890E+03  0.11090966343E+03  0.71711221845E+03  0.25500000920E-02 0. -1.
       -2    1    3    3    0  502  0.61532498786E+03  0.35117536890E+03  0.31723475995E+03  0.77626469283E+03  0.25500000920E-02 0.  1.
</event>
<event>
 5   0  0.1648213E-03  0.1455597E+04  0.7818609E-02  0.8914529E-01
        2   -1    0    0  501    0  0.00000000000E+00  0.00000000000E+00  0.65036730751E+03  0.65036730752E+03  0.25500000920E-02 0. -1.
       -2   -1    0    0    0  501  0.00000000000E+00  0.00000000000E+00 -0.81444889073E+03  0.81444889074E+03  0.25500000920E-02 0.  1.
    10030    2    1    2    0    0  0.00000000000E+00  0.00000000000E+00 -0.16408158322E+03  0.14648161983E+04  0.14555973786E+04 0.  0.
        4    1    3    3  502    0 -0.46404396532E+03 -0.51113418125E+03 -0.31392228561E+03  0.75838233583E+03  0.12699999809E+01 0.  1.
       -4    1    3    3    0  502  0.46404396532E+03  0.51113418125E+03  0.14984070240E+03  0.70643386243E+03  0.12699999809E+01 0. -1.
</event>
<event>
 5   0  0.8673728E-04  0.1403455E+04  0.7818609E-02  0.8951321E-01
        1   -1    0    0  501    0  0.00000000000E+00  0.00000000000E+00  0.56027962069E+03  0.56027962072E+03  0.50400001928E-02 0.  1.
       -1   -1    0    0    0  501  0.00000000000E+00  0.00000000000E+00 -0.87888558482E+03  0.87888558484E+03  0.50400001928E-02 0. -1.
    10030    2    1    2    0    0  0.00000000000E+00  0.00000000000E+00 -0.31860596413E+03  0.14391652056E+04  0.14034552820E+04 0.  0.
        3    1    3    3  502    0  0.28583717341E+03 -0.52914191379E+03  0.21145946855E+03  0.63750229151E+03  0.10100000352E+00 0.  1.
       -3    1    3    3    0  502 -0.28583717341E+03  0.52914191379E+03 -0.53006543268E+03  0.80166291405E+03  0.10100000352E+00 0. -1.
</event>
<event>
 5   0  0.1648213E-03  0.1394761E+04  0.7818609E-02  0.8957620E-01
        2   -1    0    0  501    0  0.00000000000E+00  0.00000000000E+00  0.70912035526E+03  0.70912035527E+03  0.25500000920E-02 0. -1.
       -2   -1    0    0    0  501  0.00000000000E+00  0.00000000000E+00 -0.68583477747E+03  0.68583477747E+03  0.25500000920E-02 0.  1.
    10030    2    1    2    0    0  0.00000000000E+00  0.00000000000E+00  0.23285577796E+02  0.13949551327E+04  0.13947607695E+04 0.  0.
        4    1    3    3  502    0 -0.62575965455E+03 -0.19649032629E+03 -0.22535899611E+03  0.69352136493E+03  0.12699999809E+01 0.  1.
       -4    1    3    3    0  502  0.62575965455E+03  0.19649032629E+03  0.24864457390E+03  0.70143376781E+03  0.12699999809E+01 0. -1.
</event>
<event>
 5   0  0.8673728E-04  0.1428490E+04  0.7818609E-02  0.8933450E-01
       -1   -1    0    0    0  501  0.00000000000E+00  0.00000000000E+00  0.32441693326E+03  0.32441693330E+03  0.50400001928E-02 0.  1.
        1   -1    0    0  501    0  0.00000000000E+00  0.00000000000E+00 -0.15725015981E+04  0.15725015981E+04  0.50400001928E-02 0. -1.
    10030    2    1    2    0    0  0.00000000000E+00  0.00000000000E+00 -0.12480846649E+04  0.18969185314E+04  0.14284903165E+04 0.  0.
        3    1    3    3  502    0 -0.71232334606E+03 -0.26185942500E+02 -0.68425260168E+03  0.98807483828E+03  0.10100000352E+00 0.  1.
       -3    1    3    3    0  502  0.71232334606E+03  0.26185942500E+02 -0.56383206320E+03  0.90884369317E+03  0.10100000352E+00 0. -1.
</event>
<event>
 5   0  0.8673728E-04  0.1467495E+04  0.7818609E-02  0.8906361E-01
       -1   -1    0    0    0  501  0.00000000000E+00  0.00000000000E+00  0.33142455211E+03  0.33142455215E+03  0.50400001928E-02 0. -1.
        1   -1    0    0  501    0  0.00000000000E+00  0.00000000000E+00 -0.16244585068E+04  0.16244585068E+04  0.50400001928E-02 0.  1.
    10030    2    1    2    0    0  0.00000000000E+00  0.00000000000E+00 -0.12930339547E+04  0.19558830590E+04  0.14674950536E+04 0.  0.
        3    1    3    3  502    0 -0.24818062564E+03  0.30828332236E+02  0.27286790356E+03  0.37013634246E+03  0.10100000352E+00 0. -1.
       -3    1    3    3    0  502  0.24818062564E+03 -0.30828332236E+02 -0.15659018583E+04  0.15857467165E+04  0.10100000352E+00 0.  1.
</event>
<event>
 5   0  0.1648213E-03  0.1413726E+04  0.7818609E-02  0.8943942E-01
        2   -1    0    0  501    0  0.00000000000E+00  0.00000000000E+00  0.73508329264E+03  0.73508329264E+03  0.25500000920E-02 0.  1.
       -2   -1    0    0    0  501  0.00000000000E+00  0.00000000000E+00 -0.67972631720E+03  0.67972631721E+03  0.25500000920E-02 0. -1.
    10030    2    1    2    0    0  0.00000000000E+00  0.00000000000E+00  0.55356975436E+02  0.14148096099E+04  0.14137262243E+04 0.  0.
        4    1    3    3  502    0  0.13091088994E+03 -0.14094536584E+03 -0.65302699193E+03  0.68077097642E+03  0.12699999809E+01 0. -1.
       -4    1    3    3    0  502 -0.13091088994E+03  0.14094536584E+03  0.70838396736E+03  0.73403863343E+03  0.12699999809E+01 0.  1.
</event>
<event>
 5   0  0.1648463E-03  0.1403090E+04  0.7818609E-02  0.8951585E-01
        2   -1    0    0  501    0  0.00000000000E+00  0.00000000000E+00  0.15932508662E+04  0.15932508662E+04  0.25500000920E-02 0. -1.
       -2   -1    0    0    0  501  0.00000000000E+00  0.00000000000E+00 -0.30890620002E+03  0.30890620003E+03  0.25500000920E-02 0.  1.
    10030    2    1    2    0    0  0.00000000000E+00  0.00000000000E+00  0.12843446662E+04  0.19021570663E+04  0.14030895492E+04 0.  0.
        1    1    3    3  502    0 -0.49067138730E+03 -0.42692889182E+03  0.99864036660E+03  0.11917672889E+04  0.50400001928E-02 0. -1.
       -1    1    3    3    0  502  0.49067138730E+03  0.42692889182E+03  0.28570429963E+03  0.71038977740E+03  0.50400001928E-02 0.  1.
</event>
<event>
 5   0  0.1578965E-03  0.1418482E+04  0.7818609E-02  0.8940548E-01
        2   -1    0    0  501    0  0.00000000000E+00  0.00000000000E+00  0.14301457915E+04  0.14301457915E+04  0.25500000920E-02 0. -1.
       -2   -1    0    0    0  501  0.00000000000E+00  0.00000000000E+00 -0.35172839550E+03  0.35172839551E+03  0.25500000920E-02 0.  1.
    10030    2    1    2    0    0  0.00000000000E+00  0.00000000000E+00  0.10784173960E+04  0.17818741870E+04  0.14184821248E+04 0.  0.
        2    1    3    3  502    0  0.34796143570E+03 -0.31271671472E+03  0.12088312027E+04  0.12962028317E+04  0.25500000920E-02 0. -1.
       -2    1    3    3    0  502 -0.34796143570E+03  0.31271671472E+03 -0.13041380665E+03  0.48567135532E+03  0.25500000920E-02 0.  1.
</event>
<event>
 5   0  0.1648213E-03  0.1396425E+04  0.7818609E-02  0.8956410E-01
       -2   -1    0    0    0  501  0.00000000000E+00  0.00000000000E+00  0.77516283643E+03  0.77516283643E+03  0.25500000920E-02 0. -1.
        2   -1    0    0  501    0  0.00000000000E+00  0.00000000000E+00 -0.62890107503E+03  0.62890107504E+03  0.25500000920E-02 0.  1.
    10030    2    1    2    0    0  0.00000000000E+00  0.00000000000E+00  0.14626176140E+03  0.14040639115E+04  0.13964250659E+04 0.  0.
        4    1    3    3  502    0  0.54232946666E+03  0.12349561457E+03  0.49749022099E+03  0.74623759628E+03  0.12699999809E+01 0. -1.
       -4    1    3    3    0  502 -0.54232946666E+03 -0.12349561457E+03 -0.35122845959E+03  0.65782631519E+03  0.12699999809E+01 0.  1.
</event>
<event>
 5   0  0.9639548E-04  0.1146991E+04  0.7818609E-02  0.9160564E-01
       -1   -1    0    0    0  501  0.00000000000E+00  0.00000000000E+00  0.42444189821E+03  0.42444189824E+03  0.50400001928E-02 0. -1.
        1   -1    0    0  501    0  0.00000000000E+00  0.00000000000E+00 -0.77489329563E+03  0.77489329564E+03  0.50400001928E-02 0.  1.
    10030    2    1    2    0    0  0.00000000000E+00  0.00000000000E+00 -0.35045139742E+03  0.11993351939E+04  0.11469911618E+04 0.  0.
        1    1    3    3  502    0 -0.29350335150E+03  0.60279859247E+01  0.33992022893E+03  0.44913952845E+03  0.50400001928E-02 0. -1.
       -1    1    3    3    0  502  0.29350335150E+03 -0.60279859247E+01 -0.69037162634E+03  0.75019566544E+03  0.50400001928E-02 0.  1.
</event>
<event>
 5   0  0.8673728E-04  0.1390074E+04  0.7818609E-02  0.8961035E-01
        1   -1    0    0  501    0  0.00000000000E+00  0.00000000000E+00  0.16475711626E+04  0.16475711626E+04  0.50400001928E-02 0.  1.
       -1   -1    0    0    0  501  0.00000000000E+00  0.00000000000E+00 -0.29320528352E+03  0.29320528356E+03  0.50400001928E-02 0. -1.
    10030    2    1    2    0    0  0.00000000000E+00  0.00000000000E+00  0.13543658791E+04  0.19407764461E+04  0.13900741993E+04 0.  0.
        3    1    3    3  502    0  0.36412040134E+03  0.53969018002E+03  0.33740210880E+03  0.73327303939E+03  0.10100000352E+00 0. -1.
       -3    1    3    3    0  502 -0.36412040134E+03 -0.53969018002E+03  0.10169637703E+04  0.12075034067E+04  0.10100000352E+00 0.  1.
</event>
<event>
 5   0  0.1578965E-03  0.1437250E+04  0.7818609E-02  0.8927288E-01
       -2   -1    0    0    0  501  0.00000000000E+00  0.00000000000E+00  0.68934594369E+03  0.68934594370E+03  0.25500000920E-02 0. -1.
        2   -1    0    0  501    0  0.00000000000E+00  0.00000000000E+00 -0.74914788367E+03  0.74914788367E+03  0.25500000920E-02 0.  1.
    10030    2    1    2    0    0  0.00000000000E+00  0.00000000000E+00 -0.59801939975E+02  0.14384938274E+04  0.14372502285E+04 0.  0.
        2    1    3    3  502    0 -0.67396156811E+03  0.97134984468E+02 -0.25980095030E+03  0.72880445544E+03  0.25500000920E-02 0.  1.
       -2    1    3    3    0  502  0.67396156811E+03 -0.97134984468E+02  0.19999901032E+03  0.70968937193E+03  0.25500000920E-02 0. -1.
</event>
<event>
 5   0  0.9007180E-04  0.1330311E+04  0.7818609E-02  0.9005867E-01
        1   -1    0    0  501    0  0.00000000000E+00  0.00000000000E+00  0.91331839331E+03  0.91331839332E+03  0.50400001928E-02 0.  1.
       -1   -1    0    0    0  501  0.00000000000E+00  0.00000000000E+00 -0.48442264164E+03  0.48442264166E+03  0.50400001928E-02 0. -1.
    10030    2    1    2    0    0  0.00000000000E+00  0.00000000000E+00  0.42889575167E+03  0.13977410350E+04  0.13303114053E+04 0.  0.
        2    1    3    3  502    0 -0.13306097023E+03 -0.39556697133E+03  0.75863245085E+03  0.86585313194E+03  0.25500000920E-02 0.  1.
       -2    1    3    3    0  502  0.13306097023E+03  0.39556697133E+03 -0.32973669918E+03  0.53188790304E+03  0.25500000920E-02 0. -1.
</event>
<event>
 5   0  0.8502300E-04  0.1409484E+04  0.7818609E-02  0.8946982E-01
       -1   -1    0    0    0  501  0.00000000000E+00  0.00000000000E+00  0.37076101881E+03  0.37076101885E+03  0.50400001928E-02 0.  1.
        1   -1    0    0  501    0  0.00000000000E+00  0.00000000000E+00 -0.13395723385E+04  0.13395723385E+04  0.50400001928E-02 0. -1.
    10030    2    1    2    0    0  0.00000000000E+00  0.00000000000E+00 -0.96881131969E+03  0.17103333574E+04  0.14094838843E+04 0.  0.
        4    1    3    3  502    0 -0.10086029734E+03  0.27607802542E+03 -0.12616441930E+04  0.12954302599E+04  0.12699999809E+01 0. -1.
       -4    1    3    3    0  502  0.10086029734E+03 -0.27607802542E+03  0.29283287329E+03  0.41490309746E+03  0.12699999809E+01 0.  1.
</event>
<event>
 5   0  0.8502300E-04  0.1406796E+04  0.7818609E-02  0.8948914E-01
       -1   -1    0    0    0  501  0.00000000000E+00  0.00000000000E+00  0.46550463103E+03  0.46550463106E+03  0.50400001928E-02 0. -1.
        1   -1    0    0  501    0  0.00000000000E+00  0.00000000000E+00 -0.10628654868E+04  0.10628654868E+04  0.50400001928E-02 0.  1.
    10030    2    1    2    0    0  0.00000000000E+00  0.00000000000E+00 -0.59736085577E+03  0.15283701179E+04  0.14067960851E+04 0.  0.
        4    1    3    3  502    0  0.19537043809E+03  0.67568420205E+03 -0.29111873171E+03  0.76122958287E+03  0.12699999809E+01 0. -1.
       -4    1    3    3    0  502 -0.19537043809E+03 -0.67568420205E+03 -0.30624212406E+03  0.76714053500E+03  0.12699999809E+01 0.  1.
</event>
<event>
 5   0  0.1578965E-03  0.1400170E+04  0.7818609E-02  0.8953695E-01
        2   -1    0    0  501    0  0.00000000000E+00  0.00000000000E+00  0.20832583574E+04  0.20832583574E+04  0.25500000920E-02 0.  1.
       -2   -1    0    0    0  501  0.00000000000E+00  0.00000000000E+00 -0.23526565523E+03  0.23526565524E+03  0.25500000920E-02 0. -1.
    10030    2    1    2    0    0  0.00000000000E+00  0.00000000000E+00  0.18479927021E+04  0.23185240126E+04  0.14001701932E+04 0.  0.
        2    1    3    3  502    0 -0.35318084979E+03 -0.10965877487E+03  0.19083198538E+04  0.19438226318E+04  0.25500000920E-02 0.  1.
       -2    1    3    3    0  502  0.35318084979E+03  0.10965877487E+03 -0.60327151621E+02  0.37470138083E+03  0.25500000920E-02 0. -1.
</event>
<event>
 5   0  0.9639548E-04  0.1391713E+04  0.7818609E-02  0.8959839E-01
       -1   -1    0    0    0  501  0.00000000000E+00  0.00000000000E+00  0.45729892179E+03  0.45729892182E+03  0.50400001928E-02 0.  1.
        1   -1    0    0  501    0  0.00000000000E+00  0.00000000000E+00 -0.10588612511E+04  0.10588612512E+04  0.50400001928E-02 0. -1.
    10030    2    1    2    0    0  0.00000000000E+00  0.00000000000E+00 -0.60156232935E+03  0.15161601730E+04  0.13917127699E+04 0.  0.
        1    1    3    3  502    0  0.34053507795E+03 -0.36082207507E+03 -0.83232384099E+03  0.96897868164E+03  0.50400001928E-02 0. -1.
       -1    1    3    3    0  502 -0.34053507795E+03  0.36082207507E+03  0.23076151164E+03  0.54718149133E+03  0.50400001928E-02 0.  1.
</event>
<event>
 5   0  0.1578965E-03  0.1401889E+04  0.7818609E-02  0.8952452E-01
        2   -1    0    0  501    0  0.00000000000E+00  0.00000000000E+00  0.21345111791E+04  0.21345111791E+04  0.25500000920E-02 0. -1.
       -2   -1    0    0    0  501  0.00000000000E+00  0.00000000000E+00 -0.23018069974E+03  0.23018069975E+03  0.25500000920E-02 0.  1.
    10030    2    1    2    0    0  0.00000000000E+00  0.00000000000E+00  0.19043304794E+04  0.23646918789E+04  0.14018891209E+04 0.  0.
        2    1    3    3  502    0  0.52443967762E+03 -0.34786061252E+03  0.43149810732E+03  0.76304298557E+03  0.25500000920E-02 0.  1.
       -2    1    3    3    0  502 -0.52443967762E+03  0.34786061252E+03  0.14728323721E+04  0.16016488933E+04  0.25500000920E-02 0. -1.
</event>
<event>
 5   0  0.1578965E-03  0.1404009E+04  0.7818609E-02  0.8950922E-01
       -2   -1    0    0    0  501  0.00000000000E+00  0.00000000000E+00  0.41355882752E+03  0.41355882752E+03  0.25500000920E-02 0. -1.
        2   -1    0    0  501    0  0.00000000000E+00  0.00000000000E+00 -0.11916333145E+04  0.11916333145E+04  0.25500000920E-02 0.  1.
    10030    2    1    2    0    0  0.00000000000E+00  0.00000000000E+00 -0.77807448694E+03  0.16051921420E+04  0.14040092256E+04 0.  0.
        2    1    3    3  502    0 -0.49461079912E+03  0.38407792254E+03 -0.26314930343E+02  0.62677601163E+03  0.25500000920E-02 0.  1.
       -2    1    3    3    0  502  0.49461079912E+03 -0.38407792254E+03 -0.75175955659E+03  0.97841613035E+03  0.25500000920E-02 0. -1.
</event>
<event>
 5   0  0.1578965E-03  0.1404027E+04  0.7818609E-02  0.8950909E-01
       -2   -1    0    0    0  501  0.00000000000E+00  0.00000000000E+00  0.58383221509E+03  0.58383221510E+03  0.25500000920E-02 0. -1.
        2   -1    0    0  501    0  0.00000000000E+00  0.00000000000E+00 -0.84411743481E+03  0.84411743482E+03  0.25500000920E-02 0.  1.
    10030    2    1    2    0    0  0.00000000000E+00  0.00000000000E+00 -0.26028521972E+03  0.14279496499E+04  0.14040269966E+04 0.  0.
        2    1    3    3  502    0 -0.17227178938E+03  0.38480417349E+03 -0.70101855206E+03  0.81803351502E+03  0.25500000920E-02 0.  1.
       -2    1    3    3    0  502  0.17227178938E+03 -0.38480417349E+03  0.44073333234E+03  0.60991613489E+03  0.25500000920E-02 0. -1.
</event>
<event>
 5   0  0.1648463E-03  0.1415628E+04  0.7818609E-02  0.8942583E-01
        2   -1    0    0  501    0  0.00000000000E+00  0.00000000000E+00  0.12590439301E+04  0.12590439301E+04  0.25500000920E-02 0. -1.
       -2   -1    0    0    0  501  0.00000000000E+00  0.00000000000E+00 -0.39792134604E+03  0.39792134605E+03  0.25500000920E-02 0.  1.
    10030    2    1    2    0    0  0.00000000000E+00  0.00000000000E+00  0.86112258406E+03  0.16569652761E+04  0.14156277129E+04 0.  0.
        1    1    3    3  502    0 -0.35994140288E+03  0.43495255326E+03 -0.69138013087E+02  0.56878959376E+03  0.50400001928E-02 0.  1.
       -1    1    3    3    0  502  0.35994140288E+03 -0.43495255326E+03  0.93026059715E+03  0.10881756824E+04  0.50400001928E-02 0. -1.
</event>
<event>
 5   0  0.9007180E-04  0.1387022E+04  0.7818609E-02  0.8963267E-01
       -1   -1    0    0    0  501  0.00000000000E+00  0.00000000000E+00  0.41920033561E+03  0.41920033564E+03  0.50400001928E-02 0.  1.
        1   -1    0    0  501    0  0.00000000000E+00  0.00000000000E+00 -0.11473212918E+04  0.11473212918E+04  0.50400001928E-02 0. -1.
    10030    2    1    2    0    0  0.00000000000E+00  0.00000000000E+00 -0.72812095620E+03  0.15665216275E+04  0.13870219474E+04 0.  0.
        2    1    3    3  502    0 -0.53656846360E+03  0.98200236114E+01 -0.86017443201E+03  0.10138551191E+04  0.25500000920E-02 0. -1.
       -2    1    3    3    0  502  0.53656846360E+03 -0.98200236114E+01  0.13205347582E+03  0.55266650837E+03  0.25500000920E-02 0.  1.
</event>
<event>
 5   0  0.1648213E-03  0.1407641E+04  0.7818609E-02  0.8948306E-01
        2   -1    0    0  501    0  0.00000000000E+00  0.00000000000E+00  0.19501248385E+04  0.19501248385E+04  0.25500000920E-02 0. -1.
       -2   -1    0    0    0  501  0.00000000000E+00  0.00000000000E+00 -0.25401625105E+03  0.25401625107E+03  0.25500000920E-02 0.  1.
    10030    2    1    2    0    0  0.00000000000E+00  0.00000000000E+00  0.16961085875E+04  0.22041410896E+04  0.14076411483E+04 0.  0.
        4    1    3    3  502    0  0.36030147018E+03  0.17808643037E+03 -0.56657034401E+02  0.40588613987E+03  0.12699999809E+01 0.  1.
       -4    1    3    3    0  502 -0.36030147018E+03 -0.17808643037E+03  0.17527656219E+04  0.17982549497E+04  0.12699999809E+01 0. -1.
</event>
<event>
 5   0  0.1605214E-03  0.1402540E+04  0.7818609E-02  0.8951982E-01
        2   -1    0    0  501    0  0.00000000000E+00  0.00000000000E+00  0.59405625309E+03  0.59405625309E+03  0.25500000920E-02 0. -1.
       -2   -1    0    0    0  501  0.00000000000E+00  0.00000000000E+00 -0.82783373933E+03  0.82783373933E+03  0.25500000920E-02 0.  1.
    10030    2    1    2    0    0  0.00000000000E+00  0.00000000000E+00 -0.23377748624E+03  0.14218899924E+04  0.14025402802E+04 0.  0.
        5    1    3    3  502    0  0.23567884939E+03  0.28279989127E+03  0.48820188112E+03  0.61146010931E+03  0.46999998093E+01 0. -1.
       -5    1    3    3    0  502 -0.23567884939E+03 -0.28279989127E+03 -0.72197936736E+03  0.81042988311E+03  0.46999998093E+01 0.  1.
</event>
<event>
 5   0  0.8609148E-04  0.1436701E+04  0.7818609E-02  0.8927673E-01
        1   -1    0    0  501    0  0.00000000000E+00  0.00000000000E+00  0.96305365365E+03  0.96305365367E+03  0.50400001928E-02 0. -1.
       -1   -1    0    0    0  501  0.00000000000E+00  0.00000000000E+00 -0.53582437429E+03  0.53582437431E+03  0.50400001928E-02 0.  1.
    10030    2    1    2    0    0  0.00000000000E+00  0.00000000000E+00  0.42722927937E+03  0.14988780280E+04  0.14367012513E+04 0.  0.
        5    1    3    3  502    0  0.68938529403E+02 -0.20965608408E+03 -0.49956096062E+03  0.54616063370E+03  0.46999998093E+01 0.  1.
       -5    1    3    3    0  502 -0.68938529403E+02  0.20965608408E+03  0.92679023999E+03  0.95271739428E+03  0.46999998093E+01 0. -1.
</event>
<event>
 5   0  0.1605214E-03  0.1054715E+04  0.7818609E-02  0.9250490E-01
        2   -1    0    0  501    0  0.00000000000E+00  0.00000000000E+00  0.54443683406E+03  0.54443683407E+03  0.25500000920E-02 0.  1.
       -2   -1    0    0    0  501  0.00000000000E+00  0.00000000000E+00 -0.51081350800E+03  0.51081350801E+03  0.25500000920E-02 0. -1.
    10030    2    1    2    0    0  0.00000000000E+00  0.00000000000E+00  0.33623326066E+02  0.10552503421E+04  0.10547145379E+04 0.  0.
        5    1    3    3  502    0 -0.74466726203E+02  0.50067973983E+03  0.16473163388E+03  0.53233832887E+03  0.46999998093E+01 0.  1.
       -5    1    3    3    0  502  0.74466726203E+02 -0.50067973983E+03 -0.13110830781E+03  0.52291201321E+03  0.46999998093E+01 0. -1.
</event>
<event>
 5   0  0.8609148E-04  0.1402820E+04  0.7818609E-02  0.8951780E-01
       -1   -1    0    0    0  501  0.00000000000E+00  0.00000000000E+00  0.29207503179E+03  0.29207503184E+03  0.50400001928E-02 0. -1.
        1   -1    0    0  501    0  0.00000000000E+00  0.00000000000E+00 -0.16844158145E+04  0.16844158145E+04  0.50400001928E-02 0.  1.
    10030    2    1    2    0    0  0.00000000000E+00  0.00000000000E+00 -0.13923407827E+04  0.19764908464E+04  0.14028197356E+04 0.  0.
        5    1    3    3  502    0 -0.62887534031E+03  0.23639771952E+02 -0.25982898640E+03  0.68086432175E+03  0.46999998093E+01 0. -1.
       -5    1    3    3    0  502  0.62887534031E+03 -0.23639771952E+02 -0.11325117963E+04  0.12956265246E+04  0.46999998093E+01 0.  1.
</event>
<event>
 5   0  0.1605214E-03  0.1396677E+04  0.7818609E-02  0.8956228E-01
       -2   -1    0    0    0  501  0.00000000000E+00  0.00000000000E+00  0.34013465198E+03  0.34013465199E+03  0.25500000920E-02 0. -1.
        2   -1    0    0  501    0  0.00000000000E+00  0.00000000000E+00 -0.14337749783E+04  0.14337749783E+04  0.25500000920E-02 0.  1.
    10030    2    1    2    0    0  0.00000000000E+00  0.00000000000E+00 -0.10936403263E+04  0.17739096303E+04  0.13966768463E+04 0.  0.
        5    1    3    3  502    0 -0.20560736074E+02  0.33522080881E+01 -0.14333601448E+04  0.14335192276E+04  0.46999998093E+01 0.  1.
       -5    1    3    3    0  502  0.20560736074E+02 -0.33522080881E+01  0.33971981849E+03  0.34039040269E+03  0.46999998093E+01 0. -1.
</event>
<event>
 5   0  0.1578965E-03  0.1404270E+04  0.7818609E-02  0.8950734E-01
        2   -1    0    0  501    0  0.00000000000E+00  0.00000000000E+00  0.96812395163E+03  0.96812395163E+03  0.25500000920E-02 0. -1.
       -2   -1    0    0    0  501  0.00000000000E+00  0.00000000000E+00 -0.50922565490E+03  0.50922565491E+03  0.25500000920E-02 0.  1.
    10030    2    1    2    0    0  0.00000000000E+00  0.00000000000E+00  0.45889829672E+03  0.14773496065E+04  0.14042699930E+04 0.  0.
        2    1    3    3  502    0  0.47667580478E+03  0.45409931235E+03  0.48621514847E+03  0.81843214682E+03  0.25500000920E-02 0. -1.
       -2    1    3    3    0  502 -0.47667580478E+03 -0.45409931235E+03 -0.27316851744E+02  0.65891745973E+03  0.25500000920E-02 0.  1.
</event>
<event>
 5   0  0.9639548E-04  0.1387398E+04  0.7818609E-02  0.8962992E-01
       -1   -1    0    0    0  501  0.00000000000E+00  0.00000000000E+00  0.39911826792E+03  0.39911826795E+03  0.50400001928E-02 0. -1.
        1   -1    0    0  501    0  0.00000000000E+00  0.00000000000E+00 -0.12057031134E+04  0.12057031134E+04  0.50400001928E-02 0.  1.
    10030    2    1    2    0    0  0.00000000000E+00  0.00000000000E+00 -0.80658484551E+03  0.16048213814E+04  0.13873977631E+04 0.  0.
        1    1    3    3  502    0  0.68110973794E+03 -0.13048152518E+03 -0.42272502410E+03  0.81217753573E+03  0.50400001928E-02 0.  1.
       -1    1    3    3    0  502 -0.68110973794E+03  0.13048152518E+03 -0.38385982142E+03  0.79264384565E+03  0.50400001928E-02 0. -1.
</event>
<event>
 5   0  0.8673728E-04  0.1400996E+04  0.7818609E-02  0.8953098E-01
        1   -1    0    0  501    0  0.00000000000E+00  0.00000000000E+00  0.14533350733E+04  0.14533350733E+04  0.50400001928E-02 0. -1.
       -1   -1    0    0    0  501  0.00000000000E+00  0.00000000000E+00 -0.33763533460E+03  0.33763533464E+03  0.50400001928E-02 0.  1.
    10030    2    1    2    0    0  0.00000000000E+00  0.00000000000E+00  0.11156997387E+04  0.17909704079E+04  0.14009957513E+04 0.  0.
        3    1    3    3  502    0  0.42748685995E+03 -0.45061439315E+03  0.14381483265E+03  0.63755867419E+03  0.10100000352E+00 0.  1.
       -3    1    3    3    0  502 -0.42748685995E+03  0.45061439315E+03  0.97188490601E+03  0.11534117337E+04  0.10100000352E+00 0. -1.
</event>
<event>
 5   0  0.1648213E-03  0.1423203E+04  0.7818609E-02  0.8937192E-01
       -2   -1    0    0    0  501  0.00000000000E+00  0.00000000000E+00  0.10603265087E+04  0.10603265087E+04  0.25500000920E-02 0. -1.
        2   -1    0    0  501    0  0.00000000000E+00  0.00000000000E+00 -0.47756683659E+03  0.47756683660E+03  0.25500000920E-02 0.  1.
    10030    2    1    2    0    0  0.00000000000E+00  0.00000000000E+00  0.58275967214E+03  0.15378933453E+04  0.14232031149E+04 0.  0.
        4    1    3    3  502    0 -0.12536514878E+03 -0.57833250644E+03  0.71843728284E+03  0.93077314680E+03  0.12699999809E+01 0. -1.
       -4    1    3    3    0  502  0.12536514878E+03  0.57833250644E+03 -0.13567761070E+03  0.60712019854E+03  0.12699999809E+01 0.  1.
</event>
<event>
 5   0  0.1648213E-03  0.1406377E+04  0.7818609E-02  0.8949215E-01
        2   -1    0    0  501    0  0.00000000000E+00  0.00000000000E+00  0.21439892926E+04  0.21439892926E+04  0.25500000920E-02 0. -1.
       -2   -1    0    0    0  501  0.00000000000E+00  0.00000000000E+00 -0.23063271898E+03  0.23063271899E+03  0.25500000920E-02 0.  1.
    10030    2    1    2    0    0  0.00000000000E+00  0.00000000000E+00  0.19133565736E+04  0.23746220116E+04  0.14063770192E+04 0.  0.
        4    1    3    3  502    0 -0.14627075082E+03 -0.62876497148E+03  0.48592593766E+03  0.80800133150E+03  0.12699999809E+01 0.  1.
       -4    1    3    3    0  502  0.14627075082E+03  0.62876497148E+03  0.14274306359E+04  0.15666206801E+04  0.12699999809E+01 0. -1.
</event>
<event>
 5   0  0.1648463E-03  0.1419749E+04  0.7818609E-02  0.8939646E-01
        2   -1    0    0  501    0  0.00000000000E+00  0.00000000000E+00  0.18378610596E+04  0.18378610596E+04  0.25500000920E-02 0. -1.
       -2   -1    0    0    0  501  0.00000000000E+00  0.00000000000E+00 -0.27418914890E+03  0.27418914891E+03  0.25500000920E-02 0.  1.
    10030    2    1    2    0    0  0.00000000000E+00  0.00000000000E+00  0.15636719107E+04  0.21120502085E+04  0.14197486534E+04 0.  0.
        1    1    3    3  502    0 -0.23690971972E+03 -0.40876896549E+03  0.15699998103E+04  0.16395480129E+04  0.50400001928E-02 0. -1.
       -1    1    3    3    0  502  0.23690971972E+03  0.40876896549E+03 -0.63278996099E+01  0.47250219553E+03  0.50400001928E-02 0.  1.
</event>
<event>
 5   0  0.6048000E-04  0.1282371E+04  0.7818609E-02  0.9043663E-01
       -4   -1    0    0    0  501  0.00000000000E+00  0.00000000000E+00  0.12980349648E+04  0.12980355861E+04  0.12699999809E+01 0. -1.
        4   -1    0    0  501    0  0.00000000000E+00  0.00000000000E+00 -0.31672187080E+03  0.31672441703E+03  0.12699999809E+01 0.  1.
    10030    2    1    2    0    0  0.00000000000E+00  0.00000000000E+00  0.98131309404E+03  0.16147600032E+04  0.12823706482E+04 0.  0.
        4    1    3    3  502    0  0.33219578775E+03  0.41942382984E+03  0.45735651167E+02  0.53699511462E+03  0.12699999809E+01 0.  1.
       -4    1    3    3    0  502 -0.33219578775E+03 -0.41942382984E+03  0.93557744287E+03  0.10777648885E+04  0.12699999809E+01 0. -1.
</event>
<event>
 5   0  0.8673728E-04  0.1390775E+04  0.7818609E-02  0.8960523E-01
        1   -1    0    0  501    0  0.00000000000E+00  0.00000000000E+00  0.26642209871E+03  0.26642209876E+03  0.50400001928E-02 0. -1.
       -1   -1    0    0    0  501  0.00000000000E+00  0.00000000000E+00 -0.18150297056E+04  0.18150297056E+04  0.50400001928E-02 0.  1.
    10030    2    1    2    0    0  0.00000000000E+00  0.00000000000E+00 -0.15486076069E+04  0.20814518043E+04  0.13907753570E+04 0.  0.
        3    1    3    3  502    0  0.62473193624E+03 -0.23114874986E+03 -0.47556451300E+03  0.81846279876E+03  0.10100000352E+00 0.  1.
       -3    1    3    3    0  502 -0.62473193624E+03  0.23114874986E+03 -0.10730430939E+04  0.12629890056E+04  0.10100000352E+00 0. -1.
</event>
<event>
 5   0  0.9639548E-04  0.1399446E+04  0.7818609E-02  0.8954220E-01
        1   -1    0    0  501    0  0.00000000000E+00  0.00000000000E+00  0.14118725677E+04  0.14118725677E+04  0.50400001928E-02 0. -1.
       -1   -1    0    0    0  501  0.00000000000E+00  0.00000000000E+00 -0.34678203156E+03  0.34678203160E+03  0.50400001928E-02 0.  1.
    10030    2    1    2    0    0  0.00000000000E+00  0.00000000000E+00  0.10650905361E+04  0.17586545993E+04  0.13994456579E+04 0.  0.
        1    1    3    3  502    0  0.95629566210E+02 -0.61452868583E+02  0.14001917153E+04  0.14047983160E+04  0.50400001928E-02 0. -1.
       -1    1    3    3    0  502 -0.95629566210E+02  0.61452868583E+02 -0.33510117912E+03  0.35385628335E+03  0.50400001928E-02 0.  1.
</event>
<event>
 5   0  0.1578965E-03  0.1399466E+04  0.7818609E-02  0.8954205E-01
        2   -1    0    0  501    0  0.00000000000E+00  0.00000000000E+00  0.13724272175E+04  0.13724272175E+04  0.25500000920E-02 0. -1.
       -2   -1    0    0    0  501  0.00000000000E+00  0.00000000000E+00 -0.35675958732E+03  0.35675958733E+03  0.25500000920E-02 0.  1.
    10030    2    1    2    0    0  0.00000000000E+00  0.00000000000E+00  0.10156676302E+04  0.17291868048E+04  0.13994664237E+04 0.  0.
        2    1    3    3  502    0 -0.61293918908E+03 -0.19580288492E+03  0.84755389783E+03  0.10641338398E+04  0.25500000920E-02 0. -1.
       -2    1    3    3    0  502  0.61293918908E+03  0.19580288492E+03  0.16811373232E+03  0.66505296501E+03  0.25500000920E-02 0.  1.
</event>
<event>
 5   0  0.8609148E-04  0.1391952E+04  0.7818609E-02  0.8959665E-01
       -1   -1    0    0    0  501  0.00000000000E+00  0.00000000000E+00  0.19130806037E+03  0.19130806044E+03  0.50400001928E-02 0. -1.
        1   -1    0    0  501    0  0.00000000000E+00  0.00000000000E+00 -0.25319498727E+04  0.25319498727E+04  0.50400001928E-02 0.  1.
    10030    2    1    2    0    0  0.00000000000E+00  0.00000000000E+00 -0.23406418124E+04  0.27232579332E+04  0.13919517509E+04 0.  0.
        5    1    3    3  502    0  0.30294829397E+03 -0.12603576115E+02 -0.23959026157E+04  0.24150171745E+04  0.46999998093E+01 0.  1.
       -5    1    3    3    0  502 -0.30294829397E+03  0.12603576115E+02  0.55260803353E+02  0.30824075872E+03  0.46999998093E+01 0. -1.
</event>
<event>
 5   0  0.8673728E-04  0.1293617E+04  0.7818609E-02  0.9034642E-01
        1   -1    0    0  501    0  0.00000000000E+00  0.00000000000E+00  0.50530369335E+03  0.50530369338E+03  0.50400001928E-02 0. -1.
       -1   -1    0    0    0  501  0.00000000000E+00  0.00000000000E+00 -0.82794040143E+03  0.82794040144E+03  0.50400001928E-02 0.  1.
    10030    2    1    2    0    0  0.00000000000E+00  0.00000000000E+00 -0.32263670808E+03  0.13332440948E+04  0.12936171655E+04 0.  0.
        3    1    3    3  502    0 -0.52173544473E+03  0.20721280545E+03  0.16979604463E+03  0.58649443987E+03  0.10100000352E+00 0. -1.
       -3    1    3    3    0  502  0.52173544473E+03 -0.20721280545E+03 -0.49243275270E+03  0.74674965495E+03  0.10100000352E+00 0.  1.
</event>
<event>
 5   0  0.9007180E-04  0.1419760E+04  0.7818609E-02  0.8939638E-01
        1   -1    0    0  501    0  0.00000000000E+00  0.00000000000E+00  0.64798357238E+03  0.64798357239E+03  0.50400001928E-02 0.  1.
       -1   -1    0    0    0  501  0.00000000000E+00  0.00000000000E+00 -0.77768901273E+03  0.77768901275E+03  0.50400001928E-02 0. -1.
    10030    2    1    2    0    0  0.00000000000E+00  0.00000000000E+00 -0.12970544036E+03  0.14256725851E+04  0.14197601272E+04 0.  0.
        2    1    3    3  502    0  0.15217617133E+03  0.44570148280E+03  0.46851107895E+03  0.66431169642E+03  0.25500000920E-02 0.  1.
       -2    1    3    3    0  502 -0.15217617133E+03 -0.44570148280E+03 -0.59821651931E+03  0.76136088872E+03  0.25500000920E-02 0. -1.
</event>
<event>
 5   0  0.1578965E-03  0.1360480E+04  0.7818609E-02  0.8982933E-01
        2   -1    0    0  501    0  0.00000000000E+00  0.00000000000E+00  0.19708950867E+04  0.19708950867E+04  0.25500000920E-02 0. -1.
       -2   -1    0    0    0  501  0.00000000000E+00  0.00000000000E+00 -0.23477979052E+03  0.23477979054E+03  0.25500000920E-02 0.  1.
    10030    2    1    2    0    0  0.00000000000E+00  0.00000000000E+00  0.17361152961E+04  0.22056748772E+04  0.13604798207E+04 0.  0.
        2    1    3    3  502    0  0.43073894942E+03  0.26505959310E+03  0.13055258011E+03  0.52233763661E+03  0.25500000920E-02 0.  1.
       -2    1    3    3    0  502 -0.43073894942E+03 -0.26505959310E+03  0.16055627160E+04  0.16833372406E+04  0.25500000920E-02 0. -1.
</event>
<event>
 5   0  0.1605214E-03  0.1393387E+04  0.7818609E-02  0.8958619E-01
       -2   -1    0    0    0  501  0.00000000000E+00  0.00000000000E+00  0.68031134057E+03  0.68031134057E+03  0.25500000920E-02 0. -1.
        2   -1    0    0  501    0  0.00000000000E+00  0.00000000000E+00 -0.71347036524E+03  0.71347036524E+03  0.25500000920E-02 0.  1.
    10030    2    1    2    0    0  0.00000000000E+00  0.00000000000E+00 -0.33159024670E+02  0.13937817058E+04  0.13933872120E+04 0.  0.
        5    1    3    3  502    0  0.86322254142E+02  0.19478088818E+03  0.64690969377E+03  0.68110598871E+03  0.46999998093E+01 0. -1.
       -5    1    3    3    0  502 -0.86322254142E+02 -0.19478088818E+03 -0.68006871844E+03  0.71267571711E+03  0.46999998093E+01 0.  1.
</event>
<event>
 5   0  0.8609148E-04  0.1394549E+04  0.7818609E-02  0.8957774E-01
       -1   -1    0    0    0  501  0.00000000000E+00  0.00000000000E+00  0.28403694711E+03  0.28403694716E+03  0.50400001928E-02 0. -1.
        1   -1    0    0  501    0  0.00000000000E+00  0.00000000000E+00 -0.17117207431E+04  0.17117207431E+04  0.50400001928E-02 0.  1.
    10030    2    1    2    0    0  0.00000000000E+00  0.00000000000E+00 -0.14276837960E+04  0.19957576903E+04  0.13945492953E+04 0.  0.
        5    1    3    3  502    0 -0.60591378025E+03  0.10131262628E+03 -0.11858361003E+04  0.13355242806E+04  0.46999998093E+01 0.  1.
       -5    1    3    3    0  502  0.60591378025E+03 -0.10131262628E+03 -0.24184769573E+03  0.66023340969E+03  0.46999998093E+01 0. -1.
</event>
<event>
 5   0  0.9639548E-04  0.1403234E+04  0.7818609E-02  0.8951481E-01
       -1   -1    0    0    0  501  0.00000000000E+00  0.00000000000E+00  0.35571245323E+03  0.35571245326E+03  0.50400001928E-02 0.  1.
        1   -1    0    0  501    0  0.00000000000E+00  0.00000000000E+00 -0.13838877555E+04  0.13838877555E+04  0.50400001928E-02 0. -1.
    10030    2    1    2    0    0  0.00000000000E+00  0.00000000000E+00 -0.10281753023E+04  0.17396002088E+04  0.14032335637E+04 0.  0.
        1    1    3    3  502    0  0.54212612123E+03  0.40588092001E+03 -0.74141801812E+03  0.10041617052E+04  0.50400001928E-02 0.  1.
       -1    1    3    3    0  502 -0.54212612123E+03 -0.40588092001E+03 -0.28675728418E+03  0.73543850362E+03  0.50400001928E-02 0. -1.
</event>
<event>
 5   0  0.8609148E-04  0.1396625E+04  0.7818609E-02  0.8956266E-01
       -1   -1    0    0    0  501  0.00000000000E+00  0.00000000000E+00  0.43520057640E+03  0.43520057643E+03  0.50400001928E-02 0.  1.
        1   -1    0    0  501    0  0.00000000000E+00  0.00000000000E+00 -0.11204948585E+04  0.11204948585E+04  0.50400001928E-02 0. -1.
    10030    2    1    2    0    0  0.00000000000E+00  0.00000000000E+00 -0.68529428210E+03  0.15556954349E+04  0.13966245140E+04 0.  0.
        5    1    3    3  502    0 -0.39396890302E+03 -0.42514227666E+03  0.91144431163E+02  0.58675961797E+03  0.46999998093E+01 0.  1.
       -5    1    3    3    0  502  0.39396890302E+03  0.42514227666E+03 -0.77643871326E+03  0.96893581697E+03  0.46999998093E+01 0. -1.
</event>
<event>
 5   0  0.1605214E-03  0.1363036E+04  0.7818609E-02  0.8981019E-01
        2   -1    0    0  501    0  0.00000000000E+00  0.00000000000E+00  0.91591008591E+03  0.91591008591E+03  0.25500000920E-02 0.  1.
       -2   -1    0    0    0  501  0.00000000000E+00  0.00000000000E+00 -0.50710925857E+03  0.50710925857E+03  0.25500000920E-02 0. -1.
    10030    2    1    2    0    0  0.00000000000E+00  0.00000000000E+00  0.40880082734E+03  0.14230193445E+04  0.13630355602E+04 0.  0.
        5    1    3    3  502    0 -0.21391138317E+03 -0.33914692550E+03  0.77970981566E+03  0.87678287139E+03  0.46999998093E+01 0.  1.
       -5    1    3    3    0  502  0.21391138317E+03  0.33914692550E+03 -0.37090898831E+03  0.54623647309E+03  0.46999998093E+01 0. -1.
</event>
<event>
 5   0  0.6048000E-04  0.1409065E+04  0.7818609E-02  0.8947283E-01
        3   -1    0    0  501    0  0.00000000000E+00  0.00000000000E+00  0.82015999034E+03  0.82015999656E+03  0.10100000352E+00 0. -1.
       -3   -1    0    0    0  501  0.00000000000E+00  0.00000000000E+00 -0.60520636663E+03  0.60520637505E+03  0.10100000352E+00 0.  1.
    10030    2    1    2    0    0  0.00000000000E+00  0.00000000000E+00  0.21495362371E+03  0.14253663716E+04  0.14090650208E+04 0.  0.
        1    1    3    3  502    0  0.27063657470E+03 -0.16654938748E+03 -0.52859270481E+03  0.61676016541E+03  0.50400001928E-02 0.  1.
       -1    1    3    3    0  502 -0.27063657470E+03  0.16654938748E+03  0.74354632852E+03  0.80860620620E+03  0.50400001928E-02 0. -1.
</event>
<event>
 5   0  0.1578965E-03  0.1409615E+04  0.7818609E-02  0.8946888E-01
        2   -1    0    0  501    0  0.00000000000E+00  0.00000000000E+00  0.24818287171E+04  0.24818287171E+04  0.25500000920E-02 0. -1.
       -2   -1    0    0    0  501  0.00000000000E+00  0.00000000000E+00 -0.20015623916E+03  0.20015623918E+03  0.25500000920E-02 0.  1.
    10030    2    1    2    0    0  0.00000000000E+00  0.00000000000E+00  0.22816724779E+04  0.26819849563E+04  0.14096148443E+04 0.  0.
        2    1    3    3  502    0  0.37053072150E+03  0.59738024374E+03  0.10438702278E+04  0.12584995922E+04  0.25500000920E-02 0.  1.
       -2    1    3    3    0  502 -0.37053072150E+03 -0.59738024374E+03  0.12378022502E+04  0.14234853641E+04  0.25500000920E-02 0. -1.
</event>
<event>
 5   0  0.1578965E-03  0.1158164E+04  0.7818609E-02  0.9150285E-01
        2   -1    0    0  501    0  0.00000000000E+00  0.00000000000E+00  0.12130329837E+04  0.12130329837E+04  0.25500000920E-02 0. -1.
       -2   -1    0    0    0  501  0.00000000000E+00  0.00000000000E+00 -0.27644401737E+03  0.27644401738E+03  0.25500000920E-02 0.  1.
    10030    2    1    2    0    0  0.00000000000E+00  0.00000000000E+00  0.93658896633E+03  0.14894770011E+04  0.11581635657E+04 0.  0.
        2    1    3    3  502    0  0.25240189655E+03  0.24625125108E+03  0.10590314306E+04  0.11161962045E+04  0.25500000920E-02 0. -1.
       -2    1    3    3    0  502 -0.25240189655E+03 -0.24625125108E+03 -0.12244246422E+03  0.37328079657E+03  0.25500000920E-02 0.  1.
</event>
<event>
 5   0  0.1605214E-03  0.1252998E+04  0.7818609E-02  0.9067691E-01
       -2   -1    0    0    0  501  0.00000000000E+00  0.00000000000E+00  0.13431467130E+04  0.13431467130E+04  0.25500000920E-02 0.  1.
        2   -1    0    0  501    0  0.00000000000E+00  0.00000000000E+00 -0.29222510019E+03  0.29222510020E+03  0.25500000920E-02 0. -1.
    10030    2    1    2    0    0  0.00000000000E+00  0.00000000000E+00  0.10509216128E+04  0.16353718132E+04  0.12529982966E+04 0.  0.
        5    1    3    3  502    0  0.58872235323E+02  0.39915256708E+03 -0.10005376564E+03  0.41571812315E+03  0.46999998093E+01 0. -1.
       -5    1    3    3    0  502 -0.58872235323E+02 -0.39915256708E+03  0.11509753784E+04  0.12196536901E+04  0.46999998093E+01 0.  1.
</event>
<event>
 5   0  0.1648463E-03  0.1398417E+04  0.7818609E-02  0.8954965E-01
        2   -1    0    0  501    0  0.00000000000E+00  0.00000000000E+00  0.10709512908E+04  0.10709512908E+04  0.25500000920E-02 0. -1.
       -2   -1    0    0    0  501  0.00000000000E+00  0.00000000000E+00 -0.45650314272E+03  0.45650314273E+03  0.25500000920E-02 0.  1.
    10030    2    1    2    0    0  0.00000000000E+00  0.00000000000E+00  0.61444814804E+03  0.15274544335E+04  0.13984171480E+04 0.  0.
        1    1    3    3  502    0 -0.47498276182E+02 -0.34150861418E+03  0.97163584854E+03  0.10309997294E+04  0.50400001928E-02 0. -1.
       -1    1    3    3    0  502  0.47498276182E+02  0.34150861418E+03 -0.35718770051E+03  0.49645470410E+03  0.50400001928E-02 0.  1.
</event>
<event>
 5   0  0.1578965E-03  0.1298230E+04  0.7818609E-02  0.9030970E-01
        2   -1    0    0  501    0  0.00000000000E+00  0.00000000000E+00  0.86970078356E+03  0.86970078356E+03  0.25500000920E-02 0. -1.
       -2   -1    0    0    0  501  0.00000000000E+00  0.00000000000E+00 -0.48447700185E+03  0.48447700186E+03  0.25500000920E-02 0.  1.
    10030    2    1    2    0    0  0.00000000000E+00  0.00000000000E+00  0.38522378171E+03  0.13541777854E+04  0.12982296070E+04 0.  0.
        2    1    3    3  502    0 -0.25075251624E+03  0.29690327331E+03  0.73494309189E+03  0.83136618071E+03  0.25500000920E-02 0. -1.
       -2    1    3    3    0  502  0.25075251624E+03 -0.29690327331E+03 -0.34971931018E+03  0.52281160471E+03  0.25500000920E-02 0.  1.
</event>
<event>
 5   0  0.1648463E-03  0.1395542E+04  0.7818609E-02  0.8957052E-01
       -2   -1    0    0    0  501  0.00000000000E+00  0.00000000000E+00  0.39221963604E+03  0.39221963605E+03  0.25500000920E-02 0.  1.
        2   -1    0    0  501    0  0.00000000000E+00  0.00000000000E+00 -0.12413561685E+04  0.12413561685E+04  0.25500000920E-02 0. -1.
    10030    2    1    2    0    0  0.00000000000E+00  0.00000000000E+00 -0.84913653246E+03  0.16335758046E+04  0.13955418512E+04 0.  0.
        1    1    3    3  502    0  0.64675819086E+02 -0.45200260628E+03 -0.10421964438E+04  0.11378324768E+04  0.50400001928E-02 0. -1.
       -1    1    3    3    0  502 -0.64675819086E+02  0.45200260628E+03  0.19305991135E+03  0.49574332780E+03  0.50400001928E-02 0.  1.
</event>
<event>
 5   0  0.8502300E-04  0.1326936E+04  0.7818609E-02  0.9008473E-01
       -1   -1    0    0    0  501  0.00000000000E+00  0.00000000000E+00  0.57060365579E+03  0.57060365581E+03  0.50400001928E-02 0. -1.
        1   -1    0    0  501    0  0.00000000000E+00  0.00000000000E+00 -0.77144564022E+03  0.77144564024E+03  0.50400001928E-02 0.  1.
    10030    2    1    2    0    0  0.00000000000E+00  0.00000000000E+00 -0.20084198444E+03  0.13420492961E+04  0.13269358727E+04 0.  0.
        4    1    3    3  502    0  0.64085048583E+03  0.16371679748E+03 -0.47910920751E+02  0.66316634730E+03  0.12699999809E+01 0. -1.
       -4    1    3    3    0  502 -0.64085048583E+03 -0.16371679748E+03 -0.15293106369E+03  0.67888294875E+03  0.12699999809E+01 0.  1.
</event>
<event>
 5   0  0.8502300E-04  0.1402973E+04  0.7818609E-02  0.8951669E-01
        1   -1    0    0  501    0  0.00000000000E+00  0.00000000000E+00  0.87057680924E+03  0.87057680926E+03  0.50400001928E-02 0.  1.
       -1   -1    0    0    0  501  0.00000000000E+00  0.00000000000E+00 -0.56523856737E+03  0.56523856739E+03  0.50400001928E-02 0. -1.
    10030    2    1    2    0    0  0.00000000000E+00  0.00000000000E+00  0.30533824187E+03  0.14358153766E+04  0.14029733974E+04 0.  0.
        4    1    3    3  502    0 -0.57499271072E+03  0.39207376398E+03  0.24272631807E+03  0.73705911036E+03  0.12699999809E+01 0.  1.
       -4    1    3    3    0  502  0.57499271072E+03 -0.39207376398E+03  0.62611923808E+02  0.69875626629E+03  0.12699999809E+01 0. -1.
</event>
<event>
 5   0  0.8502300E-04  0.1392414E+04  0.7818609E-02  0.8959328E-01
       -1   -1    0    0    0  501  0.00000000000E+00  0.00000000000E+00  0.38523195048E+03  0.38523195052E+03  0.50400001928E-02 0.  1.
        1   -1    0    0  501    0  0.00000000000E+00  0.00000000000E+00 -0.12582141914E+04  0.12582141914E+04  0.50400001928E-02 0. -1.
    10030    2    1    2    0    0  0.00000000000E+00  0.00000000000E+00 -0.87298224092E+03  0.16434461419E+04  0.13924141727E+04 0.  0.
        4    1    3    3  502    0 -0.20032836480E+03 -0.33423032531E+03  0.24446435014E+03  0.46000629940E+03  0.12699999809E+01 0.  1.
       -4    1    3    3    0  502  0.20032836480E+03  0.33423032531E+03 -0.11174465911E+04  0.11834398425E+04  0.12699999809E+01 0. -1.
</event>
<event>
 5   0  0.1648213E-03  0.1407244E+04  0.7818609E-02  0.8948591E-01
       -2   -1    0    0    0  501  0.00000000000E+00  0.00000000000E+00  0.32408030906E+03  0.32408030907E+03  0.25500000920E-02 0. -1.
        2   -1    0    0  501    0  0.00000000000E+00  0.00000000000E+00 -0.15276589132E+04  0.15276589132E+04  0.25500000920E-02 0.  1.
    10030    2    1    2    0    0  0.00000000000E+00  0.00000000000E+00 -0.12035786041E+04  0.18517392222E+04  0.14072443608E+04 0.  0.
        4    1    3    3  502    0 -0.19694221203E+03 -0.13904585806E+03 -0.14716153907E+04  0.14912321940E+04  0.12699999809E+01 0.  1.
       -4    1    3    3    0  502  0.19694221203E+03  0.13904585806E+03  0.26803678658E+03  0.36050702821E+03  0.12699999809E+01 0. -1.
</event>
<event>
 5   0  0.8609148E-04  0.1256989E+04  0.7818609E-02  0.9064387E-01
        1   -1    0    0  501    0  0.00000000000E+00  0.00000000000E+00  0.50336196944E+03  0.50336196946E+03  0.50400001928E-02 0.  1.
       -1   -1    0    0    0  501  0.00000000000E+00  0.00000000000E+00 -0.78473369171E+03  0.78473369172E+03  0.50400001928E-02 0. -1.
    10030    2    1    2    0    0  0.00000000000E+00  0.00000000000E+00 -0.28137172227E+03  0.12880956612E+04  0.12569886182E+04 0.  0.
        5    1    3    3  502    0 -0.38590457826E+03  0.34786953204E+03 -0.50305749577E+03  0.72320432029E+03  0.46999998093E+01 0. -1.
       -5    1    3    3    0  502  0.38590457826E+03 -0.34786953204E+03  0.22168577350E+03  0.56489134089E+03  0.46999998093E+01 0.  1.
</event>
<event>
 5   0  0.9007180E-04  0.1356582E+04  0.7818609E-02  0.8985861E-01
       -1   -1    0    0    0  501  0.00000000000E+00  0.00000000000E+00  0.35755182770E+03  0.35755182774E+03  0.50400001928E-02 0. -1.
        1   -1    0    0  501    0  0.00000000000E+00  0.00000000000E+00 -0.12867460674E+04  0.12867460675E+04  0.50400001928E-02 0.  1.
    10030    2    1    2    0    0  0.00000000000E+00  0.00000000000E+00 -0.92919423974E+03  0.16442978952E+04  0.13565815984E+04 0.  0.
        2    1    3    3  502    0  0.35129565130E+03 -0.16612680338E+03 -0.11384485753E+04  0.12029430194E+04  0.25500000920E-02 0.  1.
       -2    1    3    3    0  502 -0.35129565130E+03  0.16612680338E+03  0.20925433553E+03  0.44135487578E+03  0.25500000920E-02 0. -1.
</event>
<event>
 5   0  0.8502300E-04  0.1488255E+04  0.7818609E-02  0.8892301E-01
       -1   -1    0    0    0  501  0.00000000000E+00  0.00000000000E+00  0.68019680418E+03  0.68019680420E+03  0.50400001928E-02 0. -1.
        1   -1    0    0  501    0  0.00000000000E+00  0.00000000000E+00 -0.81406713738E+03  0.81406713739E+03  0.50400001928E-02 0.  1.
    10030    2    1    2    0    0  0.00000000000E+00  0.00000000000E+00 -0.13387033319E+03  0.14942639416E+04  0.14882551734E+04 0.  0.
        4    1    3    3  502    0  0.11566315427E+03 -0.63075216519E+02 -0.80226344216E+03  0.81300965045E+03  0.12699999809E+01 0.  1.
       -4    1    3    3    0  502 -0.11566315427E+03  0.63075216519E+02  0.66839310897E+03  0.68125429115E+03  0.12699999809E+01 0. -1.
</event>
<event>
 5   0  0.8502300E-04  0.1406501E+04  0.7818609E-02  0.8949126E-01
       -1   -1    0    0    0  501  0.00000000000E+00  0.00000000000E+00  0.53693097172E+03  0.53693097174E+03  0.50400001928E-02 0. -1.
        1   -1    0    0  501    0  0.00000000000E+00  0.00000000000E+00 -0.92108879268E+03  0.92108879270E+03  0.50400001928E-02 0.  1.
    10030    2    1    2    0    0  0.00000000000E+00  0.00000000000E+00 -0.38415782097E+03  0.14580197644E+04  0.14065007650E+04 0.  0.
        4    1    3    3  502    0 -0.34367014223E+02  0.68079594813E+03 -0.12843134671E+02  0.68178499079E+03  0.12699999809E+01 0. -1.
       -4    1    3    3    0  502  0.34367014223E+02 -0.68079594813E+03 -0.37131468630E+03  0.77623477365E+03  0.12699999809E+01 0.  1.
</event>
<event>
 5   0  0.1706986E-03  0.1403506E+04  0.7818609E-02  0.8951285E-01
       -2   -1    0    0    0  501  0.00000000000E+00  0.00000000000E+00  0.38288683505E+03  0.38288683506E+03  0.25500000920E-02 0. -1.
        2   -1    0    0  501    0  0.00000000000E+00  0.00000000000E+00 -0.12861692617E+04  0.12861692617E+04  0.25500000920E-02 0.  1.
    10030    2    1    2    0    0  0.00000000000E+00  0.00000000000E+00 -0.90328242664E+03  0.16690560967E+04  0.14035060070E+04 0.  0.
        3    1    3    3  502    0 -0.38694982004E+03 -0.49048457689E+03 -0.71556798920E+02  0.62882880745E+03  0.10100000352E+00 0. -1.
       -3    1    3    3    0  502  0.38694982004E+03  0.49048457689E+03 -0.83172562772E+03  0.10402272893E+04  0.10100000352E+00 0.  1.
</event>
<event>
 5   0  0.9007180E-04  0.1389757E+04  0.7818609E-02  0.8961266E-01
        1   -1    0    0  501    0  0.00000000000E+00  0.00000000000E+00  0.12937381725E+04  0.12937381725E+04  0.50400001928E-02 0.  1.
       -1   -1    0    0    0  501  0.00000000000E+00  0.00000000000E+00 -0.37322559651E+03  0.37322559654E+03  0.50400001928E-02 0. -1.
    10030    2    1    2    0    0  0.00000000000E+00  0.00000000000E+00  0.92051257601E+03  0.16669637691E+04  0.13897571028E+04 0.  0.
        2    1    3    3  502    0  0.52923696900E+03 -0.65181984676E+00  0.10003668758E+04  0.11317358705E+04  0.25500000920E-02 0.  1.
       -2    1    3    3    0  502 -0.52923696900E+03  0.65181984676E+00 -0.79854299835E+02  0.53522789860E+03  0.25500000920E-02 0. -1.
</event>
<event>
 5   0  0.1706986E-03  0.1396359E+04  0.7818609E-02  0.8956458E-01
       -2   -1    0    0    0  501  0.00000000000E+00  0.00000000000E+00  0.68630398946E+03  0.68630398947E+03  0.25500000920E-02 0.  1.
        2   -1    0    0  501    0  0.00000000000E+00  0.00000000000E+00 -0.71026027599E+03  0.71026027600E+03  0.25500000920E-02 0. -1.
    10030    2    1    2    0    0  0.00000000000E+00  0.00000000000E+00 -0.23956286530E+02  0.13965642655E+04  0.13963587805E+04 0.  0.
        3    1    3    3  502    0 -0.37920092590E+03  0.53689361753E+03 -0.24739832120E+03  0.70232046693E+03  0.10100000352E+00 0. -1.
       -3    1    3    3    0  502  0.37920092590E+03 -0.53689361753E+03  0.22344203467E+03  0.69424379853E+03  0.10100000352E+00 0.  1.
</event>
<event>
 5   0  0.8609148E-04  0.1404117E+04  0.7818609E-02  0.8950844E-01
        1   -1    0    0  501    0  0.00000000000E+00  0.00000000000E+00  0.14122891863E+04  0.14122891864E+04  0.50400001928E-02 0.  1.
       -1   -1    0    0    0  501  0.00000000000E+00  0.00000000000E+00 -0.34899791600E+03  0.34899791604E+03  0.50400001928E-02 0. -1.
    10030    2    1    2    0    0  0.00000000000E+00  0.00000000000E+00  0.10632912703E+04  0.17612871024E+04  0.14041167799E+04 0.  0.
        5    1    3    3  502    0 -0.27579771431E+03  0.57543728498E+02  0.13382461649E+04  0.13675893199E+04  0.46999998093E+01 0.  1.
       -5    1    3    3    0  502  0.27579771431E+03 -0.57543728498E+02 -0.27495489458E+03  0.39369778252E+03  0.46999998093E+01 0. -1.
</event>
<event>
 5   0  0.1605214E-03  0.1389219E+04  0.7818609E-02  0.8961660E-01
       -2   -1    0    0    0  501  0.00000000000E+00  0.00000000000E+00  0.75858157913E+03  0.75858157914E+03  0.25500000920E-02 0.  1.
        2   -1    0    0  501    0  0.00000000000E+00  0.00000000000E+00 -0.63603189964E+03  0.63603189965E+03  0.25500000920E-02 0. -1.
    10030    2    1    2    0    0  0.00000000000E+00  0.00000000000E+00  0.12254967949E+03  0.13946134788E+04  0.13892186046E+04 0.  0.
        5    1    3    3  502    0 -0.50471175803E+03 -0.19876910973E+03 -0.37424961619E+03  0.65903564615E+03  0.46999998093E+01 0. -1.
       -5    1    3    3    0  502  0.50471175803E+03  0.19876910973E+03  0.49679929568E+03  0.73557783263E+03  0.46999998093E+01 0.  1.
</event>
<event>
 5   0  0.8673728E-04  0.1398385E+04  0.7818609E-02  0.8954988E-01
        1   -1    0    0  501    0  0.00000000000E+00  0.00000000000E+00  0.20083200473E+04  0.20083200473E+04  0.50400001928E-02 0. -1.
       -1   -1    0    0    0  501  0.00000000000E+00  0.00000000000E+00 -0.24342254942E+03  0.24342254947E+03  0.50400001928E-02 0.  1.
    10030    2    1    2    0    0  0.00000000000E+00  0.00000000000E+00  0.17648974979E+04  0.22517425968E+04  0.13983853346E+04 0.  0.
        3    1    3    3  502    0 -0.16675214014E+03 -0.61105669386E+03  0.13592384204E+04  0.14995751575E+04  0.10100000352E+00 0. -1.
       -3    1    3    3    0  502  0.16675214014E+03  0.61105669386E+03  0.40565907751E+03  0.75216743928E+03  0.10100000352E+00 0.  1.
</event>
<event>
 5   0  0.8609148E-04  0.1453395E+04  0.7818609E-02  0.8916050E-01
        1   -1    0    0  501    0  0.00000000000E+00  0.00000000000E+00  0.68859166136E+03  0.68859166137E+03  0.50400001928E-02 0.  1.
       -1   -1    0    0    0  501  0.00000000000E+00  0.00000000000E+00 -0.76691218447E+03  0.76691218449E+03  0.50400001928E-02 0. -1.
    10030    2    1    2    0    0  0.00000000000E+00  0.00000000000E+00 -0.78320523114E+02  0.14555038459E+04  0.14533951083E+04 0.  0.
        5    1    3    3  502    0 -0.65535758498E+03 -0.14668066527E+03  0.23883656335E+03  0.71279294030E+03  0.46999998093E+01 0. -1.
       -5    1    3    3    0  502  0.65535758498E+03  0.14668066527E+03 -0.31715708647E+03  0.74271090556E+03  0.46999998093E+01 0.  1.
</event>
<event>
 5   0  0.1605214E-03  0.1340980E+04  0.7818609E-02  0.8997684E-01
       -2   -1    0    0    0  501  0.00000000000E+00  0.00000000000E+00  0.56282004981E+03  0.56282004981E+03  0.25500000920E-02 0. -1.
        2   -1    0    0  501    0  0.00000000000E+00  0.00000000000E+00 -0.79875808442E+03  0.79875808442E+03  0.25500000920E-02 0.  1.
    10030    2    1    2    0    0  0.00000000000E+00  0.00000000000E+00 -0.23593803461E+03  0.13615781342E+04  0.13409803352E+04 0.  0.
        5    1    3    3  502    0 -0.61706477964E+03 -0.10882354031E+03 -0.36022016381E+03  0.72276701752E+03  0.46999998093E+01 0. -1.
       -5    1    3    3    0  502  0.61706477964E+03  0.10882354031E+03  0.12428212919E+03  0.63881111671E+03  0.46999998093E+01 0.  1.
</event>
<event>
 5   0  0.8673728E-04  0.1396610E+04  0.7818609E-02  0.8956276E-01
       -1   -1    0    0    0  501  0.00000000000E+00  0.00000000000E+00  0.14183454619E+04  0.14183454619E+04  0.50400001928E-02 0. -1.
        1   -1    0    0  501    0  0.00000000000E+00  0.00000000000E+00 -0.34380201416E+03  0.34380201420E+03  0.50400001928E-02 0.  1.
    10030    2    1    2    0    0  0.00000000000E+00  0.00000000000E+00  0.10745434477E+04  0.17621474761E+04  0.13966102199E+04 0.  0.
        3    1    3    3  502    0 -0.15464611707E+03 -0.18842112484E+03  0.13629226855E+04  0.13845490958E+04  0.10100000352E+00 0. -1.
       -3    1    3    3    0  502  0.15464611707E+03  0.18842112484E+03 -0.28837923779E+03  0.37759838029E+03  0.10100000352E+00 0.  1.
</event>
<event>
 5   0  0.9007180E-04  0.1428625E+04  0.7818609E-02  0.8933355E-01
        1   -1    0    0  501    0  0.00000000000E+00  0.00000000000E+00  0.78906171354E+03  0.78906171356E+03  0.50400001928E-02 0.  1.
       -1   -1    0    0    0  501  0.00000000000E+00  0.00000000000E+00 -0.64664407797E+03  0.64664407799E+03  0.50400001928E-02 0. -1.
    10030    2    1    2    0    0  0.00000000000E+00  0.00000000000E+00  0.14241763557E+03  0.14357057915E+04  0.14286246312E+04 0.  0.
        2    1    3    3  502    0 -0.44643559724E+03 -0.84066990386E+02 -0.48276761682E+03  0.66290012311E+03  0.25500000920E-02 0. -1.
       -2    1    3    3    0  502  0.44643559724E+03  0.84066990386E+02  0.62518525239E+03  0.77280566844E+03  0.25500000920E-02 0.  1.
</event>
<event>
 5   0  0.1578965E-03  0.1391191E+04  0.7818609E-02  0.8960220E-01
        2   -1    0    0  501    0  0.00000000000E+00  0.00000000000E+00  0.97067266572E+03  0.97067266572E+03  0.25500000920E-02 0. -1.
       -2   -1    0    0    0  501  0.00000000000E+00  0.00000000000E+00 -0.49847200572E+03  0.49847200573E+03  0.25500000920E-02 0.  1.
    10030    2    1    2    0    0  0.00000000000E+00  0.00000000000E+00  0.47220066000E+03  0.14691446715E+04  0.13911910733E+04 0.  0.
        2    1    3    3  502    0 -0.34298405810E+03 -0.35263796991E+03 -0.28325093844E+03  0.56764662957E+03  0.25500000920E-02 0.  1.
       -2    1    3    3    0  502  0.34298405810E+03  0.35263796991E+03  0.75545159844E+03  0.90149804188E+03  0.25500000920E-02 0. -1.
</event>
<event>
 5   0  0.1578965E-03  0.1414320E+04  0.7818609E-02  0.8943518E-01
        2   -1    0    0  501    0  0.00000000000E+00  0.00000000000E+00  0.15197312910E+04  0.15197312910E+04  0.25500000920E-02 0. -1.
       -2   -1    0    0    0  501  0.00000000000E+00  0.00000000000E+00 -0.32905497866E+03  0.32905497867E+03  0.25500000920E-02 0.  1.
    10030    2    1    2    0    0  0.00000000000E+00  0.00000000000E+00  0.11906763123E+04  0.18487862697E+04  0.14143198330E+04 0.  0.
        2    1    3    3  502    0 -0.28968162212E+03 -0.63658236930E+03  0.73195427394E+03  0.10123781972E+04  0.25500000920E-02 0. -1.
       -2    1    3    3    0  502  0.28968162212E+03  0.63658236930E+03  0.45872203838E+03  0.83640807241E+03  0.25500000920E-02 0.  1.
</event>
<event>
 5   0  0.1648213E-03  0.1398220E+04  0.7818609E-02  0.8955108E-01
        2   -1    0    0  501    0  0.00000000000E+00  0.00000000000E+00  0.10279679774E+04  0.10279679774E+04  0.25500000920E-02 0. -1.
       -2   -1    0    0    0  501  0.00000000000E+00  0.00000000000E+00 -0.47545727499E+03  0.47545727500E+03  0.25500000920E-02 0.  1.
    10030    2    1    2    0    0  0.00000000000E+00  0.00000000000E+00  0.55251070239E+03  0.15034252524E+04  0.13982200876E+04 0.  0.
        4    1    3    3  502    0 -0.35866553113E+03  0.45246910564E+03  0.70010266197E+03  0.90747705479E+03  0.12699999809E+01 0. -1.
       -4    1    3    3    0  502  0.35866553113E+03 -0.45246910564E+03 -0.14759195958E+03  0.59594819759E+03  0.12699999809E+01 0.  1.
</event>
<event>
 5   0  0.1648463E-03  0.1384052E+04  0.7818609E-02  0.8965444E-01
        2   -1    0    0  501    0  0.00000000000E+00  0.00000000000E+00  0.13028492302E+04  0.13028492302E+04  0.25500000920E-02 0.  1.
       -2   -1    0    0    0  501  0.00000000000E+00  0.00000000000E+00 -0.36757915695E+03  0.36757915696E+03  0.25500000920E-02 0. -1.
    10030    2    1    2    0    0  0.00000000000E+00  0.00000000000E+00  0.93527007325E+03  0.16704283872E+04  0.13840523425E+04 0.  0.
        1    1    3    3  502    0 -0.32547579645E+03  0.48451715050E+03  0.18948242954E+02  0.58399520472E+03  0.50400001928E-02 0. -1.
       -1    1    3    3    0  502  0.32547579645E+03 -0.48451715050E+03  0.91632183030E+03  0.10864331824E+04  0.50400001928E-02 0.  1.
</event>
<event>
 5   0  0.6048000E-04  0.1407233E+04  0.7818609E-02  0.8948599E-01
        4   -1    0    0  501    0  0.00000000000E+00  0.00000000000E+00  0.13239097743E+04  0.13239103835E+04  0.12699999809E+01 0.  1.
       -4   -1    0    0    0  501  0.00000000000E+00  0.00000000000E+00 -0.37394851960E+03  0.37395067617E+03  0.12699999809E+01 0. -1.
    10030    2    1    2    0    0  0.00000000000E+00  0.00000000000E+00  0.94996125472E+03  0.16978610596E+04  0.14072333823E+04 0.  0.
        5    1    3    3  502    0  0.22546095708E+03  0.28260549767E+03  0.12032614784E+04  0.12564070940E+04  0.46999998093E+01 0.  1.
       -5    1    3    3    0  502 -0.22546095708E+03 -0.28260549767E+03 -0.25330022366E+03  0.44145396565E+03  0.46999998093E+01 0. -1.
</event>
<event>
 5   0  0.1578965E-03  0.1410625E+04  0.7818609E-02  0.8946163E-01
        2   -1    0    0  501    0  0.00000000000E+00  0.00000000000E+00  0.65667193188E+03  0.65667193188E+03  0.25500000920E-02 0.  1.
       -2   -1    0    0    0  501  0.00000000000E+00  0.00000000000E+00 -0.75755590212E+03  0.75755590212E+03  0.25500000920E-02 0. -1.
    10030    2    1    2    0    0  0.00000000000E+00  0.00000000000E+00 -0.10088397024E+03  0.14142278340E+04  0.14106249647E+04 0.  0.
        2    1    3    3  502    0 -0.28167846371E+03 -0.14765820234E+03  0.58070542937E+03  0.66209100383E+03  0.25500000920E-02 0.  1.
       -2    1    3    3    0  502  0.28167846371E+03  0.14765820234E+03 -0.68158939961E+03  0.75213683018E+03  0.25500000920E-02 0. -1.
</event>
<event>
 5   0  0.1706986E-03  0.1404327E+04  0.7818609E-02  0.8950693E-01
        2   -1    0    0  501    0  0.00000000000E+00  0.00000000000E+00  0.17512254041E+04  0.17512254041E+04  0.25500000920E-02 0. -1.
       -2   -1    0    0    0  501  0.00000000000E+00  0.00000000000E+00 -0.28153615493E+03  0.28153615494E+03  0.25500000920E-02 0.  1.
    10030    2    1    2    0    0  0.00000000000E+00  0.00000000000E+00  0.14696892492E+04  0.20327615590E+04  0.14043265528E+04 0.  0.
        3    1    3    3  502    0  0.17803703563E+03 -0.73842740232E+02  0.17121835205E+04  0.17229980715E+04  0.10100000352E+00 0. -1.
       -3    1    3    3    0  502 -0.17803703563E+03  0.73842740232E+02 -0.24249427137E+03  0.30976348750E+03  0.10100000352E+00 0.  1.
</event>
<event>
 5   0  0.6048000E-04  0.1366263E+04  0.7818609E-02  0.8978608E-01
        3   -1    0    0  501    0  0.00000000000E+00  0.00000000000E+00  0.91336980222E+03  0.91336980781E+03  0.10100000352E+00 0.  1.
       -3   -1    0    0    0  501  0.00000000000E+00  0.00000000000E+00 -0.51093044647E+03  0.51093045645E+03  0.10100000352E+00 0. -1.
    10030    2    1    2    0    0  0.00000000000E+00  0.00000000000E+00  0.40243935576E+03  0.14243002643E+04  0.13662627155E+04 0.  0.
        3    1    3    3  502    0  0.21384463880E+03  0.35650980032E+03  0.76631609676E+03  0.87181944096E+03  0.10100000352E+00 0.  1.
       -3    1    3    3    0  502 -0.21384463880E+03 -0.35650980032E+03 -0.36387674101E+03  0.55248082330E+03  0.10100000352E+00 0. -1.
</event>
<event>
 5   0  0.6048000E-04  0.1413878E+04  0.7818609E-02  0.8943834E-01
        3   -1    0    0  501    0  0.00000000000E+00  0.00000000000E+00  0.54254632680E+03  0.54254633620E+03  0.10100000352E+00 0. -1.
       -3   -1    0    0    0  501  0.00000000000E+00  0.00000000000E+00 -0.92114244864E+03  0.92114245418E+03  0.10100000352E+00 0.  1.
    10030    2    1    2    0    0  0.00000000000E+00  0.00000000000E+00 -0.37859612184E+03  0.14636887904E+04  0.14138775943E+04 0.  0.
        3    1    3    3  502    0  0.17343039180E+03  0.46648127219E+03 -0.70906154290E+03  0.86628584193E+03  0.10100000352E+00 0.  1.
       -3    1    3    3    0  502 -0.17343039180E+03 -0.46648127219E+03  0.33046542106E+03  0.59740294845E+03  0.10100000352E+00 0. -1.
</event>
<event>
 5   0  0.8673728E-04  0.1395211E+04  0.7818609E-02  0.8957292E-01
       -1   -1    0    0    0  501  0.00000000000E+00  0.00000000000E+00  0.37086985434E+03  0.37086985437E+03  0.50400001928E-02 0. -1.
        1   -1    0    0  501    0  0.00000000000E+00  0.00000000000E+00 -0.13121948760E+04  0.13121948760E+04  0.50400001928E-02 0.  1.
    10030    2    1    2    0    0  0.00000000000E+00  0.00000000000E+00 -0.94132502163E+03  0.16830647304E+04  0.13952111275E+04 0.  0.
        3    1    3    3  502    0 -0.95678055887E+02  0.57253487733E+03 -0.93740376856E+03  0.11025771228E+04  0.10100000352E+00 0.  1.
       -3    1    3    3    0  502  0.95678055887E+02 -0.57253487733E+03 -0.39212530679E+01  0.58048760759E+03  0.10100000352E+00 0. -1.
</event>
<event>
 5   0  0.1605214E-03  0.1391504E+04  0.7818609E-02  0.8959991E-01
        2   -1    0    0  501    0  0.00000000000E+00  0.00000000000E+00  0.84094439436E+03  0.84094439436E+03  0.25500000920E-02 0.  1.
       -2   -1    0    0    0  501  0.00000000000E+00  0.00000000000E+00 -0.57562774393E+03  0.57562774393E+03  0.25500000920E-02 0. -1.
    10030    2    1    2    0    0  0.00000000000E+00  0.00000000000E+00  0.26531665043E+03  0.14165721383E+04  0.13915041135E+04 0.  0.
        5    1    3    3  502    0 -0.22222121442E+03 -0.35155970589E+03 -0.43512796117E+03  0.60194262811E+03  0.46999998093E+01 0. -1.
       -5    1    3    3    0  502  0.22222121442E+03  0.35155970589E+03  0.70044461160E+03  0.81462951019E+03  0.46999998093E+01 0.  1.
</event>
<event>
 5   0  0.8502300E-04  0.1401599E+04  0.7818609E-02  0.8952662E-01
       -1   -1    0    0    0  501  0.00000000000E+00  0.00000000000E+00  0.49029761662E+03  0.49029761664E+03  0.50400001928E-02 0. -1.
        1   -1    0    0  501    0  0.00000000000E+00  0.00000000000E+00 -0.10016770101E+04  0.10016770101E+04  0.50400001928E-02 0.  1.
    10030    2    1    2    0    0  0.00000000000E+00  0.00000000000E+00 -0.51137939351E+03  0.14919746268E+04  0.14015988737E+04 0.  0.
        4    1    3    3  502    0 -0.59405220932E+03 -0.36778102194E+03 -0.31357757285E+03  0.76582858042E+03  0.12699999809E+01 0.  1.
       -4    1    3    3    0  502  0.59405220932E+03  0.36778102194E+03 -0.19780182066E+03  0.72614604636E+03  0.12699999809E+01 0. -1.
</event>
<event>
 5   0  0.1648463E-03  0.1406245E+04  0.7818609E-02  0.8949311E-01
       -2   -1    0    0    0  501  0.00000000000E+00  0.00000000000E+00  0.57569086540E+03  0.57569086540E+03  0.25500000920E-02 0.  1.
        2   -1    0    0  501    0  0.00000000000E+00  0.00000000000E+00 -0.85876140760E+03  0.85876140761E+03  0.25500000920E-02 0. -1.
    10030    2    1    2    0    0  0.00000000000E+00  0.00000000000E+00 -0.28307054220E+03  0.14344522730E+04  0.14062447837E+04 0.  0.
        1    1    3    3  502    0 -0.60171446136E+03 -0.30701770644E+03 -0.34054068549E+03  0.75649727268E+03  0.50400001928E-02 0. -1.
       -1    1    3    3    0  502  0.60171446136E+03  0.30701770644E+03  0.57470143287E+02  0.67795500033E+03  0.50400001928E-02 0.  1.
</event>
<event>
 5   0  0.1578965E-03  0.1446906E+04  0.7818609E-02  0.8920548E-01
        2   -1    0    0  501    0  0.00000000000E+00  0.00000000000E+00  0.49081380743E+03  0.49081380743E+03  0.25500000920E-02 0. -1.
       -2   -1    0    0    0  501  0.00000000000E+00  0.00000000000E+00 -0.10663604487E+04  0.10663604487E+04  0.25500000920E-02 0.  1.
    10030    2    1    2    0    0  0.00000000000E+00  0.00000000000E+00 -0.57554664131E+03  0.15571742562E+04  0.14469062609E+04 0.  0.
        2    1    3    3  502    0 -0.41750586038E+03  0.45197021231E+02  0.34621411832E+03  0.54425924880E+03  0.25500000920E-02 0. -1.
       -2    1    3    3    0  502  0.41750586038E+03 -0.45197021231E+02 -0.92176075963E+03  0.10129150074E+04  0.25500000920E-02 0.  1.
</event>
<event>
 5   0  0.8609148E-04  0.1419371E+04  0.7818609E-02  0.8939915E-01
        1   -1    0    0  501    0  0.00000000000E+00  0.00000000000E+00  0.77201321184E+03  0.77201321186E+03  0.50400001928E-02 0.  1.
       -1   -1    0    0    0  501  0.00000000000E+00  0.00000000000E+00 -0.65239000058E+03  0.65239000060E+03  0.50400001928E-02 0. -1.
    10030    2    1    2    0    0  0.00000000000E+00  0.00000000000E+00  0.11962321126E+03  0.14244032125E+04  0.14193712689E+04 0.  0.
        5    1    3    3  502    0 -0.33563826083E+03  0.25827092063E+03 -0.51165843459E+03  0.66420881826E+03  0.46999998093E+01 0. -1.
       -5    1    3    3    0  502  0.33563826083E+03 -0.25827092063E+03  0.63128164585E+03  0.76019439419E+03  0.46999998093E+01 0.  1.
</event>
<event>
 5   0  0.1648213E-03  0.1393263E+04  0.7818609E-02  0.8958710E-01
       -2   -1    0    0    0  501  0.00000000000E+00  0.00000000000E+00  0.98198104509E+03  0.98198104509E+03  0.25500000920E-02 0. -1.
        2   -1    0    0  501    0  0.00000000000E+00  0.00000000000E+00 -0.49420030236E+03  0.49420030237E+03  0.25500000920E-02 0.  1.
    10030    2    1    2    0    0  0.00000000000E+00  0.00000000000E+00  0.48778074273E+03  0.14761813475E+04  0.13932628315E+04 0.  0.
        4    1    3    3  502    0 -0.51109342516E+03 -0.44710124656E+03  0.40863610532E+03  0.79252829185E+03  0.12699999809E+01 0.  1.
       -4    1    3    3    0  502  0.51109342516E+03  0.44710124656E+03  0.79144637406E+02  0.68365305561E+03  0.12699999809E+01 0. -1.
</event>
<event>
 5   0  0.1605214E-03  0.1375676E+04  0.7818609E-02  0.8971616E-01
       -2   -1    0    0    0  501  0.00000000000E+00  0.00000000000E+00  0.12403210294E+04  0.12403210294E+04  0.25500000920E-02 0.  1.
        2   -1    0    0  501    0  0.00000000000E+00  0.00000000000E+00 -0.38145079405E+03  0.38145079406E+03  0.25500000920E-02 0. -1.
    10030    2    1    2    0    0  0.00000000000E+00  0.00000000000E+00  0.85887023534E+03  0.16217718234E+04  0.13756764758E+04 0.  0.
        5    1    3    3  502    0  0.38266972983E+03 -0.56788722691E+03  0.35333203903E+03  0.77058266553E+03  0.46999998093E+01 0. -1.
       -5    1    3    3    0  502 -0.38266972983E+03  0.56788722691E+03  0.50553819631E+03  0.85118915791E+03  0.46999998093E+01 0.  1.
</event>
<event>
 5   0  0.8502300E-04  0.1420771E+04  0.7818609E-02  0.8938919E-01
        1   -1    0    0  501    0  0.00000000000E+00  0.00000000000E+00  0.44115061927E+03  0.44115061930E+03  0.50400001928E-02 0.  1.
       -1   -1    0    0    0  501  0.00000000000E+00  0.00000000000E+00 -0.11439347181E+04  0.11439347181E+04  0.50400001928E-02 0. -1.
    10030    2    1    2    0    0  0.00000000000E+00  0.00000000000E+00 -0.70278409884E+03  0.15850853374E+04  0.14207709306E+04 0.  0.
        4    1    3    3  502    0  0.59846879162E+03  0.53965378444E+02 -0.77411763075E+03  0.97996779322E+03  0.12699999809E+01 0. -1.
       -4    1    3    3    0  502 -0.59846879162E+03 -0.53965378444E+02  0.71333531918E+02  0.60511754419E+03  0.12699999809E+01 0.  1.
</event>
<event>
 5   0  0.1706986E-03  0.1390264E+04  0.7818609E-02  0.8960897E-01
        2   -1    0    0  501    0  0.00000000000E+00  0.00000000000E+00  0.16338616213E+04  0.16338616214E+04  0.25500000920E-02 0.  1.
       -2   -1    0    0    0  501  0.00000000000E+00  0.00000000000E+00 -0.29574607580E+03  0.29574607581E+03  0.25500000920E-02 0. -1.
    10030    2    1    2    0    0  0.00000000000E+00  0.00000000000E+00  0.13381155456E+04  0.19296076972E+04  0.13902635188E+04 0.  0.
        3    1    3    3  502    0  0.60425446360E+02 -0.19045457461E+03 -0.25502933418E+03  0.32398171407E+03  0.10100000352E+00 0. -1.
       -3    1    3    3    0  502 -0.60425446360E+02  0.19045457461E+03  0.15931448797E+04  0.16056259831E+04  0.10100000352E+00 0.  1.
</event>
<event>
 5   0  0.6048000E-04  0.1390212E+04  0.7818609E-02  0.8960934E-01
       -3   -1    0    0    0  501  0.00000000000E+00  0.00000000000E+00  0.71675873113E+03  0.71675873824E+03  0.10100000352E+00 0. -1.
        3   -1    0    0  501    0  0.00000000000E+00  0.00000000000E+00 -0.67410743194E+03  0.67410743951E+03  0.10100000352E+00 0.  1.
    10030    2    1    2    0    0  0.00000000000E+00  0.00000000000E+00  0.42651299185E+02  0.13908661778E+04  0.13902120669E+04 0.  0.
        2    1    3    3  502    0  0.48434366877E+02 -0.35311756338E+03  0.61837648990E+03  0.71374181938E+03  0.25500000920E-02 0. -1.
       -2    1    3    3    0  502 -0.48434366877E+02  0.35311756338E+03 -0.57572519072E+03  0.67712435837E+03  0.25500000920E-02 0.  1.
</event>
<event>
 5   0  0.8673728E-04  0.1333657E+04  0.7818609E-02  0.9003293E-01
       -1   -1    0    0    0  501  0.00000000000E+00  0.00000000000E+00  0.71563242883E+03  0.71563242884E+03  0.50400001928E-02 0.  1.
        1   -1    0    0  501    0  0.00000000000E+00  0.00000000000E+00 -0.62135271400E+03  0.62135271402E+03  0.50400001928E-02 0. -1.
    10030    2    1    2    0    0  0.00000000000E+00  0.00000000000E+00  0.94279714829E+02  0.13369851429E+04  0.13336568553E+04 0.  0.
        3    1    3    3  502    0  0.12537837377E+03 -0.64814038901E+03  0.14147272994E+03  0.67514460969E+03  0.10100000352E+00 0.  1.
       -3    1    3    3    0  502 -0.12537837377E+03  0.64814038901E+03 -0.47193015111E+02  0.66184053317E+03  0.10100000352E+00 0. -1.
</event>
<event>
 5   0  0.8673728E-04  0.1431732E+04  0.7818609E-02  0.8931164E-01
        1   -1    0    0  501    0  0.00000000000E+00  0.00000000000E+00  0.59849794996E+03  0.59849794998E+03  0.50400001928E-02 0. -1.
       -1   -1    0    0    0  501  0.00000000000E+00  0.00000000000E+00 -0.85625024971E+03  0.85625024972E+03  0.50400001928E-02 0.  1.
    10030    2    1    2    0    0  0.00000000000E+00  0.00000000000E+00 -0.25775229975E+03  0.14547481997E+04  0.14317318452E+04 0.  0.
        3    1    3    3  502    0 -0.50114422243E+03 -0.48329686726E+03  0.40362613691E+02  0.69738837412E+03  0.10100000352E+00 0. -1.
       -3    1    3    3    0  502  0.50114422243E+03  0.48329686726E+03 -0.29811491344E+03  0.75735982558E+03  0.10100000352E+00 0.  1.
</event>
<event>
 5   0  0.9639548E-04  0.1447360E+04  0.7818609E-02  0.8920233E-01
       -1   -1    0    0    0  501  0.00000000000E+00  0.00000000000E+00  0.40805015823E+03  0.40805015826E+03  0.50400001928E-02 0.  1.
        1   -1    0    0  501    0  0.00000000000E+00  0.00000000000E+00 -0.12834511339E+04  0.12834511339E+04  0.50400001928E-02 0. -1.
    10030    2    1    2    0    0  0.00000000000E+00  0.00000000000E+00 -0.87540097563E+03  0.16915012921E+04  0.14473595798E+04 0.  0.
        1    1    3    3  502    0  0.51875316152E+03  0.50429690069E+03 -0.45767883252E+03  0.85609001886E+03  0.50400001928E-02 0. -1.
       -1    1    3    3    0  502 -0.51875316152E+03 -0.50429690069E+03 -0.41772214311E+03  0.83541127326E+03  0.50400001928E-02 0.  1.
</event>
<event>
 5   0  0.1706986E-03  0.1276060E+04  0.7818609E-02  0.9048768E-01
        2   -1    0    0  501    0  0.00000000000E+00  0.00000000000E+00  0.10628946790E+04  0.10628946790E+04  0.25500000920E-02 0. -1.
       -2   -1    0    0    0  501  0.00000000000E+00  0.00000000000E+00 -0.38299395491E+03  0.38299395492E+03  0.25500000920E-02 0.  1.
    10030    2    1    2    0    0  0.00000000000E+00  0.00000000000E+00  0.67990072407E+03  0.14458886339E+04  0.12760599308E+04 0.  0.
        3    1    3    3  502    0  0.48235346864E+02 -0.17251029000E+03  0.10338185248E+04  0.10492221887E+04  0.10100000352E+00 0. -1.
       -3    1    3    3    0  502 -0.48235346864E+02  0.17251029000E+03 -0.35391780076E+03  0.39666644518E+03  0.10100000352E+00 0.  1.
</event>
<event>
 5   0  0.6048000E-04  0.1386535E+04  0.7818609E-02  0.8963624E-01
       -3   -1    0    0    0  501  0.00000000000E+00  0.00000000000E+00  0.54596159667E+03  0.54596160602E+03  0.10100000352E+00 0.  1.
        3   -1    0    0  501    0  0.00000000000E+00  0.00000000000E+00 -0.88031743012E+03  0.88031743592E+03  0.10100000352E+00 0. -1.
    10030    2    1    2    0    0  0.00000000000E+00  0.00000000000E+00 -0.33435583345E+03  0.14262790419E+04  0.13865345586E+04 0.  0.
        1    1    3    3  502    0 -0.57836305337E+03  0.30806287133E+03 -0.39996762053E+03  0.76771130751E+03  0.50400001928E-02 0. -1.
       -1    1    3    3    0  502  0.57836305337E+03 -0.30806287133E+03  0.65611787075E+02  0.65856773442E+03  0.50400001928E-02 0.  1.
</event>
<event>
 5   0  0.1706986E-03  0.1397984E+04  0.7818609E-02  0.8955279E-01
        2   -1    0    0  501    0  0.00000000000E+00  0.00000000000E+00  0.18145332907E+04  0.18145332907E+04  0.25500000920E-02 0. -1.
       -2   -1    0    0    0  501  0.00000000000E+00  0.00000000000E+00 -0.26926478214E+03  0.26926478215E+03  0.25500000920E-02 0.  1.
    10030    2    1    2    0    0  0.00000000000E+00  0.00000000000E+00  0.15452685085E+04  0.20837980728E+04  0.13979841361E+04 0.  0.
        3    1    3    3  502    0  0.62458189268E+03  0.62709547061E+02  0.31428624778E+03  0.70200490290E+03  0.10100000352E+00 0.  1.
       -3    1    3    3    0  502 -0.62458189268E+03 -0.62709547061E+02  0.12309822608E+04  0.13817931699E+04  0.10100000352E+00 0. -1.
</event>
<event>
 5   0  0.1605214E-03  0.1394755E+04  0.7818609E-02  0.8957624E-01
       -2   -1    0    0    0  501  0.00000000000E+00  0.00000000000E+00  0.70843713529E+03  0.70843713530E+03  0.25500000920E-02 0.  1.
        2   -1    0    0  501    0  0.00000000000E+00  0.00000000000E+00 -0.68649024921E+03  0.68649024921E+03  0.25500000920E-02 0. -1.
    10030    2    1    2    0    0  0.00000000000E+00  0.00000000000E+00  0.21946886083E+02  0.13949273845E+04  0.13947547248E+04 0.  0.
        5    1    3    3  502    0 -0.48247671531E+03  0.13489549293E+02  0.51437196860E+03  0.70538383937E+03  0.46999998093E+01 0.  1.
       -5    1    3    3    0  502  0.48247671531E+03 -0.13489549293E+02 -0.49242508252E+03  0.68954354514E+03  0.46999998093E+01 0. -1.
</event>
<event>
 5   0  0.9007180E-04  0.1385158E+04  0.7818609E-02  0.8964632E-01
       -1   -1    0    0    0  501  0.00000000000E+00  0.00000000000E+00  0.16408203506E+04  0.16408203506E+04  0.50400001928E-02 0.  1.
        1   -1    0    0  501    0  0.00000000000E+00  0.00000000000E+00 -0.29233293870E+03  0.29233293875E+03  0.50400001928E-02 0. -1.
    10030    2    1    2    0    0  0.00000000000E+00  0.00000000000E+00  0.13484874119E+04  0.19331532893E+04  0.13851582365E+04 0.  0.
        2    1    3    3  502    0  0.65704171822E+03  0.18207521982E+03  0.50439835326E+03  0.84809958374E+03  0.25500000920E-02 0.  1.
       -2    1    3    3    0  502 -0.65704171822E+03 -0.18207521982E+03  0.84408905860E+03  0.10850537056E+04  0.25500000920E-02 0. -1.
</event>
<event>
 5   0  0.8502300E-04  0.1428279E+04  0.7818609E-02  0.8933599E-01
       -1   -1    0    0    0  501  0.00000000000E+00  0.00000000000E+00  0.10286316221E+04  0.10286316221E+04  0.50400001928E-02 0. -1.
        1   -1    0    0  501    0  0.00000000000E+00  0.00000000000E+00 -0.49579998131E+03  0.49579998133E+03  0.50400001928E-02 0.  1.
    10030    2    1    2    0    0  0.00000000000E+00  0.00000000000E+00  0.53283164081E+03  0.15244316035E+04  0.14282794391E+04 0.  0.
        4    1    3    3  502    0  0.40341797963E+03 -0.20161352996E+03 -0.32457498528E+03  0.55564792425E+03  0.12699999809E+01 0.  1.
       -4    1    3    3    0  502 -0.40341797963E+03  0.20161352996E+03  0.85740662608E+03  0.96878367921E+03  0.12699999809E+01 0. -1.
</event>
<event>
 5   0  0.1578965E-03  0.1422945E+04  0.7818609E-02  0.8937375E-01
       -2   -1    0    0    0  501  0.00000000000E+00  0.00000000000E+00  0.25167705212E+03  0.25167705213E+03  0.25500000920E-02 0.  1.
        2   -1    0    0  501    0  0.00000000000E+00  0.00000000000E+00 -0.20112806985E+04  0.20112806985E+04  0.25500000920E-02 0. -1.
    10030    2    1    2    0    0  0.00000000000E+00  0.00000000000E+00 -0.17596036464E+04  0.22629577506E+04  0.14229451110E+04 0.  0.
        2    1    3    3  502    0  0.60394681851E+02 -0.21214147400E+03  0.19592903436E+03  0.29502492962E+03  0.25500000920E-02 0.  1.
       -2    1    3    3    0  502 -0.60394681851E+02  0.21214147400E+03 -0.19555326807E+04  0.19679328210E+04  0.25500000920E-02 0. -1.
</event>
<event>
 5   0  0.1706986E-03  0.1756789E+04  0.7818609E-02  0.8729622E-01
        2   -1    0    0  501    0  0.00000000000E+00  0.00000000000E+00  0.18920670219E+04  0.18920670219E+04  0.25500000920E-02 0.  1.
       -2   -1    0    0    0  501  0.00000000000E+00  0.00000000000E+00 -0.40779579533E+03  0.40779579534E+03  0.25500000920E-02 0. -1.
    10030    2    1    2    0    0  0.00000000000E+00  0.00000000000E+00  0.14842712266E+04  0.22998628173E+04  0.17567890893E+04 0.  0.
        3    1    3    3  502    0 -0.38639785006E+03  0.33920913266E+03  0.16744804414E+04  0.17516423417E+04  0.10100000352E+00 0.  1.
       -3    1    3    3    0  502  0.38639785006E+03 -0.33920913266E+03 -0.19020921486E+03  0.54822047556E+03  0.10100000352E+00 0. -1.
</event>
<event>
 5   0  0.9639548E-04  0.1389417E+04  0.7818609E-02  0.8961515E-01
       -1   -1    0    0    0  501  0.00000000000E+00  0.00000000000E+00  0.18380362120E+03  0.18380362127E+03  0.50400001928E-02 0.  1.
        1   -1    0    0  501    0  0.00000000000E+00  0.00000000000E+00 -0.26257376711E+04  0.26257376711E+04  0.50400001928E-02 0. -1.
    10030    2    1    2    0    0  0.00000000000E+00  0.00000000000E+00 -0.24419340499E+04  0.28095412924E+04  0.13894172770E+04 0.  0.
        1    1    3    3  502    0  0.41273202785E+03 -0.37348158182E+03 -0.38043487908E+03  0.67421577853E+03  0.50400001928E-02 0.  1.
       -1    1    3    3    0  502 -0.41273202785E+03  0.37348158182E+03 -0.20614991708E+04  0.21353255138E+04  0.50400001928E-02 0. -1.
</event>
<event>
 5   0  0.1605214E-03  0.1790097E+04  0.7818609E-02  0.8711584E-01
       -2   -1    0    0    0  501  0.00000000000E+00  0.00000000000E+00  0.10873557978E+04  0.10873557978E+04  0.25500000920E-02 0. -1.
        2   -1    0    0  501    0  0.00000000000E+00  0.00000000000E+00 -0.73675205081E+03  0.73675205082E+03  0.25500000920E-02 0.  1.
    10030    2    1    2    0    0  0.00000000000E+00  0.00000000000E+00  0.35060374697E+03  0.18241078486E+04  0.17900967728E+04 0.  0.
        5    1    3    3  502    0  0.40028744253E+03 -0.75556830580E+03  0.44485764144E+03  0.96386405293E+03  0.46999998093E+01 0. -1.
       -5    1    3    3    0  502 -0.40028744253E+03  0.75556830580E+03 -0.94253894461E+02  0.86024379568E+03  0.46999998093E+01 0.  1.
</event>
<event>
 5   0  0.8502300E-04  0.1382788E+04  0.7818609E-02  0.8966373E-01
       -1   -1    0    0    0  501  0.00000000000E+00  0.00000000000E+00  0.69388702510E+03  0.69388702512E+03  0.50400001928E-02 0.  1.
        1   -1    0    0  501    0  0.00000000000E+00  0.00000000000E+00 -0.68890988246E+03  0.68890988248E+03  0.50400001928E-02 0. -1.
    10030    2    1    2    0    0  0.00000000000E+00  0.00000000000E+00  0.49771426368E+01  0.13827969076E+04  0.13827879504E+04 0.  0.
        4    1    3    3  502    0  0.61065865222E+03 -0.30658953595E+03 -0.10297719113E+03  0.69101884770E+03  0.12699999809E+01 0. -1.
       -4    1    3    3    0  502 -0.61065865222E+03  0.30658953595E+03  0.10795433377E+03  0.69177805990E+03  0.12699999809E+01 0.  1.
</event>
<event>
 5   0  0.8609148E-04  0.1398065E+04  0.7818609E-02  0.8955221E-01
       -1   -1    0    0    0  501  0.00000000000E+00  0.00000000000E+00  0.99770974319E+03  0.99770974321E+03  0.50400001928E-02 0.  1.
        1   -1    0    0  501    0  0.00000000000E+00  0.00000000000E+00 -0.48976800346E+03  0.48976800349E+03  0.50400001928E-02 0. -1.
    10030    2    1    2    0    0  0.00000000000E+00  0.00000000000E+00  0.50794173973E+03  0.14874777467E+04  0.13980648182E+04 0.  0.
        5    1    3    3  502    0 -0.33018100807E+03 -0.27861487688E+03  0.83864134242E+03  0.94339129683E+03  0.46999998093E+01 0.  1.
       -5    1    3    3    0  502  0.33018100807E+03  0.27861487688E+03 -0.33069960269E+03  0.54408644987E+03  0.46999998093E+01 0. -1.
</event>
<event>
 5   0  0.1578965E-03  0.1409394E+04  0.7818609E-02  0.8947046E-01
       -2   -1    0    0    0  501  0.00000000000E+00  0.00000000000E+00  0.32970109119E+03  0.32970109120E+03  0.25500000920E-02 0.  1.
        2   -1    0    0  501    0  0.00000000000E+00  0.00000000000E+00 -0.15062073111E+04  0.15062073111E+04  0.25500000920E-02 0. -1.
    10030    2    1    2    0    0  0.00000000000E+00  0.00000000000E+00 -0.11765062199E+04  0.18359084023E+04  0.14093944715E+04 0.  0.
        2    1    3    3  502    0  0.41295722028E+03 -0.13383531351E+03 -0.13113581528E+04  0.13813420148E+04  0.25500000920E-02 0. -1.
       -2    1    3    3    0  502 -0.41295722028E+03  0.13383531351E+03  0.13485193282E+03  0.45456638758E+03  0.25500000920E-02 0.  1.
</event>
<event>
 5   0  0.9639548E-04  0.1408386E+04  0.7818609E-02  0.8947770E-01
        1   -1    0    0  501    0  0.00000000000E+00  0.00000000000E+00  0.31052906172E+03  0.31052906176E+03  0.50400001928E-02 0. -1.
       -1   -1    0    0    0  501  0.00000000000E+00  0.00000000000E+00 -0.15969131381E+04  0.15969131381E+04  0.50400001928E-02 0.  1.
    10030    2    1    2    0    0  0.00000000000E+00  0.00000000000E+00 -0.12863840764E+04  0.19074421998E+04  0.14083862233E+04 0.  0.
        1    1    3    3  502    0  0.59065117467E+03 -0.37211808404E+03 -0.76840320757E+03  0.10381638445E+04  0.50400001928E-02 0.  1.
       -1    1    3    3    0  502 -0.59065117467E+03  0.37211808404E+03 -0.51798086878E+03  0.86927835534E+03  0.50400001928E-02 0. -1.
</event>
<event>
 5   0  0.9007180E-04  0.1461744E+04  0.7818609E-02  0.8910299E-01
       -1   -1    0    0    0  501  0.00000000000E+00  0.00000000000E+00  0.24816887259E+04  0.24816887259E+04  0.50400001928E-02 0. -1.
        1   -1    0    0  501    0  0.00000000000E+00  0.00000000000E+00 -0.21524622403E+03  0.21524622409E+03  0.50400001928E-02 0.  1.
    10030    2    1    2    0    0  0.00000000000E+00  0.00000000000E+00  0.22664425019E+04  0.26969349500E+04  0.14617443382E+04 0.  0.
        2    1    3    3  502    0  0.55809991258E+03  0.54172359246E+02  0.19981439555E+04  0.20753287508E+04  0.25500000920E-02 0. -1.
       -2    1    3    3    0  502 -0.55809991258E+03 -0.54172359246E+02  0.26829854639E+03  0.62160619924E+03  0.25500000920E-02 0.  1.
</event>
<event>
 5   0  0.1605214E-03  0.1409125E+04  0.7818609E-02  0.8947240E-01
       -2   -1    0    0    0  501  0.00000000000E+00  0.00000000000E+00  0.69159988806E+03  0.69159988806E+03  0.25500000920E-02 0. -1.
        2   -1    0    0  501    0  0.00000000000E+00  0.00000000000E+00 -0.71776765739E+03  0.71776765739E+03  0.25500000920E-02 0.  1.
    10030    2    1    2    0    0  0.00000000000E+00  0.00000000000E+00 -0.26167769328E+02  0.14093675455E+04  0.14091245956E+04 0.  0.
        5    1    3    3  502    0 -0.16261015923E+03 -0.54955318143E+03  0.39678571830E+03  0.69707371156E+03  0.46999998093E+01 0. -1.
       -5    1    3    3    0  502  0.16261015923E+03  0.54955318143E+03 -0.42295348763E+03  0.71229383389E+03  0.46999998093E+01 0.  1.
</event>
<event>
 5   0  0.1648213E-03  0.1403045E+04  0.7818609E-02  0.8951617E-01
        2   -1    0    0  501    0  0.00000000000E+00  0.00000000000E+00  0.21015673536E+04  0.21015673536E+04  0.25500000920E-02 0.  1.
       -2   -1    0    0    0  501  0.00000000000E+00  0.00000000000E+00 -0.23417472616E+03  0.23417472618E+03  0.25500000920E-02 0. -1.
    10030    2    1    2    0    0  0.00000000000E+00  0.00000000000E+00  0.18673926275E+04  0.23357420798E+04  0.14030452018E+04 0.  0.
        4    1    3    3  502    0 -0.63744103634E+03 -0.28730513014E+03  0.83868739581E+03  0.10919127591E+04  0.12699999809E+01 0. -1.
       -4    1    3    3    0  502  0.63744103634E+03  0.28730513014E+03  0.10287052317E+04  0.12438293208E+04  0.12699999809E+01 0.  1.
</event>
<event>
 5   0  0.9007180E-04  0.1403800E+04  0.7818609E-02  0.8951072E-01
       -1   -1    0    0    0  501  0.00000000000E+00  0.00000000000E+00  0.54350426895E+03  0.54350426897E+03  0.50400001928E-02 0. -1.
        1   -1    0    0  501    0  0.00000000000E+00  0.00000000000E+00 -0.90645794103E+03  0.90645794104E+03  0.50400001928E-02 0.  1.
    10030    2    1    2    0    0  0.00000000000E+00  0.00000000000E+00 -0.36295367208E+03  0.14499622100E+04  0.14038002146E+04 0.  0.
        2    1    3    3  502    0 -0.37564117764E+03 -0.41212791990E+03 -0.62176646486E+03  0.83519414122E+03  0.25500000920E-02 0.  1.
       -2    1    3    3    0  502  0.37564117764E+03  0.41212791990E+03  0.25881279278E+03  0.61476806880E+03  0.25500000920E-02 0. -1.
</event>
<event>
 5   0  0.8673728E-04  0.1398377E+04  0.7818609E-02  0.8954994E-01
        1   -1    0    0  501    0  0.00000000000E+00  0.00000000000E+00  0.13791446328E+04  0.13791446328E+04  0.50400001928E-02 0.  1.
       -1   -1    0    0    0  501  0.00000000000E+00  0.00000000000E+00 -0.35446920949E+03  0.35446920953E+03  0.50400001928E-02 0. -1.
    10030    2    1    2    0    0  0.00000000000E+00  0.00000000000E+00  0.10246754233E+04  0.17336138424E+04  0.13983766414E+04 0.  0.
        3    1    3    3  502    0 -0.45661279211E+03  0.52560168796E+03  0.43284073683E+03  0.81981918126E+03  0.10100000352E+00 0. -1.
       -3    1    3    3    0  502  0.45661279211E+03 -0.52560168796E+03  0.59183468650E+03  0.91379466110E+03  0.10100000352E+00 0.  1.
</event>
<event>
 5   0  0.9007180E-04  0.1421401E+04  0.7818609E-02  0.8938472E-01
        1   -1    0    0  501    0  0.00000000000E+00  0.00000000000E+00  0.78039321685E+03  0.78039321686E+03  0.50400001928E-02 0. -1.
       -1   -1    0    0    0  501  0.00000000000E+00  0.00000000000E+00 -0.64723157293E+03  0.64723157295E+03  0.50400001928E-02 0.  1.
    10030    2    1    2    0    0  0.00000000000E+00  0.00000000000E+00  0.13316164392E+03  0.14276247898E+04  0.14214008995E+04 0.  0.
        2    1    3    3  502    0 -0.31960404750E+03 -0.53479618652E+02  0.70187580698E+03  0.77306950867E+03  0.25500000920E-02 0. -1.
       -2    1    3    3    0  502  0.31960404750E+03  0.53479618652E+02 -0.56871416307E+03  0.65455528114E+03  0.25500000920E-02 0.  1.
</event>
<event>
 5   0  0.1706986E-03  0.1389690E+04  0.7818609E-02  0.8961316E-01
       -2   -1    0    0    0  501  0.00000000000E+00  0.00000000000E+00  0.44469260797E+03  0.44469260798E+03  0.25500000920E-02 0. -1.
        2   -1    0    0  501    0  0.00000000000E+00  0.00000000000E+00 -0.10857151220E+04  0.10857151220E+04  0.25500000920E-02 0.  1.
    10030    2    1    2    0    0  0.00000000000E+00  0.00000000000E+00 -0.64102251399E+03  0.15304077299E+04  0.13896898778E+04 0.  0.
        3    1    3    3  502    0  0.58191536368E+03 -0.24548696411E+03 -0.14879935717E+01  0.63157862880E+03  0.10100000352E+00 0.  1.
       -3    1    3    3    0  502 -0.58191536368E+03  0.24548696411E+03 -0.63953452042E+03  0.89882910114E+03  0.10100000352E+00 0. -1.
</event>
<event>
 5   0  0.6048000E-04  0.1148288E+04  0.7818609E-02  0.9159364E-01
        3   -1    0    0  501    0  0.00000000000E+00  0.00000000000E+00  0.21379846884E+03  0.21379849270E+03  0.10100000352E+00 0.  1.
       -3   -1    0    0    0  501  0.00000000000E+00  0.00000000000E+00 -0.15418329498E+04  0.15418329531E+04  0.10100000352E+00 0. -1.
    10030    2    1    2    0    0  0.00000000000E+00  0.00000000000E+00 -0.13280344809E+04  0.17556314458E+04  0.11482883744E+04 0.  0.
        4    1    3    3  502    0  0.33784805071E+03  0.45706873819E+03 -0.78810231798E+03  0.97167896617E+03  0.12699999809E+01 0. -1.
       -4    1    3    3    0  502 -0.33784805071E+03 -0.45706873819E+03 -0.53993216296E+03  0.78395247962E+03  0.12699999809E+01 0.  1.
</event>
<event>
 5   0  0.8502300E-04  0.1397979E+04  0.7818609E-02  0.8955283E-01
        1   -1    0    0  501    0  0.00000000000E+00  0.00000000000E+00  0.54752337814E+03  0.54752337817E+03  0.50400001928E-02 0.  1.
       -1   -1    0    0    0  501  0.00000000000E+00  0.00000000000E+00 -0.89235693286E+03  0.89235693287E+03  0.50400001928E-02 0. -1.
    10030    2    1    2    0    0  0.00000000000E+00  0.00000000000E+00 -0.34483355471E+03  0.14398803110E+04  0.13979789446E+04 0.  0.
        4    1    3    3  502    0  0.65829041019E+03 -0.62553888479E+02 -0.40575828711E+03  0.77582256578E+03  0.12699999809E+01 0. -1.
       -4    1    3    3    0  502 -0.65829041019E+03  0.62553888479E+02  0.60924732398E+02  0.66405774526E+03  0.12699999809E+01 0.  1.
</event>
<event>
 5   0  0.8673728E-04  0.1374048E+04  0.7818609E-02  0.8972821E-01
       -1   -1    0    0    0  501  0.00000000000E+00  0.00000000000E+00  0.55384153113E+03  0.55384153115E+03  0.50400001928E-02 0.  1.
        1   -1    0    0  501    0  0.00000000000E+00  0.00000000000E+00 -0.85223240046E+03  0.85223240048E+03  0.50400001928E-02 0. -1.
    10030    2    1    2    0    0  0.00000000000E+00  0.00000000000E+00 -0.29839086934E+03  0.14060739316E+04  0.13740475939E+04 0.  0.
        3    1    3    3  502    0 -0.69935592912E+02  0.33117933265E+02 -0.84775881771E+03  0.85128303628E+03  0.10100000352E+00 0. -1.
       -3    1    3    3    0  502  0.69935592912E+02 -0.33117933265E+02  0.54936794837E+03  0.55479089535E+03  0.10100000352E+00 0.  1.
</event>
<event>
 5   0  0.1648463E-03  0.1405287E+04  0.7818609E-02  0.8950000E-01
        2   -1    0    0  501    0  0.00000000000E+00  0.00000000000E+00  0.15812884623E+04  0.15812884623E+04  0.25500000920E-02 0.  1.
       -2   -1    0    0    0  501  0.00000000000E+00  0.00000000000E+00 -0.31221873653E+03  0.31221873654E+03  0.25500000920E-02 0. -1.
    10030    2    1    2    0    0  0.00000000000E+00  0.00000000000E+00  0.12690697257E+04  0.18935071988E+04  0.14052869967E+04 0.  0.
        1    1    3    3  502    0  0.41999276109E+03  0.35949083515E+03  0.50184128677E+02  0.55510902237E+03  0.50400001928E-02 0. -1.
       -1    1    3    3    0  502 -0.41999276109E+03 -0.35949083515E+03  0.12188855971E+04  0.13383981764E+04  0.50400001928E-02 0.  1.
</event>
<event>
 5   0  0.9639548E-04  0.1449325E+04  0.7818609E-02  0.8918868E-01
       -1   -1    0    0    0  501  0.00000000000E+00  0.00000000000E+00  0.10042036419E+04  0.10042036419E+04  0.50400001928E-02 0.  1.
        1   -1    0    0  501    0  0.00000000000E+00  0.00000000000E+00 -0.52293776960E+03  0.52293776962E+03  0.50400001928E-02 0. -1.
    10030    2    1    2    0    0  0.00000000000E+00  0.00000000000E+00  0.48126587226E+03  0.15271414115E+04  0.14493253779E+04 0.  0.
        1    1    3    3  502    0 -0.31840890383E+03  0.43500741312E+03 -0.26964126154E+03  0.60276205045E+03  0.50400001928E-02 0. -1.
       -1    1    3    3    0  502  0.31840890383E+03 -0.43500741312E+03  0.75090713380E+03  0.92437936104E+03  0.50400001928E-02 0.  1.
</event>
<event>
 5   0  0.1706986E-03  0.1390620E+04  0.7818609E-02  0.8960636E-01
        2   -1    0    0  501    0  0.00000000000E+00  0.00000000000E+00  0.68184312144E+03  0.68184312145E+03  0.25500000920E-02 0. -1.
       -2   -1    0    0    0  501  0.00000000000E+00  0.00000000000E+00 -0.70904318118E+03  0.70904318118E+03  0.25500000920E-02 0.  1.
    10030    2    1    2    0    0  0.00000000000E+00  0.00000000000E+00 -0.27200059739E+02  0.13908863026E+04  0.13906203161E+04 0.  0.
        3    1    3    3  502    0 -0.26646990118E+03 -0.13047358909E+03  0.61534982699E+03  0.68314345892E+03  0.10100000352E+00 0. -1.
       -3    1    3    3    0  502  0.26646990118E+03  0.13047358909E+03 -0.64254988673E+03  0.70774284371E+03  0.10100000352E+00 0.  1.
</event>
<event>
 5   0  0.1706986E-03  0.1412631E+04  0.7818609E-02  0.8944726E-01
       -2   -1    0    0    0  501  0.00000000000E+00  0.00000000000E+00  0.49955355535E+03  0.49955355535E+03  0.25500000920E-02 0.  1.
        2   -1    0    0  501    0  0.00000000000E+00  0.00000000000E+00 -0.99865446603E+03  0.99865446603E+03  0.25500000920E-02 0. -1.
    10030    2    1    2    0    0  0.00000000000E+00  0.00000000000E+00 -0.49910091068E+03  0.14982080214E+04  0.14126307218E+04 0.  0.
        3    1    3    3  502    0 -0.33635739037E+03 -0.60460352082E+03 -0.98814943344E+02  0.69888920057E+03  0.10100000352E+00 0.  1.
       -3    1    3    3    0  502  0.33635739037E+03  0.60460352082E+03 -0.40028596733E+03  0.79931882081E+03  0.10100000352E+00 0. -1.
</event>
<event>
 5   0  0.1648213E-03  0.1407356E+04  0.7818609E-02  0.8948511E-01
        2   -1    0    0  501    0  0.00000000000E+00  0.00000000000E+00  0.11842421613E+04  0.11842421613E+04  0.25500000920E-02 0. -1.
       -2   -1    0    0    0  501  0.00000000000E+00  0.00000000000E+00 -0.41812641523E+03  0.41812641523E+03  0.25500000920E-02 0.  1.
    10030    2    1    2    0    0  0.00000000000E+00  0.00000000000E+00  0.76611574604E+03  0.16023685765E+04  0.14073562870E+04 0.  0.
        4    1    3    3  502    0 -0.63175072716E+03  0.15739562895E+03  0.79082070805E+02  0.65584903149E+03  0.12699999809E+01 0.  1.
       -4    1    3    3    0  502  0.63175072716E+03 -0.15739562895E+03  0.68703367524E+03  0.94651954501E+03  0.12699999809E+01 0. -1.
</event>
<event>
 5   0  0.8609148E-04  0.1324494E+04  0.7818609E-02  0.9010364E-01
       -1   -1    0    0    0  501  0.00000000000E+00  0.00000000000E+00  0.57251024410E+03  0.57251024412E+03  0.50400001928E-02 0.  1.
        1   -1    0    0  501    0  0.00000000000E+00  0.00000000000E+00 -0.76604882081E+03  0.76604882083E+03  0.50400001928E-02 0. -1.
    10030    2    1    2    0    0  0.00000000000E+00  0.00000000000E+00 -0.19353857672E+03  0.13385590649E+04  0.13244935597E+04 0.  0.
        5    1    3    3  502    0  0.12478178261E+03  0.59224855018E+03 -0.36836070266E+03  0.70854818871E+03  0.46999998093E+01 0. -1.
       -5    1    3    3    0  502 -0.12478178261E+03 -0.59224855018E+03  0.17482212594E+03  0.63001087624E+03  0.46999998093E+01 0.  1.
</event>
<event>
 5   0  0.1648213E-03  0.1442146E+04  0.7818609E-02  0.8923863E-01
        2   -1    0    0  501    0  0.00000000000E+00  0.00000000000E+00  0.10194418837E+04  0.10194418837E+04  0.25500000920E-02 0.  1.
       -2   -1    0    0    0  501  0.00000000000E+00  0.00000000000E+00 -0.51003058813E+03  0.51003058814E+03  0.25500000920E-02 0. -1.
    10030    2    1    2    0    0  0.00000000000E+00  0.00000000000E+00  0.50941129553E+03  0.15294724718E+04  0.14421463774E+04 0.  0.
        4    1    3    3  502    0 -0.63890514028E+03  0.19140340354E+03 -0.35951416469E+02  0.66792900702E+03  0.12699999809E+01 0. -1.
       -4    1    3    3    0  502  0.63890514028E+03 -0.19140340354E+03  0.54536271200E+03  0.86154346478E+03  0.12699999809E+01 0.  1.
</event>
<event>
 5   0  0.8609148E-04  0.1255745E+04  0.7818609E-02  0.9065415E-01
       -1   -1    0    0    0  501  0.00000000000E+00  0.00000000000E+00  0.12517802117E+04  0.12517802117E+04  0.50400001928E-02 0.  1.
        1   -1    0    0  501    0  0.00000000000E+00  0.00000000000E+00 -0.31493066164E+03  0.31493066168E+03  0.50400001928E-02 0. -1.
    10030    2    1    2    0    0  0.00000000000E+00  0.00000000000E+00  0.93684955006E+03  0.15667108734E+04  0.12557451498E+04 0.  0.
        5    1    3    3  502    0 -0.51468476744E+03  0.18172990660E+03  0.85554487089E+03  0.10148424927E+04  0.46999998093E+01 0. -1.
       -5    1    3    3    0  502  0.51468476744E+03 -0.18172990660E+03  0.81304679164E+02  0.55186838073E+03  0.46999998093E+01 0.  1.
</event>
<event>
 5   0  0.1648463E-03  0.1427754E+04  0.7818609E-02  0.8933970E-01
        2   -1    0    0  501    0  0.00000000000E+00  0.00000000000E+00  0.99358110716E+03  0.99358110716E+03  0.25500000920E-02 0. -1.
       -2   -1    0    0    0  501  0.00000000000E+00  0.00000000000E+00 -0.51291281016E+03  0.51291281017E+03  0.25500000920E-02 0.  1.
    10030    2    1    2    0    0  0.00000000000E+00  0.00000000000E+00  0.48066829700E+03  0.15064939173E+04  0.14277541494E+04 0.  0.
        1    1    3    3  502    0 -0.30713283881E+02 -0.29149673215E+03 -0.44649178068E+03  0.53410538370E+03  0.50400001928E-02 0.  1.
       -1    1    3    3    0  502  0.30713283881E+02  0.29149673215E+03  0.92716007767E+03  0.97238853362E+03  0.50400001928E-02 0. -1.
</event>
<event>
 5   0  0.9007180E-04  0.1391158E+04  0.7818609E-02  0.8960244E-01
        1   -1    0    0  501    0  0.00000000000E+00  0.00000000000E+00  0.92681282039E+03  0.92681282041E+03  0.50400001928E-02 0. -1.
       -1   -1    0    0    0  501  0.00000000000E+00  0.00000000000E+00 -0.52203637423E+03  0.52203637426E+03  0.50400001928E-02 0.  1.
    10030    2    1    2    0    0  0.00000000000E+00  0.00000000000E+00  0.40477644616E+03  0.14488491947E+04  0.13911577975E+04 0.  0.
        2    1    3    3  502    0  0.50101014057E+03 -0.36068497684E+03  0.53618740495E+03  0.81768071195E+03  0.25500000920E-02 0. -1.
       -2    1    3    3    0  502 -0.50101014057E+03  0.36068497684E+03 -0.13141095879E+03  0.63116848271E+03  0.25500000920E-02 0.  1.
</event>
<event>
 5   0  0.1605214E-03  0.1406499E+04  0.7818609E-02  0.8949127E-01
        2   -1    0    0  501    0  0.00000000000E+00  0.00000000000E+00  0.67839385546E+03  0.67839385546E+03  0.25500000920E-02 0. -1.
       -2   -1    0    0    0  501  0.00000000000E+00  0.00000000000E+00 -0.72901606465E+03  0.72901606466E+03  0.25500000920E-02 0.  1.
    10030    2    1    2    0    0  0.00000000000E+00  0.00000000000E+00 -0.50622209191E+02  0.14074099201E+04  0.14064992269E+04 0.  0.
        5    1    3    3  502    0  0.16372421785E+03 -0.20556127937E+03 -0.67801933310E+03  0.72718179649E+03  0.46999998093E+01 0.  1.
       -5    1    3    3    0  502 -0.16372421785E+03  0.20556127937E+03  0.62739712391E+03  0.68022812363E+03  0.46999998093E+01 0. -1.
</event>
<event>
 5   0  0.8673728E-04  0.1364247E+04  0.7818609E-02  0.8980113E-01
        1   -1    0    0  501    0  0.00000000000E+00  0.00000000000E+00  0.89520711586E+03  0.89520711588E+03  0.50400001928E-02 0.  1.
       -1   -1    0    0    0  501  0.00000000000E+00  0.00000000000E+00 -0.51975950382E+03  0.51975950385E+03  0.50400001928E-02 0. -1.
    10030    2    1    2    0    0  0.00000000000E+00  0.00000000000E+00  0.37544761204E+03  0.14149666197E+04  0.13642469078E+04 0.  0.
        3    1    3    3  502    0 -0.55016054895E+03  0.35580394833E+03  0.38456724904E+03  0.75971380039E+03  0.10100000352E+00 0.  1.
       -3    1    3    3    0  502  0.55016054895E+03 -0.35580394833E+03 -0.91196369936E+01  0.65525281934E+03  0.10100000352E+00 0. -1.
</event>
<event>
 5   0  0.8673728E-04  0.1514292E+04  0.7818609E-02  0.8875004E-01
        1   -1    0    0  501    0  0.00000000000E+00  0.00000000000E+00  0.11783475141E+04  0.11783475141E+04  0.50400001928E-02 0.  1.
       -1   -1    0    0    0  501  0.00000000000E+00  0.00000000000E+00 -0.48650322447E+03  0.48650322449E+03  0.50400001928E-02 0. -1.
    10030    2    1    2    0    0  0.00000000000E+00  0.00000000000E+00  0.69184428961E+03  0.16648507386E+04  0.15142917357E+04 0.  0.
        3    1    3    3  502    0 -0.37013451147E+03 -0.58988495754E+03  0.67263102881E+03  0.96819230054E+03  0.10100000352E+00 0. -1.
       -3    1    3    3    0  502  0.37013451147E+03  0.58988495754E+03  0.19213260808E+02  0.69665843805E+03  0.10100000352E+00 0.  1.
</event>
<event>
 5   0  0.6048000E-04  0.1409987E+04  0.7818609E-02  0.8946621E-01
       -3   -1    0    0    0  501  0.00000000000E+00  0.00000000000E+00  0.52954606540E+03  0.52954607503E+03  0.10100000352E+00 0.  1.
        3   -1    0    0  501    0  0.00000000000E+00  0.00000000000E+00 -0.93856972712E+03  0.93856973255E+03  0.10100000352E+00 0. -1.
    10030    2    1    2    0    0  0.00000000000E+00  0.00000000000E+00 -0.40902366172E+03  0.14681158076E+04  0.14099871165E+04 0.  0.
        3    1    3    3  502    0  0.50120166844E+03  0.34287092425E+03 -0.57739930235E+03  0.83794602911E+03  0.10100000352E+00 0. -1.
       -3    1    3    3    0  502 -0.50120166844E+03 -0.34287092425E+03  0.16837564063E+03  0.63016977848E+03  0.10100000352E+00 0.  1.
</event>
<event>
 5   0  0.8673728E-04  0.1393087E+04  0.7818609E-02  0.8958838E-01
        1   -1    0    0  501    0  0.00000000000E+00  0.00000000000E+00  0.61179684486E+03  0.61179684488E+03  0.50400001928E-02 0.  1.
       -1   -1    0    0    0  501  0.00000000000E+00  0.00000000000E+00 -0.79302903568E+03  0.79302903569E+03  0.50400001928E-02 0. -1.
    10030    2    1    2    0    0  0.00000000000E+00  0.00000000000E+00 -0.18123219081E+03  0.14048258806E+04  0.13930867337E+04 0.  0.
        3    1    3    3  502    0  0.33085835222E+03 -0.15853971819E+03 -0.68769546324E+03  0.77944028113E+03  0.10100000352E+00 0. -1.
       -3    1    3    3    0  502 -0.33085835222E+03  0.15853971819E+03  0.50646327243E+03  0.62538559945E+03  0.10100000352E+00 0.  1.
</event>
<event>
 5   0  0.9007180E-04  0.1426342E+04  0.7818609E-02  0.8934969E-01
        1   -1    0    0  501    0  0.00000000000E+00  0.00000000000E+00  0.15881649130E+04  0.15881649130E+04  0.50400001928E-02 0.  1.
       -1   -1    0    0    0  501  0.00000000000E+00  0.00000000000E+00 -0.32025183873E+03  0.32025183877E+03  0.50400001928E-02 0. -1.
    10030    2    1    2    0    0  0.00000000000E+00  0.00000000000E+00  0.12679130742E+04  0.19084167518E+04  0.14263418014E+04 0.  0.
        2    1    3    3  502    0  0.98516156029E+02  0.60322390524E+03  0.11256131473E+04  0.12808549762E+04  0.25500000920E-02 0.  1.
       -2    1    3    3    0  502 -0.98516156029E+02 -0.60322390524E+03  0.14229992697E+03  0.62756177551E+03  0.25500000920E-02 0. -1.
</event>
<event>
 5   0  0.8609148E-04  0.1211426E+04  0.7818609E-02  0.9102914E-01
       -1   -1    0    0    0  501  0.00000000000E+00  0.00000000000E+00  0.25612225127E+03  0.25612225132E+03  0.50400001928E-02 0. -1.
        1   -1    0    0  501    0  0.00000000000E+00  0.00000000000E+00 -0.14324738189E+04  0.14324738189E+04  0.50400001928E-02 0.  1.
    10030    2    1    2    0    0  0.00000000000E+00  0.00000000000E+00 -0.11763515676E+04  0.16885960702E+04  0.12114262989E+04 0.  0.
        5    1    3    3  502    0 -0.14319101483E+03  0.40495132818E+03 -0.11834456676E+04  0.12589896676E+04  0.46999998093E+01 0.  1.
       -5    1    3    3    0  502  0.14319101483E+03 -0.40495132818E+03  0.70940999940E+01  0.42960640262E+03  0.46999998093E+01 0. -1.
</event>
<event>
 5   0  0.1605214E-03  0.1407078E+04  0.7818609E-02  0.8948711E-01
       -2   -1    0    0    0  501  0.00000000000E+00  0.00000000000E+00  0.82588896717E+03  0.82588896718E+03  0.25500000920E-02 0. -1.
        2   -1    0    0  501    0  0.00000000000E+00  0.00000000000E+00 -0.59931465920E+03  0.59931465920E+03  0.25500000920E-02 0.  1.
    10030    2    1    2    0    0  0.00000000000E+00  0.00000000000E+00  0.22657430798E+03  0.14252036264E+04  0.14070783417E+04 0.  0.
        5    1    3    3  502    0 -0.18856290380E+03 -0.87933390449E+02 -0.56742424822E+03  0.60438449460E+03  0.46999998093E+01 0.  1.
       -5    1    3    3    0  502  0.18856290380E+03  0.87933390449E+02  0.79399855620E+03  0.82081913178E+03  0.46999998093E+01 0. -1.
</event>
<event>
 5   0  0.6048000E-04  0.1401938E+04  0.7818609E-02  0.8952417E-01
        3   -1    0    0  501    0  0.00000000000E+00  0.00000000000E+00  0.18983574514E+04  0.18983574541E+04  0.10100000352E+00 0.  1.
       -3   -1    0    0    0  501  0.00000000000E+00  0.00000000000E+00 -0.25883295783E+03  0.25883297753E+03  0.10100000352E+00 0. -1.
    10030    2    1    2    0    0  0.00000000000E+00  0.00000000000E+00  0.16395244936E+04  0.21571904316E+04  0.14019379420E+04 0.  0.
        2    1    3    3  502    0 -0.60082732139E+03  0.17538579514E+03  0.13053835842E+04  0.14476808865E+04  0.25500000920E-02 0. -1.
       -2    1    3    3    0  502  0.60082732139E+03 -0.17538579514E+03  0.33414090935E+03  0.70950954508E+03  0.25500000920E-02 0.  1.
</event>
<event>
 5   0  0.1648463E-03  0.1402685E+04  0.7818609E-02  0.8951878E-01
        2   -1    0    0  501    0  0.00000000000E+00  0.00000000000E+00  0.60636680084E+03  0.60636680085E+03  0.25500000920E-02 0. -1.
       -2   -1    0    0    0  501  0.00000000000E+00  0.00000000000E+00 -0.81119397147E+03  0.81119397148E+03  0.25500000920E-02 0.  1.
    10030    2    1    2    0    0  0.00000000000E+00  0.00000000000E+00 -0.20482717063E+03  0.14175607723E+04  0.14026847021E+04 0.  0.
        1    1    3    3  502    0  0.48239833107E+03 -0.48366482204E+03  0.58146408536E+02  0.68558064059E+03  0.50400001928E-02 0. -1.
       -1    1    3    3    0  502 -0.48239833107E+03  0.48366482204E+03 -0.26297357917E+03  0.73198013174E+03  0.50400001928E-02 0.  1.
</event>
<event>
 5   0  0.9639548E-04  0.1315258E+04  0.7818609E-02  0.9017552E-01
        1   -1    0    0  501    0  0.00000000000E+00  0.00000000000E+00  0.43214890656E+03  0.43214890659E+03  0.50400001928E-02 0. -1.
       -1   -1    0    0    0  501  0.00000000000E+00  0.00000000000E+00 -0.10007561630E+04  0.10007561630E+04  0.50400001928E-02 0.  1.
    10030    2    1    2    0    0  0.00000000000E+00  0.00000000000E+00 -0.56860725644E+03  0.14329050696E+04  0.13152576654E+04 0.  0.
        1    1    3    3  502    0  0.26702668789E+03  0.59014427054E+03 -0.40805155991E+03  0.76555835027E+03  0.50400001928E-02 0. -1.
       -1    1    3    3    0  502 -0.26702668789E+03 -0.59014427054E+03 -0.16055569652E+03  0.66734671934E+03  0.50400001928E-02 0.  1.
</event>
<event>
 5   0  0.1648213E-03  0.1408074E+04  0.7818609E-02  0.8947995E-01
        2   -1    0    0  501    0  0.00000000000E+00  0.00000000000E+00  0.37026572483E+03  0.37026572484E+03  0.25500000920E-02 0. -1.
       -2   -1    0    0    0  501  0.00000000000E+00  0.00000000000E+00 -0.13386823495E+04  0.13386823495E+04  0.25500000920E-02 0.  1.
    10030    2    1    2    0    0  0.00000000000E+00  0.00000000000E+00 -0.96841662464E+03  0.17089480743E+04  0.14080741322E+04 0.  0.
        4    1    3    3  502    0  0.69850204689E+02  0.14207851865E+03  0.34837915972E+03  0.38266827459E+03  0.12699999809E+01 0. -1.
       -4    1    3    3    0  502 -0.69850204689E+02 -0.14207851865E+03 -0.13167957844E+04  0.13262797997E+04  0.12699999809E+01 0.  1.
</event>
<event>
 5   0  0.1706986E-03  0.1386621E+04  0.7818609E-02  0.8963561E-01
        2   -1    0    0  501    0  0.00000000000E+00  0.00000000000E+00  0.90547498127E+03  0.90547498127E+03  0.25500000920E-02 0.  1.
       -2   -1    0    0    0  501  0.00000000000E+00  0.00000000000E+00 -0.53085851906E+03  0.53085851906E+03  0.25500000920E-02 0. -1.
    10030    2    1    2    0    0  0.00000000000E+00  0.00000000000E+00  0.37461646221E+03  0.14363335003E+04  0.13866205070E+04 0.  0.
        3    1    3    3  502    0  0.42395588247E+03  0.53616678279E+03  0.67106160925E+02  0.68681631918E+03  0.10100000352E+00 0. -1.
       -3    1    3    3    0  502 -0.42395588247E+03 -0.53616678279E+03  0.30751030129E+03  0.74951718116E+03  0.10100000352E+00 0.  1.
</event>
<event>
 5   0  0.8673728E-04  0.1398842E+04  0.7818609E-02  0.8954657E-01
       -1   -1    0    0    0  501  0.00000000000E+00  0.00000000000E+00  0.19840508488E+04  0.19840508488E+04  0.50400001928E-02 0. -1.
        1   -1    0    0  501    0  0.00000000000E+00  0.00000000000E+00 -0.24656100265E+03  0.24656100271E+03  0.50400001928E-02 0.  1.
    10030    2    1    2    0    0  0.00000000000E+00  0.00000000000E+00  0.17374898462E+04  0.22306118515E+04  0.13988417590E+04 0.  0.
        3    1    3    3  502    0 -0.44223181288E+03 -0.69523879938E+02  0.11817099782E+02  0.44781938352E+03  0.10100000352E+00 0.  1.
       -3    1    3    3    0  502  0.44223181288E+03  0.69523879938E+02  0.17256727464E+04  0.17827924680E+04  0.10100000352E+00 0. -1.
</event>
<event>
 5   0  0.8609148E-04  0.1430678E+04  0.7818609E-02  0.8931906E-01
       -1   -1    0    0    0  501  0.00000000000E+00  0.00000000000E+00  0.69540505071E+03  0.69540505073E+03  0.50400001928E-02 0. -1.
        1   -1    0    0  501    0  0.00000000000E+00  0.00000000000E+00 -0.73584479472E+03  0.73584479474E+03  0.50400001928E-02 0.  1.
    10030    2    1    2    0    0  0.00000000000E+00  0.00000000000E+00 -0.40439744016E+02  0.14312498455E+04  0.14306784220E+04 0.  0.
        5    1    3    3  502    0  0.50283215154E+02  0.66867716752E+03  0.22893891577E+03  0.70858497955E+03  0.46999998093E+01 0. -1.
       -5    1    3    3    0  502 -0.50283215154E+02 -0.66867716752E+03 -0.26937865979E+03  0.72266486592E+03  0.46999998093E+01 0.  1.
</event>
<event>
 5   0  0.6048000E-04  0.1431772E+04  0.7818609E-02  0.8931136E-01
        3   -1    0    0  501    0  0.00000000000E+00  0.00000000000E+00  0.65005423783E+03  0.65005424568E+03  0.10100000352E+00 0.  1.
       -3   -1    0    0    0  501  0.00000000000E+00  0.00000000000E+00 -0.78838405924E+03  0.78838406571E+03  0.10100000352E+00 0. -1.
    10030    2    1    2    0    0  0.00000000000E+00  0.00000000000E+00 -0.13832982140E+03  0.14384383114E+04  0.14317715028E+04 0.  0.
        5    1    3    3  502    0  0.29160841688E+02 -0.42447961745E+03  0.50922143832E+03  0.66359766694E+03  0.46999998093E+01 0.  1.
       -5    1    3    3    0  502 -0.29160841688E+02  0.42447961745E+03 -0.64755125972E+03  0.77484064445E+03  0.46999998093E+01 0. -1.
</event>
<event>
 5   0  0.8502300E-04  0.1328362E+04  0.7818609E-02  0.9007371E-01
       -1   -1    0    0    0  501  0.00000000000E+00  0.00000000000E+00  0.37035213993E+03  0.37035213997E+03  0.50400001928E-02 0. -1.
        1   -1    0    0  501    0  0.00000000000E+00  0.00000000000E+00 -0.11911278075E+04  0.11911278075E+04  0.50400001928E-02 0.  1.
    10030    2    1    2    0    0  0.00000000000E+00  0.00000000000E+00 -0.82077566752E+03  0.15614799474E+04  0.13283624994E+04 0.  0.
        4    1    3    3  502    0  0.55001602072E+03  0.28285866612E+03 -0.12581069904E+03  0.63115496745E+03  0.12699999809E+01 0. -1.
       -4    1    3    3    0  502 -0.55001602072E+03 -0.28285866612E+03 -0.69496496848E+03  0.93032497998E+03  0.12699999809E+01 0.  1.
</event>
<event>
 5   0  0.1605214E-03  0.1416931E+04  0.7818609E-02  0.8941653E-01
       -2   -1    0    0    0  501  0.00000000000E+00  0.00000000000E+00  0.45148464544E+03  0.45148464545E+03  0.25500000920E-02 0.  1.
        2   -1    0    0  501    0  0.00000000000E+00  0.00000000000E+00 -0.11117174211E+04  0.11117174211E+04  0.25500000920E-02 0. -1.
    10030    2    1    2    0    0  0.00000000000E+00  0.00000000000E+00 -0.66023277565E+03  0.15632020665E+04  0.14169309732E+04 0.  0.
        5    1    3    3  502    0  0.41376984640E+03 -0.29874157209E+03  0.21198354166E+03  0.55264014025E+03  0.46999998093E+01 0.  1.
       -5    1    3    3    0  502 -0.41376984640E+03  0.29874157209E+03 -0.87221631731E+03  0.10105619263E+04  0.46999998093E+01 0. -1.
</event>
<event>
 5   0  0.1578965E-03  0.1419999E+04  0.7818609E-02  0.8939468E-01
       -2   -1    0    0    0  501  0.00000000000E+00  0.00000000000E+00  0.40560345822E+03  0.40560345823E+03  0.25500000920E-02 0. -1.
        2   -1    0    0  501    0  0.00000000000E+00  0.00000000000E+00 -0.12428377691E+04  0.12428377691E+04  0.25500000920E-02 0.  1.
    10030    2    1    2    0    0  0.00000000000E+00  0.00000000000E+00 -0.83723431086E+03  0.16484412273E+04  0.14199990101E+04 0.  0.
        2    1    3    3  502    0 -0.70166539299E+03 -0.83750718000E+02 -0.33860271491E+03  0.78358171561E+03  0.25500000920E-02 0. -1.
       -2    1    3    3    0  502  0.70166539299E+03  0.83750718000E+02 -0.49863159595E+03  0.86485951170E+03  0.25500000920E-02 0.  1.
</event>
<event>
 5   0  0.1706986E-03  0.1346969E+04  0.7818609E-02  0.8993126E-01
        2   -1    0    0  501    0  0.00000000000E+00  0.00000000000E+00  0.16741665130E+04  0.16741665130E+04  0.25500000920E-02 0.  1.
       -2   -1    0    0    0  501  0.00000000000E+00  0.00000000000E+00 -0.27092976310E+03  0.27092976311E+03  0.25500000920E-02 0. -1.
    10030    2    1    2    0    0  0.00000000000E+00  0.00000000000E+00  0.14032367499E+04  0.19450962762E+04  0.13469692451E+04 0.  0.
        3    1    3    3  502    0 -0.57380631391E+03 -0.12476286537E+03  0.11778542976E+04  0.13161155781E+04  0.10100000352E+00 0.  1.
       -3    1    3    3    0  502  0.57380631391E+03  0.12476286537E+03  0.22538245236E+03  0.62898069803E+03  0.10100000352E+00 0. -1.
</event>
<event>
 5   0  0.1578965E-03  0.1423594E+04  0.7818609E-02  0.8936915E-01
       -2   -1    0    0    0  501  0.00000000000E+00  0.00000000000E+00  0.21277104927E+03  0.21277104929E+03  0.25500000920E-02 0. -1.
        2   -1    0    0  501    0  0.00000000000E+00  0.00000000000E+00 -0.23812226584E+04  0.23812226584E+04  0.25500000920E-02 0.  1.
    10030    2    1    2    0    0  0.00000000000E+00  0.00000000000E+00 -0.21684516091E+04  0.25939937077E+04  0.14235943855E+04 0.  0.
        2    1    3    3  502    0 -0.27601382550E+03  0.17658921758E+03 -0.22356244249E+04  0.22595096709E+04  0.25500000920E-02 0.  1.
       -2    1    3    3    0  502  0.27601382550E+03 -0.17658921758E+03  0.67172815848E+02  0.33448403673E+03  0.25500000920E-02 0. -1.
</event>
<event>
 5   0  0.1706986E-03  0.1374047E+04  0.7818609E-02  0.8972822E-01
       -2   -1    0    0    0  501  0.00000000000E+00  0.00000000000E+00  0.50761382082E+03  0.50761382083E+03  0.25500000920E-02 0. -1.
        2   -1    0    0  501    0  0.00000000000E+00  0.00000000000E+00 -0.92984337560E+03  0.92984337561E+03  0.25500000920E-02 0.  1.
    10030    2    1    2    0    0  0.00000000000E+00  0.00000000000E+00 -0.42222955478E+03  0.14374571964E+04  0.13740470860E+04 0.  0.
        3    1    3    3  502    0 -0.52342496890E+03  0.39111064141E+03  0.10954977507E+02  0.65349923766E+03  0.10100000352E+00 0. -1.
       -3    1    3    3    0  502  0.52342496890E+03 -0.39111064141E+03 -0.43318453229E+03  0.78395795877E+03  0.10100000352E+00 0.  1.
</event>
<event>
 5   0  0.1605214E-03  0.1380330E+04  0.7818609E-02  0.8968181E-01
       -2   -1    0    0    0  501  0.00000000000E+00  0.00000000000E+00  0.96226853572E+03  0.96226853572E+03  0.25500000920E-02 0. -1.
        2   -1    0    0  501    0  0.00000000000E+00  0.00000000000E+00 -0.49500503088E+03  0.49500503089E+03  0.25500000920E-02 0.  1.
    10030    2    1    2    0    0  0.00000000000E+00  0.00000000000E+00  0.46726350483E+03  0.14572735666E+04  0.13803300565E+04 0.  0.
        5    1    3    3  502    0 -0.25387255550E+02  0.57344738063E+03 -0.17089725192E+03  0.59892768495E+03  0.46999998093E+01 0.  1.
       -5    1    3    3    0  502  0.25387255550E+02 -0.57344738063E+03  0.63816075676E+03  0.85834588165E+03  0.46999998093E+01 0. -1.
</event>
<event>
 5   0  0.1648213E-03  0.1418105E+04  0.7818609E-02  0.8940816E-01
       -2   -1    0    0    0  501  0.00000000000E+00  0.00000000000E+00  0.76317740106E+03  0.76317740106E+03  0.25500000920E-02 0.  1.
        2   -1    0    0  501    0  0.00000000000E+00  0.00000000000E+00 -0.65876625818E+03  0.65876625819E+03  0.25500000920E-02 0. -1.
    10030    2    1    2    0    0  0.00000000000E+00  0.00000000000E+00  0.10441114288E+03  0.14219436593E+04  0.14181051031E+04 0.  0.
        4    1    3    3  502    0  0.32250618936E+03  0.26223093010E+03  0.62819811356E+03  0.75326607892E+03  0.12699999809E+01 0.  1.
       -4    1    3    3    0  502 -0.32250618936E+03 -0.26223093010E+03 -0.52378697068E+03  0.66867758033E+03  0.12699999809E+01 0. -1.
</event>
<event>
 5   0  0.1648213E-03  0.1391933E+04  0.7818609E-02  0.8959679E-01
        2   -1    0    0  501    0  0.00000000000E+00  0.00000000000E+00  0.10883429400E+04  0.10883429400E+04  0.25500000920E-02 0. -1.
       -2   -1    0    0    0  501  0.00000000000E+00  0.00000000000E+00 -0.44505199936E+03  0.44505199937E+03  0.25500000920E-02 0.  1.
    10030    2    1    2    0    0  0.00000000000E+00  0.00000000000E+00  0.64329094066E+03  0.15333949394E+04  0.13919327591E+04 0.  0.
        4    1    3    3  502    0  0.28465468781E+03  0.13948635160E+03 -0.36090556161E+03  0.48035317306E+03  0.12699999809E+01 0.  1.
       -4    1    3    3    0  502 -0.28465468781E+03 -0.13948635160E+03  0.10041965023E+04  0.10530417663E+04  0.12699999809E+01 0. -1.
</event>
<event>
 5   0  0.9639548E-04  0.1273592E+04  0.7818609E-02  0.9050773E-01
        1   -1    0    0  501    0  0.00000000000E+00  0.00000000000E+00  0.34327110354E+03  0.34327110358E+03  0.50400001928E-02 0.  1.
       -1   -1    0    0    0  501  0.00000000000E+00  0.00000000000E+00 -0.11813088815E+04  0.11813088816E+04  0.50400001928E-02 0. -1.
    10030    2    1    2    0    0  0.00000000000E+00  0.00000000000E+00 -0.83803777800E+03  0.15245799851E+04  0.12735920908E+04 0.  0.
        1    1    3    3  502    0  0.54980309987E+03  0.31168536721E+03 -0.51234426129E+03  0.81358949038E+03  0.50400001928E-02 0. -1.
       -1    1    3    3    0  502 -0.54980309987E+03 -0.31168536721E+03 -0.32569351671E+03  0.71099049475E+03  0.50400001928E-02 0.  1.
</event>
<event>
 5   0  0.1578965E-03  0.1343845E+04  0.7818609E-02  0.8995501E-01
        2   -1    0    0  501    0  0.00000000000E+00  0.00000000000E+00  0.47400106381E+03  0.47400106382E+03  0.25500000920E-02 0. -1.
       -2   -1    0    0    0  501  0.00000000000E+00  0.00000000000E+00 -0.95248646451E+03  0.95248646452E+03  0.25500000920E-02 0.  1.
    10030    2    1    2    0    0  0.00000000000E+00  0.00000000000E+00 -0.47848540070E+03  0.14264875283E+04  0.13438446301E+04 0.  0.
        2    1    3    3  502    0 -0.54210010606E+03  0.38874504862E+03 -0.15376507169E+03  0.68457208174E+03  0.25500000920E-02 0. -1.
       -2    1    3    3    0  502  0.54210010606E+03 -0.38874504862E+03 -0.32472032901E+03  0.74191544659E+03  0.25500000920E-02 0.  1.
</event>
<event>
 5   0  0.8609148E-04  0.1428393E+04  0.7818609E-02  0.8933519E-01
        1   -1    0    0  501    0  0.00000000000E+00  0.00000000000E+00  0.87652463199E+03  0.87652463200E+03  0.50400001928E-02 0. -1.
       -1   -1    0    0    0  501  0.00000000000E+00  0.00000000000E+00 -0.58193085768E+03  0.58193085770E+03  0.50400001928E-02 0.  1.
    10030    2    1    2    0    0  0.00000000000E+00  0.00000000000E+00  0.29459377431E+03  0.14584554897E+04  0.14283931264E+04 0.  0.
        5    1    3    3  502    0 -0.20388614171E+03 -0.68051322535E+03  0.72357152096E+02  0.71409064979E+03  0.46999998093E+01 0.  1.
       -5    1    3    3    0  502  0.20388614171E+03  0.68051322535E+03  0.22223662221E+03  0.74436483992E+03  0.46999998093E+01 0. -1.
</event>
<event>
 5   0  0.8502300E-04  0.1421416E+04  0.7818609E-02  0.8938461E-01
       -1   -1    0    0    0  501  0.00000000000E+00  0.00000000000E+00  0.38290363865E+03  0.38290363868E+03  0.50400001928E-02 0. -1.
        1   -1    0    0  501    0  0.00000000000E+00  0.00000000000E+00 -0.13191466259E+04  0.13191466259E+04  0.50400001928E-02 0.  1.
    10030    2    1    2    0    0  0.00000000000E+00  0.00000000000E+00 -0.93624298726E+03  0.17020502646E+04  0.14214162557E+04 0.  0.
        4    1    3    3  502    0  0.28508864359E+03 -0.19652326946E+02 -0.12473205522E+04  0.12796374180E+04  0.12699999809E+01 0.  1.
       -4    1    3    3    0  502 -0.28508864359E+03  0.19652326946E+02  0.31107756496E+03  0.42241284661E+03  0.12699999809E+01 0. -1.
</event>
<event>
 5   0  0.8609148E-04  0.1419115E+04  0.7818609E-02  0.8940097E-01
        1   -1    0    0  501    0  0.00000000000E+00  0.00000000000E+00  0.23488871645E+04  0.23488871645E+04  0.50400001928E-02 0.  1.
       -1   -1    0    0    0  501  0.00000000000E+00  0.00000000000E+00 -0.21434477028E+03  0.21434477034E+03  0.50400001928E-02 0. -1.
    10030    2    1    2    0    0  0.00000000000E+00  0.00000000000E+00  0.21345423942E+04  0.25632319348E+04  0.14191147660E+04 0.  0.
        5    1    3    3  502    0 -0.66075436762E+02  0.66572358319E+03  0.64023987549E+03  0.92600380168E+03  0.46999998093E+01 0. -1.
       -5    1    3    3    0  502  0.66075436762E+02 -0.66572358319E+03  0.14943025187E+04  0.16372281331E+04  0.46999998093E+01 0.  1.
</event>
<event>
 5   0  0.1648463E-03  0.1401867E+04  0.7818609E-02  0.8952469E-01
        2   -1    0    0  501    0  0.00000000000E+00  0.00000000000E+00  0.37759479295E+03  0.37759479296E+03  0.25500000920E-02 0.  1.
       -2   -1    0    0    0  501  0.00000000000E+00  0.00000000000E+00 -0.13011499875E+04  0.13011499875E+04  0.25500000920E-02 0. -1.
    10030    2    1    2    0    0  0.00000000000E+00  0.00000000000E+00 -0.92355519451E+03  0.16787447804E+04  0.14018665559E+04 0.  0.
        1    1    3    3  502    0  0.47010057584E+02  0.54819662429E+03 -0.98180171412E+03  0.11254617231E+04  0.50400001928E-02 0. -1.
       -1    1    3    3    0  502 -0.47010057584E+02 -0.54819662429E+03  0.58246519609E+02  0.55328305727E+03  0.50400001928E-02 0.  1.
</event>
<event>
 5   0  0.1706986E-03  0.1391368E+04  0.7818609E-02  0.8960091E-01
       -2   -1    0    0    0  501  0.00000000000E+00  0.00000000000E+00  0.18927475939E+03  0.18927475941E+03  0.25500000920E-02 0. -1.
        2   -1    0    0  501    0  0.00000000000E+00  0.00000000000E+00 -0.25570021453E+04  0.25570021453E+04  0.25500000920E-02 0.  1.
    10030    2    1    2    0    0  0.00000000000E+00  0.00000000000E+00 -0.23677273859E+04  0.27462769047E+04  0.13913676234E+04 0.  0.
        3    1    3    3  502    0  0.53824229446E+03 -0.23212164780E+03 -0.44430670410E+03  0.73552272870E+03  0.10100000352E+00 0. -1.
       -3    1    3    3    0  502 -0.53824229446E+03  0.23212164780E+03 -0.19234206818E+04  0.20107541760E+04  0.10100000352E+00 0.  1.
</event>
<event>
 5   0  0.1605214E-03  0.1354300E+04  0.7818609E-02  0.8987579E-01
       -2   -1    0    0    0  501  0.00000000000E+00  0.00000000000E+00  0.35474370944E+03  0.35474370945E+03  0.25500000920E-02 0.  1.
        2   -1    0    0  501    0  0.00000000000E+00  0.00000000000E+00 -0.12925730535E+04  0.12925730535E+04  0.25500000920E-02 0. -1.
    10030    2    1    2    0    0  0.00000000000E+00  0.00000000000E+00 -0.93782934409E+03  0.16473167630E+04  0.13543000550E+04 0.  0.
        5    1    3    3  502    0 -0.33116487587E+03 -0.44406977647E+02  0.24746670366E+03  0.41581728451E+03  0.46999998093E+01 0.  1.
       -5    1    3    3    0  502  0.33116487587E+03  0.44406977647E+02 -0.11852960477E+04  0.12314994785E+04  0.46999998093E+01 0. -1.
</event>
<event>
 5   0  0.8609148E-04  0.1416573E+04  0.7818609E-02  0.8941909E-01
       -1   -1    0    0    0  501  0.00000000000E+00  0.00000000000E+00  0.69900335841E+03  0.69900335843E+03  0.50400001928E-02 0. -1.
        1   -1    0    0  501    0  0.00000000000E+00  0.00000000000E+00 -0.71769313610E+03  0.71769313612E+03  0.50400001928E-02 0.  1.
    10030    2    1    2    0    0  0.00000000000E+00  0.00000000000E+00 -0.18689777689E+02  0.14166964945E+04  0.14165732067E+04 0.  0.
        5    1    3    3  502    0 -0.65718945644E+03  0.23851091057E+03  0.10407744290E+03  0.70685192243E+03  0.46999998093E+01 0.  1.
       -5    1    3    3    0  502  0.65718945644E+03 -0.23851091057E+03 -0.12276722059E+03  0.70984457212E+03  0.46999998093E+01 0. -1.
</event>
<event>
 5   0  0.1706986E-03  0.1406662E+04  0.7818609E-02  0.8949011E-01
        2   -1    0    0  501    0  0.00000000000E+00  0.00000000000E+00  0.23424409557E+04  0.23424409557E+04  0.25500000920E-02 0.  1.
       -2   -1    0    0    0  501  0.00000000000E+00  0.00000000000E+00 -0.21117894972E+03  0.21117894974E+03  0.25500000920E-02 0. -1.
    10030    2    1    2    0    0  0.00000000000E+00  0.00000000000E+00  0.21312620060E+04  0.25536199055E+04  0.14066616094E+04 0.  0.
        3    1    3    3  502    0  0.99252665858E+02 -0.57954924405E+03  0.36501389136E+03  0.69207193921E+03  0.10100000352E+00 0. -1.
       -3    1    3    3    0  502 -0.99252665858E+02  0.57954924405E+03  0.17662481146E+04  0.18615479662E+04  0.10100000352E+00 0.  1.
</event>
<event>
 5   0  0.1648213E-03  0.1335903E+04  0.7818609E-02  0.9001568E-01
       -2   -1    0    0    0  501  0.00000000000E+00  0.00000000000E+00  0.12363878892E+04  0.12363878892E+04  0.25500000920E-02 0.  1.
        2   -1    0    0  501    0  0.00000000000E+00  0.00000000000E+00 -0.36085707229E+03  0.36085707230E+03  0.25500000920E-02 0. -1.
    10030    2    1    2    0    0  0.00000000000E+00  0.00000000000E+00  0.87553081694E+03  0.15972449615E+04  0.13359031611E+04 0.  0.
        4    1    3    3  502    0 -0.87676833802E+02  0.40418769127E+03 -0.18934504774E+03  0.45487149500E+03  0.12699999809E+01 0. -1.
       -4    1    3    3    0  502  0.87676833802E+02 -0.40418769127E+03  0.10648758647E+04  0.11423734665E+04  0.12699999809E+01 0.  1.
</event>
<event>
 5   0  0.1605214E-03  0.1486835E+04  0.7818609E-02  0.8893255E-01
        2   -1    0    0  501    0  0.00000000000E+00  0.00000000000E+00  0.73523444313E+03  0.73523444314E+03  0.25500000920E-02 0. -1.
       -2   -1    0    0    0  501  0.00000000000E+00  0.00000000000E+00 -0.75169140199E+03  0.75169140199E+03  0.25500000920E-02 0.  1.
    10030    2    1    2    0    0  0.00000000000E+00  0.00000000000E+00 -0.16456958855E+02  0.14869258451E+04  0.14868347714E+04 0.  0.
        5    1    3    3  502    0  0.18877488252E+03  0.80243334957E+01  0.71080580672E+03  0.73550481376E+03  0.46999998093E+01 0. -1.
       -5    1    3    3    0  502 -0.18877488252E+03 -0.80243334957E+01 -0.72726276557E+03  0.75142103137E+03  0.46999998093E+01 0.  1.
</event>
<event>
 5   0  0.8609148E-04  0.1344420E+04  0.7818609E-02  0.8995063E-01
       -1   -1    0    0    0  501  0.00000000000E+00  0.00000000000E+00  0.42796838594E+03  0.42796838597E+03  0.50400001928E-02 0. -1.
        1   -1    0    0  501    0  0.00000000000E+00  0.00000000000E+00 -0.10558397704E+04  0.10558397704E+04  0.50400001928E-02 0.  1.
    10030    2    1    2    0    0  0.00000000000E+00  0.00000000000E+00 -0.62787138444E+03  0.14838081564E+04  0.13444196404E+04 0.  0.
        5    1    3    3  502    0  0.20444954918E+03 -0.61334794339E+03 -0.11088078820E+03  0.65598167429E+03  0.46999998093E+01 0.  1.
       -5    1    3    3    0  502 -0.20444954918E+03  0.61334794339E+03 -0.51699059624E+03  0.82782648207E+03  0.46999998093E+01 0. -1.
</event>
<event>
 5   0  0.1706986E-03  0.1423059E+04  0.7818609E-02  0.8937295E-01
        2   -1    0    0  501    0  0.00000000000E+00  0.00000000000E+00  0.23778767463E+04  0.23778767463E+04  0.25500000920E-02 0.  1.
       -2   -1    0    0    0  501  0.00000000000E+00  0.00000000000E+00 -0.21291006379E+03  0.21291006381E+03  0.25500000920E-02 0. -1.
    10030    2    1    2    0    0  0.00000000000E+00  0.00000000000E+00  0.21649666825E+04  0.25907868101E+04  0.14230585227E+04 0.  0.
        3    1    3    3  502    0  0.12481648575E+03 -0.58528307806E+03  0.17832005842E+04  0.18809411927E+04  0.10100000352E+00 0.  1.
       -3    1    3    3    0  502 -0.12481648575E+03  0.58528307806E+03  0.38176609829E+03  0.70984561743E+03  0.10100000352E+00 0. -1.
</event>
<event>
 5   0  0.1648463E-03  0.1389472E+04  0.7818609E-02  0.8961475E-01
        2   -1    0    0  501    0  0.00000000000E+00  0.00000000000E+00  0.10266167281E+04  0.10266167281E+04  0.25500000920E-02 0.  1.
       -2   -1    0    0    0  501  0.00000000000E+00  0.00000000000E+00 -0.47014418643E+03  0.47014418644E+03  0.25500000920E-02 0. -1.
    10030    2    1    2    0    0  0.00000000000E+00  0.00000000000E+00  0.55647254171E+03  0.14967609146E+04  0.13894716786E+04 0.  0.
        1    1    3    3  502    0  0.12850340905E+03 -0.67294308831E+02 -0.45364944737E+03  0.47627667512E+03  0.50400001928E-02 0. -1.
       -1    1    3    3    0  502 -0.12850340905E+03  0.67294308831E+02  0.10101219891E+04  0.10204842395E+04  0.50400001928E-02 0.  1.
</event>
<event>
 5   0  0.1648213E-03  0.1364604E+04  0.7818609E-02  0.8979846E-01
        2   -1    0    0  501    0  0.00000000000E+00  0.00000000000E+00  0.13690463284E+04  0.13690463284E+04  0.25500000920E-02 0. -1.
       -2   -1    0    0    0  501  0.00000000000E+00  0.00000000000E+00 -0.34004419310E+03  0.34004419311E+03  0.25500000920E-02 0.  1.
    10030    2    1    2    0    0  0.00000000000E+00  0.00000000000E+00  0.10290021353E+04  0.17090905216E+04  0.13646043442E+04 0.  0.
        4    1    3    3  502    0  0.11225690447E+03  0.41243046965E+03  0.11805777472E+04  0.12555739464E+04  0.12699999809E+01 0. -1.
       -4    1    3    3    0  502 -0.11225690447E+03 -0.41243046965E+03 -0.15157561186E+03  0.45351657512E+03  0.12699999809E+01 0.  1.
</event>
<event>
 5   0  0.1648463E-03  0.1384526E+04  0.7818609E-02  0.8965096E-01
        2   -1    0    0  501    0  0.00000000000E+00  0.00000000000E+00  0.20189281836E+04  0.20189281836E+04  0.25500000920E-02 0. -1.
       -2   -1    0    0    0  501  0.00000000000E+00  0.00000000000E+00 -0.23736759361E+03  0.23736759363E+03  0.25500000920E-02 0.  1.
    10030    2    1    2    0    0  0.00000000000E+00  0.00000000000E+00  0.17815605900E+04  0.22562957772E+04  0.13845260917E+04 0.  0.
        1    1    3    3  502    0  0.57520315205E+01  0.10300050087E+03  0.20063315026E+04  0.20089819032E+04  0.50400001928E-02 0. -1.
       -1    1    3    3    0  502 -0.57520315205E+01 -0.10300050087E+03 -0.22477091267E+03  0.24731387397E+03  0.50400001928E-02 0.  1.
</event>
<event>
 5   0  0.1706986E-03  0.1397094E+04  0.7818609E-02  0.8955925E-01
        2   -1    0    0  501    0  0.00000000000E+00  0.00000000000E+00  0.12853397758E+04  0.12853397758E+04  0.25500000920E-02 0.  1.
       -2   -1    0    0    0  501  0.00000000000E+00  0.00000000000E+00 -0.37964098882E+03  0.37964098883E+03  0.25500000920E-02 0. -1.
    10030    2    1    2    0    0  0.00000000000E+00  0.00000000000E+00  0.90569878699E+03  0.16649807646E+04  0.13970936453E+04 0.  0.
        3    1    3    3  502    0  0.41312264134E+03  0.16867663193E+03  0.10933455515E+04  0.11809007698E+04  0.10100000352E+00 0.  1.
       -3    1    3    3    0  502 -0.41312264134E+03 -0.16867663193E+03 -0.18764676452E+03  0.48407999482E+03  0.10100000352E+00 0. -1.
</event>
<event>
 5   0  0.1578965E-03  0.1396715E+04  0.7818609E-02  0.8956200E-01
        2   -1    0    0  501    0  0.00000000000E+00  0.00000000000E+00  0.62212505206E+03  0.62212505207E+03  0.25500000920E-02 0.  1.
       -2   -1    0    0    0  501  0.00000000000E+00  0.00000000000E+00 -0.78393116469E+03  0.78393116470E+03  0.25500000920E-02 0. -1.
    10030    2    1    2    0    0  0.00000000000E+00  0.00000000000E+00 -0.16180611263E+03  0.14060562168E+04  0.13967150270E+04 0.  0.
        2    1    3    3  502    0 -0.28214241188E+03  0.46018488686E+03 -0.52695642703E+03  0.75435903035E+03  0.25500000920E-02 0. -1.
       -2    1    3    3    0  502  0.28214241188E+03 -0.46018488686E+03  0.36515031440E+03  0.65169718642E+03  0.25500000920E-02 0.  1.
</event>
<event>
 5   0  0.1648463E-03  0.1401102E+04  0.7818609E-02  0.8953021E-01
       -2   -1    0    0    0  501  0.00000000000E+00  0.00000000000E+00  0.51543950106E+03  0.51543950107E+03  0.25500000920E-02 0. -1.
        2   -1    0    0  501    0  0.00000000000E+00  0.00000000000E+00 -0.95214252947E+03  0.95214252947E+03  0.25500000920E-02 0.  1.
    10030    2    1    2    0    0  0.00000000000E+00  0.00000000000E+00 -0.43670302840E+03  0.14675820305E+04  0.14011022380E+04 0.  0.
        1    1    3    3  502    0 -0.43563368697E+02 -0.53841695613E+02 -0.94854776907E+03  0.95107284974E+03  0.50400001928E-02 0.  1.
       -1    1    3    3    0  502  0.43563368697E+02  0.53841695613E+02  0.51184474067E+03  0.51650918080E+03  0.50400001928E-02 0. -1.
</event>
<event>
 5   0  0.1578965E-03  0.1394270E+04  0.7818609E-02  0.8957977E-01
       -2   -1    0    0    0  501  0.00000000000E+00  0.00000000000E+00  0.19368673027E+03  0.19368673028E+03  0.25500000920E-02 0.  1.
        2   -1    0    0  501    0  0.00000000000E+00  0.00000000000E+00 -0.25091904845E+04  0.25091904845E+04  0.25500000920E-02 0. -1.
    10030    2    1    2    0    0  0.00000000000E+00  0.00000000000E+00 -0.23155037542E+04  0.27028772148E+04  0.13942695587E+04 0.  0.
        2    1    3    3  502    0  0.56631525950E+03 -0.68733588135E+02 -0.38097240622E+03  0.68598633630E+03  0.25500000920E-02 0.  1.
       -2    1    3    3    0  502 -0.56631525950E+03  0.68733588135E+02 -0.19345313480E+04  0.20168908785E+04  0.25500000920E-02 0. -1.
</event>
<event>
 5   0  0.9639548E-04  0.1425727E+04  0.7818609E-02  0.8935404E-01
       -1   -1    0    0    0  501  0.00000000000E+00  0.00000000000E+00  0.85578374345E+03  0.85578374346E+03  0.50400001928E-02 0. -1.
        1   -1    0    0  501    0  0.00000000000E+00  0.00000000000E+00 -0.59381187724E+03  0.59381187726E+03  0.50400001928E-02 0.  1.
    10030    2    1    2    0    0  0.00000000000E+00  0.00000000000E+00  0.26197186621E+03  0.14495956207E+04  0.14257272547E+04 0.  0.
        1    1    3    3  502    0 -0.44238180219E+03  0.52273900791E+03 -0.70361739752E+02  0.68841012757E+03  0.50400001928E-02 0. -1.
       -1    1    3    3    0  502  0.44238180219E+03 -0.52273900791E+03  0.33233360597E+03  0.76118549315E+03  0.50400001928E-02 0.  1.
</event>
<event>
 5   0  0.9007180E-04  0.1481822E+04  0.7818609E-02  0.8896632E-01
       -1   -1    0    0    0  501  0.00000000000E+00  0.00000000000E+00  0.36957221820E+03  0.36957221823E+03  0.50400001928E-02 0. -1.
        1   -1    0    0  501    0  0.00000000000E+00  0.00000000000E+00 -0.14853642443E+04  0.14853642443E+04  0.50400001928E-02 0.  1.
    10030    2    1    2    0    0  0.00000000000E+00  0.00000000000E+00 -0.11157920261E+04  0.18549364626E+04  0.14818223357E+04 0.  0.
        2    1    3    3  502    0 -0.33725336537E+03  0.37651380049E+02  0.26657163871E+03  0.43152971791E+03  0.25500000920E-02 0. -1.
       -2    1    3    3    0  502  0.33725336537E+03 -0.37651380049E+02 -0.13823636648E+04  0.14234067447E+04  0.25500000920E-02 0.  1.
</event>
<event>
 5   0  0.8502300E-04  0.1420114E+04  0.7818609E-02  0.8939386E-01
       -1   -1    0    0    0  501  0.00000000000E+00  0.00000000000E+00  0.26868312440E+03  0.26868312444E+03  0.50400001928E-02 0. -1.
        1   -1    0    0  501    0  0.00000000000E+00  0.00000000000E+00 -0.18764899708E+04  0.18764899708E+04  0.50400001928E-02 0.  1.
    10030    2    1    2    0    0  0.00000000000E+00  0.00000000000E+00 -0.16078068464E+04  0.21451730953E+04  0.14201143451E+04 0.  0.
        4    1    3    3  502    0  0.32466102541E+02  0.67004637466E+03 -0.45234952359E+03  0.80909696353E+03  0.12699999809E+01 0. -1.
       -4    1    3    3    0  502 -0.32466102541E+02 -0.67004637466E+03 -0.11554573228E+04  0.13360761317E+04  0.12699999809E+01 0.  1.
</event>
<event>
 5   0  0.8609148E-04  0.1356252E+04  0.7818609E-02  0.8986109E-01
        1   -1    0    0  501    0  0.00000000000E+00  0.00000000000E+00  0.21320122580E+04  0.21320122580E+04  0.50400001928E-02 0. -1.
       -1   -1    0    0    0  501  0.00000000000E+00  0.00000000000E+00 -0.21569053710E+03  0.21569053716E+03  0.50400001928E-02 0.  1.
    10030    2    1    2    0    0  0.00000000000E+00  0.00000000000E+00  0.19163217209E+04  0.23477027951E+04  0.13562519959E+04 0.  0.
        5    1    3    3  502    0  0.63885334878E+03  0.22527151031E+03  0.10115685732E+04  0.12174456550E+04  0.46999998093E+01 0.  1.
       -5    1    3    3    0  502 -0.63885334878E+03 -0.22527151031E+03  0.90475314764E+03  0.11302571401E+04  0.46999998093E+01 0. -1.
</event>
<event>
 5   0  0.1706986E-03  0.1396128E+04  0.7818609E-02  0.8956626E-01
        2   -1    0    0  501    0  0.00000000000E+00  0.00000000000E+00  0.21308729327E+04  0.21308729327E+04  0.25500000920E-02 0.  1.
       -2   -1    0    0    0  501  0.00000000000E+00  0.00000000000E+00 -0.22868249244E+03  0.22868249246E+03  0.25500000920E-02 0. -1.
    10030    2    1    2    0    0  0.00000000000E+00  0.00000000000E+00  0.19021904402E+04  0.23595554251E+04  0.13961279789E+04 0.  0.
        3    1    3    3  502    0  0.16868883400E+03  0.23066713604E+03  0.20274861396E+04  0.20475261431E+04  0.10100000352E+00 0.  1.
       -3    1    3    3    0  502 -0.16868883400E+03 -0.23066713604E+03 -0.12529569934E+03  0.31202928202E+03  0.10100000352E+00 0. -1.
</event>
<event>
 5   0  0.1706986E-03  0.1320154E+04  0.7818609E-02  0.9013734E-01
        2   -1    0    0  501    0  0.00000000000E+00  0.00000000000E+00  0.82024687775E+03  0.82024687775E+03  0.25500000920E-02 0. -1.
       -2   -1    0    0    0  501  0.00000000000E+00  0.00000000000E+00 -0.53118345340E+03  0.53118345340E+03  0.25500000920E-02 0.  1.
    10030    2    1    2    0    0  0.00000000000E+00  0.00000000000E+00  0.28906342435E+03  0.13514303312E+04  0.13201538837E+04 0.  0.
        3    1    3    3  502    0 -0.13880955267E+03 -0.46129399437E+03  0.60648924538E+03  0.77452531019E+03  0.10100000352E+00 0. -1.
       -3    1    3    3    0  502  0.13880955267E+03  0.46129399437E+03 -0.31742582103E+03  0.57690502097E+03  0.10100000352E+00 0.  1.
</event>
<event>
 5   0  0.8673728E-04  0.1242092E+04  0.7818609E-02  0.9076791E-01
       -1   -1    0    0    0  501  0.00000000000E+00  0.00000000000E+00  0.41190857854E+03  0.41190857857E+03  0.50400001928E-02 0. -1.
        1   -1    0    0  501    0  0.00000000000E+00  0.00000000000E+00 -0.93636857450E+03  0.93636857451E+03  0.50400001928E-02 0.  1.
    10030    2    1    2    0    0  0.00000000000E+00  0.00000000000E+00 -0.52445999596E+03  0.13482771531E+04  0.12420921842E+04 0.  0.
        3    1    3    3  502    0 -0.19131129106E+03  0.39213684781E+03  0.21751051837E+03  0.48752656676E+03  0.10100000352E+00 0. -1.
       -3    1    3    3    0  502  0.19131129106E+03 -0.39213684781E+03 -0.74197051434E+03  0.86075058632E+03  0.10100000352E+00 0.  1.
</event>
<event>
 5   0  0.8502300E-04  0.1404907E+04  0.7818609E-02  0.8950274E-01
        1   -1    0    0  501    0  0.00000000000E+00  0.00000000000E+00  0.86412816374E+03  0.86412816376E+03  0.50400001928E-02 0. -1.
       -1   -1    0    0    0  501  0.00000000000E+00  0.00000000000E+00 -0.57102779537E+03  0.57102779539E+03  0.50400001928E-02 0.  1.
    10030    2    1    2    0    0  0.00000000000E+00  0.00000000000E+00  0.29310036838E+03  0.14351559591E+04  0.14049073995E+04 0.  0.
        4    1    3    3  502    0  0.66155098242E+03  0.23293864746E+03  0.10659969495E+03  0.70941893383E+03  0.12699999809E+01 0.  1.
       -4    1    3    3    0  502 -0.66155098242E+03 -0.23293864746E+03  0.18650067343E+03  0.72573702531E+03  0.12699999809E+01 0. -1.
</event>
<event>
 5   0  0.8609148E-04  0.1396558E+04  0.7818609E-02  0.8956314E-01
        1   -1    0    0  501    0  0.00000000000E+00  0.00000000000E+00  0.19045354598E+04  0.19045354598E+04  0.50400001928E-02 0. -1.
       -1   -1    0    0    0  501  0.00000000000E+00  0.00000000000E+00 -0.25601715697E+03  0.25601715702E+03  0.50400001928E-02 0.  1.
    10030    2    1    2    0    0  0.00000000000E+00  0.00000000000E+00  0.16485183028E+04  0.21605526168E+04  0.13965582750E+04 0.  0.
        5    1    3    3  502    0  0.38541146149E+03  0.52854279140E+03  0.12021720907E+04  0.13686267945E+04  0.46999998093E+01 0.  1.
       -5    1    3    3    0  502 -0.38541146149E+03 -0.52854279140E+03  0.44634621214E+03  0.79192582233E+03  0.46999998093E+01 0. -1.
</event>
<event>
 5   0  0.1648213E-03  0.1308975E+04  0.7818609E-02  0.9022478E-01
       -2   -1    0    0    0  501  0.00000000000E+00  0.00000000000E+00  0.32738177453E+03  0.32738177454E+03  0.25500000920E-02 0. -1.
        2   -1    0    0  501    0  0.00000000000E+00  0.00000000000E+00 -0.13084228433E+04  0.13084228433E+04  0.25500000920E-02 0.  1.
    10030    2    1    2    0    0  0.00000000000E+00  0.00000000000E+00 -0.98104106878E+03  0.16358046178E+04  0.13089748543E+04 0.  0.
        4    1    3    3  502    0 -0.56339894089E+03 -0.25609149067E+03 -0.22439081612E+03  0.65829633863E+03  0.12699999809E+01 0. -1.
       -4    1    3    3    0  502  0.56339894089E+03  0.25609149067E+03 -0.75665025266E+03  0.97750827922E+03  0.12699999809E+01 0.  1.
</event>
<event>
 5   0  0.1648213E-03  0.1420842E+04  0.7818609E-02  0.8938869E-01
       -2   -1    0    0    0  501  0.00000000000E+00  0.00000000000E+00  0.32147457783E+03  0.32147457784E+03  0.25500000920E-02 0.  1.
        2   -1    0    0  501    0  0.00000000000E+00  0.00000000000E+00 -0.15699460914E+04  0.15699460914E+04  0.25500000920E-02 0. -1.
    10030    2    1    2    0    0  0.00000000000E+00  0.00000000000E+00 -0.12484715136E+04  0.18914206693E+04  0.14208416618E+04 0.  0.
        4    1    3    3  502    0 -0.37366883631E+03 -0.13784713978E+03 -0.14073441134E+04  0.14626172772E+04  0.12699999809E+01 0. -1.
       -4    1    3    3    0  502  0.37366883631E+03  0.13784713978E+03  0.15887259980E+03  0.42880339206E+03  0.12699999809E+01 0.  1.
</event>
<event>
 5   0  0.1706986E-03  0.1409774E+04  0.7818609E-02  0.8946774E-01
       -2   -1    0    0    0  501  0.00000000000E+00  0.00000000000E+00  0.27763264108E+03  0.27763264109E+03  0.25500000920E-02 0.  1.
        2   -1    0    0  501    0  0.00000000000E+00  0.00000000000E+00 -0.17896509814E+04  0.17896509814E+04  0.25500000920E-02 0. -1.
    10030    2    1    2    0    0  0.00000000000E+00  0.00000000000E+00 -0.15120183403E+04  0.20672836225E+04  0.14097737813E+04 0.  0.
        3    1    3    3  502    0 -0.11515585993E+03  0.38999619200E+03 -0.16003103384E+04  0.16511665849E+04  0.10100000352E+00 0. -1.
       -3    1    3    3    0  502  0.11515585993E+03 -0.38999619200E+03  0.88291998038E+02  0.41611703759E+03  0.10100000352E+00 0.  1.
</event>
<event>
 5   0  0.9639548E-04  0.1404009E+04  0.7818609E-02  0.8950922E-01
       -1   -1    0    0    0  501  0.00000000000E+00  0.00000000000E+00  0.37135357645E+03  0.37135357648E+03  0.50400001928E-02 0.  1.
        1   -1    0    0  501    0  0.00000000000E+00  0.00000000000E+00 -0.13270643478E+04  0.13270643478E+04  0.50400001928E-02 0. -1.
    10030    2    1    2    0    0  0.00000000000E+00  0.00000000000E+00 -0.95571077137E+03  0.16984179243E+04  0.14040086777E+04 0.  0.
        1    1    3    3  502    0  0.40705546421E+03 -0.22002725988E+03  0.16077022517E+03  0.48985019278E+03  0.50400001928E-02 0.  1.
       -1    1    3    3    0  502 -0.40705546421E+03  0.22002725988E+03 -0.11164809965E+04  0.12085677315E+04  0.50400001928E-02 0. -1.
</event>
<event>
 5   0  0.1648213E-03  0.1394144E+04  0.7818609E-02  0.8958068E-01
        2   -1    0    0  501    0  0.00000000000E+00  0.00000000000E+00  0.28460268012E+04  0.28460268012E+04  0.25500000920E-02 0.  1.
       -2   -1    0    0    0  501  0.00000000000E+00  0.00000000000E+00 -0.17073249703E+03  0.17073249705E+03  0.25500000920E-02 0. -1.
    10030    2    1    2    0    0  0.00000000000E+00  0.00000000000E+00  0.26752943041E+04  0.30167592982E+04  0.13941438411E+04 0.  0.
        4    1    3    3  502    0  0.39347906880E+02  0.47865683387E+02 -0.16475898203E+03  0.17602987383E+03  0.12699999809E+01 0. -1.
       -4    1    3    3    0  502 -0.39347906880E+02 -0.47865683387E+02  0.28400532862E+04  0.28407294244E+04  0.12699999809E+01 0.  1.
</event>
<event>
 5   0  0.8502300E-04  0.1389538E+04  0.7818609E-02  0.8961426E-01
       -1   -1    0    0    0  501  0.00000000000E+00  0.00000000000E+00  0.62293186628E+03  0.62293186630E+03  0.50400001928E-02 0.  1.
        1   -1    0    0  501    0  0.00000000000E+00  0.00000000000E+00 -0.77489071791E+03  0.77489071793E+03  0.50400001928E-02 0. -1.
    10030    2    1    2    0    0  0.00000000000E+00  0.00000000000E+00 -0.15195885163E+03  0.13978225842E+04  0.13895382270E+04 0.  0.
        4    1    3    3  502    0  0.48409690491E+03  0.21469525418E+02 -0.57683509565E+03  0.75335987041E+03  0.12699999809E+01 0. -1.
       -4    1    3    3    0  502 -0.48409690491E+03 -0.21469525418E+02  0.42487624402E+03  0.64446271382E+03  0.12699999809E+01 0.  1.
</event>
<event>
 5   0  0.1648463E-03  0.1375986E+04  0.7818609E-02  0.8971387E-01
       -2   -1    0    0    0  501  0.00000000000E+00  0.00000000000E+00  0.33214449582E+03  0.33214449583E+03  0.25500000920E-02 0. -1.
        2   -1    0    0  501    0  0.00000000000E+00  0.00000000000E+00 -0.14250857744E+04  0.14250857744E+04  0.25500000920E-02 0.  1.
    10030    2    1    2    0    0  0.00000000000E+00  0.00000000000E+00 -0.10929412786E+04  0.17572302702E+04  0.13759860407E+04 0.  0.
        1    1    3    3  502    0 -0.18174362437E+02 -0.12015156920E+03  0.31833073921E+03  0.34073621261E+03  0.50400001928E-02 0. -1.
       -1    1    3    3    0  502  0.18174362437E+02  0.12015156920E+03 -0.14112720178E+04  0.14164940576E+04  0.50400001928E-02 0.  1.
</event>
<event>
 5   0  0.1605214E-03  0.1402400E+04  0.7818609E-02  0.8952083E-01
        2   -1    0    0  501    0  0.00000000000E+00  0.00000000000E+00  0.12602679858E+04  0.12602679858E+04  0.25500000920E-02 0.  1.
       -2   -1    0    0    0  501  0.00000000000E+00  0.00000000000E+00 -0.39014062632E+03  0.39014062633E+03  0.25500000920E-02 0. -1.
    10030    2    1    2    0    0  0.00000000000E+00  0.00000000000E+00  0.87012735949E+03  0.16504086121E+04  0.14024004297E+04 0.  0.
        5    1    3    3  502    0 -0.41672468510E+03 -0.48470308330E+03  0.77423844787E+03  0.10040238076E+04  0.46999998093E+01 0. -1.
       -5    1    3    3    0  502  0.41672468510E+03  0.48470308330E+03  0.95888911627E+02  0.64638480451E+03  0.46999998093E+01 0.  1.
</event>
<event>
 5   0  0.9639548E-04  0.1401605E+04  0.7818609E-02  0.8952657E-01
        1   -1    0    0  501    0  0.00000000000E+00  0.00000000000E+00  0.52425433027E+03  0.52425433030E+03  0.50400001928E-02 0. -1.
       -1   -1    0    0    0  501  0.00000000000E+00  0.00000000000E+00 -0.93680554212E+03  0.93680554214E+03  0.50400001928E-02 0.  1.
    10030    2    1    2    0    0  0.00000000000E+00  0.00000000000E+00 -0.41255121185E+03  0.14610598724E+04  0.14016053112E+04 0.  0.
        1    1    3    3  502    0  0.35396860343E+03  0.21441596590E+03  0.38327323497E+03  0.56406236474E+03  0.50400001928E-02 0. -1.
       -1    1    3    3    0  502 -0.35396860343E+03 -0.21441596590E+03 -0.79582444681E+03  0.89699750770E+03  0.50400001928E-02 0.  1.
</event>
<event>
 5   0  0.9639548E-04  0.1377769E+04  0.7818609E-02  0.8970070E-01
       -1   -1    0    0    0  501  0.00000000000E+00  0.00000000000E+00  0.11391139947E+04  0.11391139947E+04  0.50400001928E-02 0. -1.
        1   -1    0    0  501    0  0.00000000000E+00  0.00000000000E+00 -0.41660582291E+03  0.41660582295E+03  0.50400001928E-02 0.  1.
    10030    2    1    2    0    0  0.00000000000E+00  0.00000000000E+00  0.72250817177E+03  0.15557198176E+04  0.13777685193E+04 0.  0.
        1    1    3    3  502    0 -0.42577038577E+03  0.54047474456E+03  0.39984675823E+03  0.79578313691E+03  0.50400001928E-02 0.  1.
       -1    1    3    3    0  502  0.42577038577E+03 -0.54047474456E+03  0.32266141354E+03  0.75993668073E+03  0.50400001928E-02 0. -1.
</event>
<event>
 5   0  0.8502300E-04  0.1384771E+04  0.7818609E-02  0.8964916E-01
       -1   -1    0    0    0  501  0.00000000000E+00  0.00000000000E+00  0.44158483354E+03  0.44158483356E+03  0.50400001928E-02 0.  1.
        1   -1    0    0  501    0  0.00000000000E+00  0.00000000000E+00 -0.10856304862E+04  0.10856304862E+04  0.50400001928E-02 0. -1.
    10030    2    1    2    0    0  0.00000000000E+00  0.00000000000E+00 -0.64404565261E+03  0.15272153197E+04  0.13847714000E+04 0.  0.
        4    1    3    3  502    0  0.64251354575E+03 -0.21830744383E+03 -0.47369998053E+03  0.82757179807E+03  0.12699999809E+01 0. -1.
       -4    1    3    3    0  502 -0.64251354575E+03  0.21830744383E+03 -0.17034567209E+03  0.69964352166E+03  0.12699999809E+01 0.  1.
</event>
<event>
 5   0  0.1648213E-03  0.1389659E+04  0.7818609E-02  0.8961338E-01
       -2   -1    0    0    0  501  0.00000000000E+00  0.00000000000E+00  0.86248411768E+03  0.86248411768E+03  0.25500000920E-02 0.  1.
        2   -1    0    0  501    0  0.00000000000E+00  0.00000000000E+00 -0.55976417936E+03  0.55976417937E+03  0.25500000920E-02 0. -1.
    10030    2    1    2    0    0  0.00000000000E+00  0.00000000000E+00  0.30271993831E+03  0.14222482971E+04  0.13896585399E+04 0.  0.
        4    1    3    3  502    0 -0.66194603840E+03 -0.19845118652E+03  0.77340495328E+02  0.69536939558E+03  0.12699999809E+01 0.  1.
       -4    1    3    3    0  502  0.66194603840E+03  0.19845118652E+03  0.22537944299E+03  0.72687890147E+03  0.12699999809E+01 0. -1.
</event>
<event>
 5   0  0.9639548E-04  0.1406136E+04  0.7818609E-02  0.8949389E-01
       -1   -1    0    0    0  501  0.00000000000E+00  0.00000000000E+00  0.22909658272E+03  0.22909658278E+03  0.50400001928E-02 0.  1.
        1   -1    0    0  501    0  0.00000000000E+00  0.00000000000E+00 -0.21576240961E+04  0.21576240961E+04  0.50400001928E-02 0. -1.
    10030    2    1    2    0    0  0.00000000000E+00  0.00000000000E+00 -0.19285275134E+04  0.23867206789E+04  0.14061355657E+04 0.  0.
        1    1    3    3  502    0 -0.30041075889E+03 -0.18593903201E+03  0.67481384815E+02  0.35968553627E+03  0.50400001928E-02 0.  1.
       -1    1    3    3    0  502  0.30041075889E+03  0.18593903201E+03 -0.19960088982E+04  0.20270351426E+04  0.50400001928E-02 0. -1.
</event>
<event>
 5   0  0.1648463E-03  0.1389324E+04  0.7818609E-02  0.8961583E-01
       -2   -1    0    0    0  501  0.00000000000E+00  0.00000000000E+00  0.41521897456E+03  0.41521897457E+03  0.25500000920E-02 0. -1.
        2   -1    0    0  501    0  0.00000000000E+00  0.00000000000E+00 -0.11621705858E+04  0.11621705858E+04  0.25500000920E-02 0.  1.
    10030    2    1    2    0    0  0.00000000000E+00  0.00000000000E+00 -0.74695161121E+03  0.15773895603E+04  0.13893239779E+04 0.  0.
        1    1    3    3  502    0 -0.30364423016E+03 -0.52219775539E+03  0.15980747102E+02  0.60427286763E+03  0.50400001928E-02 0. -1.
       -1    1    3    3    0  502  0.30364423016E+03  0.52219775539E+03 -0.76293235831E+03  0.97311669271E+03  0.50400001928E-02 0.  1.
</event>
<event>
 5   0  0.6048000E-04  0.1397119E+04  0.7818609E-02  0.8955907E-01
        3   -1    0    0  501    0  0.00000000000E+00  0.00000000000E+00  0.53504065550E+03  0.53504066504E+03  0.10100000352E+00 0. -1.
       -3   -1    0    0    0  501  0.00000000000E+00  0.00000000000E+00 -0.91205223464E+03  0.91205224024E+03  0.10100000352E+00 0.  1.
    10030    2    1    2    0    0  0.00000000000E+00  0.00000000000E+00 -0.37701157914E+03  0.14470929053E+04  0.13971185153E+04 0.  0.
        3    1    3    3  502    0  0.28986134363E+03  0.62760273748E+03 -0.29249742816E+03  0.75063942762E+03  0.10100000352E+00 0. -1.
       -3    1    3    3    0  502 -0.28986134363E+03 -0.62760273748E+03 -0.84514150979E+02  0.69645347765E+03  0.10100000352E+00 0.  1.
</event>
<event>
 5   0  0.6048000E-04  0.1443392E+04  0.7818609E-02  0.8922995E-01
       -3   -1    0    0    0  501  0.00000000000E+00  0.00000000000E+00  0.39103474757E+03  0.39103476061E+03  0.10100000352E+00 0. -1.
        3   -1    0    0  501    0  0.00000000000E+00  0.00000000000E+00 -0.13319657523E+04  0.13319657562E+04  0.10100000352E+00 0.  1.
    10030    2    1    2    0    0  0.00000000000E+00  0.00000000000E+00 -0.94093100478E+03  0.17230005168E+04  0.14433917088E+04 0.  0.
        2    1    3    3  502    0  0.75387578770E+02 -0.34117556855E+03  0.28333679777E+03  0.44984863741E+03  0.25500000920E-02 0. -1.
       -2    1    3    3    0  502 -0.75387578770E+02  0.34117556855E+03 -0.12242678025E+04  0.12731518794E+04  0.25500000920E-02 0.  1.
</event>
<event>
 5   0  0.1706986E-03  0.1407058E+04  0.7818609E-02  0.8948725E-01
        2   -1    0    0  501    0  0.00000000000E+00  0.00000000000E+00  0.12147586201E+04  0.12147586201E+04  0.25500000920E-02 0. -1.
       -2   -1    0    0    0  501  0.00000000000E+00  0.00000000000E+00 -0.40744988963E+03  0.40744988964E+03  0.25500000920E-02 0.  1.
    10030    2    1    2    0    0  0.00000000000E+00  0.00000000000E+00  0.80730873051E+03  0.16222085098E+04  0.14070583012E+04 0.  0.
        3    1    3    3  502    0  0.22734022067E+03 -0.53745835774E+03 -0.49378546115E+02  0.58564777235E+03  0.10100000352E+00 0.  1.
       -3    1    3    3    0  502 -0.22734022067E+03  0.53745835774E+03  0.85668727662E+03  0.10365607374E+04  0.10100000352E+00 0. -1.
</event>
<event>
 5   0  0.9639548E-04  0.1435339E+04  0.7818609E-02  0.8928628E-01
        1   -1    0    0  501    0  0.00000000000E+00  0.00000000000E+00  0.70420676385E+03  0.70420676387E+03  0.50400001928E-02 0. -1.
       -1   -1    0    0    0  501  0.00000000000E+00  0.00000000000E+00 -0.73138973644E+03  0.73138973645E+03  0.50400001928E-02 0.  1.
    10030    2    1    2    0    0  0.00000000000E+00  0.00000000000E+00 -0.27182972582E+02  0.14355965003E+04  0.14353391229E+04 0.  0.
        1    1    3    3  502    0  0.26479244502E+02  0.74868669001E+01  0.70367893187E+03  0.70421675835E+03  0.50400001928E-02 0. -1.
       -1    1    3    3    0  502 -0.26479244502E+02 -0.74868669001E+01 -0.73086190445E+03  0.73137974197E+03  0.50400001928E-02 0.  1.
</event>
<event>
 5   0  0.6048000E-04  0.1527181E+04  0.7818609E-02  0.8866577E-01
       -3   -1    0    0    0  501  0.00000000000E+00  0.00000000000E+00  0.64383321190E+03  0.64383321983E+03  0.10100000352E+00 0. -1.
        3   -1    0    0  501    0  0.00000000000E+00  0.00000000000E+00 -0.90562306138E+03  0.90562306701E+03  0.10100000352E+00 0.  1.
    10030    2    1    2    0    0  0.00000000000E+00  0.00000000000E+00 -0.26178984948E+03  0.15494562868E+04  0.15271806899E+04 0.  0.
        2    1    3    3  502    0  0.42589524817E+03  0.33815130289E+03  0.41296216378E+03  0.68284025568E+03  0.25500000920E-02 0. -1.
       -2    1    3    3    0  502 -0.42589524817E+03 -0.33815130289E+03 -0.67475201325E+03  0.86661603116E+03  0.25500000920E-02 0.  1.
</event>
<event>
 5   0  0.1605214E-03  0.1401577E+04  0.7818609E-02  0.8952678E-01
       -2   -1    0    0    0  501  0.00000000000E+00  0.00000000000E+00  0.38663726136E+03  0.38663726137E+03  0.25500000920E-02 0.  1.
        2   -1    0    0  501    0  0.00000000000E+00  0.00000000000E+00 -0.12701942891E+04  0.12701942891E+04  0.25500000920E-02 0. -1.
    10030    2    1    2    0    0  0.00000000000E+00  0.00000000000E+00 -0.88355702769E+03  0.16568315504E+04  0.14015768853E+04 0.  0.
        5    1    3    3  502    0 -0.67691592642E+03  0.16406937607E+03 -0.53295067127E+03  0.87703616779E+03  0.46999998093E+01 0. -1.
       -5    1    3    3    0  502  0.67691592642E+03 -0.16406937607E+03 -0.35060635642E+03  0.77979538263E+03  0.46999998093E+01 0.  1.
</event>
<event>
 5   0  0.9639548E-04  0.1381507E+04  0.7818609E-02  0.8967314E-01
       -1   -1    0    0    0  501  0.00000000000E+00  0.00000000000E+00  0.12124455974E+04  0.12124455974E+04  0.50400001928E-02 0.  1.
        1   -1    0    0  501    0  0.00000000000E+00  0.00000000000E+00 -0.39353570554E+03  0.39353570557E+03  0.50400001928E-02 0. -1.
    10030    2    1    2    0    0  0.00000000000E+00  0.00000000000E+00  0.81890989181E+03  0.16059813029E+04  0.13815073414E+04 0.  0.
        1    1    3    3  502    0 -0.28795529174E+02 -0.66675458257E+03  0.20231796962E+03  0.69736892441E+03  0.50400001928E-02 0.  1.
       -1    1    3    3    0  502  0.28795529174E+02  0.66675458257E+03  0.61659192220E+03  0.90861237853E+03  0.50400001928E-02 0. -1.
</event>
<event>
 5   0  0.8609148E-04  0.1403054E+04  0.7818609E-02  0.8951611E-01
       -1   -1    0    0    0  501  0.00000000000E+00  0.00000000000E+00  0.17339611944E+03  0.17339611951E+03  0.50400001928E-02 0. -1.
        1   -1    0    0  501    0  0.00000000000E+00  0.00000000000E+00 -0.28382438136E+04  0.28382438136E+04  0.50400001928E-02 0.  1.
    10030    2    1    2    0    0  0.00000000000E+00  0.00000000000E+00 -0.26648476942E+04  0.30116399331E+04  0.14030544728E+04 0.  0.
        5    1    3    3  502    0  0.27373078084E+03  0.61517580082E+03 -0.90989502579E+03  0.11319456057E+04  0.46999998093E+01 0. -1.
       -5    1    3    3    0  502 -0.27373078084E+03 -0.61517580082E+03 -0.17549526684E+04  0.18796943274E+04  0.46999998093E+01 0.  1.
</event>
<event>
 5   0  0.8673728E-04  0.1376165E+04  0.7818609E-02  0.8971255E-01
       -1   -1    0    0    0  501  0.00000000000E+00  0.00000000000E+00  0.43348760074E+03  0.43348760077E+03  0.50400001928E-02 0.  1.
        1   -1    0    0  501    0  0.00000000000E+00  0.00000000000E+00 -0.10922052862E+04  0.10922052862E+04  0.50400001928E-02 0. -1.
    10030    2    1    2    0    0  0.00000000000E+00  0.00000000000E+00 -0.65871768543E+03  0.15256928869E+04  0.13761648870E+04 0.  0.
        3    1    3    3  502    0  0.26211051087E+02  0.32240023483E+01  0.43292554056E+03  0.43373027017E+03  0.10100000352E+00 0.  1.
       -3    1    3    3    0  502 -0.26211051087E+02 -0.32240023483E+01 -0.10916432260E+04  0.10919626168E+04  0.10100000352E+00 0. -1.
</event>
<event>
 5   0  0.1648213E-03  0.1389340E+04  0.7818609E-02  0.8961571E-01
        2   -1    0    0  501    0  0.00000000000E+00  0.00000000000E+00  0.81833406546E+03  0.81833406546E+03  0.25500000920E-02 0. -1.
       -2   -1    0    0    0  501  0.00000000000E+00  0.00000000000E+00 -0.58969345711E+03  0.58969345711E+03  0.25500000920E-02 0.  1.
    10030    2    1    2    0    0  0.00000000000E+00  0.00000000000E+00  0.22864060835E+03  0.14080275226E+04  0.13893397628E+04 0.  0.
        4    1    3    3  502    0  0.12553007239E+03  0.15228062675E+03  0.78932529776E+03  0.81362351671E+03  0.12699999809E+01 0. -1.
       -4    1    3    3    0  502 -0.12553007239E+03 -0.15228062675E+03 -0.56068468940E+03  0.59440400587E+03  0.12699999809E+01 0.  1.
</event>
<event>
 5   0  0.9007180E-04  0.1403371E+04  0.7818609E-02  0.8951382E-01
       -1   -1    0    0    0  501  0.00000000000E+00  0.00000000000E+00  0.38938239162E+03  0.38938239165E+03  0.50400001928E-02 0.  1.
        1   -1    0    0  501    0  0.00000000000E+00  0.00000000000E+00 -0.12644703826E+04  0.12644703826E+04  0.50400001928E-02 0. -1.
    10030    2    1    2    0    0  0.00000000000E+00  0.00000000000E+00 -0.87508799100E+03  0.16538527743E+04  0.14033709442E+04 0.  0.
        2    1    3    3  502    0  0.72206282100E+02  0.10155147431E+03 -0.12513275473E+04  0.12575162344E+04  0.25500000920E-02 0. -1.
       -2    1    3    3    0  502 -0.72206282100E+02 -0.10155147431E+03  0.37623955631E+03  0.39633653988E+03  0.25500000920E-02 0.  1.
</event>
<event>
 5   0  0.6048000E-04  0.1265970E+04  0.7818609E-02  0.9056996E-01
        3   -1    0    0  501    0  0.00000000000E+00  0.00000000000E+00  0.54285850892E+03  0.54285851831E+03  0.10100000352E+00 0. -1.
       -3   -1    0    0    0  501  0.00000000000E+00  0.00000000000E+00 -0.73807405894E+03  0.73807406585E+03  0.10100000352E+00 0.  1.
    10030    2    1    2    0    0  0.00000000000E+00  0.00000000000E+00 -0.19521555002E+03  0.12809325842E+04  0.12659696577E+04 0.  0.
        1    1    3    3  502    0  0.28672160495E+03 -0.37938883551E+02 -0.66730892889E+03  0.72728938135E+03  0.50400001928E-02 0.  1.
       -1    1    3    3    0  502 -0.28672160495E+03  0.37938883551E+02  0.47209337886E+03  0.55364320282E+03  0.50400001928E-02 0. -1.
</event>
<event>
 5   0  0.1648463E-03  0.1314357E+04  0.7818609E-02  0.9018257E-01
       -2   -1    0    0    0  501  0.00000000000E+00  0.00000000000E+00  0.49897655021E+03  0.49897655022E+03  0.25500000920E-02 0. -1.
        2   -1    0    0  501    0  0.00000000000E+00  0.00000000000E+00 -0.86553819287E+03  0.86553819288E+03  0.25500000920E-02 0.  1.
    10030    2    1    2    0    0  0.00000000000E+00  0.00000000000E+00 -0.36656164266E+03  0.13645147431E+04  0.13143565141E+04 0.  0.
        1    1    3    3  502    0  0.44107453585E+03  0.45416400074E+03 -0.28267523940E+00  0.63309696388E+03  0.50400001928E-02 0.  1.
       -1    1    3    3    0  502 -0.44107453585E+03 -0.45416400074E+03 -0.36627896742E+03  0.73141777921E+03  0.50400001928E-02 0. -1.
</event>
<event>
 5   0  0.1648213E-03  0.1378952E+04  0.7818609E-02  0.8969197E-01
        2   -1    0    0  501    0  0.00000000000E+00  0.00000000000E+00  0.27645218607E+04  0.27645218607E+04  0.25500000920E-02 0.  1.
       -2   -1    0    0    0  501  0.00000000000E+00  0.00000000000E+00 -0.17195641691E+03  0.17195641693E+03  0.25500000920E-02 0. -1.
    10030    2    1    2    0    0  0.00000000000E+00  0.00000000000E+00  0.25925654438E+04  0.29364782777E+04  0.13789521727E+04 0.  0.
        4    1    3    3  502    0  0.41841692454E+03  0.43088994821E+03  0.57527552714E+03  0.83167446470E+03  0.12699999809E+01 0.  1.
       -4    1    3    3    0  502 -0.41841692454E+03 -0.43088994821E+03  0.20172899167E+04  0.21048038130E+04  0.12699999809E+01 0. -1.
</event>
<event>
 5   0  0.1648213E-03  0.1387117E+04  0.7818609E-02  0.8963197E-01
       -2   -1    0    0    0  501  0.00000000000E+00  0.00000000000E+00  0.39577648191E+03  0.39577648192E+03  0.25500000920E-02 0.  1.
        2   -1    0    0  501    0  0.00000000000E+00  0.00000000000E+00 -0.12153908785E+04  0.12153908785E+04  0.25500000920E-02 0. -1.
    10030    2    1    2    0    0  0.00000000000E+00  0.00000000000E+00 -0.81961439656E+03  0.16111673604E+04  0.13871166152E+04 0.  0.
        4    1    3    3  502    0  0.63407519201E+02 -0.68060292909E+03 -0.27345486527E+03  0.73622010079E+03  0.12699999809E+01 0.  1.
       -4    1    3    3    0  502 -0.63407519201E+02  0.68060292909E+03 -0.54615953129E+03  0.87494725960E+03  0.12699999809E+01 0. -1.
</event>
<event>
 5   0  0.1578965E-03  0.1394545E+04  0.7818609E-02  0.8957776E-01
        2   -1    0    0  501    0  0.00000000000E+00  0.00000000000E+00  0.74215012058E+03  0.74215012059E+03  0.25500000920E-02 0.  1.
       -2   -1    0    0    0  501  0.00000000000E+00  0.00000000000E+00 -0.65510887513E+03  0.65510887514E+03  0.25500000920E-02 0. -1.
    10030    2    1    2    0    0  0.00000000000E+00  0.00000000000E+00  0.87041245452E+02  0.13972589957E+04  0.13945452745E+04 0.  0.
        2    1    3    3  502    0  0.35649789650E+03  0.49412756803E+03  0.38320295058E+03  0.71978976447E+03  0.25500000920E-02 0.  1.
       -2    1    3    3    0  502 -0.35649789650E+03 -0.49412756803E+03 -0.29616170513E+03  0.67746923125E+03  0.25500000920E-02 0. -1.
</event>
<event>
 5   0  0.1706986E-03  0.1340081E+04  0.7818609E-02  0.8998370E-01
       -2   -1    0    0    0  501  0.00000000000E+00  0.00000000000E+00  0.85275231611E+03  0.85275231611E+03  0.25500000920E-02 0. -1.
        2   -1    0    0  501    0  0.00000000000E+00  0.00000000000E+00 -0.52647706294E+03  0.52647706294E+03  0.25500000920E-02 0.  1.
    10030    2    1    2    0    0  0.00000000000E+00  0.00000000000E+00  0.32627525317E+03  0.13792293791E+04  0.13400813928E+04 0.  0.
        3    1    3    3  502    0 -0.17416361990E+03  0.41133346522E+03 -0.35087818472E+03  0.56801733849E+03  0.10100000352E+00 0.  1.
       -3    1    3    3    0  502  0.17416361990E+03 -0.41133346522E+03  0.67715343790E+03  0.81121204057E+03  0.10100000352E+00 0. -1.
</event>
<event>
 5   0  0.8673728E-04  0.1528629E+04  0.7818609E-02  0.8865635E-01
        1   -1    0    0  501    0  0.00000000000E+00  0.00000000000E+00  0.97293639115E+03  0.97293639116E+03  0.50400001928E-02 0.  1.
       -1   -1    0    0    0  501  0.00000000000E+00  0.00000000000E+00 -0.60042660723E+03  0.60042660725E+03  0.50400001928E-02 0. -1.
    10030    2    1    2    0    0  0.00000000000E+00  0.00000000000E+00  0.37250978392E+03  0.15733629984E+04  0.15286293160E+04 0.  0.
        3    1    3    3  502    0  0.67092875827E+03 -0.26370863487E+03 -0.75123925772E+02  0.72479739045E+03  0.10100000352E+00 0. -1.
       -3    1    3    3    0  502 -0.67092875827E+03  0.26370863487E+03  0.44763370969E+03  0.84856560797E+03  0.10100000352E+00 0.  1.
</event>
<event>
 5   0  0.8502300E-04  0.1416823E+04  0.7818609E-02  0.8941730E-01
        1   -1    0    0  501    0  0.00000000000E+00  0.00000000000E+00  0.21682771755E+04  0.21682771755E+04  0.50400001928E-02 0.  1.
       -1   -1    0    0    0  501  0.00000000000E+00  0.00000000000E+00 -0.23144965120E+03  0.23144965126E+03  0.50400001928E-02 0. -1.
    10030    2    1    2    0    0  0.00000000000E+00  0.00000000000E+00  0.19368275243E+04  0.23997268267E+04  0.14168232014E+04 0.  0.
        4    1    3    3  502    0  0.49374836685E+03 -0.64916891894E+01  0.18287521273E+04  0.18942453769E+04  0.12699999809E+01 0.  1.
       -4    1    3    3    0  502 -0.49374836685E+03  0.64916891894E+01  0.10807539694E+03  0.50548144983E+03  0.12699999809E+01 0. -1.
</event>
<event>
 5   0  0.1706986E-03  0.1398913E+04  0.7818609E-02  0.8954606E-01
        2   -1    0    0  501    0  0.00000000000E+00  0.00000000000E+00  0.41441248060E+03  0.41441248060E+03  0.25500000920E-02 0. -1.
       -2   -1    0    0    0  501  0.00000000000E+00  0.00000000000E+00 -0.11805615536E+04  0.11805615536E+04  0.25500000920E-02 0.  1.
    10030    2    1    2    0    0  0.00000000000E+00  0.00000000000E+00 -0.76614907301E+03  0.15949740342E+04  0.13989130665E+04 0.  0.
        3    1    3    3  502    0 -0.36193526373E+03 -0.41212673258E+03  0.11180130650E+03  0.55977238336E+03  0.10100000352E+00 0. -1.
       -3    1    3    3    0  502  0.36193526373E+03  0.41212673258E+03 -0.87795037950E+03  0.10352016508E+04  0.10100000352E+00 0.  1.
</event>
<event>
 5   0  0.1578965E-03  0.1389030E+04  0.7818609E-02  0.8961798E-01
        2   -1    0    0  501    0  0.00000000000E+00  0.00000000000E+00  0.27464568476E+04  0.27464568476E+04  0.25500000920E-02 0.  1.
       -2   -1    0    0    0  501  0.00000000000E+00  0.00000000000E+00 -0.17562666014E+03  0.17562666016E+03  0.25500000920E-02 0. -1.
    10030    2    1    2    0    0  0.00000000000E+00  0.00000000000E+00  0.25708301875E+04  0.29220835078E+04  0.13890299398E+04 0.  0.
        2    1    3    3  502    0 -0.15148507450E+03 -0.21328182578E+02 -0.13974271856E+03  0.20719712007E+03  0.25500000920E-02 0. -1.
       -2    1    3    3    0  502  0.15148507450E+03  0.21328182578E+02  0.27105729060E+04  0.27148863877E+04  0.25500000920E-02 0.  1.
</event>
<event>
 5   0  0.9639548E-04  0.1418229E+04  0.7818609E-02  0.8940728E-01
       -1   -1    0    0    0  501  0.00000000000E+00  0.00000000000E+00  0.48488036826E+03  0.48488036829E+03  0.50400001928E-02 0. -1.
        1   -1    0    0  501    0  0.00000000000E+00  0.00000000000E+00 -0.10370469112E+04  0.10370469112E+04  0.50400001928E-02 0.  1.
    10030    2    1    2    0    0  0.00000000000E+00  0.00000000000E+00 -0.55216654293E+03  0.15219272795E+04  0.14182294430E+04 0.  0.
        1    1    3    3  502    0 -0.16769408595E+03 -0.24093382072E+03  0.41661679254E+03  0.50964690157E+03  0.50400001928E-02 0. -1.
       -1    1    3    3    0  502  0.16769408595E+03  0.24093382072E+03 -0.96878333547E+03  0.10122803779E+04  0.50400001928E-02 0.  1.
</event>
<event>
 5   0  0.1648463E-03  0.1400020E+04  0.7818609E-02  0.8953804E-01
        2   -1    0    0  501    0  0.00000000000E+00  0.00000000000E+00  0.14004988648E+04  0.14004988648E+04  0.25500000920E-02 0.  1.
       -2   -1    0    0    0  501  0.00000000000E+00  0.00000000000E+00 -0.34988507582E+03  0.34988507583E+03  0.25500000920E-02 0. -1.
    10030    2    1    2    0    0  0.00000000000E+00  0.00000000000E+00  0.10506137890E+04  0.17503839407E+04  0.14000195020E+04 0.  0.
        1    1    3    3  502    0  0.57903971576E+03 -0.83701365465E+02  0.10058363041E+04  0.11636148769E+04  0.50400001928E-02 0. -1.
       -1    1    3    3    0  502 -0.57903971576E+03  0.83701365465E+02  0.44777484884E+02  0.58676906376E+03  0.50400001928E-02 0.  1.
</event>
<event>
 5   0  0.9007180E-04  0.1434227E+04  0.7818609E-02  0.8929409E-01
        1   -1    0    0  501    0  0.00000000000E+00  0.00000000000E+00  0.11270975906E+04  0.11270975906E+04  0.50400001928E-02 0. -1.
       -1   -1    0    0    0  501  0.00000000000E+00  0.00000000000E+00 -0.45626197553E+03  0.45626197556E+03  0.50400001928E-02 0.  1.
    10030    2    1    2    0    0  0.00000000000E+00  0.00000000000E+00  0.67083561504E+03  0.15833595661E+04  0.14342270020E+04 0.  0.
        2    1    3    3  502    0 -0.35481219574E+03 -0.48789012699E+03  0.76344840029E+03  0.97302719909E+03  0.25500000920E-02 0. -1.
       -2    1    3    3    0  502  0.35481219574E+03  0.48789012699E+03 -0.92612785252E+02  0.61033236704E+03  0.25500000920E-02 0.  1.
</event>
<event>
 5   0  0.1605214E-03  0.1418560E+04  0.7818609E-02  0.8940493E-01
       -2   -1    0    0    0  501  0.00000000000E+00  0.00000000000E+00  0.23270806007E+03  0.23270806008E+03  0.25500000920E-02 0. -1.
        2   -1    0    0  501    0  0.00000000000E+00  0.00000000000E+00 -0.21618412518E+04  0.21618412518E+04  0.25500000920E-02 0.  1.
    10030    2    1    2    0    0  0.00000000000E+00  0.00000000000E+00 -0.19291331917E+04  0.23945493118E+04  0.14185596694E+04 0.  0.
        5    1    3    3  502    0 -0.35348073849E+03 -0.34123282300E+03 -0.10108930265E+03  0.50162696208E+03  0.46999998093E+01 0. -1.
       -5    1    3    3    0  502  0.35348073849E+03  0.34123282300E+03 -0.18280438890E+04  0.18929223498E+04  0.46999998093E+01 0.  1.
</event>
<event>
 5   0  0.9007180E-04  0.1397924E+04  0.7818609E-02  0.8955323E-01
        1   -1    0    0  501    0  0.00000000000E+00  0.00000000000E+00  0.12205586085E+04  0.12205586085E+04  0.50400001928E-02 0.  1.
       -1   -1    0    0    0  501  0.00000000000E+00  0.00000000000E+00 -0.40026588911E+03  0.40026588914E+03  0.50400001928E-02 0. -1.
    10030    2    1    2    0    0  0.00000000000E+00  0.00000000000E+00  0.82029271938E+03  0.16208244976E+04  0.13979241420E+04 0.  0.
        2    1    3    3  502    0 -0.43905114594E+03  0.48638568282E+03  0.69227924799E+03  0.95319856190E+03  0.25500000920E-02 0.  1.
       -2    1    3    3    0  502  0.43905114594E+03 -0.48638568282E+03  0.12801347139E+03  0.66762593573E+03  0.25500000920E-02 0. -1.
</event>
<event>
 5   0  0.8673728E-04  0.1417683E+04  0.7818609E-02  0.8941117E-01
        1   -1    0    0  501    0  0.00000000000E+00  0.00000000000E+00  0.82899787254E+03  0.82899787256E+03  0.50400001928E-02 0. -1.
       -1   -1    0    0    0  501  0.00000000000E+00  0.00000000000E+00 -0.60610062948E+03  0.60610062950E+03  0.50400001928E-02 0.  1.
    10030    2    1    2    0    0  0.00000000000E+00  0.00000000000E+00  0.22289724306E+03  0.14350985021E+04  0.14176828029E+04 0.  0.
        3    1    3    3  502    0  0.60361051736E+03  0.21594160564E+03  0.41762027419E+03  0.76510335075E+03  0.10100000352E+00 0. -1.
       -3    1    3    3    0  502 -0.60361051736E+03 -0.21594160564E+03 -0.19472303113E+03  0.66999515130E+03  0.10100000352E+00 0.  1.
</event>
<event>
 5   0  0.8609148E-04  0.1386656E+04  0.7818609E-02  0.8963535E-01
       -1   -1    0    0    0  501  0.00000000000E+00  0.00000000000E+00  0.97420489906E+03  0.97420489908E+03  0.50400001928E-02 0.  1.
        1   -1    0    0  501    0  0.00000000000E+00  0.00000000000E+00 -0.49343155353E+03  0.49343155355E+03  0.50400001928E-02 0. -1.
    10030    2    1    2    0    0  0.00000000000E+00  0.00000000000E+00  0.48077334554E+03  0.14676364526E+04  0.13866555979E+04 0.  0.
        5    1    3    3  502    0 -0.31211615115E+03  0.45147019446E+03 -0.20795481482E+03  0.58694899549E+03  0.46999998093E+01 0. -1.
       -5    1    3    3    0  502  0.31211615115E+03 -0.45147019446E+03  0.68872816036E+03  0.88068745714E+03  0.46999998093E+01 0.  1.
</event>
<event>
 5   0  0.1648463E-03  0.1388060E+04  0.7818609E-02  0.8962507E-01
       -2   -1    0    0    0  501  0.00000000000E+00  0.00000000000E+00  0.16624932715E+04  0.16624932715E+04  0.25500000920E-02 0. -1.
        2   -1    0    0  501    0  0.00000000000E+00  0.00000000000E+00 -0.28973222051E+03  0.28973222052E+03  0.25500000920E-02 0.  1.
    10030    2    1    2    0    0  0.00000000000E+00  0.00000000000E+00  0.13727610510E+04  0.19522254920E+04  0.13880603260E+04 0.  0.
        1    1    3    3  502    0 -0.25883230884E+03 -0.29470388092E+03  0.14916628893E+04  0.15423691895E+04  0.50400001928E-02 0. -1.
       -1    1    3    3    0  502  0.25883230884E+03  0.29470388092E+03 -0.11890183828E+03  0.40985630250E+03  0.50400001928E-02 0.  1.
</event>
<event>
 5   0  0.8673728E-04  0.1140278E+04  0.7818609E-02  0.9166800E-01
       -1   -1    0    0    0  501  0.00000000000E+00  0.00000000000E+00  0.32247579033E+03  0.32247579037E+03  0.50400001928E-02 0. -1.
        1   -1    0    0  501    0  0.00000000000E+00  0.00000000000E+00 -0.10080080931E+04  0.10080080931E+04  0.50400001928E-02 0.  1.
    10030    2    1    2    0    0  0.00000000000E+00  0.00000000000E+00 -0.68553230273E+03  0.13304838835E+04  0.11402775215E+04 0.  0.
        3    1    3    3  502    0 -0.26032361162E+01 -0.45798799064E+03  0.53430438237E+02  0.46110150547E+03  0.10100000352E+00 0. -1.
       -3    1    3    3    0  502  0.26032361162E+01  0.45798799064E+03 -0.73896274097E+03  0.86938237799E+03  0.10100000352E+00 0.  1.
</event>
<event>
 5   0  0.1578965E-03  0.1040980E+04  0.7818609E-02  0.9264706E-01
        2   -1    0    0  501    0  0.00000000000E+00  0.00000000000E+00  0.32626750473E+03  0.32626750474E+03  0.25500000920E-02 0.  1.
       -2   -1    0    0    0  501  0.00000000000E+00  0.00000000000E+00 -0.83033036247E+03  0.83033036247E+03  0.25500000920E-02 0. -1.
    10030    2    1    2    0    0  0.00000000000E+00  0.00000000000E+00 -0.50406285774E+03  0.11565978672E+04  0.10409799527E+04 0.  0.
        2    1    3    3  502    0  0.38374551123E+03  0.20401871305E+03  0.66179162490E+02  0.43961794119E+03  0.25500000920E-02 0.  1.
       -2    1    3    3    0  502 -0.38374551123E+03 -0.20401871305E+03 -0.57024202023E+03  0.71697992601E+03  0.25500000920E-02 0. -1.
</event>
<event>
 5   0  0.8502300E-04  0.1397873E+04  0.7818609E-02  0.8955360E-01
       -1   -1    0    0    0  501  0.00000000000E+00  0.00000000000E+00  0.47891501264E+03  0.47891501266E+03  0.50400001928E-02 0.  1.
        1   -1    0    0  501    0  0.00000000000E+00  0.00000000000E+00 -0.10200394282E+04  0.10200394282E+04  0.50400001928E-02 0. -1.
    10030    2    1    2    0    0  0.00000000000E+00  0.00000000000E+00 -0.54112441554E+03  0.14989544409E+04  0.13978729494E+04 0.  0.
        4    1    3    3  502    0 -0.24855514177E+03 -0.36193952819E+03 -0.85369698060E+03  0.95998959794E+03  0.12699999809E+01 0. -1.
       -4    1    3    3    0  502  0.24855514177E+03  0.36193952819E+03  0.31257256506E+03  0.53896484291E+03  0.12699999809E+01 0.  1.
</event>
<event>
 5   0  0.8609148E-04  0.1413400E+04  0.7818609E-02  0.8944176E-01
        1   -1    0    0  501    0  0.00000000000E+00  0.00000000000E+00  0.88049061383E+03  0.88049061384E+03  0.50400001928E-02 0. -1.
       -1   -1    0    0    0  501  0.00000000000E+00  0.00000000000E+00 -0.56721188817E+03  0.56721188820E+03  0.50400001928E-02 0.  1.
    10030    2    1    2    0    0  0.00000000000E+00  0.00000000000E+00  0.31327872566E+03  0.14477025020E+04  0.14133997929E+04 0.  0.
        5    1    3    3  502    0 -0.54834625352E+03 -0.26297419085E+03 -0.21204594378E+03  0.64406879374E+03  0.46999998093E+01 0.  1.
       -5    1    3    3    0  502  0.54834625352E+03  0.26297419085E+03  0.52532466943E+03  0.80363370830E+03  0.46999998093E+01 0. -1.
</event>
<event>
 5   0  0.1605214E-03  0.1408165E+04  0.7818609E-02  0.8947929E-01
        2   -1    0    0  501    0  0.00000000000E+00  0.00000000000E+00  0.20313429235E+03  0.20313429236E+03  0.25500000920E-02 0.  1.
       -2   -1    0    0    0  501  0.00000000000E+00  0.00000000000E+00 -0.24404174883E+04  0.24404174883E+04  0.25500000920E-02 0. -1.
    10030    2    1    2    0    0  0.00000000000E+00  0.00000000000E+00 -0.22372831959E+04  0.26435517806E+04  0.14081654442E+04 0.  0.
        5    1    3    3  502    0 -0.65183608133E+03  0.10905365538E+03 -0.66292712025E+03  0.93609691456E+03  0.46999998093E+01 0.  1.
       -5    1    3    3    0  502  0.65183608133E+03 -0.10905365538E+03 -0.15743560757E+04  0.17074548661E+04  0.46999998093E+01 0. -1.
</event>
<event>
 5   0  0.8609148E-04  0.1280164E+04  0.7818609E-02  0.9045445E-01
       -1   -1    0    0    0  501  0.00000000000E+00  0.00000000000E+00  0.43851074411E+03  0.43851074414E+03  0.50400001928E-02 0.  1.
        1   -1    0    0  501    0  0.00000000000E+00  0.00000000000E+00 -0.93431021850E+03  0.93431021852E+03  0.50400001928E-02 0. -1.
    10030    2    1    2    0    0  0.00000000000E+00  0.00000000000E+00 -0.49579947439E+03  0.13728209627E+04  0.12801641601E+04 0.  0.
        5    1    3    3  502    0  0.12610974121E+03  0.23702780141E+03 -0.87098519176E+03  0.91144014599E+03  0.46999998093E+01 0. -1.
       -5    1    3    3    0  502 -0.12610974121E+03 -0.23702780141E+03  0.37518571737E+03  0.46138081666E+03  0.46999998093E+01 0.  1.
</event>
<event>
 5   0  0.9007180E-04  0.1383457E+04  0.7818609E-02  0.8965881E-01
        1   -1    0    0  501    0  0.00000000000E+00  0.00000000000E+00  0.72075861198E+03  0.72075861199E+03  0.50400001928E-02 0.  1.
       -1   -1    0    0    0  501  0.00000000000E+00  0.00000000000E+00 -0.66386802212E+03  0.66386802214E+03  0.50400001928E-02 0. -1.
    10030    2    1    2    0    0  0.00000000000E+00  0.00000000000E+00  0.56890589858E+02  0.13846266341E+04  0.13834573997E+04 0.  0.
        2    1    3    3  502    0 -0.43956324486E+03  0.26352675863E+03  0.49340912432E+03  0.71141743211E+03  0.25500000920E-02 0.  1.
       -2    1    3    3    0  502  0.43956324486E+03 -0.26352675863E+03 -0.43651853446E+03  0.67320920202E+03  0.25500000920E-02 0. -1.
</event>
<event>
 5   0  0.1648463E-03  0.1397263E+04  0.7818609E-02  0.8955802E-01
       -2   -1    0    0    0  501  0.00000000000E+00  0.00000000000E+00  0.11913891428E+04  0.11913891429E+04  0.25500000920E-02 0. -1.
        2   -1    0    0  501    0  0.00000000000E+00  0.00000000000E+00 -0.40967778140E+03  0.40967778141E+03  0.25500000920E-02 0.  1.
    10030    2    1    2    0    0  0.00000000000E+00  0.00000000000E+00  0.78171136145E+03  0.16010669243E+04  0.13972625535E+04 0.  0.
        1    1    3    3  502    0  0.31923115346E+03 -0.21814572473E+03  0.10576137130E+04  0.11260740884E+04  0.50400001928E-02 0. -1.
       -1    1    3    3    0  502 -0.31923115346E+03  0.21814572473E+03 -0.27590235153E+03  0.47499283590E+03  0.50400001928E-02 0.  1.
</event>
<event>
 5   0  0.8502300E-04  0.1391075E+04  0.7818609E-02  0.8960304E-01
        1   -1    0    0  501    0  0.00000000000E+00  0.00000000000E+00  0.61618562933E+03  0.61618562935E+03  0.50400001928E-02 0. -1.
       -1   -1    0    0    0  501  0.00000000000E+00  0.00000000000E+00 -0.78510819893E+03  0.78510819895E+03  0.50400001928E-02 0.  1.
    10030    2    1    2    0    0  0.00000000000E+00  0.00000000000E+00 -0.16892256960E+03  0.14012938283E+04  0.13910749652E+04 0.  0.
        4    1    3    3  502    0 -0.44164955030E+03  0.48433268023E+03 -0.31884692841E+03  0.72890153455E+03  0.12699999809E+01 0.  1.
       -4    1    3    3    0  502  0.44164955030E+03 -0.48433268023E+03  0.14992435881E+03  0.67239229374E+03  0.12699999809E+01 0. -1.
</event>
<event>
 5   0  0.1648463E-03  0.1428651E+04  0.7818609E-02  0.8933337E-01
       -2   -1    0    0    0  501  0.00000000000E+00  0.00000000000E+00  0.88548727773E+03  0.88548727774E+03  0.25500000920E-02 0. -1.
        2   -1    0    0  501    0  0.00000000000E+00  0.00000000000E+00 -0.57624868294E+03  0.57624868294E+03  0.25500000920E-02 0.  1.
    10030    2    1    2    0    0  0.00000000000E+00  0.00000000000E+00  0.30923859479E+03  0.14617359607E+04  0.14286509407E+04 0.  0.
        1    1    3    3  502    0  0.28861783193E+03 -0.62458384918E+03  0.35104340026E+03  0.77242262166E+03  0.50400001928E-02 0. -1.
       -1    1    3    3    0  502 -0.28861783193E+03  0.62458384918E+03 -0.41804805470E+02  0.68931333902E+03  0.50400001928E-02 0.  1.
</event>
<event>
 5   0  0.1648463E-03  0.1327326E+04  0.7818609E-02  0.9008172E-01
        2   -1    0    0  501    0  0.00000000000E+00  0.00000000000E+00  0.46646107211E+03  0.46646107212E+03  0.25500000920E-02 0. -1.
       -2   -1    0    0    0  501  0.00000000000E+00  0.00000000000E+00 -0.94423433169E+03  0.94423433169E+03  0.25500000920E-02 0.  1.
    10030    2    1    2    0    0  0.00000000000E+00  0.00000000000E+00 -0.47777325958E+03  0.14106954038E+04  0.13273259716E+04 0.  0.
        1    1    3    3  502    0  0.33564056309E+03 -0.55169680257E+03 -0.40155077504E+03  0.76043867242E+03  0.50400001928E-02 0. -1.
       -1    1    3    3    0  502 -0.33564056309E+03  0.55169680257E+03 -0.76222484539E+02  0.65025673140E+03  0.50400001928E-02 0.  1.
</event>
<event>
 5   0  0.8502300E-04  0.1359418E+04  0.7818609E-02  0.8983729E-01
       -1   -1    0    0    0  501  0.00000000000E+00  0.00000000000E+00  0.31869917374E+03  0.31869917378E+03  0.50400001928E-02 0. -1.
        1   -1    0    0  501    0  0.00000000000E+00  0.00000000000E+00 -0.14496569450E+04  0.14496569450E+04  0.50400001928E-02 0.  1.
    10030    2    1    2    0    0  0.00000000000E+00  0.00000000000E+00 -0.11309577713E+04  0.17683561188E+04  0.13594182147E+04 0.  0.
        4    1    3    3  502    0  0.16032091619E+03 -0.46531777279E+03  0.44353056005E+02  0.49415810457E+03  0.12699999809E+01 0. -1.
       -4    1    3    3    0  502 -0.16032091619E+03  0.46531777279E+03 -0.11753108273E+04  0.12741980142E+04  0.12699999809E+01 0.  1.
</event>
<event>
 5   0  0.8673728E-04  0.1446154E+04  0.7818609E-02  0.8921071E-01
       -1   -1    0    0    0  501  0.00000000000E+00  0.00000000000E+00  0.38766713702E+03  0.38766713705E+03  0.50400001928E-02 0.  1.
        1   -1    0    0  501    0  0.00000000000E+00  0.00000000000E+00 -0.13486844958E+04  0.13486844958E+04  0.50400001928E-02 0. -1.
    10030    2    1    2    0    0  0.00000000000E+00  0.00000000000E+00 -0.96101735873E+03  0.17363516328E+04  0.14461544278E+04 0.  0.
        3    1    3    3  502    0  0.21553248290E+03  0.60785515291E+03 -0.87307119853E+03  0.10854471272E+04  0.10100000352E+00 0.  1.
       -3    1    3    3    0  502 -0.21553248290E+03 -0.60785515291E+03 -0.87946160202E+02  0.65090450559E+03  0.10100000352E+00 0. -1.
</event>
<event>
 5   0  0.1648213E-03  0.1378865E+04  0.7818609E-02  0.8969261E-01
       -2   -1    0    0    0  501  0.00000000000E+00  0.00000000000E+00  0.32678525445E+03  0.32678525446E+03  0.25500000920E-02 0. -1.
        2   -1    0    0  501    0  0.00000000000E+00  0.00000000000E+00 -0.14545240497E+04  0.14545240497E+04  0.25500000920E-02 0.  1.
    10030    2    1    2    0    0  0.00000000000E+00  0.00000000000E+00 -0.11277387953E+04  0.17813093042E+04  0.13788647674E+04 0.  0.
        4    1    3    3  502    0  0.12175631474E+03  0.49249500815E+03 -0.11669642234E+04  0.12724712353E+04  0.12699999809E+01 0.  1.
       -4    1    3    3    0  502 -0.12175631474E+03 -0.49249500815E+03  0.39225428062E+02  0.50883806888E+03  0.12699999809E+01 0. -1.
</event>
<event>
 5   0  0.8502300E-04  0.1410679E+04  0.7818609E-02  0.8946125E-01
       -1   -1    0    0    0  501  0.00000000000E+00  0.00000000000E+00  0.43564912331E+03  0.43564912334E+03  0.50400001928E-02 0. -1.
        1   -1    0    0  501    0  0.00000000000E+00  0.00000000000E+00 -0.11419821775E+04  0.11419821775E+04  0.50400001928E-02 0.  1.
    10030    2    1    2    0    0  0.00000000000E+00  0.00000000000E+00 -0.70633305421E+03  0.15776313009E+04  0.14106786091E+04 0.  0.
        4    1    3    3  502    0  0.35633635512E+02 -0.49107971334E+03 -0.91798589038E+03  0.10416951323E+04  0.12699999809E+01 0.  1.
       -4    1    3    3    0  502 -0.35633635512E+02  0.49107971334E+03  0.21165283617E+03  0.53593616858E+03  0.12699999809E+01 0. -1.
</event>
<event>
 5   0  0.9639548E-04  0.1411055E+04  0.7818609E-02  0.8945855E-01
       -1   -1    0    0    0  501  0.00000000000E+00  0.00000000000E+00  0.63377976870E+03  0.63377976872E+03  0.50400001928E-02 0. -1.
        1   -1    0    0  501    0  0.00000000000E+00  0.00000000000E+00 -0.78539798746E+03  0.78539798748E+03  0.50400001928E-02 0.  1.
    10030    2    1    2    0    0  0.00000000000E+00  0.00000000000E+00 -0.15161821876E+03  0.14191777562E+04  0.14110554275E+04 0.  0.
        1    1    3    3  502    0  0.24832301457E+03 -0.56457360086E+03  0.26874377436E+03  0.67277848259E+03  0.50400001928E-02 0. -1.
       -1    1    3    3    0  502 -0.24832301457E+03  0.56457360086E+03 -0.42036199312E+03  0.74639927361E+03  0.50400001928E-02 0.  1.
</event>
<event>
 5   0  0.8609148E-04  0.1383430E+04  0.7818609E-02  0.8965901E-01
       -1   -1    0    0    0  501  0.00000000000E+00  0.00000000000E+00  0.49172360199E+03  0.49172360201E+03  0.50400001928E-02 0.  1.
        1   -1    0    0  501    0  0.00000000000E+00  0.00000000000E+00 -0.97304612762E+03  0.97304612764E+03  0.50400001928E-02 0. -1.
    10030    2    1    2    0    0  0.00000000000E+00  0.00000000000E+00 -0.48132252563E+03  0.14647697296E+04  0.13834301526E+04 0.  0.
        5    1    3    3  502    0  0.39720474355E+03 -0.28439549768E+03 -0.75914173840E+03  0.90275726326E+03  0.46999998093E+01 0. -1.
       -5    1    3    3    0  502 -0.39720474355E+03  0.28439549768E+03  0.27781921276E+03  0.56201246639E+03  0.46999998093E+01 0.  1.
</event>
<event>
 5   0  0.1648213E-03  0.1372149E+04  0.7818609E-02  0.8974229E-01
       -2   -1    0    0    0  501  0.00000000000E+00  0.00000000000E+00  0.83016743385E+03  0.83016743385E+03  0.25500000920E-02 0. -1.
        2   -1    0    0  501    0  0.00000000000E+00  0.00000000000E+00 -0.56699184395E+03  0.56699184395E+03  0.25500000920E-02 0.  1.
    10030    2    1    2    0    0  0.00000000000E+00  0.00000000000E+00  0.26317558990E+03  0.13971592778E+04  0.13721489192E+04 0.  0.
        4    1    3    3  502    0  0.68006577732E+03  0.88099828139E+02  0.11009596449E+03  0.69453133514E+03  0.12699999809E+01 0. -1.
       -4    1    3    3    0  502 -0.68006577732E+03 -0.88099828139E+02  0.15307962542E+03  0.70262794267E+03  0.12699999809E+01 0.  1.
</event>
<event>
 5   0  0.1578965E-03  0.1385767E+04  0.7818609E-02  0.8964186E-01
       -2   -1    0    0    0  501  0.00000000000E+00  0.00000000000E+00  0.10009877977E+04  0.10009877977E+04  0.25500000920E-02 0. -1.
        2   -1    0    0  501    0  0.00000000000E+00  0.00000000000E+00 -0.47961366619E+03  0.47961366619E+03  0.25500000920E-02 0.  1.
    10030    2    1    2    0    0  0.00000000000E+00  0.00000000000E+00  0.52137413149E+03  0.14806014639E+04  0.13857668310E+04 0.  0.
        2    1    3    3  502    0  0.88019756956E+02  0.91923900354E+02 -0.46701815818E+03  0.48404900697E+03  0.25500000920E-02 0.  1.
       -2    1    3    3    0  502 -0.88019756956E+02 -0.91923900354E+02  0.98839228968E+03  0.99655245691E+03  0.25500000920E-02 0. -1.
</event>
<event>
 5   0  0.8609148E-04  0.1393304E+04  0.7818609E-02  0.8958680E-01
       -1   -1    0    0    0  501  0.00000000000E+00  0.00000000000E+00  0.30044495007E+03  0.30044495011E+03  0.50400001928E-02 0.  1.
        1   -1    0    0  501    0  0.00000000000E+00  0.00000000000E+00 -0.16153515065E+04  0.16153515066E+04  0.50400001928E-02 0. -1.
    10030    2    1    2    0    0  0.00000000000E+00  0.00000000000E+00 -0.13149065565E+04  0.19157964567E+04  0.13933042780E+04 0.  0.
        5    1    3    3  502    0 -0.63709206824E+03 -0.17821484256E+03 -0.95761748581E+03  0.11639158787E+04  0.46999998093E+01 0. -1.
       -5    1    3    3    0  502  0.63709206824E+03  0.17821484256E+03 -0.35728907066E+03  0.75188057798E+03  0.46999998093E+01 0.  1.
</event>
<event>
 5   0  0.9639548E-04  0.1398832E+04  0.7818609E-02  0.8954665E-01
        1   -1    0    0  501    0  0.00000000000E+00  0.00000000000E+00  0.53986554783E+03  0.53986554785E+03  0.50400001928E-02 0. -1.
       -1   -1    0    0    0  501  0.00000000000E+00  0.00000000000E+00 -0.90611940708E+03  0.90611940709E+03  0.50400001928E-02 0.  1.
    10030    2    1    2    0    0  0.00000000000E+00  0.00000000000E+00 -0.36625385925E+03  0.14459849549E+04  0.13988318700E+04 0.  0.
        1    1    3    3  502    0 -0.13952092045E+03  0.62508146576E+03  0.10739809997E+03  0.64940532642E+03  0.50400001928E-02 0. -1.
       -1    1    3    3    0  502  0.13952092045E+03 -0.62508146576E+03 -0.47365195922E+03  0.79657962852E+03  0.50400001928E-02 0.  1.
</event>
<event>
 5   0  0.1706986E-03  0.1412216E+04  0.7818609E-02  0.8945023E-01
        2   -1    0    0  501    0  0.00000000000E+00  0.00000000000E+00  0.16813095663E+04  0.16813095663E+04  0.25500000920E-02 0.  1.
       -2   -1    0    0    0  501  0.00000000000E+00  0.00000000000E+00 -0.29654781276E+03  0.29654781277E+03  0.25500000920E-02 0. -1.
    10030    2    1    2    0    0  0.00000000000E+00  0.00000000000E+00  0.13847617535E+04  0.19778573791E+04  0.14122162362E+04 0.  0.
        3    1    3    3  502    0  0.97966549481E+02 -0.66814380141E+03  0.40339840029E+03  0.78660273566E+03  0.10100000352E+00 0.  1.
       -3    1    3    3    0  502 -0.97966549481E+02  0.66814380141E+03  0.98136335325E+03  0.11912546434E+04  0.10100000352E+00 0. -1.
</event>
<event>
 5   0  0.1648213E-03  0.1400589E+04  0.7818609E-02  0.8953393E-01
       -2   -1    0    0    0  501  0.00000000000E+00  0.00000000000E+00  0.29275329495E+03  0.29275329496E+03  0.25500000920E-02 0.  1.
        2   -1    0    0  501    0  0.00000000000E+00  0.00000000000E+00 -0.16751717791E+04  0.16751717791E+04  0.25500000920E-02 0. -1.
    10030    2    1    2    0    0  0.00000000000E+00  0.00000000000E+00 -0.13824184842E+04  0.19679250741E+04  0.14005885305E+04 0.  0.
        4    1    3    3  502    0  0.88805606212E+02  0.54562744318E+03 -0.12952500122E+04  0.14082861746E+04  0.12699999809E+01 0. -1.
       -4    1    3    3    0  502 -0.88805606212E+02 -0.54562744318E+03 -0.87168471964E+02  0.55963889951E+03  0.12699999809E+01 0.  1.
</event>
<event>
 5   0  0.1648213E-03  0.1394397E+04  0.7818609E-02  0.8957884E-01
        2   -1    0    0  501    0  0.00000000000E+00  0.00000000000E+00  0.48014956509E+03  0.48014956509E+03  0.25500000920E-02 0.  1.
       -2   -1    0    0    0  501  0.00000000000E+00  0.00000000000E+00 -0.10123635067E+04  0.10123635067E+04  0.25500000920E-02 0. -1.
    10030    2    1    2    0    0  0.00000000000E+00  0.00000000000E+00 -0.53221394157E+03  0.14925130718E+04  0.13943972138E+04 0.  0.
        4    1    3    3  502    0  0.47414009513E+03 -0.29441840785E+03 -0.71335184208E+03  0.90573919657E+03  0.12699999809E+01 0. -1.
       -4    1    3    3    0  502 -0.47414009513E+03  0.29441840785E+03  0.18113790052E+03  0.58677387518E+03  0.12699999809E+01 0.  1.
</event>
<event>
 5   0  0.8673728E-04  0.1399963E+04  0.7818609E-02  0.8953845E-01
       -1   -1    0    0    0  501  0.00000000000E+00  0.00000000000E+00  0.11868957430E+04  0.11868957430E+04  0.50400001928E-02 0.  1.
        1   -1    0    0  501    0  0.00000000000E+00  0.00000000000E+00 -0.41282001524E+03  0.41282001527E+03  0.50400001928E-02 0. -1.
    10030    2    1    2    0    0  0.00000000000E+00  0.00000000000E+00  0.77407572778E+03  0.15997157583E+04  0.13999633120E+04 0.  0.
        3    1    3    3  502    0  0.25860591285E+03 -0.20957875901E+03  0.10906696707E+04  0.11403335544E+04  0.10100000352E+00 0.  1.
       -3    1    3    3    0  502 -0.25860591285E+03  0.20957875901E+03 -0.31659394294E+03  0.45938220394E+03  0.10100000352E+00 0. -1.
</event>
<event>
 5   0  0.8673728E-04  0.1417639E+04  0.7818609E-02  0.8941149E-01
       -1   -1    0    0    0  501  0.00000000000E+00  0.00000000000E+00  0.10982139523E+04  0.10982139523E+04  0.50400001928E-02 0. -1.
        1   -1    0    0  501    0  0.00000000000E+00  0.00000000000E+00 -0.45749293621E+03  0.45749293624E+03  0.50400001928E-02 0.  1.
    10030    2    1    2    0    0  0.00000000000E+00  0.00000000000E+00  0.64072101606E+03  0.15557068885E+04  0.14176390593E+04 0.  0.
        3    1    3    3  502    0 -0.28777946373E+02 -0.65851237102E+03  0.60643799671E+03  0.89567503428E+03  0.10100000352E+00 0. -1.
       -3    1    3    3    0  502  0.28777946373E+02  0.65851237102E+03  0.34283019349E+02  0.66003185423E+03  0.10100000352E+00 0.  1.
</event>
<event>
 5   0  0.8673728E-04  0.1396579E+04  0.7818609E-02  0.8956299E-01
       -1   -1    0    0    0  501  0.00000000000E+00  0.00000000000E+00  0.39547275413E+03  0.39547275416E+03  0.50400001928E-02 0. -1.
        1   -1    0    0  501    0  0.00000000000E+00  0.00000000000E+00 -0.12329752430E+04  0.12329752430E+04  0.50400001928E-02 0.  1.
    10030    2    1    2    0    0  0.00000000000E+00  0.00000000000E+00 -0.83750248882E+03  0.16284479971E+04  0.13965788415E+04 0.  0.
        3    1    3    3  502    0  0.46409933726E+03 -0.21447313234E+03  0.13584263629E+03  0.52899919790E+03  0.10100000352E+00 0. -1.
       -3    1    3    3    0  502 -0.46409933726E+03  0.21447313234E+03 -0.97334512512E+03  0.10994487992E+04  0.10100000352E+00 0.  1.
</event>
<event>
 5   0  0.9007180E-04  0.1407099E+04  0.7818609E-02  0.8948696E-01
       -1   -1    0    0    0  501  0.00000000000E+00  0.00000000000E+00  0.60710471787E+03  0.60710471789E+03  0.50400001928E-02 0.  1.
        1   -1    0    0  501    0  0.00000000000E+00  0.00000000000E+00 -0.81531553602E+03  0.81531553604E+03  0.50400001928E-02 0. -1.
    10030    2    1    2    0    0  0.00000000000E+00  0.00000000000E+00 -0.20821081816E+03  0.14224202539E+04  0.14070990136E+04 0.  0.
        2    1    3    3  502    0 -0.19289959072E+03 -0.20108330859E+03 -0.75715595506E+03  0.80680226163E+03  0.25500000920E-02 0. -1.
       -2    1    3    3    0  502  0.19289959072E+03  0.20108330859E+03  0.54894513690E+03  0.61561799229E+03  0.25500000920E-02 0.  1.
</event>
<event>
 5   0  0.1706986E-03  0.1412211E+04  0.7818609E-02  0.8945027E-01
       -2   -1    0    0    0  501  0.00000000000E+00  0.00000000000E+00  0.28983439606E+03  0.28983439607E+03  0.25500000920E-02 0. -1.
        2   -1    0    0  501    0  0.00000000000E+00  0.00000000000E+00 -0.17202416660E+04  0.17202416660E+04  0.25500000920E-02 0.  1.
    10030    2    1    2    0    0  0.00000000000E+00  0.00000000000E+00 -0.14304072699E+04  0.20100760620E+04  0.14122113218E+04 0.  0.
        3    1    3    3  502    0  0.39263568790E+03  0.12777590668E+02 -0.15503364424E+04  0.15993339692E+04  0.10100000352E+00 0.  1.
       -3    1    3    3    0  502 -0.39263568790E+03 -0.12777590668E+02  0.11992917245E+03  0.41074209286E+03  0.10100000352E+00 0. -1.
</event>
<event>
 5   0  0.1706986E-03  0.1387635E+04  0.7818609E-02  0.8962818E-01
       -2   -1    0    0    0  501  0.00000000000E+00  0.00000000000E+00  0.39260093367E+03  0.39260093368E+03  0.25500000920E-02 0.  1.
        2   -1    0    0  501    0  0.00000000000E+00  0.00000000000E+00 -0.12261379007E+04  0.12261379007E+04  0.25500000920E-02 0. -1.
    10030    2    1    2    0    0  0.00000000000E+00  0.00000000000E+00 -0.83353696702E+03  0.16187388344E+04  0.13876352325E+04 0.  0.
        3    1    3    3  502    0 -0.61723765690E+03 -0.70165066220E+02 -0.77722409319E+03  0.99497877508E+03  0.10100000352E+00 0. -1.
       -3    1    3    3    0  502  0.61723765690E+03  0.70165066220E+02 -0.56312873829E+02  0.62376005930E+03  0.10100000352E+00 0.  1.
</event>
<event>
 5   0  0.8673728E-04  0.1392250E+04  0.7818609E-02  0.8959448E-01
        1   -1    0    0  501    0  0.00000000000E+00  0.00000000000E+00  0.13299068539E+04  0.13299068539E+04  0.50400001928E-02 0. -1.
       -1   -1    0    0    0  501  0.00000000000E+00  0.00000000000E+00 -0.36437889676E+03  0.36437889680E+03  0.50400001928E-02 0.  1.
    10030    2    1    2    0    0  0.00000000000E+00  0.00000000000E+00  0.96552795711E+03  0.16942857507E+04  0.13922499664E+04 0.  0.
        3    1    3    3  502    0 -0.36114980004E+02 -0.37794839214E+03  0.11928160221E+04  0.12517824698E+04  0.10100000352E+00 0. -1.
       -3    1    3    3    0  502  0.36114980004E+02  0.37794839214E+03 -0.22728806499E+03  0.44250328088E+03  0.10100000352E+00 0.  1.
</event>
<event>
 5   0  0.1578965E-03  0.1488096E+04  0.7818609E-02  0.8892408E-01
       -2   -1    0    0    0  501  0.00000000000E+00  0.00000000000E+00  0.44228508679E+03  0.44228508680E+03  0.25500000920E-02 0. -1.
        2   -1    0    0  501    0  0.00000000000E+00  0.00000000000E+00 -0.12516974212E+04  0.12516974212E+04  0.25500000920E-02 0.  1.
    10030    2    1    2    0    0  0.00000000000E+00  0.00000000000E+00 -0.80941233439E+03  0.16939825080E+04  0.14880955649E+04 0.  0.
        2    1    3    3  502    0  0.59991522357E+03 -0.41863939164E+02  0.94039589555E+02  0.60868243714E+03  0.25500000920E-02 0. -1.
       -2    1    3    3    0  502 -0.59991522357E+03  0.41863939164E+02 -0.90345192395E+03  0.10853000708E+04  0.25500000920E-02 0.  1.
</event>
<event>
 5   0  0.1648463E-03  0.1396483E+04  0.7818609E-02  0.8956368E-01
       -2   -1    0    0    0  501  0.00000000000E+00  0.00000000000E+00  0.78536187811E+03  0.78536187811E+03  0.25500000920E-02 0. -1.
        2   -1    0    0  501    0  0.00000000000E+00  0.00000000000E+00 -0.62078515434E+03  0.62078515435E+03  0.25500000920E-02 0.  1.
    10030    2    1    2    0    0  0.00000000000E+00  0.00000000000E+00  0.16457672376E+03  0.14061470325E+04  0.13964827170E+04 0.  0.
        1    1    3    3  502    0  0.47344864216E+03 -0.32720882534E+03 -0.31582329218E+03  0.65647816723E+03  0.50400001928E-02 0.  1.
       -1    1    3    3    0  502 -0.47344864216E+03  0.32720882534E+03  0.48040001594E+03  0.74966886523E+03  0.50400001928E-02 0. -1.
</event>
<event>
 5   0  0.1648213E-03  0.1408586E+04  0.7818609E-02  0.8947627E-01
       -2   -1    0    0    0  501  0.00000000000E+00  0.00000000000E+00  0.71661996715E+03  0.71661996716E+03  0.25500000920E-02 0.  1.
        2   -1    0    0  501    0  0.00000000000E+00  0.00000000000E+00 -0.69217853606E+03  0.69217853607E+03  0.25500000920E-02 0. -1.
    10030    2    1    2    0    0  0.00000000000E+00  0.00000000000E+00  0.24441431093E+02  0.14087985032E+04  0.14085864685E+04 0.  0.
        4    1    3    3  502    0 -0.55468505955E+03 -0.17566874832E+03 -0.38469204656E+03  0.69751315974E+03  0.12699999809E+01 0. -1.
       -4    1    3    3    0  502  0.55468505955E+03  0.17566874832E+03  0.40913347765E+03  0.71128534349E+03  0.12699999809E+01 0.  1.
</event>
<event>
 5   0  0.8609148E-04  0.1401252E+04  0.7818609E-02  0.8952913E-01
        1   -1    0    0  501    0  0.00000000000E+00  0.00000000000E+00  0.68655856540E+03  0.68655856542E+03  0.50400001928E-02 0.  1.
       -1   -1    0    0    0  501  0.00000000000E+00  0.00000000000E+00 -0.71498133481E+03  0.71498133483E+03  0.50400001928E-02 0. -1.
    10030    2    1    2    0    0  0.00000000000E+00  0.00000000000E+00 -0.28422769410E+02  0.14015399002E+04  0.14012516684E+04 0.  0.
        5    1    3    3  502    0 -0.40647271071E+03  0.71165402945E+02 -0.58051676510E+03  0.71225443747E+03  0.46999998093E+01 0. -1.
       -5    1    3    3    0  502  0.40647271071E+03 -0.71165402945E+02  0.55209399569E+03  0.68928546278E+03  0.46999998093E+01 0.  1.
</event>
<event>
 5   0  0.1648463E-03  0.1386172E+04  0.7818609E-02  0.8963889E-01
        2   -1    0    0  501    0  0.00000000000E+00  0.00000000000E+00  0.83537864400E+03  0.83537864401E+03  0.25500000920E-02 0.  1.
       -2   -1    0    0    0  501  0.00000000000E+00  0.00000000000E+00 -0.57503045443E+03  0.57503045443E+03  0.25500000920E-02 0. -1.
    10030    2    1    2    0    0  0.00000000000E+00  0.00000000000E+00  0.26034818957E+03  0.14104090984E+04  0.13861719392E+04 0.  0.
        1    1    3    3  502    0 -0.68030750972E+03  0.11386621202E+03  0.61282478871E+02  0.69248780803E+03  0.50400001928E-02 0.  1.
       -1    1    3    3    0  502  0.68030750972E+03 -0.11386621202E+03  0.19906571070E+03  0.71792129041E+03  0.50400001928E-02 0. -1.
</event>
<event>
 5   0  0.1605214E-03  0.1384352E+04  0.7818609E-02  0.8965224E-01
       -2   -1    0    0    0  501  0.00000000000E+00  0.00000000000E+00  0.13017978549E+04  0.13017978549E+04  0.25500000920E-02 0.  1.
        2   -1    0    0  501    0  0.00000000000E+00  0.00000000000E+00 -0.36803531248E+03  0.36803531249E+03  0.25500000920E-02 0. -1.
    10030    2    1    2    0    0  0.00000000000E+00  0.00000000000E+00  0.93376254239E+03  0.16698331674E+04  0.13843519499E+04 0.  0.
        5    1    3    3  502    0  0.23835313346E+03  0.86921839875E+02 -0.30990750139E+03  0.40054010023E+03  0.46999998093E+01 0. -1.
       -5    1    3    3    0  502 -0.23835313346E+03 -0.86921839875E+02  0.12436700438E+04  0.12692930671E+04  0.46999998093E+01 0.  1.
</event>
<event>
 5   0  0.8502300E-04  0.1412577E+04  0.7818609E-02  0.8944765E-01
        1   -1    0    0  501    0  0.00000000000E+00  0.00000000000E+00  0.12037037987E+04  0.12037037987E+04  0.50400001928E-02 0. -1.
       -1   -1    0    0    0  501  0.00000000000E+00  0.00000000000E+00 -0.41442378131E+03  0.41442378134E+03  0.50400001928E-02 0.  1.
    10030    2    1    2    0    0  0.00000000000E+00  0.00000000000E+00  0.78928001743E+03  0.16181275801E+04  0.14125770491E+04 0.  0.
        4    1    3    3  502    0 -0.13466473880E+03  0.54690573499E+03 -0.93517755547E+02  0.57095328910E+03  0.12699999809E+01 0.  1.
       -4    1    3    3    0  502  0.13466473880E+03 -0.54690573499E+03  0.88279777297E+03  0.10471742910E+04  0.12699999809E+01 0. -1.
</event>
<event>
 5   0  0.1605214E-03  0.1404065E+04  0.7818609E-02  0.8950881E-01
       -2   -1    0    0    0  501  0.00000000000E+00  0.00000000000E+00  0.37114516109E+03  0.37114516110E+03  0.25500000920E-02 0.  1.
        2   -1    0    0  501    0  0.00000000000E+00  0.00000000000E+00 -0.13279160996E+04  0.13279160996E+04  0.25500000920E-02 0. -1.
    10030    2    1    2    0    0  0.00000000000E+00  0.00000000000E+00 -0.95677093848E+03  0.16990612607E+04  0.14040650052E+04 0.  0.
        5    1    3    3  502    0  0.56305808575E+03  0.11617706792E+03 -0.96588675466E+03  0.11240510806E+04  0.46999998093E+01 0. -1.
       -5    1    3    3    0  502 -0.56305808575E+03 -0.11617706792E+03  0.91158161778E+01  0.57501018004E+03  0.46999998093E+01 0.  1.
</event>
<event>
 5   0  0.1578965E-03  0.1407037E+04  0.7818609E-02  0.8948741E-01
       -2   -1    0    0    0  501  0.00000000000E+00  0.00000000000E+00  0.62957557679E+03  0.62957557680E+03  0.25500000920E-02 0. -1.
        2   -1    0    0  501    0  0.00000000000E+00  0.00000000000E+00 -0.78614592530E+03  0.78614592531E+03  0.25500000920E-02 0.  1.
    10030    2    1    2    0    0  0.00000000000E+00  0.00000000000E+00 -0.15657034851E+03  0.14157215021E+04  0.14070369922E+04 0.  0.
        2    1    3    3  502    0  0.16112032361E+03  0.38366707232E+03  0.49247090982E+03  0.64473853467E+03  0.25500000920E-02 0. -1.
       -2    1    3    3    0  502 -0.16112032361E+03 -0.38366707232E+03 -0.64904125833E+03  0.77098296744E+03  0.25500000920E-02 0.  1.
</event>
<event>
 5   0  0.1578965E-03  0.1407026E+04  0.7818609E-02  0.8948749E-01
       -2   -1    0    0    0  501  0.00000000000E+00  0.00000000000E+00  0.42287695549E+03  0.42287695549E+03  0.25500000920E-02 0.  1.
        2   -1    0    0  501    0  0.00000000000E+00  0.00000000000E+00 -0.11703883285E+04  0.11703883286E+04  0.25500000920E-02 0. -1.
    10030    2    1    2    0    0  0.00000000000E+00  0.00000000000E+00 -0.74751137306E+03  0.15932652840E+04  0.14070255906E+04 0.  0.
        2    1    3    3  502    0  0.11431803512E+03  0.51453582648E+03 -0.90138696696E+03  0.10441811117E+04  0.25500000920E-02 0. -1.
       -2    1    3    3    0  502 -0.11431803512E+03 -0.51453582648E+03  0.15387559389E+03  0.54908417232E+03  0.25500000920E-02 0.  1.
</event>
<event>
 5   0  0.8673728E-04  0.1422221E+04  0.7818609E-02  0.8937889E-01
        1   -1    0    0  501    0  0.00000000000E+00  0.00000000000E+00  0.15885922456E+04  0.15885922456E+04  0.50400001928E-02 0. -1.
       -1   -1    0    0    0  501  0.00000000000E+00  0.00000000000E+00 -0.31831819409E+03  0.31831819413E+03  0.50400001928E-02 0.  1.
    10030    2    1    2    0    0  0.00000000000E+00  0.00000000000E+00  0.12702740515E+04  0.19069104397E+04  0.14222205382E+04 0.  0.
        3    1    3    3  502    0 -0.33018874443E+03 -0.17968367463E+03  0.14444804710E+04  0.14925932706E+04  0.10100000352E+00 0. -1.
       -3    1    3    3    0  502  0.33018874443E+03  0.17968367463E+03 -0.17420641953E+03  0.41431716919E+03  0.10100000352E+00 0.  1.
</event>
<event>
 5   0  0.9007180E-04  0.1374859E+04  0.7818609E-02  0.8972220E-01
        1   -1    0    0  501    0  0.00000000000E+00  0.00000000000E+00  0.72553555644E+03  0.72553555646E+03  0.50400001928E-02 0. -1.
       -1   -1    0    0    0  501  0.00000000000E+00  0.00000000000E+00 -0.65132504666E+03  0.65132504668E+03  0.50400001928E-02 0.  1.
    10030    2    1    2    0    0  0.00000000000E+00  0.00000000000E+00  0.74210509782E+02  0.13768606031E+04  0.13748592367E+04 0.  0.
        2    1    3    3  502    0  0.23161996712E+03  0.26046053824E+03 -0.55627053301E+03  0.65644832778E+03  0.25500000920E-02 0.  1.
       -2    1    3    3    0  502 -0.23161996712E+03 -0.26046053824E+03  0.63048104279E+03  0.72041227535E+03  0.25500000920E-02 0. -1.
</event>
<event>
 5   0  0.1648463E-03  0.1314513E+04  0.7818609E-02  0.9018135E-01
       -2   -1    0    0    0  501  0.00000000000E+00  0.00000000000E+00  0.59704941110E+03  0.59704941111E+03  0.25500000920E-02 0.  1.
        2   -1    0    0  501    0  0.00000000000E+00  0.00000000000E+00 -0.72353504841E+03  0.72353504842E+03  0.25500000920E-02 0. -1.
    10030    2    1    2    0    0  0.00000000000E+00  0.00000000000E+00 -0.12648563731E+03  0.13205844595E+04  0.13145131031E+04 0.  0.
        1    1    3    3  502    0 -0.12871100091E+03 -0.31621668528E+03  0.50097976054E+03  0.60625096644E+03  0.50400001928E-02 0.  1.
       -1    1    3    3    0  502  0.12871100091E+03  0.31621668528E+03 -0.62746539786E+03  0.71433349308E+03  0.50400001928E-02 0. -1.
</event>
<event>
 5   0  0.9007180E-04  0.1409369E+04  0.7818609E-02  0.8947064E-01
        1   -1    0    0  501    0  0.00000000000E+00  0.00000000000E+00  0.56982741088E+03  0.56982741090E+03  0.50400001928E-02 0.  1.
       -1   -1    0    0    0  501  0.00000000000E+00  0.00000000000E+00 -0.87145766976E+03  0.87145766978E+03  0.50400001928E-02 0. -1.
    10030    2    1    2    0    0  0.00000000000E+00  0.00000000000E+00 -0.30163025888E+03  0.14412850807E+04  0.14093693167E+04 0.  0.
        2    1    3    3  502    0  0.64512979803E+03  0.16580457633E+03  0.84386323315E+02  0.67141988756E+03  0.25500000920E-02 0.  1.
       -2    1    3    3    0  502 -0.64512979803E+03 -0.16580457633E+03 -0.38601658219E+03  0.76986519312E+03  0.25500000920E-02 0. -1.
</event>
<event>
 5   0  0.8609148E-04  0.1419388E+04  0.7818609E-02  0.8939903E-01
        1   -1    0    0  501    0  0.00000000000E+00  0.00000000000E+00  0.43146040882E+03  0.43146040885E+03  0.50400001928E-02 0.  1.
       -1   -1    0    0    0  501  0.00000000000E+00  0.00000000000E+00 -0.11673499223E+04  0.11673499223E+04  0.50400001928E-02 0. -1.
    10030    2    1    2    0    0  0.00000000000E+00  0.00000000000E+00 -0.73588951349E+03  0.15988103312E+04  0.14193875788E+04 0.  0.
        5    1    3    3  502    0  0.43435951886E+03  0.34594656929E+03 -0.86573064430E+03  0.10285226584E+04  0.46999998093E+01 0.  1.
       -5    1    3    3    0  502 -0.43435951886E+03 -0.34594656929E+03  0.12984113081E+03  0.57028767274E+03  0.46999998093E+01 0. -1.
</event>
<event>
 5   0  0.1605214E-03  0.1372781E+04  0.7818609E-02  0.8973760E-01
       -2   -1    0    0    0  501  0.00000000000E+00  0.00000000000E+00  0.11697175170E+04  0.11697175170E+04  0.25500000920E-02 0. -1.
        2   -1    0    0  501    0  0.00000000000E+00  0.00000000000E+00 -0.40277424275E+03  0.40277424276E+03  0.25500000920E-02 0.  1.
    10030    2    1    2    0    0  0.00000000000E+00  0.00000000000E+00  0.76694327422E+03  0.15724917597E+04  0.13727812457E+04 0.  0.
        5    1    3    3  502    0  0.59190125851E+02  0.60077735695E+03  0.93485702571E+01  0.60377677116E+03  0.46999998093E+01 0.  1.
       -5    1    3    3    0  502 -0.59190125851E+02 -0.60077735695E+03  0.75759470397E+03  0.96871498858E+03  0.46999998093E+01 0. -1.
</event>
<event>
 5   0  0.9007180E-04  0.1395158E+04  0.7818609E-02  0.8957331E-01
       -1   -1    0    0    0  501  0.00000000000E+00  0.00000000000E+00  0.35706154872E+03  0.35706154875E+03  0.50400001928E-02 0. -1.
        1   -1    0    0  501    0  0.00000000000E+00  0.00000000000E+00 -0.13628357591E+04  0.13628357592E+04  0.50400001928E-02 0.  1.
    10030    2    1    2    0    0  0.00000000000E+00  0.00000000000E+00 -0.10057742104E+04  0.17198973079E+04  0.13951576927E+04 0.  0.
        2    1    3    3  502    0  0.45951119470E+02 -0.67789639226E+03 -0.69765265772E+03  0.97384508771E+03  0.25500000920E-02 0. -1.
       -2    1    3    3    0  502 -0.45951119470E+02  0.67789639226E+03 -0.30812155271E+03  0.74605222020E+03  0.25500000920E-02 0.  1.
</event>
<event>
 5   0  0.8673728E-04  0.1402786E+04  0.7818609E-02  0.8951804E-01
        1   -1    0    0  501    0  0.00000000000E+00  0.00000000000E+00  0.80035953636E+03  0.80035953638E+03  0.50400001928E-02 0.  1.
       -1   -1    0    0    0  501  0.00000000000E+00  0.00000000000E+00 -0.61466398993E+03  0.61466398995E+03  0.50400001928E-02 0. -1.
    10030    2    1    2    0    0  0.00000000000E+00  0.00000000000E+00  0.18569554643E+03  0.14150235263E+04  0.14027860650E+04 0.  0.
        3    1    3    3  502    0 -0.41781205345E+02  0.54648961593E+03 -0.34864098673E+03  0.64957456637E+03  0.10100000352E+00 0. -1.
       -3    1    3    3    0  502  0.41781205345E+02 -0.54648961593E+03  0.53433653316E+03  0.76544895996E+03  0.10100000352E+00 0.  1.
</event>
<event>
 5   0  0.8609148E-04  0.1355075E+04  0.7818609E-02  0.8986995E-01
        1   -1    0    0  501    0  0.00000000000E+00  0.00000000000E+00  0.18547894828E+04  0.18547894828E+04  0.50400001928E-02 0.  1.
       -1   -1    0    0    0  501  0.00000000000E+00  0.00000000000E+00 -0.24749827351E+03  0.24749827357E+03  0.50400001928E-02 0. -1.
    10030    2    1    2    0    0  0.00000000000E+00  0.00000000000E+00  0.16072912093E+04  0.21022877564E+04  0.13550751932E+04 0.  0.
        5    1    3    3  502    0  0.75685310331E+02  0.50935261206E+03  0.12055165794E+03  0.52888859115E+03  0.46999998093E+01 0. -1.
       -5    1    3    3    0  502 -0.75685310331E+02 -0.50935261206E+03  0.14867395514E+04  0.15733991652E+04  0.46999998093E+01 0.  1.
</event>
<event>
 5   0  0.1578965E-03  0.1400152E+04  0.7818609E-02  0.8953709E-01
        2   -1    0    0  501    0  0.00000000000E+00  0.00000000000E+00  0.14740961856E+04  0.14740961856E+04  0.25500000920E-02 0. -1.
       -2   -1    0    0    0  501  0.00000000000E+00  0.00000000000E+00 -0.33247922094E+03  0.33247922095E+03  0.25500000920E-02 0.  1.
    10030    2    1    2    0    0  0.00000000000E+00  0.00000000000E+00  0.11416169646E+04  0.18065754065E+04  0.14001519223E+04 0.  0.
        2    1    3    3  502    0 -0.12086280214E+03 -0.18060337744E+03  0.14294748148E+04  0.14458989049E+04  0.25500000920E-02 0. -1.
       -2    1    3    3    0  502  0.12086280214E+03  0.18060337744E+03 -0.28785785023E+03  0.36067650163E+03  0.25500000920E-02 0.  1.
</event>
<event>
 5   0  0.1706986E-03  0.1432189E+04  0.7818609E-02  0.8930842E-01
        2   -1    0    0  501    0  0.00000000000E+00  0.00000000000E+00  0.83728510614E+03  0.83728510615E+03  0.25500000920E-02 0.  1.
       -2   -1    0    0    0  501  0.00000000000E+00  0.00000000000E+00 -0.61244547526E+03  0.61244547526E+03  0.25500000920E-02 0. -1.
    10030    2    1    2    0    0  0.00000000000E+00  0.00000000000E+00  0.22483963089E+03  0.14497305814E+04  0.14321891981E+04 0.  0.
        3    1    3    3  502    0  0.15313227814E+03 -0.24373325779E+03  0.77614584074E+03  0.82780297889E+03  0.10100000352E+00 0.  1.
       -3    1    3    3    0  502 -0.15313227814E+03  0.24373325779E+03 -0.55130620985E+03  0.62192760253E+03  0.10100000352E+00 0. -1.
</event>
<event>
 5   0  0.8673728E-04  0.1090414E+04  0.7818609E-02  0.9214586E-01
        1   -1    0    0  501    0  0.00000000000E+00  0.00000000000E+00  0.63857644464E+03  0.63857644466E+03  0.50400001928E-02 0.  1.
       -1   -1    0    0    0  501  0.00000000000E+00  0.00000000000E+00 -0.46548947065E+03  0.46548947067E+03  0.50400001928E-02 0. -1.
    10030    2    1    2    0    0  0.00000000000E+00  0.00000000000E+00  0.17308697400E+03  0.11040659153E+04  0.10904138869E+04 0.  0.
        3    1    3    3  502    0 -0.34306160260E+03  0.40913180697E+03  0.19824469792E+03  0.56954461555E+03  0.10100000352E+00 0.  1.
       -3    1    3    3    0  502  0.34306160260E+03 -0.40913180697E+03 -0.25157723926E+02  0.53452129978E+03  0.10100000352E+00 0. -1.
</event>
<event>
 5   0  0.1648463E-03  0.1416184E+04  0.7818609E-02  0.8942186E-01
       -2   -1    0    0    0  501  0.00000000000E+00  0.00000000000E+00  0.21307076581E+03  0.21307076582E+03  0.25500000920E-02 0.  1.
        2   -1    0    0  501    0  0.00000000000E+00  0.00000000000E+00 -0.23531818792E+04  0.23531818792E+04  0.25500000920E-02 0. -1.
    10030    2    1    2    0    0  0.00000000000E+00  0.00000000000E+00 -0.21401111134E+04  0.25662526451E+04  0.14161839783E+04 0.  0.
        1    1    3    3  502    0 -0.28106812763E+03 -0.63965940597E+03 -0.12784917177E+04  0.14569504180E+04  0.50400001928E-02 0. -1.
       -1    1    3    3    0  502  0.28106812763E+03  0.63965940597E+03 -0.86161939569E+03  0.11093022271E+04  0.50400001928E-02 0.  1.
</event>
<event>
 5   0  0.1648463E-03  0.1402705E+04  0.7818609E-02  0.8951862E-01
       -2   -1    0    0    0  501  0.00000000000E+00  0.00000000000E+00  0.44344531267E+03  0.44344531268E+03  0.25500000920E-02 0. -1.
        2   -1    0    0  501    0  0.00000000000E+00  0.00000000000E+00 -0.11092589437E+04  0.11092589438E+04  0.25500000920E-02 0.  1.
    10030    2    1    2    0    0  0.00000000000E+00  0.00000000000E+00 -0.66581363108E+03  0.15527042564E+04  0.14027054989E+04 0.  0.
        1    1    3    3  502    0 -0.12014723983E+03  0.58530485081E+03 -0.73943783649E+03  0.95067630752E+03  0.50400001928E-02 0.  1.
       -1    1    3    3    0  502  0.12014723983E+03 -0.58530485081E+03  0.73624205414E+02  0.60202794891E+03  0.50400001928E-02 0. -1.
</event>
<event>
 5   0  0.1605214E-03  0.1413044E+04  0.7818609E-02  0.8944430E-01
        2   -1    0    0  501    0  0.00000000000E+00  0.00000000000E+00  0.11479693048E+04  0.11479693048E+04  0.25500000920E-02 0.  1.
       -2   -1    0    0    0  501  0.00000000000E+00  0.00000000000E+00 -0.43483165734E+03  0.43483165734E+03  0.25500000920E-02 0. -1.
    10030    2    1    2    0    0  0.00000000000E+00  0.00000000000E+00  0.71313764744E+03  0.15828009621E+04  0.14130440834E+04 0.  0.
        5    1    3    3  502    0 -0.29415486352E+03 -0.46235636008E+03 -0.14292978800E+03  0.56634927539E+03  0.46999998093E+01 0. -1.
       -5    1    3    3    0  502  0.29415486352E+03  0.46235636008E+03  0.85606743545E+03  0.10164516867E+04  0.46999998093E+01 0.  1.
</event>
<event>
 5   0  0.1706986E-03  0.1393400E+04  0.7818609E-02  0.8958610E-01
       -2   -1    0    0    0  501  0.00000000000E+00  0.00000000000E+00  0.25185178350E+03  0.25185178352E+03  0.25500000920E-02 0. -1.
        2   -1    0    0  501    0  0.00000000000E+00  0.00000000000E+00 -0.19272891719E+04  0.19272891719E+04  0.25500000920E-02 0.  1.
    10030    2    1    2    0    0  0.00000000000E+00  0.00000000000E+00 -0.16754373884E+04  0.21791409555E+04  0.13934004669E+04 0.  0.
        3    1    3    3  502    0  0.14728098497E+03  0.68078036136E+03 -0.86182592632E+03  0.11081053769E+04  0.10100000352E+00 0. -1.
       -3    1    3    3    0  502 -0.14728098497E+03 -0.68078036136E+03 -0.81361146211E+03  0.10710355785E+04  0.10100000352E+00 0.  1.
</event>
<event>
 5   0  0.9639548E-04  0.1400331E+04  0.7818609E-02  0.8953579E-01
        1   -1    0    0  501    0  0.00000000000E+00  0.00000000000E+00  0.12934303916E+04  0.12934303916E+04  0.50400001928E-02 0.  1.
       -1   -1    0    0    0  501  0.00000000000E+00  0.00000000000E+00 -0.37901644112E+03  0.37901644116E+03  0.50400001928E-02 0. -1.
    10030    2    1    2    0    0  0.00000000000E+00  0.00000000000E+00  0.91441395049E+03  0.16724468328E+04  0.14003305094E+04 0.  0.
        1    1    3    3  502    0 -0.32715729979E+03  0.21898559671E+03  0.11487238625E+04  0.12143117815E+04  0.50400001928E-02 0.  1.
       -1    1    3    3    0  502  0.32715729979E+03 -0.21898559671E+03 -0.23430991198E+03  0.45813505132E+03  0.50400001928E-02 0. -1.
</event>
<event>
 5   0  0.9639548E-04  0.1416472E+04  0.7818609E-02  0.8941981E-01
        1   -1    0    0  501    0  0.00000000000E+00  0.00000000000E+00  0.53277680771E+03  0.53277680773E+03  0.50400001928E-02 0. -1.
       -1   -1    0    0    0  501  0.00000000000E+00  0.00000000000E+00 -0.94147962867E+03  0.94147962868E+03  0.50400001928E-02 0.  1.
    10030    2    1    2    0    0  0.00000000000E+00  0.00000000000E+00 -0.40870282096E+03  0.14742564364E+04  0.14164723945E+04 0.  0.
        1    1    3    3  502    0 -0.42699230196E+03  0.56427885057E+03 -0.23497029814E+03  0.74561658254E+03  0.50400001928E-02 0. -1.
       -1    1    3    3    0  502  0.42699230196E+03 -0.56427885057E+03 -0.17373252282E+03  0.72863985387E+03  0.50400001928E-02 0.  1.
</event>
<event>
 5   0  0.8673728E-04  0.1402117E+04  0.7818609E-02  0.8952288E-01
        1   -1    0    0  501    0  0.00000000000E+00  0.00000000000E+00  0.95835317760E+03  0.95835317761E+03  0.50400001928E-02 0.  1.
       -1   -1    0    0    0  501  0.00000000000E+00  0.00000000000E+00 -0.51284100897E+03  0.51284100900E+03  0.50400001928E-02 0. -1.
    10030    2    1    2    0    0  0.00000000000E+00  0.00000000000E+00  0.44551216863E+03  0.14711941866E+04  0.14021167007E+04 0.  0.
        3    1    3    3  502    0 -0.28682018628E+03 -0.36086120764E+02 -0.44739165192E+03  0.53266061219E+03  0.10100000352E+00 0. -1.
       -3    1    3    3    0  502  0.28682018628E+03  0.36086120764E+02  0.89290382054E+03  0.93853357442E+03  0.10100000352E+00 0.  1.
</event>
<event>
 5   0  0.1605214E-03  0.1402806E+04  0.7818609E-02  0.8951790E-01
        2   -1    0    0  501    0  0.00000000000E+00  0.00000000000E+00  0.13483270586E+04  0.13483270586E+04  0.25500000920E-02 0. -1.
       -2   -1    0    0    0  501  0.00000000000E+00  0.00000000000E+00 -0.36487134322E+03  0.36487134323E+03  0.25500000920E-02 0.  1.
    10030    2    1    2    0    0  0.00000000000E+00  0.00000000000E+00  0.98345571539E+03  0.17131984018E+04  0.14028056244E+04 0.  0.
        5    1    3    3  502    0 -0.67057461718E+02  0.48637172177E+03 -0.11999054192E+03  0.50544433429E+03  0.46999998093E+01 0.  1.
       -5    1    3    3    0  502  0.67057461718E+02 -0.48637172177E+03  0.11034462573E+04  0.12077540676E+04  0.46999998093E+01 0. -1.
</event>
<event>
 5   0  0.1648463E-03  0.1390188E+04  0.7818609E-02  0.8960952E-01
        2   -1    0    0  501    0  0.00000000000E+00  0.00000000000E+00  0.26939724384E+04  0.26939724384E+04  0.25500000920E-02 0. -1.
       -2   -1    0    0    0  501  0.00000000000E+00  0.00000000000E+00 -0.17934691143E+03  0.17934691145E+03  0.25500000920E-02 0.  1.
    10030    2    1    2    0    0  0.00000000000E+00  0.00000000000E+00  0.25146255270E+04  0.28733193499E+04  0.13901879532E+04 0.  0.
        1    1    3    3  502    0  0.36865809173E+03  0.36710649265E+03  0.30458445608E+03  0.60286620112E+03  0.50400001928E-02 0.  1.
       -1    1    3    3    0  502 -0.36865809173E+03 -0.36710649265E+03  0.22100410709E+04  0.22704531487E+04  0.50400001928E-02 0. -1.
</event>
<event>
 5   0  0.8609148E-04  0.1402275E+04  0.7818609E-02  0.8952174E-01
        1   -1    0    0  501    0  0.00000000000E+00  0.00000000000E+00  0.16031525063E+04  0.16031525063E+04  0.50400001928E-02 0.  1.
       -1   -1    0    0    0  501  0.00000000000E+00  0.00000000000E+00 -0.30664187368E+03  0.30664187372E+03  0.50400001928E-02 0. -1.
    10030    2    1    2    0    0  0.00000000000E+00  0.00000000000E+00  0.12965106326E+04  0.19097943800E+04  0.14022748495E+04 0.  0.
        5    1    3    3  502    0 -0.36823175985E+03  0.59495811746E+03  0.70919001453E+03  0.99626420050E+03  0.46999998093E+01 0.  1.
       -5    1    3    3    0  502  0.36823175985E+03 -0.59495811746E+03  0.58732061810E+03  0.91353017954E+03  0.46999998093E+01 0. -1.
</event>
<event>
 5   0  0.8609148E-04  0.1397756E+04  0.7818609E-02  0.8955445E-01
       -1   -1    0    0    0  501  0.00000000000E+00  0.00000000000E+00  0.64474015698E+03  0.64474015700E+03  0.50400001928E-02 0. -1.
        1   -1    0    0  501    0  0.00000000000E+00  0.00000000000E+00 -0.75756153311E+03  0.75756153313E+03  0.50400001928E-02 0.  1.
    10030    2    1    2    0    0  0.00000000000E+00  0.00000000000E+00 -0.11282137614E+03  0.14023016901E+04  0.13977558325E+04 0.  0.
        5    1    3    3  502    0 -0.67756335636E+02 -0.52318316181E+03 -0.51626447802E+03  0.73814811731E+03  0.46999998093E+01 0.  1.
       -5    1    3    3    0  502  0.67756335636E+02  0.52318316181E+03  0.40344310189E+03  0.66415357281E+03  0.46999998093E+01 0. -1.
</event>
<event>
 5   0  0.1648463E-03  0.1427887E+04  0.7818609E-02  0.8933877E-01
        2   -1    0    0  501    0  0.00000000000E+00  0.00000000000E+00  0.93231847875E+03  0.93231847875E+03  0.25500000920E-02 0. -1.
       -2   -1    0    0    0  501  0.00000000000E+00  0.00000000000E+00 -0.54671765930E+03  0.54671765931E+03  0.25500000920E-02 0.  1.
    10030    2    1    2    0    0  0.00000000000E+00  0.00000000000E+00  0.38560081945E+03  0.14790361381E+04  0.14278865171E+04 0.  0.
        1    1    3    3  502    0 -0.30977760665E+03 -0.63243847097E+03  0.31436897751E+03  0.77121231784E+03  0.50400001928E-02 0. -1.
       -1    1    3    3    0  502  0.30977760665E+03  0.63243847097E+03  0.71231841933E+02  0.70782382022E+03  0.50400001928E-02 0.  1.
</event>
<event>
 5   0  0.8673728E-04  0.1429831E+04  0.7818609E-02  0.8932504E-01
        1   -1    0    0  501    0  0.00000000000E+00  0.00000000000E+00  0.58435692909E+03  0.58435692911E+03  0.50400001928E-02 0. -1.
       -1   -1    0    0    0  501  0.00000000000E+00  0.00000000000E+00 -0.87464356751E+03  0.87464356753E+03  0.50400001928E-02 0.  1.
    10030    2    1    2    0    0  0.00000000000E+00  0.00000000000E+00 -0.29028663842E+03  0.14590004966E+04  0.14298308000E+04 0.  0.
        3    1    3    3  502    0 -0.58171643988E+03 -0.31931793681E+03  0.12626422411E+03  0.67550027808E+03  0.10100000352E+00 0. -1.
       -3    1    3    3    0  502  0.58171643988E+03  0.31931793681E+03 -0.41655086253E+03  0.78350021856E+03  0.10100000352E+00 0.  1.
</event>
<event>
 5   0  0.9007180E-04  0.1381410E+04  0.7818609E-02  0.8967386E-01
        1   -1    0    0  501    0  0.00000000000E+00  0.00000000000E+00  0.77152010493E+03  0.77152010494E+03  0.50400001928E-02 0. -1.
       -1   -1    0    0    0  501  0.00000000000E+00  0.00000000000E+00 -0.61835552159E+03  0.61835552161E+03  0.50400001928E-02 0.  1.
    10030    2    1    2    0    0  0.00000000000E+00  0.00000000000E+00  0.15316458334E+03  0.13898756266E+04  0.13814104631E+04 0.  0.
        2    1    3    3  502    0 -0.53833149793E+03  0.93450648203E+02 -0.34854680629E+03  0.64808849819E+03  0.25500000920E-02 0.  1.
       -2    1    3    3    0  502  0.53833149793E+03 -0.93450648203E+02  0.50171138963E+03  0.74178712836E+03  0.25500000920E-02 0. -1.
</event>
<event>
 5   0  0.8502300E-04  0.1338703E+04  0.7818609E-02  0.8999424E-01
        1   -1    0    0  501    0  0.00000000000E+00  0.00000000000E+00  0.83617721573E+03  0.83617721575E+03  0.50400001928E-02 0. -1.
       -1   -1    0    0    0  501  0.00000000000E+00  0.00000000000E+00 -0.53580894862E+03  0.53580894865E+03  0.50400001928E-02 0.  1.
    10030    2    1    2    0    0  0.00000000000E+00  0.00000000000E+00  0.30036826711E+03  0.13719861644E+04  0.13387027076E+04 0.  0.
        4    1    3    3  502    0 -0.49123227266E+03 -0.37115428499E+03  0.41932514193E+03  0.74491599293E+03  0.12699999809E+01 0. -1.
       -4    1    3    3    0  502  0.49123227266E+03  0.37115428499E+03 -0.11895687482E+03  0.62707017146E+03  0.12699999809E+01 0.  1.
</event>
<event>
 5   0  0.8502300E-04  0.1410973E+04  0.7818609E-02  0.8945914E-01
        1   -1    0    0  501    0  0.00000000000E+00  0.00000000000E+00  0.92869161636E+03  0.92869161638E+03  0.50400001928E-02 0.  1.
       -1   -1    0    0    0  501  0.00000000000E+00  0.00000000000E+00 -0.53592713192E+03  0.53592713194E+03  0.50400001928E-02 0. -1.
    10030    2    1    2    0    0  0.00000000000E+00  0.00000000000E+00  0.39276448444E+03  0.14646187483E+04  0.14109727629E+04 0.  0.
        4    1    3    3  502    0 -0.99614895560E+02  0.63050132187E+03 -0.11546369889E+03  0.64868214323E+03  0.12699999809E+01 0. -1.
       -4    1    3    3    0  502  0.99614895560E+02 -0.63050132187E+03  0.50822818333E+03  0.81593660509E+03  0.12699999809E+01 0.  1.
</event>
<event>
 5   0  0.9639548E-04  0.1422738E+04  0.7818609E-02  0.8937522E-01
       -1   -1    0    0    0  501  0.00000000000E+00  0.00000000000E+00  0.59476332031E+03  0.59476332033E+03  0.50400001928E-02 0.  1.
        1   -1    0    0  501    0  0.00000000000E+00  0.00000000000E+00 -0.85083579951E+03  0.85083579952E+03  0.50400001928E-02 0. -1.
    10030    2    1    2    0    0  0.00000000000E+00  0.00000000000E+00 -0.25607247919E+03  0.14455991199E+04  0.14227380998E+04 0.  0.
        1    1    3    3  502    0  0.32195782673E+03  0.55855170811E+03 -0.43354869450E+03  0.77691783565E+03  0.50400001928E-02 0. -1.
       -1    1    3    3    0  502 -0.32195782673E+03 -0.55855170811E+03  0.17747621531E+03  0.66868128421E+03  0.50400001928E-02 0.  1.
</event>
<event>
 5   0  0.8673728E-04  0.1400634E+04  0.7818609E-02  0.8953360E-01
       -1   -1    0    0    0  501  0.00000000000E+00  0.00000000000E+00  0.28540831041E+03  0.28540831045E+03  0.50400001928E-02 0. -1.
        1   -1    0    0  501    0  0.00000000000E+00  0.00000000000E+00 -0.17183947545E+04  0.17183947545E+04  0.50400001928E-02 0.  1.
    10030    2    1    2    0    0  0.00000000000E+00  0.00000000000E+00 -0.14329864441E+04  0.20038030649E+04  0.14006343471E+04 0.  0.
        3    1    3    3  502    0  0.11534817228E+03 -0.53000133628E+03 -0.82738390327E+02  0.54868230220E+03  0.10100000352E+00 0. -1.
       -3    1    3    3    0  502 -0.11534817228E+03  0.53000133628E+03 -0.13502480537E+04  0.14551207627E+04  0.10100000352E+00 0.  1.
</event>
<event>
 5   0  0.8502300E-04  0.1353123E+04  0.7818609E-02  0.8988468E-01
        1   -1    0    0  501    0  0.00000000000E+00  0.00000000000E+00  0.12021630834E+04  0.12021630834E+04  0.50400001928E-02 0. -1.
       -1   -1    0    0    0  501  0.00000000000E+00  0.00000000000E+00 -0.38075970480E+03  0.38075970483E+03  0.50400001928E-02 0.  1.
    10030    2    1    2    0    0  0.00000000000E+00  0.00000000000E+00  0.82140337862E+03  0.15829227883E+04  0.13531227007E+04 0.  0.
        4    1    3    3  502    0  0.60175149166E+03  0.50772698680E+02  0.76754938327E+03  0.97663524067E+03  0.12699999809E+01 0. -1.
       -4    1    3    3    0  502 -0.60175149166E+03 -0.50772698680E+02  0.53853995343E+02  0.60628754759E+03  0.12699999809E+01 0.  1.
</event>
<event>
 5   0  0.1605214E-03  0.1384557E+04  0.7818609E-02  0.8965074E-01
       -2   -1    0    0    0  501  0.00000000000E+00  0.00000000000E+00  0.45289587162E+03  0.45289587162E+03  0.25500000920E-02 0.  1.
        2   -1    0    0  501    0  0.00000000000E+00  0.00000000000E+00 -0.10581885561E+04  0.10581885561E+04  0.25500000920E-02 0. -1.
    10030    2    1    2    0    0  0.00000000000E+00  0.00000000000E+00 -0.60529268446E+03  0.15110844277E+04  0.13845565766E+04 0.  0.
        5    1    3    3  502    0  0.56182283945E+03  0.40440067136E+03 -0.30974727014E+03  0.75838662124E+03  0.46999998093E+01 0.  1.
       -5    1    3    3    0  502 -0.56182283945E+03 -0.40440067136E+03 -0.29554541432E+03  0.75269780646E+03  0.46999998093E+01 0. -1.
</event>
<event>
 5   0  0.9007180E-04  0.1413465E+04  0.7818609E-02  0.8944129E-01
       -1   -1    0    0    0  501  0.00000000000E+00  0.00000000000E+00  0.61035146940E+03  0.61035146942E+03  0.50400001928E-02 0.  1.
        1   -1    0    0  501    0  0.00000000000E+00  0.00000000000E+00 -0.81833275226E+03  0.81833275227E+03  0.50400001928E-02 0. -1.
    10030    2    1    2    0    0  0.00000000000E+00  0.00000000000E+00 -0.20798128286E+03  0.14286842217E+04  0.14134646764E+04 0.  0.
        2    1    3    3  502    0 -0.38884590008E+03 -0.37709959036E+03 -0.56282273529E+03  0.78113677831E+03  0.25500000920E-02 0. -1.
       -2    1    3    3    0  502  0.38884590008E+03  0.37709959036E+03  0.35484145243E+03  0.64754744338E+03  0.25500000920E-02 0.  1.
</event>
<event>
 5   0  0.8673728E-04  0.1343766E+04  0.7818609E-02  0.8995560E-01
        1   -1    0    0  501    0  0.00000000000E+00  0.00000000000E+00  0.60671365006E+03  0.60671365008E+03  0.50400001928E-02 0. -1.
       -1   -1    0    0    0  501  0.00000000000E+00  0.00000000000E+00 -0.74405267770E+03  0.74405267772E+03  0.50400001928E-02 0.  1.
    10030    2    1    2    0    0  0.00000000000E+00  0.00000000000E+00 -0.13733902764E+03  0.13507663278E+04  0.13437662236E+04 0.  0.
        3    1    3    3  502    0 -0.19525725190E+03  0.32808487294E+03  0.48707746178E+03  0.61887764724E+03  0.10100000352E+00 0. -1.
       -3    1    3    3    0  502  0.19525725190E+03 -0.32808487294E+03 -0.62441648942E+03  0.73188868056E+03  0.10100000352E+00 0.  1.
</event>
<event>
 5   0  0.9007180E-04  0.1425503E+04  0.7818609E-02  0.8935562E-01
        1   -1    0    0  501    0  0.00000000000E+00  0.00000000000E+00  0.62831540721E+03  0.62831540723E+03  0.50400001928E-02 0.  1.
       -1   -1    0    0    0  501  0.00000000000E+00  0.00000000000E+00 -0.80853465450E+03  0.80853465452E+03  0.50400001928E-02 0. -1.
    10030    2    1    2    0    0  0.00000000000E+00  0.00000000000E+00 -0.18021924729E+03  0.14368500617E+04  0.14255031122E+04 0.  0.
        2    1    3    3  502    0 -0.18929712882E+03  0.57720456340E+02  0.60006679203E+03  0.63185853556E+03  0.25500000920E-02 0.  1.
       -2    1    3    3    0  502  0.18929712882E+03 -0.57720456340E+02 -0.78028603932E+03  0.80499152618E+03  0.25500000920E-02 0. -1.
</event>
<event>
 5   0  0.1648463E-03  0.1408797E+04  0.7818609E-02  0.8947475E-01
        2   -1    0    0  501    0  0.00000000000E+00  0.00000000000E+00  0.11756287757E+04  0.11756287757E+04  0.25500000920E-02 0. -1.
       -2   -1    0    0    0  501  0.00000000000E+00  0.00000000000E+00 -0.42205284645E+03  0.42205284646E+03  0.25500000920E-02 0.  1.
    10030    2    1    2    0    0  0.00000000000E+00  0.00000000000E+00  0.75357592920E+03  0.15976816221E+04  0.14087973185E+04 0.  0.
        1    1    3    3  502    0 -0.15069198349E+03  0.61016195766E+03  0.73750896310E+03  0.96898150609E+03  0.50400001928E-02 0. -1.
       -1    1    3    3    0  502  0.15069198349E+03 -0.61016195766E+03  0.16066966109E+02  0.62870011602E+03  0.50400001928E-02 0.  1.
</event>
<event>
 5   0  0.9639548E-04  0.1425971E+04  0.7818609E-02  0.8935231E-01
        1   -1    0    0  501    0  0.00000000000E+00  0.00000000000E+00  0.94138475783E+03  0.94138475784E+03  0.50400001928E-02 0. -1.
       -1   -1    0    0    0  501  0.00000000000E+00  0.00000000000E+00 -0.54000031473E+03  0.54000031475E+03  0.50400001928E-02 0.  1.
    10030    2    1    2    0    0  0.00000000000E+00  0.00000000000E+00  0.40138444310E+03  0.14813850726E+04  0.14259706386E+04 0.  0.
        1    1    3    3  502    0 -0.36753075764E+02 -0.46897323975E+02 -0.53740939808E+03  0.54070232914E+03  0.50400001928E-02 0.  1.
       -1    1    3    3    0  502  0.36753075764E+02  0.46897323975E+02  0.93879384117E+03  0.94068274345E+03  0.50400001928E-02 0. -1.
</event>
<event>
 5   0  0.1578965E-03  0.1413955E+04  0.7818609E-02  0.8943779E-01
       -2   -1    0    0    0  501  0.00000000000E+00  0.00000000000E+00  0.48589406283E+03  0.48589406284E+03  0.25500000920E-02 0. -1.
        2   -1    0    0  501    0  0.00000000000E+00  0.00000000000E+00 -0.10286542258E+04  0.10286542258E+04  0.25500000920E-02 0.  1.
    10030    2    1    2    0    0  0.00000000000E+00  0.00000000000E+00 -0.54276016294E+03  0.15145482886E+04  0.14139547108E+04 0.  0.
        2    1    3    3  502    0 -0.44552539155E+02 -0.24936276224E+03  0.43561536514E+03  0.50391215731E+03  0.25500000920E-02 0. -1.
       -2    1    3    3    0  502  0.44552539155E+02  0.24936276224E+03 -0.97837552808E+03  0.10106361313E+04  0.25500000920E-02 0.  1.
</event>
<event>
 5   0  0.6048000E-04  0.1371650E+04  0.7818609E-02  0.8974599E-01
        3   -1    0    0  501    0  0.00000000000E+00  0.00000000000E+00  0.48054878043E+03  0.48054879104E+03  0.10100000352E+00 0. -1.
       -3   -1    0    0    0  501  0.00000000000E+00  0.00000000000E+00 -0.97878875739E+03  0.97878876260E+03  0.10100000352E+00 0.  1.
    10030    2    1    2    0    0  0.00000000000E+00  0.00000000000E+00 -0.49823997696E+03  0.14593375536E+04  0.13716497442E+04 0.  0.
        4    1    3    3  502    0  0.31157912322E+03 -0.11291705224E+03  0.38970017732E+03  0.51156588219E+03  0.12699999809E+01 0. -1.
       -4    1    3    3    0  502 -0.31157912322E+03  0.11291705224E+03 -0.88794015428E+03  0.94777167145E+03  0.12699999809E+01 0.  1.
</event>
<event>
 5   0  0.9639548E-04  0.1423612E+04  0.7818609E-02  0.8936902E-01
       -1   -1    0    0    0  501  0.00000000000E+00  0.00000000000E+00  0.37745135916E+03  0.37745135919E+03  0.50400001928E-02 0.  1.
        1   -1    0    0  501    0  0.00000000000E+00  0.00000000000E+00 -0.13423389210E+04  0.13423389210E+04  0.50400001928E-02 0. -1.
    10030    2    1    2    0    0  0.00000000000E+00  0.00000000000E+00 -0.96488756183E+03  0.17197902802E+04  0.14236118154E+04 0.  0.
        1    1    3    3  502    0 -0.60425271318E+03 -0.28273740847E+03 -0.18260007146E+03  0.69166796200E+03  0.50400001928E-02 0. -1.
       -1    1    3    3    0  502  0.60425271318E+03  0.28273740847E+03 -0.78228749038E+03  0.10281223182E+04  0.50400001928E-02 0.  1.
</event>
<event>
 5   0  0.8673728E-04  0.1409879E+04  0.7818609E-02  0.8946698E-01
        1   -1    0    0  501    0  0.00000000000E+00  0.00000000000E+00  0.19761368773E+04  0.19761368773E+04  0.50400001928E-02 0. -1.
       -1   -1    0    0    0  501  0.00000000000E+00  0.00000000000E+00 -0.25147037928E+03  0.25147037933E+03  0.50400001928E-02 0.  1.
    10030    2    1    2    0    0  0.00000000000E+00  0.00000000000E+00  0.17246664980E+04  0.22276072566E+04  0.14098792716E+04 0.  0.
        3    1    3    3  502    0 -0.58574137476E+03  0.86465223789E+01  0.14819106309E+04  0.15934951674E+04  0.10100000352E+00 0. -1.
       -3    1    3    3    0  502  0.58574137476E+03 -0.86465223789E+01  0.24275586711E+03  0.63411208920E+03  0.10100000352E+00 0.  1.
</event>
<event>
 5   0  0.1605214E-03  0.1389481E+04  0.7818609E-02  0.8961468E-01
       -2   -1    0    0    0  501  0.00000000000E+00  0.00000000000E+00  0.68068170519E+03  0.68068170519E+03  0.25500000920E-02 0.  1.
        2   -1    0    0  501    0  0.00000000000E+00  0.00000000000E+00 -0.70908931024E+03  0.70908931025E+03  0.25500000920E-02 0. -1.
    10030    2    1    2    0    0  0.00000000000E+00  0.00000000000E+00 -0.28407605054E+02  0.13897710154E+04  0.13894806524E+04 0.  0.
        5    1    3    3  502    0 -0.25097614719E+03  0.46533364015E+03  0.43657608669E+03  0.68567134444E+03  0.46999998093E+01 0.  1.
       -5    1    3    3    0  502  0.25097614719E+03 -0.46533364015E+03 -0.46498369175E+03  0.70409967100E+03  0.46999998093E+01 0. -1.
</event>
<event>
 5   0  0.1648213E-03  0.1409401E+04  0.7818609E-02  0.8947042E-01
       -2   -1    0    0    0  501  0.00000000000E+00  0.00000000000E+00  0.14887728262E+04  0.14887728262E+04  0.25500000920E-02 0.  1.
        2   -1    0    0  501    0  0.00000000000E+00  0.00000000000E+00 -0.33356519396E+03  0.33356519397E+03  0.25500000920E-02 0. -1.
    10030    2    1    2    0    0  0.00000000000E+00  0.00000000000E+00  0.11552076323E+04  0.18223380202E+04  0.14094010026E+04 0.  0.
        4    1    3    3  502    0 -0.47323076726E+03  0.44304333303E+03  0.22029346042E+03  0.68466457162E+03  0.12699999809E+01 0. -1.
       -4    1    3    3    0  502  0.47323076726E+03 -0.44304333303E+03  0.93491417186E+03  0.11376734486E+04  0.12699999809E+01 0.  1.
</event>
<event>
 5   0  0.9639548E-04  0.1414598E+04  0.7818609E-02  0.8943319E-01
        1   -1    0    0  501    0  0.00000000000E+00  0.00000000000E+00  0.48264077171E+03  0.48264077174E+03  0.50400001928E-02 0. -1.
       -1   -1    0    0    0  501  0.00000000000E+00  0.00000000000E+00 -0.10365298135E+04  0.10365298135E+04  0.50400001928E-02 0.  1.
    10030    2    1    2    0    0  0.00000000000E+00  0.00000000000E+00 -0.55388904183E+03  0.15191705853E+04  0.14145975387E+04 0.  0.
        1    1    3    3  502    0  0.11365959991E+03  0.68279917887E+03 -0.12080640365E+03  0.70265739198E+03  0.50400001928E-02 0. -1.
       -1    1    3    3    0  502 -0.11365959991E+03 -0.68279917887E+03 -0.43308263817E+03  0.81651319330E+03  0.50400001928E-02 0.  1.
</event>
<event>
 5   0  0.8609148E-04  0.1367481E+04  0.7818609E-02  0.8977700E-01
       -1   -1    0    0    0  501  0.00000000000E+00  0.00000000000E+00  0.48387982186E+03  0.48387982189E+03  0.50400001928E-02 0. -1.
        1   -1    0    0  501    0  0.00000000000E+00  0.00000000000E+00 -0.96615075827E+03  0.96615075829E+03  0.50400001928E-02 0.  1.
    10030    2    1    2    0    0  0.00000000000E+00  0.00000000000E+00 -0.48227093641E+03  0.14500305802E+04  0.13674806863E+04 0.  0.
        5    1    3    3  502    0  0.60829025892E+03  0.86929552245E+02 -0.55907742008E+03  0.83076075846E+03  0.46999998093E+01 0. -1.
       -5    1    3    3    0  502 -0.60829025892E+03 -0.86929552245E+02  0.76806483670E+02  0.61926982172E+03  0.46999998093E+01 0.  1.
</event>
<event>
 5   0  0.1706986E-03  0.1396340E+04  0.7818609E-02  0.8956472E-01
       -2   -1    0    0    0  501  0.00000000000E+00  0.00000000000E+00  0.32301248401E+03  0.32301248402E+03  0.25500000920E-02 0.  1.
        2   -1    0    0  501    0  0.00000000000E+00  0.00000000000E+00 -0.15090478434E+04  0.15090478434E+04  0.25500000920E-02 0. -1.
    10030    2    1    2    0    0  0.00000000000E+00  0.00000000000E+00 -0.11860353594E+04  0.18320603274E+04  0.13963399191E+04 0.  0.
        3    1    3    3  502    0 -0.23328299179E+03  0.43565731901E+03 -0.12400872282E+04  0.13349286863E+04  0.10100000352E+00 0. -1.
       -3    1    3    3    0  502  0.23328299179E+03 -0.43565731901E+03  0.54051868787E+02  0.49713164110E+03  0.10100000352E+00 0.  1.
</event>
<event>
 5   0  0.8502300E-04  0.1241408E+04  0.7818609E-02  0.9077365E-01
        1   -1    0    0  501    0  0.00000000000E+00  0.00000000000E+00  0.57795421112E+03  0.57795421115E+03  0.50400001928E-02 0. -1.
       -1   -1    0    0    0  501  0.00000000000E+00  0.00000000000E+00 -0.66661624527E+03  0.66661624529E+03  0.50400001928E-02 0.  1.
    10030    2    1    2    0    0  0.00000000000E+00  0.00000000000E+00 -0.88662034145E+02  0.12445704564E+04  0.12414083392E+04 0.  0.
        4    1    3    3  502    0  0.40492165279E+00  0.31351899272E+03  0.49273655104E+03  0.58402503747E+03  0.12699999809E+01 0. -1.
       -4    1    3    3    0  502 -0.40492165279E+00 -0.31351899272E+03 -0.58139858518E+03  0.66054541896E+03  0.12699999809E+01 0.  1.
</event>
<event>
 5   0  0.1706986E-03  0.1406755E+04  0.7818609E-02  0.8948944E-01
        2   -1    0    0  501    0  0.00000000000E+00  0.00000000000E+00  0.17133850927E+04  0.17133850927E+04  0.25500000920E-02 0.  1.
       -2   -1    0    0    0  501  0.00000000000E+00  0.00000000000E+00 -0.28874988589E+03  0.28874988590E+03  0.25500000920E-02 0. -1.
    10030    2    1    2    0    0  0.00000000000E+00  0.00000000000E+00  0.14246352069E+04  0.20021349786E+04  0.14067547761E+04 0.  0.
        3    1    3    3  502    0 -0.48017154430E+03 -0.41172511894E+03  0.27444037044E+03  0.68949243117E+03  0.10100000352E+00 0. -1.
       -3    1    3    3    0  502  0.48017154430E+03  0.41172511894E+03  0.11501948364E+04  0.13126425475E+04  0.10100000352E+00 0.  1.
</event>
<event>
 5   0  0.6048000E-04  0.1376965E+04  0.7818609E-02  0.8970664E-01
        3   -1    0    0  501    0  0.00000000000E+00  0.00000000000E+00  0.48844035828E+03  0.48844036872E+03  0.10100000352E+00 0. -1.
       -3   -1    0    0    0  501  0.00000000000E+00  0.00000000000E+00 -0.97045185587E+03  0.97045186113E+03  0.10100000352E+00 0.  1.
    10030    2    1    2    0    0  0.00000000000E+00  0.00000000000E+00 -0.48201149759E+03  0.14588922298E+04  0.13769645800E+04 0.  0.
        2    1    3    3  502    0  0.34625773249E+03  0.30490216688E+03  0.30042621361E+03  0.55055940506E+03  0.25500000920E-02 0. -1.
       -2    1    3    3    0  502 -0.34625773249E+03 -0.30490216688E+03 -0.78243771120E+03  0.90833282479E+03  0.25500000920E-02 0.  1.
</event>
<event>
 5   0  0.9007180E-04  0.1385015E+04  0.7818609E-02  0.8964737E-01
       -1   -1    0    0    0  501  0.00000000000E+00  0.00000000000E+00  0.59492390386E+03  0.59492390389E+03  0.50400001928E-02 0.  1.
        1   -1    0    0  501    0  0.00000000000E+00  0.00000000000E+00 -0.80609785246E+03  0.80609785248E+03  0.50400001928E-02 0. -1.
    10030    2    1    2    0    0  0.00000000000E+00  0.00000000000E+00 -0.21117394860E+03  0.14010217564E+04  0.13850153520E+04 0.  0.
        2    1    3    3  502    0  0.27975301861E+03 -0.54381598453E+03  0.22308231302E+03  0.65097103994E+03  0.25500000920E-02 0.  1.
       -2    1    3    3    0  502 -0.27975301861E+03  0.54381598453E+03 -0.43425626161E+03  0.75005071642E+03  0.25500000920E-02 0. -1.
</event>
<event>
 5   0  0.1605214E-03  0.1414412E+04  0.7818609E-02  0.8943452E-01
       -2   -1    0    0    0  501  0.00000000000E+00  0.00000000000E+00  0.16357281312E+04  0.16357281312E+04  0.25500000920E-02 0.  1.
        2   -1    0    0  501    0  0.00000000000E+00  0.00000000000E+00 -0.30576005259E+03  0.30576005261E+03  0.25500000920E-02 0. -1.
    10030    2    1    2    0    0  0.00000000000E+00  0.00000000000E+00  0.13299680786E+04  0.19414881838E+04  0.14144119901E+04 0.  0.
        5    1    3    3  502    0  0.31530104035E+03  0.22303716958E+03 -0.14819530131E+03  0.41369585735E+03  0.46999998093E+01 0. -1.
       -5    1    3    3    0  502 -0.31530104035E+03 -0.22303716958E+03  0.14781633799E+04  0.15277923265E+04  0.46999998093E+01 0.  1.
</event>
<event>
 5   0  0.9639548E-04  0.1405778E+04  0.7818609E-02  0.8949646E-01
        1   -1    0    0  501    0  0.00000000000E+00  0.00000000000E+00  0.96843798086E+03  0.96843798087E+03  0.50400001928E-02 0. -1.
       -1   -1    0    0    0  501  0.00000000000E+00  0.00000000000E+00 -0.51015472201E+03  0.51015472203E+03  0.50400001928E-02 0.  1.
    10030    2    1    2    0    0  0.00000000000E+00  0.00000000000E+00  0.45828325885E+03  0.14785927029E+04  0.14057783736E+04 0.  0.
        1    1    3    3  502    0  0.42546859238E+02  0.47438344139E+03 -0.31454997789E+03  0.57078154605E+03  0.50400001928E-02 0.  1.
       -1    1    3    3    0  502 -0.42546859238E+02 -0.47438344139E+03  0.77283323674E+03  0.90781115686E+03  0.50400001928E-02 0. -1.
</event>
<event>
 5   0  0.9639548E-04  0.1412933E+04  0.7818609E-02  0.8944510E-01
       -1   -1    0    0    0  501  0.00000000000E+00  0.00000000000E+00  0.65298822659E+03  0.65298822661E+03  0.50400001928E-02 0.  1.
        1   -1    0    0  501    0  0.00000000000E+00  0.00000000000E+00 -0.76432498756E+03  0.76432498757E+03  0.50400001928E-02 0. -1.
    10030    2    1    2    0    0  0.00000000000E+00  0.00000000000E+00 -0.11133676096E+03  0.14173132142E+04  0.14129334283E+04 0.  0.
        1    1    3    3  502    0  0.44527208912E+03  0.16230115220E+03 -0.58120682235E+03  0.74994017610E+03  0.50400001928E-02 0. -1.
       -1    1    3    3    0  502 -0.44527208912E+03 -0.16230115220E+03  0.46987006138E+03  0.66737303809E+03  0.50400001928E-02 0.  1.
</event>
<event>
 5   0  0.1605214E-03  0.1402906E+04  0.7818609E-02  0.8951718E-01
        2   -1    0    0  501    0  0.00000000000E+00  0.00000000000E+00  0.58577516638E+03  0.58577516639E+03  0.25500000920E-02 0. -1.
       -2   -1    0    0    0  501  0.00000000000E+00  0.00000000000E+00 -0.83997472574E+03  0.83997472574E+03  0.25500000920E-02 0.  1.
    10030    2    1    2    0    0  0.00000000000E+00  0.00000000000E+00 -0.25419955936E+03  0.14257498921E+04  0.14029060335E+04 0.  0.
        5    1    3    3  502    0  0.63869770655E+03 -0.54038253629E+02  0.16242387253E+03  0.66125524389E+03  0.46999998093E+01 0.  1.
       -5    1    3    3    0  502 -0.63869770655E+03  0.54038253629E+02 -0.41662343188E+03  0.76449464825E+03  0.46999998093E+01 0. -1.
</event>
<event>
 5   0  0.8502300E-04  0.1415439E+04  0.7818609E-02  0.8942718E-01
        1   -1    0    0  501    0  0.00000000000E+00  0.00000000000E+00  0.30970390657E+03  0.30970390661E+03  0.50400001928E-02 0. -1.
       -1   -1    0    0    0  501  0.00000000000E+00  0.00000000000E+00 -0.16172446932E+04  0.16172446932E+04  0.50400001928E-02 0.  1.
    10030    2    1    2    0    0  0.00000000000E+00  0.00000000000E+00 -0.13075407866E+04  0.19269485998E+04  0.14154391536E+04 0.  0.
        4    1    3    3  502    0  0.58026845625E+02  0.38663597403E+03  0.14934018407E+03  0.41851952727E+03  0.12699999809E+01 0. -1.
       -4    1    3    3    0  502 -0.58026845625E+02 -0.38663597403E+03 -0.14568809706E+04  0.15084290725E+04  0.12699999809E+01 0.  1.
</event>
<event>
 5   0  0.9639548E-04  0.1398821E+04  0.7818609E-02  0.8954673E-01
       -1   -1    0    0    0  501  0.00000000000E+00  0.00000000000E+00  0.45807425493E+03  0.45807425496E+03  0.50400001928E-02 0.  1.
        1   -1    0    0  501    0  0.00000000000E+00  0.00000000000E+00 -0.10678942573E+04  0.10678942573E+04  0.50400001928E-02 0. -1.
    10030    2    1    2    0    0  0.00000000000E+00  0.00000000000E+00 -0.60982000232E+03  0.15259685122E+04  0.13988207409E+04 0.  0.
        1    1    3    3  502    0  0.91027042810E+02  0.31107759411E+03 -0.98101910686E+03  0.10331765000E+04  0.50400001928E-02 0. -1.
       -1    1    3    3    0  502 -0.91027042810E+02 -0.31107759411E+03  0.37119910455E+03  0.49279201223E+03  0.50400001928E-02 0.  1.
</event>
<event>
 5   0  0.1605214E-03  0.1403817E+04  0.7818609E-02  0.8951060E-01
       -2   -1    0    0    0  501  0.00000000000E+00  0.00000000000E+00  0.39010358569E+03  0.39010358570E+03  0.25500000920E-02 0. -1.
        2   -1    0    0  501    0  0.00000000000E+00  0.00000000000E+00 -0.12629347779E+04  0.12629347779E+04  0.25500000920E-02 0.  1.
    10030    2    1    2    0    0  0.00000000000E+00  0.00000000000E+00 -0.87283119225E+03  0.16530383636E+04  0.14038167763E+04 0.  0.
        5    1    3    3  502    0  0.47669283652E+03  0.67343465608E+02  0.16502763199E+03  0.50894735687E+03  0.46999998093E+01 0. -1.
       -5    1    3    3    0  502 -0.47669283652E+03 -0.67343465608E+02 -0.10378588242E+04  0.11440910068E+04  0.46999998093E+01 0.  1.
</event>
<event>
 5   0  0.8609148E-04  0.1405317E+04  0.7818609E-02  0.8949979E-01
       -1   -1    0    0    0  501  0.00000000000E+00  0.00000000000E+00  0.72150777964E+03  0.72150777965E+03  0.50400001928E-02 0. -1.
        1   -1    0    0  501    0  0.00000000000E+00  0.00000000000E+00 -0.68430175454E+03  0.68430175456E+03  0.50400001928E-02 0.  1.
    10030    2    1    2    0    0  0.00000000000E+00  0.00000000000E+00  0.37206025097E+02  0.14058095342E+04  0.14053171024E+04 0.  0.
        5    1    3    3  502    0 -0.42379949830E+03 -0.43530085727E+03  0.37173393000E+03  0.71225069730E+03  0.46999998093E+01 0. -1.
       -5    1    3    3    0  502  0.42379949830E+03  0.43530085727E+03 -0.33452790491E+03  0.69355883691E+03  0.46999998093E+01 0.  1.
</event>
<event>
 5   0  0.1706986E-03  0.1381484E+04  0.7818609E-02  0.8967331E-01
       -2   -1    0    0    0  501  0.00000000000E+00  0.00000000000E+00  0.25122388789E+03  0.25122388790E+03  0.25500000920E-02 0. -1.
        2   -1    0    0  501    0  0.00000000000E+00  0.00000000000E+00 -0.18992006107E+04  0.18992006107E+04  0.25500000920E-02 0.  1.
    10030    2    1    2    0    0  0.00000000000E+00  0.00000000000E+00 -0.16479767228E+04  0.21504244986E+04  0.13814840735E+04 0.  0.
        3    1    3    3  502    0 -0.68243912703E+03 -0.68226027267E+01 -0.65811797849E+03  0.94809756556E+03  0.10100000352E+00 0. -1.
       -3    1    3    3    0  502  0.68243912703E+03  0.68226027267E+01 -0.98985874433E+03  0.12023269331E+04  0.10100000352E+00 0.  1.
</event>
<event>
 5   0  0.9007180E-04  0.1409367E+04  0.7818609E-02  0.8947066E-01
        1   -1    0    0  501    0  0.00000000000E+00  0.00000000000E+00  0.78388610386E+03  0.78388610387E+03  0.50400001928E-02 0.  1.
       -1   -1    0    0    0  501  0.00000000000E+00  0.00000000000E+00 -0.63348384367E+03  0.63348384369E+03  0.50400001928E-02 0. -1.
    10030    2    1    2    0    0  0.00000000000E+00  0.00000000000E+00  0.15040226018E+03  0.14173699476E+04  0.14093674923E+04 0.  0.
        2    1    3    3  502    0  0.84773571649E+02 -0.26759647572E+03 -0.57483165556E+03  0.63970763987E+03  0.25500000920E-02 0. -1.
       -2    1    3    3    0  502 -0.84773571649E+02  0.26759647572E+03  0.72523391574E+03  0.77766230770E+03  0.25500000920E-02 0.  1.
</event>
<event>
 5   0  0.8502300E-04  0.1429473E+04  0.7818609E-02  0.8932757E-01
        1   -1    0    0  501    0  0.00000000000E+00  0.00000000000E+00  0.92011187656E+03  0.92011187657E+03  0.50400001928E-02 0. -1.
       -1   -1    0    0    0  501  0.00000000000E+00  0.00000000000E+00 -0.55520211231E+03  0.55520211233E+03  0.50400001928E-02 0.  1.
    10030    2    1    2    0    0  0.00000000000E+00  0.00000000000E+00  0.36490976425E+03  0.14753139889E+04  0.14294727104E+04 0.  0.
        4    1    3    3  502    0 -0.69121774139E+03  0.16811630094E+03  0.11094073097E+03  0.71996841274E+03  0.12699999809E+01 0.  1.
       -4    1    3    3    0  502  0.69121774139E+03 -0.16811630094E+03  0.25396903328E+03  0.75534557616E+03  0.12699999809E+01 0. -1.
</event>
<event>
 5   0  0.9639548E-04  0.1450573E+04  0.7818609E-02  0.8918003E-01
        1   -1    0    0  501    0  0.00000000000E+00  0.00000000000E+00  0.72021279147E+03  0.72021279149E+03  0.50400001928E-02 0.  1.
       -1   -1    0    0    0  501  0.00000000000E+00  0.00000000000E+00 -0.73039587202E+03  0.73039587204E+03  0.50400001928E-02 0. -1.
    10030    2    1    2    0    0  0.00000000000E+00  0.00000000000E+00 -0.10183080553E+02  0.14506086635E+04  0.14505729211E+04 0.  0.
        1    1    3    3  502    0 -0.15821392621E+02  0.58121425057E+03 -0.43866897532E+03  0.72834798789E+03  0.50400001928E-02 0. -1.
       -1    1    3    3    0  502  0.15821392621E+02 -0.58121425057E+03  0.42848589477E+03  0.72226067563E+03  0.50400001928E-02 0.  1.
</event>
<event>
 5   0  0.8502300E-04  0.1391175E+04  0.7818609E-02  0.8960232E-01
       -1   -1    0    0    0  501  0.00000000000E+00  0.00000000000E+00  0.10320773597E+04  0.10320773597E+04  0.50400001928E-02 0.  1.
        1   -1    0    0  501    0  0.00000000000E+00  0.00000000000E+00 -0.46880387810E+03  0.46880387812E+03  0.50400001928E-02 0. -1.
    10030    2    1    2    0    0  0.00000000000E+00  0.00000000000E+00  0.56327348161E+03  0.15008812378E+04  0.13911748542E+04 0.  0.
        4    1    3    3  502    0 -0.67327275726E+03  0.10833775400E+03  0.13368361149E+03  0.69491452388E+03  0.12699999809E+01 0.  1.
       -4    1    3    3    0  502  0.67327275726E+03 -0.10833775400E+03  0.42958987012E+03  0.80596671397E+03  0.12699999809E+01 0. -1.
</event>
<event>
 5   0  0.1578965E-03  0.1380217E+04  0.7818609E-02  0.8968264E-01
       -2   -1    0    0    0  501  0.00000000000E+00  0.00000000000E+00  0.36783428896E+03  0.36783428897E+03  0.25500000920E-02 0. -1.
        2   -1    0    0  501    0  0.00000000000E+00  0.00000000000E+00 -0.12947395213E+04  0.12947395213E+04  0.25500000920E-02 0.  1.
    10030    2    1    2    0    0  0.00000000000E+00  0.00000000000E+00 -0.92690523236E+03  0.16625738103E+04  0.13802167819E+04 0.  0.
        2    1    3    3  502    0 -0.16682748172E+03  0.59039331059E+03 -0.84409416668E+03  0.10434992248E+04  0.25500000920E-02 0.  1.
       -2    1    3    3    0  502  0.16682748172E+03 -0.59039331059E+03 -0.82811065682E+02  0.61907458554E+03  0.25500000920E-02 0. -1.
</event>
<event>
 5   0  0.1648463E-03  0.1427891E+04  0.7818609E-02  0.8933874E-01
        2   -1    0    0  501    0  0.00000000000E+00  0.00000000000E+00  0.71514844877E+03  0.71514844877E+03  0.25500000920E-02 0.  1.
       -2   -1    0    0    0  501  0.00000000000E+00  0.00000000000E+00 -0.71274409495E+03  0.71274409495E+03  0.25500000920E-02 0. -1.
    10030    2    1    2    0    0  0.00000000000E+00  0.00000000000E+00  0.24043538175E+01  0.14278925437E+04  0.14278905194E+04 0.  0.
        1    1    3    3  502    0 -0.13314923738E+03  0.25936063894E+01 -0.70021337937E+03  0.71276519477E+03  0.50400001928E-02 0. -1.
       -1    1    3    3    0  502  0.13314923738E+03 -0.25936063894E+01  0.70261773318E+03  0.71512734895E+03  0.50400001928E-02 0.  1.
</event>
<event>
 5   0  0.1706986E-03  0.1354125E+04  0.7818609E-02  0.8987712E-01
        2   -1    0    0  501    0  0.00000000000E+00  0.00000000000E+00  0.21463237051E+04  0.21463237051E+04  0.25500000920E-02 0. -1.
       -2   -1    0    0    0  501  0.00000000000E+00  0.00000000000E+00 -0.21358070250E+03  0.21358070252E+03  0.25500000920E-02 0.  1.
    10030    2    1    2    0    0  0.00000000000E+00  0.00000000000E+00  0.19327430026E+04  0.23599044076E+04  0.13541245508E+04 0.  0.
        3    1    3    3  502    0 -0.18027948402E+03 -0.28558953005E+02  0.21026370094E+04  0.21105446476E+04  0.10100000352E+00 0. -1.
       -3    1    3    3    0  502  0.18027948402E+03  0.28558953005E+02 -0.16989400680E+03  0.24935975999E+03  0.10100000352E+00 0.  1.
</event>
<event>
 5   0  0.1648463E-03  0.1393669E+04  0.7818609E-02  0.8958414E-01
       -2   -1    0    0    0  501  0.00000000000E+00  0.00000000000E+00  0.39045377270E+03  0.39045377271E+03  0.25500000920E-02 0. -1.
        2   -1    0    0  501    0  0.00000000000E+00  0.00000000000E+00 -0.12436257074E+04  0.12436257074E+04  0.25500000920E-02 0.  1.
    10030    2    1    2    0    0  0.00000000000E+00  0.00000000000E+00 -0.85317193467E+03  0.16340794801E+04  0.13936690415E+04 0.  0.
        1    1    3    3  502    0 -0.42449906648E+03 -0.52925565331E+03 -0.24020853220E+03  0.71972990974E+03  0.50400001928E-02 0. -1.
       -1    1    3    3    0  502  0.42449906648E+03  0.52925565331E+03 -0.61296340246E+03  0.91434957035E+03  0.50400001928E-02 0.  1.
</event>
<event>
 5   0  0.1648213E-03  0.1397440E+04  0.7818609E-02  0.8955674E-01
       -2   -1    0    0    0  501  0.00000000000E+00  0.00000000000E+00  0.53936999847E+03  0.53936999848E+03  0.25500000920E-02 0.  1.
        2   -1    0    0  501    0  0.00000000000E+00  0.00000000000E+00 -0.90514749913E+03  0.90514749913E+03  0.25500000920E-02 0. -1.
    10030    2    1    2    0    0  0.00000000000E+00  0.00000000000E+00 -0.36577750066E+03  0.14445174976E+04  0.13974396663E+04 0.  0.
        4    1    3    3  502    0  0.52887245564E+03 -0.16380467533E+03  0.25769760705E+03  0.61069445353E+03  0.12699999809E+01 0.  1.
       -4    1    3    3    0  502 -0.52887245564E+03  0.16380467533E+03 -0.62347510771E+03  0.83382304408E+03  0.12699999809E+01 0. -1.
</event>
<event>
 5   0  0.8673728E-04  0.1386293E+04  0.7818609E-02  0.8963801E-01
       -1   -1    0    0    0  501  0.00000000000E+00  0.00000000000E+00  0.78651793575E+03  0.78651793576E+03  0.50400001928E-02 0. -1.
        1   -1    0    0  501    0  0.00000000000E+00  0.00000000000E+00 -0.61085939812E+03  0.61085939814E+03  0.50400001928E-02 0.  1.
    10030    2    1    2    0    0  0.00000000000E+00  0.00000000000E+00  0.17565853763E+03  0.13973773339E+04  0.13862927149E+04 0.  0.
        3    1    3    3  502    0  0.67470061210E+03 -0.15740416608E+03  0.10932760641E+03  0.70139113424E+03  0.10100000352E+00 0. -1.
       -3    1    3    3    0  502 -0.67470061210E+03  0.15740416608E+03  0.66330931221E+02  0.69598619966E+03  0.10100000352E+00 0.  1.
</event>
<event>
 5   0  0.9639548E-04  0.1410395E+04  0.7818609E-02  0.8946329E-01
       -1   -1    0    0    0  501  0.00000000000E+00  0.00000000000E+00  0.24270401808E+03  0.24270401814E+03  0.50400001928E-02 0. -1.
        1   -1    0    0  501    0  0.00000000000E+00  0.00000000000E+00 -0.20490109188E+04  0.20490109188E+04  0.50400001928E-02 0.  1.
    10030    2    1    2    0    0  0.00000000000E+00  0.00000000000E+00 -0.18063069008E+04  0.22917149370E+04  0.14103945309E+04 0.  0.
        1    1    3    3  502    0 -0.47827063537E+03 -0.51600609167E+03 -0.98104745798E+03  0.12072527499E+04  0.50400001928E-02 0. -1.
       -1    1    3    3    0  502  0.47827063537E+03  0.51600609167E+03 -0.82525944277E+03  0.10844621871E+04  0.50400001928E-02 0.  1.
</event>
<event>
 5   0  0.6048000E-04  0.1411192E+04  0.7818609E-02  0.8945757E-01
       -3   -1    0    0    0  501  0.00000000000E+00  0.00000000000E+00  0.24929833480E+03  0.24929835526E+03  0.10100000352E+00 0. -1.
        3   -1    0    0  501    0  0.00000000000E+00  0.00000000000E+00 -0.19970677906E+04  0.19970677932E+04  0.10100000352E+00 0.  1.
    10030    2    1    2    0    0  0.00000000000E+00  0.00000000000E+00 -0.17477694558E+04  0.22463661485E+04  0.14111919792E+04 0.  0.
        4    1    3    3  502    0 -0.26544647695E+03  0.20002170950E+03 -0.18646497165E+04  0.18940408376E+04  0.12699999809E+01 0.  1.
       -4    1    3    3    0  502  0.26544647695E+03 -0.20002170950E+03  0.11688026069E+03  0.35232531081E+03  0.12699999809E+01 0. -1.
</event>
<event>
 5   0  0.9639548E-04  0.1266177E+04  0.7818609E-02  0.9056826E-01
       -1   -1    0    0    0  501  0.00000000000E+00  0.00000000000E+00  0.90157678238E+03  0.90157678240E+03  0.50400001928E-02 0. -1.
        1   -1    0    0  501    0  0.00000000000E+00  0.00000000000E+00 -0.44455567713E+03  0.44455567716E+03  0.50400001928E-02 0.  1.
    10030    2    1    2    0    0  0.00000000000E+00  0.00000000000E+00  0.45702110525E+03  0.13461324596E+04  0.12661770445E+04 0.  0.
        1    1    3    3  502    0 -0.25882524055E+03  0.29356506622E+02  0.84196464317E+03  0.88133805659E+03  0.50400001928E-02 0. -1.
       -1    1    3    3    0  502  0.25882524055E+03 -0.29356506622E+02 -0.38494353791E+03  0.46479440297E+03  0.50400001928E-02 0.  1.
</event>
<event>
 5   0  0.8502300E-04  0.1124418E+04  0.7818609E-02  0.9181714E-01
       -1   -1    0    0    0  501  0.00000000000E+00  0.00000000000E+00  0.17128440471E+03  0.17128440478E+03  0.50400001928E-02 0.  1.
        1   -1    0    0  501    0  0.00000000000E+00  0.00000000000E+00 -0.18453453159E+04  0.18453453159E+04  0.50400001928E-02 0. -1.
    10030    2    1    2    0    0  0.00000000000E+00  0.00000000000E+00 -0.16740609112E+04  0.20166297207E+04  0.11244178476E+04 0.  0.
        4    1    3    3  502    0  0.53679504236E+01 -0.37410741102E+03 -0.84423273356E+02  0.38355452267E+03  0.12699999809E+01 0.  1.
       -4    1    3    3    0  502 -0.53679504236E+01  0.37410741102E+03 -0.15896376379E+04  0.16330751981E+04  0.12699999809E+01 0. -1.
</event>
<event>
 5   0  0.8673728E-04  0.1383914E+04  0.7818609E-02  0.8965546E-01
       -1   -1    0    0    0  501  0.00000000000E+00  0.00000000000E+00  0.60059558653E+03  0.60059558655E+03  0.50400001928E-02 0. -1.
        1   -1    0    0  501    0  0.00000000000E+00  0.00000000000E+00 -0.79721587929E+03  0.79721587930E+03  0.50400001928E-02 0.  1.
    10030    2    1    2    0    0  0.00000000000E+00  0.00000000000E+00 -0.19662029275E+03  0.13978114659E+04  0.13839137815E+04 0.  0.
        3    1    3    3  502    0  0.13989635438E+01 -0.56165164358E+03  0.30991417086E+03  0.64148369374E+03  0.10100000352E+00 0. -1.
       -3    1    3    3    0  502 -0.13989635438E+01  0.56165164358E+03 -0.50653446362E+03  0.75632777211E+03  0.10100000352E+00 0.  1.
</event>
<event>
 5   0  0.1648213E-03  0.1402127E+04  0.7818609E-02  0.8952281E-01
       -2   -1    0    0    0  501  0.00000000000E+00  0.00000000000E+00  0.28829483093E+03  0.28829483094E+03  0.25500000920E-02 0. -1.
        2   -1    0    0  501    0  0.00000000000E+00  0.00000000000E+00 -0.17048161504E+04  0.17048161504E+04  0.25500000920E-02 0.  1.
    10030    2    1    2    0    0  0.00000000000E+00  0.00000000000E+00 -0.14165213195E+04  0.19931109814E+04  0.14021265048E+04 0.  0.
        4    1    3    3  502    0 -0.68079543282E+03 -0.47014066270E+02 -0.47995598540E+03  0.83429737181E+03  0.12699999809E+01 0. -1.
       -4    1    3    3    0  502  0.68079543282E+03  0.47014066270E+02 -0.93656533408E+03  0.11588136096E+04  0.12699999809E+01 0.  1.
</event>
<event>
 5   0  0.9007180E-04  0.1380645E+04  0.7818609E-02  0.8967949E-01
       -1   -1    0    0    0  501  0.00000000000E+00  0.00000000000E+00  0.27709701568E+03  0.27709701573E+03  0.50400001928E-02 0. -1.
        1   -1    0    0  501    0  0.00000000000E+00  0.00000000000E+00 -0.17197770214E+04  0.17197770214E+04  0.50400001928E-02 0.  1.
    10030    2    1    2    0    0  0.00000000000E+00  0.00000000000E+00 -0.14426800057E+04  0.19968740371E+04  0.13806448933E+04 0.  0.
        2    1    3    3  502    0 -0.51214222392E+02 -0.41930983064E+03  0.68339241938E+02  0.42791807936E+03  0.25500000920E-02 0. -1.
       -2    1    3    3    0  502  0.51214222392E+02  0.41930983064E+03 -0.15110192476E+04  0.15689559577E+04  0.25500000920E-02 0.  1.
</event>
<event>
 5   0  0.8673728E-04  0.1404647E+04  0.7818609E-02  0.8950461E-01
       -1   -1    0    0    0  501  0.00000000000E+00  0.00000000000E+00  0.85324179728E+03  0.85324179729E+03  0.50400001928E-02 0.  1.
        1   -1    0    0  501    0  0.00000000000E+00  0.00000000000E+00 -0.57809942645E+03  0.57809942647E+03  0.50400001928E-02 0. -1.
    10030    2    1    2    0    0  0.00000000000E+00  0.00000000000E+00  0.27514237083E+03  0.14313412238E+04  0.14046474200E+04 0.  0.
        3    1    3    3  502    0  0.31631846875E+02 -0.70160443394E+03  0.13447569605E+03  0.71507557537E+03  0.10100000352E+00 0. -1.
       -3    1    3    3    0  502 -0.31631846875E+02  0.70160443394E+03  0.14066667479E+03  0.71626564839E+03  0.10100000352E+00 0.  1.
</event>
<event>
 5   0  0.1605214E-03  0.1403262E+04  0.7818609E-02  0.8951460E-01
       -2   -1    0    0    0  501  0.00000000000E+00  0.00000000000E+00  0.11750299203E+04  0.11750299203E+04  0.25500000920E-02 0. -1.
        2   -1    0    0  501    0  0.00000000000E+00  0.00000000000E+00 -0.41895639701E+03  0.41895639702E+03  0.25500000920E-02 0.  1.
    10030    2    1    2    0    0  0.00000000000E+00  0.00000000000E+00  0.75607352325E+03  0.15939863173E+04  0.14032623444E+04 0.  0.
        5    1    3    3  502    0 -0.15587981399E+03 -0.66072401785E+03  0.17672182194E+03  0.70150369673E+03  0.46999998093E+01 0.  1.
       -5    1    3    3    0  502  0.15587981399E+03  0.66072401785E+03  0.57935170131E+03  0.89248262055E+03  0.46999998093E+01 0. -1.
</event>
<event>
 5   0  0.9007180E-04  0.1401915E+04  0.7818609E-02  0.8952434E-01
       -1   -1    0    0    0  501  0.00000000000E+00  0.00000000000E+00  0.96096300831E+03  0.96096300833E+03  0.50400001928E-02 0. -1.
        1   -1    0    0  501    0  0.00000000000E+00  0.00000000000E+00 -0.51130076694E+03  0.51130076697E+03  0.50400001928E-02 0.  1.
    10030    2    1    2    0    0  0.00000000000E+00  0.00000000000E+00  0.44966224137E+03  0.14722637753E+04  0.14019145811E+04 0.  0.
        2    1    3    3  502    0  0.19096921567E+03 -0.24506769489E+03  0.88470385605E+03  0.93767175991E+03  0.25500000920E-02 0. -1.
       -2    1    3    3    0  502 -0.19096921567E+03  0.24506769489E+03 -0.43504161468E+03  0.53459201539E+03  0.25500000920E-02 0.  1.
</event>
<event>
 5   0  0.8609148E-04  0.1347132E+04  0.7818609E-02  0.8993002E-01
        1   -1    0    0  501    0  0.00000000000E+00  0.00000000000E+00  0.10277932191E+04  0.10277932191E+04  0.50400001928E-02 0.  1.
       -1   -1    0    0    0  501  0.00000000000E+00  0.00000000000E+00 -0.44142281842E+03  0.44142281845E+03  0.50400001928E-02 0. -1.
    10030    2    1    2    0    0  0.00000000000E+00  0.00000000000E+00  0.58637040072E+03  0.14692160376E+04  0.13471323314E+04 0.  0.
        5    1    3    3  502    0 -0.66203891726E+03  0.52524931232E+02  0.17069053089E+03  0.68571987261E+03  0.46999998093E+01 0. -1.
       -5    1    3    3    0  502  0.66203891726E+03 -0.52524931232E+02  0.41567986983E+03  0.78349616498E+03  0.46999998093E+01 0.  1.
</event>
<event>
 5   0  0.8609148E-04  0.1412231E+04  0.7818609E-02  0.8945012E-01
        1   -1    0    0  501    0  0.00000000000E+00  0.00000000000E+00  0.14506700675E+04  0.14506700675E+04  0.50400001928E-02 0. -1.
       -1   -1    0    0    0  501  0.00000000000E+00  0.00000000000E+00 -0.34370260441E+03  0.34370260444E+03  0.50400001928E-02 0.  1.
    10030    2    1    2    0    0  0.00000000000E+00  0.00000000000E+00  0.11069674631E+04  0.17943726720E+04  0.14122309732E+04 0.  0.
        5    1    3    3  502    0 -0.14436663071E+03 -0.21496715039E+03 -0.28117624363E+03  0.38227577714E+03  0.46999998093E+01 0.  1.
       -5    1    3    3    0  502  0.14436663071E+03  0.21496715039E+03  0.13881437068E+04  0.14120968948E+04  0.46999998093E+01 0. -1.
</event>
<event>
 5   0  0.1578965E-03  0.1443021E+04  0.7818609E-02  0.8923253E-01
        2   -1    0    0  501    0  0.00000000000E+00  0.00000000000E+00  0.54357194684E+03  0.54357194685E+03  0.25500000920E-02 0.  1.
       -2   -1    0    0    0  501  0.00000000000E+00  0.00000000000E+00 -0.95769766195E+03  0.95769766195E+03  0.25500000920E-02 0. -1.
    10030    2    1    2    0    0  0.00000000000E+00  0.00000000000E+00 -0.41412571511E+03  0.15012696088E+04  0.14430212508E+04 0.  0.
        2    1    3    3  502    0  0.66140039022E+03  0.12265696143E+03  0.64395563530E+02  0.67575290970E+03  0.25500000920E-02 0.  1.
       -2    1    3    3    0  502 -0.66140039022E+03 -0.12265696143E+03 -0.47852127864E+03  0.82551669909E+03  0.25500000920E-02 0. -1.
</event>
<event>
 5   0  0.1578965E-03  0.1419263E+04  0.7818609E-02  0.8939992E-01
       -2   -1    0    0    0  501  0.00000000000E+00  0.00000000000E+00  0.54501482256E+03  0.54501482256E+03  0.25500000920E-02 0.  1.
        2   -1    0    0  501    0  0.00000000000E+00  0.00000000000E+00 -0.92396971738E+03  0.92396971739E+03  0.25500000920E-02 0. -1.
    10030    2    1    2    0    0  0.00000000000E+00  0.00000000000E+00 -0.37895489483E+03  0.14689845400E+04  0.14192634591E+04 0.  0.
        2    1    3    3  502    0 -0.49257837669E+03  0.50289469848E+03 -0.28228855635E+03  0.75843481196E+03  0.25500000920E-02 0.  1.
       -2    1    3    3    0  502  0.49257837669E+03 -0.50289469848E+03 -0.96666338480E+02  0.71054972799E+03  0.25500000920E-02 0. -1.
</event>
<event>
 5   0  0.1605214E-03  0.1407544E+04  0.7818609E-02  0.8948376E-01
        2   -1    0    0  501    0  0.00000000000E+00  0.00000000000E+00  0.38677467814E+03  0.38677467815E+03  0.25500000920E-02 0. -1.
       -2   -1    0    0    0  501  0.00000000000E+00  0.00000000000E+00 -0.12805768930E+04  0.12805768930E+04  0.25500000920E-02 0.  1.
    10030    2    1    2    0    0  0.00000000000E+00  0.00000000000E+00 -0.89380221485E+03  0.16673515711E+04  0.14075435562E+04 0.  0.
        5    1    3    3  502    0 -0.50619064449E+03 -0.47387339315E+03 -0.30431916480E+03  0.75724316133E+03  0.46999998093E+01 0. -1.
       -5    1    3    3    0  502  0.50619064449E+03  0.47387339315E+03 -0.58948305005E+03  0.91010840981E+03  0.46999998093E+01 0.  1.
</event>
<event>
 5   0  0.1648213E-03  0.1421759E+04  0.7818609E-02  0.8938217E-01
        2   -1    0    0  501    0  0.00000000000E+00  0.00000000000E+00  0.80428828538E+03  0.80428828538E+03  0.25500000920E-02 0. -1.
       -2   -1    0    0    0  501  0.00000000000E+00  0.00000000000E+00 -0.62831934713E+03  0.62831934713E+03  0.25500000920E-02 0.  1.
    10030    2    1    2    0    0  0.00000000000E+00  0.00000000000E+00  0.17596893825E+03  0.14326076325E+04  0.14217593191E+04 0.  0.
        4    1    3    3  502    0  0.85276366593E+02 -0.67083783089E+03 -0.13289768663E+03  0.68917259237E+03  0.12699999809E+01 0.  1.
       -4    1    3    3    0  502 -0.85276366593E+02  0.67083783089E+03  0.30886662488E+03  0.74343504015E+03  0.12699999809E+01 0. -1.
</event>
<event>
 5   0  0.9639548E-04  0.1382285E+04  0.7818609E-02  0.8966742E-01
        1   -1    0    0  501    0  0.00000000000E+00  0.00000000000E+00  0.21219800513E+04  0.21219800513E+04  0.50400001928E-02 0. -1.
       -1   -1    0    0    0  501  0.00000000000E+00  0.00000000000E+00 -0.22510958184E+03  0.22510958189E+03  0.50400001928E-02 0.  1.
    10030    2    1    2    0    0  0.00000000000E+00  0.00000000000E+00  0.18968704695E+04  0.23470896332E+04  0.13822851256E+04 0.  0.
        1    1    3    3  502    0 -0.19771723956E+03  0.88990278215E+02  0.20627366175E+04  0.20741007039E+04  0.50400001928E-02 0. -1.
       -1    1    3    3    0  502  0.19771723956E+03 -0.88990278215E+02 -0.16586614807E+03  0.27298892933E+03  0.50400001928E-02 0.  1.
</event>
<event>
 5   0  0.1648213E-03  0.1445734E+04  0.7818609E-02  0.8921363E-01
        2   -1    0    0  501    0  0.00000000000E+00  0.00000000000E+00  0.16976086899E+04  0.16976086899E+04  0.25500000920E-02 0.  1.
       -2   -1    0    0    0  501  0.00000000000E+00  0.00000000000E+00 -0.30780745209E+03  0.30780745210E+03  0.25500000920E-02 0. -1.
    10030    2    1    2    0    0  0.00000000000E+00  0.00000000000E+00  0.13898012379E+04  0.20054161420E+04  0.14457338697E+04 0.  0.
        4    1    3    3  502    0 -0.60167465812E+03 -0.94524168393E+02  0.12349683725E+04  0.13769879109E+04  0.12699999809E+01 0.  1.
       -4    1    3    3    0  502  0.60167465812E+03  0.94524168393E+02  0.15483286531E+03  0.62842823116E+03  0.12699999809E+01 0. -1.
</event>
<event>
 5   0  0.8502300E-04  0.1399812E+04  0.7818609E-02  0.8953955E-01
       -1   -1    0    0    0  501  0.00000000000E+00  0.00000000000E+00  0.62613682728E+03  0.62613682730E+03  0.50400001928E-02 0. -1.
        1   -1    0    0  501    0  0.00000000000E+00  0.00000000000E+00 -0.78236600799E+03  0.78236600801E+03  0.50400001928E-02 0.  1.
    10030    2    1    2    0    0  0.00000000000E+00  0.00000000000E+00 -0.15622918071E+03  0.14085028353E+04  0.13998116588E+04 0.  0.
        4    1    3    3  502    0 -0.65857349630E+02 -0.66542071907E+03  0.12991682170E+03  0.68117686200E+03  0.12699999809E+01 0. -1.
       -4    1    3    3    0  502  0.65857349630E+02  0.66542071907E+03 -0.28614600241E+03  0.72732597331E+03  0.12699999809E+01 0.  1.
</event>
<event>
 5   0  0.1648463E-03  0.1433652E+04  0.7818609E-02  0.8929813E-01
       -2   -1    0    0    0  501  0.00000000000E+00  0.00000000000E+00  0.82520705628E+03  0.82520705628E+03  0.25500000920E-02 0.  1.
        2   -1    0    0  501    0  0.00000000000E+00  0.00000000000E+00 -0.62267963349E+03  0.62267963350E+03  0.25500000920E-02 0. -1.
    10030    2    1    2    0    0  0.00000000000E+00  0.00000000000E+00  0.20252742279E+03  0.14478866898E+04  0.14336521578E+04 0.  0.
        1    1    3    3  502    0  0.59707894670E+03 -0.13917607259E+03  0.47638992805E+03  0.77641523127E+03  0.50400001928E-02 0. -1.
       -1    1    3    3    0  502 -0.59707894670E+03  0.13917607259E+03 -0.27386250526E+03  0.67147145851E+03  0.50400001928E-02 0.  1.
</event>
<event>
 5   0  0.8673728E-04  0.1316129E+04  0.7818609E-02  0.9016872E-01
       -1   -1    0    0    0  501  0.00000000000E+00  0.00000000000E+00  0.68021982749E+03  0.68021982751E+03  0.50400001928E-02 0.  1.
        1   -1    0    0  501    0  0.00000000000E+00  0.00000000000E+00 -0.63663086215E+03  0.63663086217E+03  0.50400001928E-02 0. -1.
    10030    2    1    2    0    0  0.00000000000E+00  0.00000000000E+00  0.43588965345E+02  0.13168506897E+04  0.13161290746E+04 0.  0.
        3    1    3    3  502    0  0.59151093293E+03 -0.28387145748E+03  0.72623289890E+02  0.66010782497E+03  0.10100000352E+00 0. -1.
       -3    1    3    3    0  502 -0.59151093293E+03  0.28387145748E+03 -0.29034324545E+02  0.65674286471E+03  0.10100000352E+00 0.  1.
</event>
<event>
 5   0  0.1706986E-03  0.1410734E+04  0.7818609E-02  0.8946086E-01
        2   -1    0    0  501    0  0.00000000000E+00  0.00000000000E+00  0.67006364139E+03  0.67006364139E+03  0.25500000920E-02 0.  1.
       -2   -1    0    0    0  501  0.00000000000E+00  0.00000000000E+00 -0.74252989296E+03  0.74252989296E+03  0.25500000920E-02 0. -1.
    10030    2    1    2    0    0  0.00000000000E+00  0.00000000000E+00 -0.72466251569E+02  0.14125935344E+04  0.14107335452E+04 0.  0.
        3    1    3    3  502    0  0.20000990860E+02  0.38117469532E+03  0.55771677892E+03  0.67582705160E+03  0.10100000352E+00 0.  1.
       -3    1    3    3    0  502 -0.20000990860E+02 -0.38117469532E+03 -0.63018303049E+03  0.73676648275E+03  0.10100000352E+00 0. -1.
</event>
<event>
 5   0  0.8609148E-04  0.1390241E+04  0.7818609E-02  0.8960913E-01
       -1   -1    0    0    0  501  0.00000000000E+00  0.00000000000E+00  0.29684999687E+03  0.29684999692E+03  0.50400001928E-02 0. -1.
        1   -1    0    0  501    0  0.00000000000E+00  0.00000000000E+00 -0.16277330471E+04  0.16277330471E+04  0.50400001928E-02 0.  1.
    10030    2    1    2    0    0  0.00000000000E+00  0.00000000000E+00 -0.13308830503E+04  0.19245830441E+04  0.13902410582E+04 0.  0.
        5    1    3    3  502    0 -0.12917879798E+03  0.68223636882E+03 -0.62086549234E+03  0.93146641075E+03  0.46999998093E+01 0. -1.
       -5    1    3    3    0  502  0.12917879798E+03 -0.68223636882E+03 -0.71001755792E+03  0.99311663330E+03  0.46999998093E+01 0.  1.
</event>
<event>
 5   0  0.1648463E-03  0.1392535E+04  0.7818609E-02  0.8959240E-01
       -2   -1    0    0    0  501  0.00000000000E+00  0.00000000000E+00  0.41653691581E+03  0.41653691582E+03  0.25500000920E-02 0.  1.
        2   -1    0    0  501    0  0.00000000000E+00  0.00000000000E+00 -0.11638546459E+04  0.11638546459E+04  0.25500000920E-02 0. -1.
    10030    2    1    2    0    0  0.00000000000E+00  0.00000000000E+00 -0.74731773009E+03  0.15803915617E+04  0.13925349901E+04 0.  0.
        1    1    3    3  502    0  0.78891078861E+02  0.25460563545E+03  0.35634078485E+03  0.44500178303E+03  0.50400001928E-02 0.  1.
       -1    1    3    3    0  502 -0.78891078861E+02 -0.25460563545E+03 -0.11036585149E+04  0.11353897787E+04  0.50400001928E-02 0. -1.
</event>
<event>
 5   0  0.1706986E-03  0.1239675E+04  0.7818609E-02  0.9078821E-01
       -2   -1    0    0    0  501  0.00000000000E+00  0.00000000000E+00  0.32910662190E+03  0.32910662191E+03  0.25500000920E-02 0.  1.
        2   -1    0    0  501    0  0.00000000000E+00  0.00000000000E+00 -0.11673975396E+04  0.11673975396E+04  0.25500000920E-02 0. -1.
    10030    2    1    2    0    0  0.00000000000E+00  0.00000000000E+00 -0.83829091769E+03  0.14965041615E+04  0.12396745713E+04 0.  0.
        3    1    3    3  502    0 -0.26745447316E+03  0.32103476217E+03 -0.97181944245E+03  0.10578413173E+04  0.10100000352E+00 0. -1.
       -3    1    3    3    0  502  0.26745447316E+03 -0.32103476217E+03  0.13352852476E+03  0.43866284417E+03  0.10100000352E+00 0.  1.
</event>
<event>
 5   0  0.6048000E-04  0.1402630E+04  0.7818609E-02  0.8951917E-01
        3   -1    0    0  501    0  0.00000000000E+00  0.00000000000E+00  0.55893777563E+03  0.55893778476E+03  0.10100000352E+00 0. -1.
       -3   -1    0    0    0  501  0.00000000000E+00  0.00000000000E+00 -0.87995995959E+03  0.87995996539E+03  0.10100000352E+00 0.  1.
    10030    2    1    2    0    0  0.00000000000E+00  0.00000000000E+00 -0.32102218396E+03  0.14388977501E+04  0.14026302053E+04 0.  0.
        4    1    3    3  502    0  0.21787048597E+03 -0.49071077712E+03 -0.62337223414E+03  0.82271451345E+03  0.12699999809E+01 0.  1.
       -4    1    3    3    0  502 -0.21787048597E+03  0.49071077712E+03  0.30235005018E+03  0.61618323670E+03  0.12699999809E+01 0. -1.
</event>
<event>
 5   0  0.8502300E-04  0.1530483E+04  0.7818609E-02  0.8864431E-01
        1   -1    0    0  501    0  0.00000000000E+00  0.00000000000E+00  0.10203439321E+04  0.10203439321E+04  0.50400001928E-02 0.  1.
       -1   -1    0    0    0  501  0.00000000000E+00  0.00000000000E+00 -0.57391901080E+03  0.57391901082E+03  0.50400001928E-02 0. -1.
    10030    2    1    2    0    0  0.00000000000E+00  0.00000000000E+00  0.44642492127E+03  0.15942629429E+04  0.15304832965E+04 0.  0.
        4    1    3    3  502    0 -0.29569807961E+03  0.39260543111E+03 -0.38775935419E+03  0.62604736920E+03  0.12699999809E+01 0. -1.
       -4    1    3    3    0  502  0.29569807961E+03 -0.39260543111E+03  0.83418427546E+03  0.96821557370E+03  0.12699999809E+01 0.  1.
</event>
<event>
 5   0  0.9007180E-04  0.1382255E+04  0.7818609E-02  0.8966764E-01
        1   -1    0    0  501    0  0.00000000000E+00  0.00000000000E+00  0.56483348760E+03  0.56483348762E+03  0.50400001928E-02 0.  1.
       -1   -1    0    0    0  501  0.00000000000E+00  0.00000000000E+00 -0.84566058119E+03  0.84566058121E+03  0.50400001928E-02 0. -1.
    10030    2    1    2    0    0  0.00000000000E+00  0.00000000000E+00 -0.28082709359E+03  0.14104940688E+04  0.13822552809E+04 0.  0.
        2    1    3    3  502    0  0.93471556792E+02 -0.51282666566E+03 -0.60347866986E+03  0.79744255337E+03  0.25500000920E-02 0.  1.
       -2    1    3    3    0  502 -0.93471556792E+02  0.51282666566E+03  0.32265157627E+03  0.61305151546E+03  0.25500000920E-02 0. -1.
</event>
<event>
 5   0  0.1648213E-03  0.1402537E+04  0.7818609E-02  0.8951984E-01
       -2   -1    0    0    0  501  0.00000000000E+00  0.00000000000E+00  0.16504324703E+04  0.16504324703E+04  0.25500000920E-02 0.  1.
        2   -1    0    0  501    0  0.00000000000E+00  0.00000000000E+00 -0.29796899228E+03  0.29796899229E+03  0.25500000920E-02 0. -1.
    10030    2    1    2    0    0  0.00000000000E+00  0.00000000000E+00  0.13524634781E+04  0.19484014626E+04  0.14025372723E+04 0.  0.
        4    1    3    3  502    0 -0.21774753191E+03  0.53033880494E+03  0.12372730134E+04  0.13636419465E+04  0.12699999809E+01 0.  1.
       -4    1    3    3    0  502  0.21774753191E+03 -0.53033880494E+03  0.11519046470E+03  0.58475951616E+03  0.12699999809E+01 0. -1.
</event>
<event>
 5   0  0.1648463E-03  0.1386778E+04  0.7818609E-02  0.8963445E-01
       -2   -1    0    0    0  501  0.00000000000E+00  0.00000000000E+00  0.39320157342E+03  0.39320157343E+03  0.25500000920E-02 0.  1.
        2   -1    0    0  501    0  0.00000000000E+00  0.00000000000E+00 -0.12227534212E+04  0.12227534212E+04  0.25500000920E-02 0. -1.
    10030    2    1    2    0    0  0.00000000000E+00  0.00000000000E+00 -0.82955184782E+03  0.16159549947E+04  0.13867783805E+04 0.  0.
        1    1    3    3  502    0 -0.38265569220E+03 -0.52276272730E+03 -0.70276761981E+03  0.95581827525E+03  0.50400001928E-02 0. -1.
       -1    1    3    3    0  502  0.38265569220E+03  0.52276272730E+03 -0.12678422801E+03  0.66013671942E+03  0.50400001928E-02 0.  1.
</event>
<event>
 5   0  0.9639548E-04  0.1401453E+04  0.7818609E-02  0.8952767E-01
        1   -1    0    0  501    0  0.00000000000E+00  0.00000000000E+00  0.12688839495E+04  0.12688839495E+04  0.50400001928E-02 0. -1.
       -1   -1    0    0    0  501  0.00000000000E+00  0.00000000000E+00 -0.38696833828E+03  0.38696833831E+03  0.50400001928E-02 0.  1.
    10030    2    1    2    0    0  0.00000000000E+00  0.00000000000E+00  0.88191561122E+03  0.16558522878E+04  0.14014534076E+04 0.  0.
        1    1    3    3  502    0  0.51140137372E+03  0.44332016850E+03  0.22647349715E+03  0.71369067654E+03  0.50400001928E-02 0. -1.
       -1    1    3    3    0  502 -0.51140137372E+03 -0.44332016850E+03  0.65544211406E+03  0.94216161127E+03  0.50400001928E-02 0.  1.
</event>
<event>
 5   0  0.1605214E-03  0.1405012E+04  0.7818609E-02  0.8950199E-01
       -2   -1    0    0    0  501  0.00000000000E+00  0.00000000000E+00  0.13658730627E+04  0.13658730627E+04  0.25500000920E-02 0. -1.
        2   -1    0    0  501    0  0.00000000000E+00  0.00000000000E+00 -0.36131810124E+03  0.36131810124E+03  0.25500000920E-02 0.  1.
    10030    2    1    2    0    0  0.00000000000E+00  0.00000000000E+00  0.10045549615E+04  0.17271911640E+04  0.14050119737E+04 0.  0.
        5    1    3    3  502    0  0.39286900201E+03  0.99799502476E+02 -0.20303479378E+03  0.45337755890E+03  0.46999998093E+01 0.  1.
       -5    1    3    3    0  502 -0.39286900201E+03 -0.99799502476E+02  0.12075897553E+04  0.12738136051E+04  0.46999998093E+01 0. -1.
</event>
<event>
 5   0  0.8502300E-04  0.1400215E+04  0.7818609E-02  0.8953663E-01
        1   -1    0    0  501    0  0.00000000000E+00  0.00000000000E+00  0.23626209494E+04  0.23626209494E+04  0.50400001928E-02 0. -1.
       -1   -1    0    0    0  501  0.00000000000E+00  0.00000000000E+00 -0.20746047635E+03  0.20746047641E+03  0.50400001928E-02 0.  1.
    10030    2    1    2    0    0  0.00000000000E+00  0.00000000000E+00  0.21551604731E+04  0.25700814258E+04  0.14002149373E+04 0.  0.
        4    1    3    3  502    0 -0.58171908409E+03 -0.26834936637E+03  0.55926816239E+03  0.85040635322E+03  0.12699999809E+01 0.  1.
       -4    1    3    3    0  502  0.58171908409E+03  0.26834936637E+03  0.15958923107E+04  0.17196750726E+04  0.12699999809E+01 0. -1.
</event>
<event>
 5   0  0.8609148E-04  0.1389771E+04  0.7818609E-02  0.8961256E-01
        1   -1    0    0  501    0  0.00000000000E+00  0.00000000000E+00  0.11935646674E+04  0.11935646674E+04  0.50400001928E-02 0.  1.
       -1   -1    0    0    0  501  0.00000000000E+00  0.00000000000E+00 -0.40455758912E+03  0.40455758916E+03  0.50400001928E-02 0. -1.
    10030    2    1    2    0    0  0.00000000000E+00  0.00000000000E+00  0.78900707826E+03  0.15981222565E+04  0.13897706924E+04 0.  0.
        5    1    3    3  502    0 -0.23524622533E+02  0.14880686965E+03 -0.38553307553E+03  0.41395015961E+03  0.46999998093E+01 0. -1.
       -5    1    3    3    0  502  0.23524622533E+02 -0.14880686965E+03  0.11745401538E+04  0.11841720969E+04  0.46999998093E+01 0.  1.
</event>
<event>
 5   0  0.9007180E-04  0.1456179E+04  0.7818609E-02  0.8914128E-01
        1   -1    0    0  501    0  0.00000000000E+00  0.00000000000E+00  0.92480098234E+03  0.92480098235E+03  0.50400001928E-02 0.  1.
       -1   -1    0    0    0  501  0.00000000000E+00  0.00000000000E+00 -0.57322012457E+03  0.57322012459E+03  0.50400001928E-02 0. -1.
    10030    2    1    2    0    0  0.00000000000E+00  0.00000000000E+00  0.35158085777E+03  0.14980211069E+04  0.14561792943E+04 0.  0.
        2    1    3    3  502    0 -0.35263684703E+02  0.72227595138E+03  0.26301140010E+03  0.76948104199E+03  0.25500000920E-02 0.  1.
       -2    1    3    3    0  502  0.35263684703E+02 -0.72227595138E+03  0.88569457671E+02  0.72854006495E+03  0.25500000920E-02 0. -1.
</event>
<event>
 5   0  0.1648213E-03  0.1387799E+04  0.7818609E-02  0.8962698E-01
       -2   -1    0    0    0  501  0.00000000000E+00  0.00000000000E+00  0.10303503815E+04  0.10303503816E+04  0.25500000920E-02 0.  1.
        2   -1    0    0  501    0  0.00000000000E+00  0.00000000000E+00 -0.46731360869E+03  0.46731360869E+03  0.25500000920E-02 0. -1.
    10030    2    1    2    0    0  0.00000000000E+00  0.00000000000E+00  0.56303677286E+03  0.14976639902E+04  0.13877993443E+04 0.  0.
        4    1    3    3  502    0  0.11113241570E+03  0.37942447684E+03 -0.33387216173E+03  0.51748002930E+03  0.12699999809E+01 0. -1.
       -4    1    3    3    0  502 -0.11113241570E+03 -0.37942447684E+03  0.89690893459E+03  0.98018396095E+03  0.12699999809E+01 0.  1.
</event>
<event>
 5   0  0.9639548E-04  0.1405301E+04  0.7818609E-02  0.8949991E-01
       -1   -1    0    0    0  501  0.00000000000E+00  0.00000000000E+00  0.38793589840E+03  0.38793589844E+03  0.50400001928E-02 0. -1.
        1   -1    0    0  501    0  0.00000000000E+00  0.00000000000E+00 -0.12726777333E+04  0.12726777333E+04  0.50400001928E-02 0.  1.
    10030    2    1    2    0    0  0.00000000000E+00  0.00000000000E+00 -0.88474183487E+03  0.16606136317E+04  0.14053005086E+04 0.  0.
        1    1    3    3  502    0  0.48116919075E+02  0.33671478302E+03 -0.11689114146E+04  0.12173931075E+04  0.50400001928E-02 0.  1.
       -1    1    3    3    0  502 -0.48116919075E+02 -0.33671478302E+03  0.28416957974E+03  0.44322052420E+03  0.50400001928E-02 0. -1.
</event>
<event>
 5   0  0.8673728E-04  0.1415303E+04  0.7818609E-02  0.8942816E-01
       -1   -1    0    0    0  501  0.00000000000E+00  0.00000000000E+00  0.32862162533E+03  0.32862162537E+03  0.50400001928E-02 0. -1.
        1   -1    0    0  501    0  0.00000000000E+00  0.00000000000E+00 -0.15238511750E+04  0.15238511750E+04  0.50400001928E-02 0.  1.
    10030    2    1    2    0    0  0.00000000000E+00  0.00000000000E+00 -0.11952295497E+04  0.18524728004E+04  0.14153027237E+04 0.  0.
        3    1    3    3  502    0  0.15962653501E+03  0.15671458902E+03 -0.14763557891E+04  0.14932067906E+04  0.10100000352E+00 0.  1.
       -3    1    3    3    0  502 -0.15962653501E+03 -0.15671458902E+03  0.28112623946E+03  0.35926600981E+03  0.10100000352E+00 0. -1.
</event>
<event>
 5   0  0.1578965E-03  0.1402791E+04  0.7818609E-02  0.8951801E-01
        2   -1    0    0  501    0  0.00000000000E+00  0.00000000000E+00  0.10188402315E+04  0.10188402315E+04  0.25500000920E-02 0. -1.
       -2   -1    0    0    0  501  0.00000000000E+00  0.00000000000E+00 -0.48285827117E+03  0.48285827117E+03  0.25500000920E-02 0.  1.
    10030    2    1    2    0    0  0.00000000000E+00  0.00000000000E+00  0.53598196035E+03  0.15016985027E+04  0.14027906940E+04 0.  0.
        2    1    3    3  502    0  0.17510262164E+03  0.67908758886E+03  0.25557348811E+03  0.74641723538E+03  0.25500000920E-02 0.  1.
       -2    1    3    3    0  502 -0.17510262164E+03 -0.67908758886E+03  0.28040847224E+03  0.75528126731E+03  0.25500000920E-02 0. -1.
</event>
<event>
 5   0  0.1648213E-03  0.1434226E+04  0.7818609E-02  0.8929410E-01
       -2   -1    0    0    0  501  0.00000000000E+00  0.00000000000E+00  0.45589602053E+03  0.45589602053E+03  0.25500000920E-02 0.  1.
        2   -1    0    0  501    0  0.00000000000E+00  0.00000000000E+00 -0.11280014367E+04  0.11280014367E+04  0.25500000920E-02 0. -1.
    10030    2    1    2    0    0  0.00000000000E+00  0.00000000000E+00 -0.67210541618E+03  0.15838974572E+04  0.14342264342E+04 0.  0.
        4    1    3    3  502    0 -0.37955735256E+03  0.52690020366E+03 -0.62946636075E-01  0.64937602770E+03  0.12699999809E+01 0.  1.
       -4    1    3    3    0  502  0.37955735256E+03 -0.52690020366E+03 -0.67204246955E+03  0.93452142954E+03  0.12699999809E+01 0. -1.
</event>
<event>
 5   0  0.8609148E-04  0.1397432E+04  0.7818609E-02  0.8955680E-01
       -1   -1    0    0    0  501  0.00000000000E+00  0.00000000000E+00  0.80052419233E+03  0.80052419234E+03  0.50400001928E-02 0.  1.
        1   -1    0    0  501    0  0.00000000000E+00  0.00000000000E+00 -0.60985528571E+03  0.60985528573E+03  0.50400001928E-02 0. -1.
    10030    2    1    2    0    0  0.00000000000E+00  0.00000000000E+00  0.19066890662E+03  0.14103794781E+04  0.13974318016E+04 0.  0.
        5    1    3    3  502    0  0.13986056447E+03  0.10516825568E+03  0.77803399522E+03  0.79748374730E+03  0.46999998093E+01 0.  1.
       -5    1    3    3    0  502 -0.13986056447E+03 -0.10516825568E+03 -0.58736508860E+03  0.61289573078E+03  0.46999998093E+01 0. -1.
</event>
<event>
 5   0  0.1648213E-03  0.1409233E+04  0.7818609E-02  0.8947163E-01
       -2   -1    0    0    0  501  0.00000000000E+00  0.00000000000E+00  0.45212786632E+03  0.45212786633E+03  0.25500000920E-02 0.  1.
        2   -1    0    0  501    0  0.00000000000E+00  0.00000000000E+00 -0.10981054235E+04  0.10981054236E+04  0.25500000920E-02 0. -1.
    10030    2    1    2    0    0  0.00000000000E+00  0.00000000000E+00 -0.64597755723E+03  0.15502332899E+04  0.14092325034E+04 0.  0.
        4    1    3    3  502    0  0.19259027177E+03 -0.66250042621E+01 -0.10685530838E+04  0.10857910523E+04  0.12699999809E+01 0. -1.
       -4    1    3    3    0  502 -0.19259027177E+03  0.66250042621E+01  0.42257552658E+03  0.46444223756E+03  0.12699999809E+01 0.  1.
</event>
<event>
 5   0  0.9007180E-04  0.1403768E+04  0.7818609E-02  0.8951095E-01
        1   -1    0    0  501    0  0.00000000000E+00  0.00000000000E+00  0.45023437648E+03  0.45023437650E+03  0.50400001928E-02 0.  1.
       -1   -1    0    0    0  501  0.00000000000E+00  0.00000000000E+00 -0.10941884709E+04  0.10941884709E+04  0.50400001928E-02 0. -1.
    10030    2    1    2    0    0  0.00000000000E+00  0.00000000000E+00 -0.64395409440E+03  0.15444228474E+04  0.14037681631E+04 0.  0.
        2    1    3    3  502    0 -0.28216049222E+02 -0.15769508803E+03  0.42985139300E+03  0.45873315369E+03  0.25500000920E-02 0.  1.
       -2    1    3    3    0  502  0.28216049222E+02  0.15769508803E+03 -0.10738054874E+04  0.10856896937E+04  0.25500000920E-02 0. -1.
</event>
<event>
 5   0  0.1605214E-03  0.1408606E+04  0.7818609E-02  0.8947613E-01
       -2   -1    0    0    0  501  0.00000000000E+00  0.00000000000E+00  0.43206422558E+03  0.43206422558E+03  0.25500000920E-02 0.  1.
        2   -1    0    0  501    0  0.00000000000E+00  0.00000000000E+00 -0.11480755529E+04  0.11480755529E+04  0.25500000920E-02 0. -1.
    10030    2    1    2    0    0  0.00000000000E+00  0.00000000000E+00 -0.71601132729E+03  0.15801397784E+04  0.14086055156E+04 0.  0.
        5    1    3    3  502    0 -0.51815572274E+03  0.31251372087E+03 -0.76226561453E+03  0.97325286326E+03  0.46999998093E+01 0. -1.
       -5    1    3    3    0  502  0.51815572274E+03 -0.31251372087E+03  0.46254287243E+02  0.60688691519E+03  0.46999998093E+01 0.  1.
</event>
<event>
 5   0  0.8502300E-04  0.1422598E+04  0.7818609E-02  0.8937622E-01
       -1   -1    0    0    0  501  0.00000000000E+00  0.00000000000E+00  0.88106396047E+03  0.88106396048E+03  0.50400001928E-02 0. -1.
        1   -1    0    0  501    0  0.00000000000E+00  0.00000000000E+00 -0.57424425370E+03  0.57424425372E+03  0.50400001928E-02 0.  1.
    10030    2    1    2    0    0  0.00000000000E+00  0.00000000000E+00  0.30681970676E+03  0.14553082142E+04  0.14225975066E+04 0.  0.
        4    1    3    3  502    0 -0.39334523027E+03 -0.46429091527E+02  0.75781487483E+03  0.85507960339E+03  0.12699999809E+01 0. -1.
       -4    1    3    3    0  502  0.39334523027E+03  0.46429091527E+02 -0.45099516807E+03  0.60022861081E+03  0.12699999809E+01 0.  1.
</event>
<event>
 5   0  0.1706986E-03  0.1415811E+04  0.7818609E-02  0.8942453E-01
        2   -1    0    0  501    0  0.00000000000E+00  0.00000000000E+00  0.73476685463E+03  0.73476685464E+03  0.25500000920E-02 0.  1.
       -2   -1    0    0    0  501  0.00000000000E+00  0.00000000000E+00 -0.68202602027E+03  0.68202602027E+03  0.25500000920E-02 0. -1.
    10030    2    1    2    0    0  0.00000000000E+00  0.00000000000E+00  0.52740834365E+02  0.14167928749E+04  0.14158108824E+04 0.  0.
        3    1    3    3  502    0  0.42737526130E+02 -0.50452418684E+03  0.52144474977E+03  0.72682583094E+03  0.10100000352E+00 0.  1.
       -3    1    3    3    0  502 -0.42737526130E+02  0.50452418684E+03 -0.46870391541E+03  0.68996704397E+03  0.10100000352E+00 0. -1.
</event>
<event>
 5   0  0.9007180E-04  0.1405117E+04  0.7818609E-02  0.8950123E-01
        1   -1    0    0  501    0  0.00000000000E+00  0.00000000000E+00  0.10330992237E+04  0.10330992237E+04  0.50400001928E-02 0.  1.
       -1   -1    0    0    0  501  0.00000000000E+00  0.00000000000E+00 -0.47777464260E+03  0.47777464263E+03  0.50400001928E-02 0. -1.
    10030    2    1    2    0    0  0.00000000000E+00  0.00000000000E+00  0.55532458111E+03  0.15108738664E+04  0.14051172370E+04 0.  0.
        2    1    3    3  502    0 -0.45370576120E+03  0.52017950976E+03  0.13683548091E+03  0.70367576977E+03  0.25500000920E-02 0. -1.
       -2    1    3    3    0  502  0.45370576120E+03 -0.52017950976E+03  0.41848910020E+03  0.80719809658E+03  0.25500000920E-02 0.  1.
</event>
<event>
 5   0  0.1578965E-03  0.1300837E+04  0.7818609E-02  0.9028902E-01
       -2   -1    0    0    0  501  0.00000000000E+00  0.00000000000E+00  0.22549107684E+03  0.22549107686E+03  0.25500000920E-02 0.  1.
        2   -1    0    0  501    0  0.00000000000E+00  0.00000000000E+00 -0.18761005761E+04  0.18761005761E+04  0.25500000920E-02 0. -1.
    10030    2    1    2    0    0  0.00000000000E+00  0.00000000000E+00 -0.16506094992E+04  0.21015916529E+04  0.13008365603E+04 0.  0.
        2    1    3    3  502    0  0.50078359585E+02  0.14098312475E+03 -0.18479229444E+04  0.18539696038E+04  0.25500000920E-02 0. -1.
       -2    1    3    3    0  502 -0.50078359585E+02 -0.14098312475E+03  0.19731344514E+03  0.24762204911E+03  0.25500000920E-02 0.  1.
</event>
<event>
 5   0  0.6048000E-04  0.1378844E+04  0.7818609E-02  0.8969277E-01
       -3   -1    0    0    0  501  0.00000000000E+00  0.00000000000E+00  0.83764917570E+03  0.83764918179E+03  0.10100000352E+00 0. -1.
        3   -1    0    0  501    0  0.00000000000E+00  0.00000000000E+00 -0.56742411175E+03  0.56742412074E+03  0.10100000352E+00 0.  1.
    10030    2    1    2    0    0  0.00000000000E+00  0.00000000000E+00  0.27022506395E+03  0.14050733025E+04  0.13788435010E+04 0.  0.
        1    1    3    3  502    0  0.21136859603E+03  0.96172712336E+02 -0.52637117096E+03  0.57531946223E+03  0.50400001928E-02 0.  1.
       -1    1    3    3    0  502 -0.21136859603E+03 -0.96172712336E+02  0.79659623491E+03  0.82975384029E+03  0.50400001928E-02 0. -1.
</event>
<event>
 5   0  0.1648213E-03  0.1398893E+04  0.7818609E-02  0.8954620E-01
       -2   -1    0    0    0  501  0.00000000000E+00  0.00000000000E+00  0.29911290603E+03  0.29911290604E+03  0.25500000920E-02 0. -1.
        2   -1    0    0  501    0  0.00000000000E+00  0.00000000000E+00 -0.16355870861E+04  0.16355870861E+04  0.25500000920E-02 0.  1.
    10030    2    1    2    0    0  0.00000000000E+00  0.00000000000E+00 -0.13364741801E+04  0.19346999921E+04  0.13988927141E+04 0.  0.
        4    1    3    3  502    0 -0.33208571763E+03 -0.51486953467E+03 -0.11348960562E+04  0.12897140121E+04  0.12699999809E+01 0.  1.
       -4    1    3    3    0  502  0.33208571763E+03  0.51486953467E+03 -0.20157812384E+03  0.64498598008E+03  0.12699999809E+01 0. -1.
</event>
<event>
 5   0  0.1605214E-03  0.1446576E+04  0.7818609E-02  0.8920778E-01
        2   -1    0    0  501    0  0.00000000000E+00  0.00000000000E+00  0.79905833078E+03  0.79905833079E+03  0.25500000920E-02 0.  1.
       -2   -1    0    0    0  501  0.00000000000E+00  0.00000000000E+00 -0.65470232712E+03  0.65470232712E+03  0.25500000920E-02 0. -1.
    10030    2    1    2    0    0  0.00000000000E+00  0.00000000000E+00  0.14435600367E+03  0.14537606579E+04  0.14465757480E+04 0.  0.
        5    1    3    3  502    0 -0.14246408822E+03  0.48187548861E+03 -0.45062044551E+03  0.67496731689E+03  0.46999998093E+01 0. -1.
       -5    1    3    3    0  502  0.14246408822E+03 -0.48187548861E+03  0.59497644917E+03  0.77879334103E+03  0.46999998093E+01 0.  1.
</event>
<event>
 5   0  0.8502300E-04  0.1396528E+04  0.7818609E-02  0.8956335E-01
       -1   -1    0    0    0  501  0.00000000000E+00  0.00000000000E+00  0.49744385907E+03  0.49744385910E+03  0.50400001928E-02 0. -1.
        1   -1    0    0  501    0  0.00000000000E+00  0.00000000000E+00 -0.98015674258E+03  0.98015674259E+03  0.50400001928E-02 0.  1.
    10030    2    1    2    0    0  0.00000000000E+00  0.00000000000E+00 -0.48271288351E+03  0.14776006017E+04  0.13965284853E+04 0.  0.
        4    1    3    3  502    0 -0.68611582502E+03  0.12885476950E+03 -0.22591965041E+03  0.73375730205E+03  0.12699999809E+01 0.  1.
       -4    1    3    3    0  502  0.68611582502E+03 -0.12885476950E+03 -0.25679323309E+03  0.74384329965E+03  0.12699999809E+01 0. -1.
</event>
<event>
 5   0  0.9007180E-04  0.1411618E+04  0.7818609E-02  0.8945451E-01
        1   -1    0    0  501    0  0.00000000000E+00  0.00000000000E+00  0.13450486592E+04  0.13450486592E+04  0.50400001928E-02 0.  1.
       -1   -1    0    0    0  501  0.00000000000E+00  0.00000000000E+00 -0.37037059171E+03  0.37037059174E+03  0.50400001928E-02 0. -1.
    10030    2    1    2    0    0  0.00000000000E+00  0.00000000000E+00  0.97467806744E+03  0.17154192509E+04  0.14116181747E+04 0.  0.
        2    1    3    3  502    0  0.49801307930E+03  0.67556007918E+02  0.10895581132E+04  0.11998823790E+04  0.25500000920E-02 0.  1.
       -2    1    3    3    0  502 -0.49801307930E+03 -0.67556007918E+02 -0.11488004578E+03  0.51553687189E+03  0.25500000920E-02 0. -1.
</event>
<event>
 5   0  0.1605214E-03  0.1386446E+04  0.7818609E-02  0.8963689E-01
        2   -1    0    0  501    0  0.00000000000E+00  0.00000000000E+00  0.13174609881E+04  0.13174609881E+04  0.25500000920E-02 0.  1.
       -2   -1    0    0    0  501  0.00000000000E+00  0.00000000000E+00 -0.36476072936E+03  0.36476072936E+03  0.25500000920E-02 0. -1.
    10030    2    1    2    0    0  0.00000000000E+00  0.00000000000E+00  0.95270025870E+03  0.16822217174E+04  0.13864458603E+04 0.  0.
        5    1    3    3  502    0 -0.15472950041E+03 -0.39952978558E+03  0.11375566102E+04  0.12155749254E+04  0.46999998093E+01 0.  1.
       -5    1    3    3    0  502  0.15472950041E+03  0.39952978558E+03 -0.18485635146E+03  0.46664679205E+03  0.46999998093E+01 0. -1.
</event>
<event>
 5   0  0.8673728E-04  0.1358564E+04  0.7818609E-02  0.8984371E-01
        1   -1    0    0  501    0  0.00000000000E+00  0.00000000000E+00  0.51879179215E+03  0.51879179218E+03  0.50400001928E-02 0. -1.
       -1   -1    0    0    0  501  0.00000000000E+00  0.00000000000E+00 -0.88942022968E+03  0.88942022970E+03  0.50400001928E-02 0.  1.
    10030    2    1    2    0    0  0.00000000000E+00  0.00000000000E+00 -0.37062843753E+03  0.14082120219E+04  0.13585638225E+04 0.  0.
        3    1    3    3  502    0 -0.54174404945E+03  0.38432555068E+02  0.23759119535E+03  0.59280120000E+03  0.10100000352E+00 0. -1.
       -3    1    3    3    0  502  0.54174404945E+03 -0.38432555068E+02 -0.60821963288E+03  0.81541082188E+03  0.10100000352E+00 0.  1.
</event>
<event>
 5   0  0.1648463E-03  0.1434840E+04  0.7818609E-02  0.8928979E-01
       -2   -1    0    0    0  501  0.00000000000E+00  0.00000000000E+00  0.49065173532E+03  0.49065173533E+03  0.25500000920E-02 0. -1.
        2   -1    0    0  501    0  0.00000000000E+00  0.00000000000E+00 -0.10489951638E+04  0.10489951638E+04  0.25500000920E-02 0.  1.
    10030    2    1    2    0    0  0.00000000000E+00  0.00000000000E+00 -0.55834342851E+03  0.15396468992E+04  0.14348397785E+04 0.  0.
        1    1    3    3  502    0  0.65127769798E+03  0.10580050140E+03  0.23066861586E+02  0.66021849876E+03  0.50400001928E-02 0. -1.
       -1    1    3    3    0  502 -0.65127769798E+03 -0.10580050140E+03 -0.58141029010E+03  0.87942840041E+03  0.50400001928E-02 0.  1.
</event>
<event>
 5   0  0.9639548E-04  0.1392826E+04  0.7818609E-02  0.8959028E-01
        1   -1    0    0  501    0  0.00000000000E+00  0.00000000000E+00  0.13163914661E+04  0.13163914661E+04  0.50400001928E-02 0. -1.
       -1   -1    0    0    0  501  0.00000000000E+00  0.00000000000E+00 -0.36842477777E+03  0.36842477781E+03  0.50400001928E-02 0.  1.
    10030    2    1    2    0    0  0.00000000000E+00  0.00000000000E+00  0.94796668830E+03  0.16848162439E+04  0.13928262395E+04 0.  0.
        1    1    3    3  502    0  0.29158139532E+03 -0.56819398240E+03  0.80992136794E+03  0.10314246138E+04  0.50400001928E-02 0. -1.
       -1    1    3    3    0  502 -0.29158139532E+03  0.56819398240E+03  0.13804532036E+03  0.65339163006E+03  0.50400001928E-02 0.  1.
</event>
<event>
 5   0  0.1648463E-03  0.1386861E+04  0.7818609E-02  0.8963384E-01
       -2   -1    0    0    0  501  0.00000000000E+00  0.00000000000E+00  0.14141811808E+04  0.14141811808E+04  0.25500000920E-02 0.  1.
        2   -1    0    0  501    0  0.00000000000E+00  0.00000000000E+00 -0.34001731802E+03  0.34001731803E+03  0.25500000920E-02 0. -1.
    10030    2    1    2    0    0  0.00000000000E+00  0.00000000000E+00  0.10741638628E+04  0.17541984989E+04  0.13868613374E+04 0.  0.
        1    1    3    3  502    0 -0.51587821027E+03  0.41458085714E+03  0.79887775062E+03  0.10374069960E+04  0.50400001928E-02 0.  1.
       -1    1    3    3    0  502  0.51587821027E+03 -0.41458085714E+03  0.27528611218E+03  0.71679150283E+03  0.50400001928E-02 0. -1.
</event>
<event>
 5   0  0.1648463E-03  0.1390756E+04  0.7818609E-02  0.8960537E-01
        2   -1    0    0  501    0  0.00000000000E+00  0.00000000000E+00  0.11620965433E+04  0.11620965433E+04  0.25500000920E-02 0. -1.
       -2   -1    0    0    0  501  0.00000000000E+00  0.00000000000E+00 -0.41610186739E+03  0.41610186739E+03  0.25500000920E-02 0.  1.
    10030    2    1    2    0    0  0.00000000000E+00  0.00000000000E+00  0.74599467593E+03  0.15781984107E+04  0.13907559696E+04 0.  0.
        1    1    3    3  502    0  0.66395445927E+03 -0.20267248008E+03  0.32705800138E+03  0.76738425476E+03  0.50400001928E-02 0.  1.
       -1    1    3    3    0  502 -0.66395445927E+03  0.20267248008E+03  0.41893667455E+03  0.81081415594E+03  0.50400001928E-02 0. -1.
</event>
<event>
 5   0  0.1605214E-03  0.1423552E+04  0.7818609E-02  0.8936944E-01
       -2   -1    0    0    0  501  0.00000000000E+00  0.00000000000E+00  0.42352505690E+03  0.42352505691E+03  0.25500000920E-02 0.  1.
        2   -1    0    0  501    0  0.00000000000E+00  0.00000000000E+00 -0.11962108970E+04  0.11962108970E+04  0.25500000920E-02 0. -1.
    10030    2    1    2    0    0  0.00000000000E+00  0.00000000000E+00 -0.77268584008E+03  0.16197359539E+04  0.14235523007E+04 0.  0.
        5    1    3    3  502    0  0.15152608440E+03 -0.69488700420E+03 -0.41802023508E+03  0.82497946022E+03  0.46999998093E+01 0.  1.
       -5    1    3    3    0  502 -0.15152608440E+03  0.69488700420E+03 -0.35466560500E+03  0.79475649366E+03  0.46999998093E+01 0. -1.
</event>
<event>
 5   0  0.1706986E-03  0.1416203E+04  0.7818609E-02  0.8942173E-01
        2   -1    0    0  501    0  0.00000000000E+00  0.00000000000E+00  0.29176787994E+04  0.29176787994E+04  0.25500000920E-02 0. -1.
       -2   -1    0    0    0  501  0.00000000000E+00  0.00000000000E+00 -0.17185153137E+03  0.17185153139E+03  0.25500000920E-02 0.  1.
    10030    2    1    2    0    0  0.00000000000E+00  0.00000000000E+00  0.27458272680E+04  0.30895303308E+04  0.14162027676E+04 0.  0.
        3    1    3    3  502    0  0.60199302804E+03 -0.23569289757E+03  0.74267020454E+03  0.98463485145E+03  0.10100000352E+00 0.  1.
       -3    1    3    3    0  502 -0.60199302804E+03  0.23569289757E+03  0.20031570635E+04  0.21048954794E+04  0.10100000352E+00 0. -1.
</event>
<event>
 5   0  0.9007180E-04  0.1415939E+04  0.7818609E-02  0.8942361E-01
        1   -1    0    0  501    0  0.00000000000E+00  0.00000000000E+00  0.11389432343E+04  0.11389432343E+04  0.50400001928E-02 0. -1.
       -1   -1    0    0    0  501  0.00000000000E+00  0.00000000000E+00 -0.44007539131E+03  0.44007539134E+03  0.50400001928E-02 0.  1.
    10030    2    1    2    0    0  0.00000000000E+00  0.00000000000E+00  0.69886784302E+03  0.15790186257E+04  0.14159391082E+04 0.  0.
        2    1    3    3  502    0 -0.66029766745E+02  0.61173511924E+03  0.73996958561E+03  0.96235896309E+03  0.25500000920E-02 0. -1.
       -2    1    3    3    0  502  0.66029766745E+02 -0.61173511924E+03 -0.41101742592E+02  0.61665966259E+03  0.25500000920E-02 0.  1.
</event>
<event>
 5   0  0.8673728E-04  0.1405496E+04  0.7818609E-02  0.8949850E-01
        1   -1    0    0  501    0  0.00000000000E+00  0.00000000000E+00  0.85986191441E+03  0.85986191442E+03  0.50400001928E-02 0.  1.
       -1   -1    0    0    0  501  0.00000000000E+00  0.00000000000E+00 -0.57434179769E+03  0.57434179772E+03  0.50400001928E-02 0. -1.
    10030    2    1    2    0    0  0.00000000000E+00  0.00000000000E+00  0.28552011672E+03  0.14342037121E+04  0.14054958381E+04 0.  0.
        3    1    3    3  502    0  0.41976855929E+03 -0.13623079688E+03 -0.41530179438E+03  0.60600335313E+03  0.10100000352E+00 0. -1.
       -3    1    3    3    0  502 -0.41976855929E+03  0.13623079688E+03  0.70082191110E+03  0.82820035901E+03  0.10100000352E+00 0.  1.
</event>
<event>
 5   0  0.6048000E-04  0.1477008E+04  0.7818609E-02  0.8899888E-01
       -3   -1    0    0    0  501  0.00000000000E+00  0.00000000000E+00  0.56896225689E+03  0.56896226586E+03  0.10100000352E+00 0.  1.
        3   -1    0    0  501    0  0.00000000000E+00  0.00000000000E+00 -0.95856682504E+03  0.95856683036E+03  0.10100000352E+00 0. -1.
    10030    2    1    2    0    0  0.00000000000E+00  0.00000000000E+00 -0.38960456815E+03  0.15275290962E+04  0.14770082668E+04 0.  0.
        3    1    3    3  502    0  0.63919465511E+03 -0.36219035749E+03 -0.27244815380E+03  0.78356854767E+03  0.10100000352E+00 0. -1.
       -3    1    3    3    0  502 -0.63919465511E+03  0.36219035749E+03 -0.11715641435E+03  0.74396054855E+03  0.10100000352E+00 0.  1.
</event>
<event>
 5   0  0.9007180E-04  0.1386686E+04  0.7818609E-02  0.8963513E-01
       -1   -1    0    0    0  501  0.00000000000E+00  0.00000000000E+00  0.82077759114E+03  0.82077759116E+03  0.50400001928E-02 0.  1.
        1   -1    0    0  501    0  0.00000000000E+00  0.00000000000E+00 -0.58569373215E+03  0.58569373217E+03  0.50400001928E-02 0. -1.
    10030    2    1    2    0    0  0.00000000000E+00  0.00000000000E+00  0.23508385899E+03  0.14064713233E+04  0.13866856755E+04 0.  0.
        2    1    3    3  502    0  0.85221600099E+02 -0.68201690896E+03  0.25056980310E+02  0.68777731680E+03  0.25500000920E-02 0.  1.
       -2    1    3    3    0  502 -0.85221600099E+02  0.68201690896E+03  0.21002687869E+03  0.71869400652E+03  0.25500000920E-02 0. -1.
</event>
<event>
 5   0  0.9639548E-04  0.1412683E+04  0.7818609E-02  0.8944689E-01
       -1   -1    0    0    0  501  0.00000000000E+00  0.00000000000E+00  0.45181327531E+03  0.45181327534E+03  0.50400001928E-02 0.  1.
        1   -1    0    0  501    0  0.00000000000E+00  0.00000000000E+00 -0.11042575943E+04  0.11042575943E+04  0.50400001928E-02 0. -1.
    10030    2    1    2    0    0  0.00000000000E+00  0.00000000000E+00 -0.65244431902E+03  0.15560708697E+04  0.14126828951E+04 0.  0.
        1    1    3    3  502    0  0.34828324118E+03  0.29204253388E+03  0.26933030934E+03  0.52832648356E+03  0.50400001928E-02 0.  1.
       -1    1    3    3    0  502 -0.34828324118E+03 -0.29204253388E+03 -0.92177462835E+03  0.10277443861E+04  0.50400001928E-02 0. -1.
</event>
<event>
 5   0  0.1648463E-03  0.1403586E+04  0.7818609E-02  0.8951227E-01
        2   -1    0    0  501    0  0.00000000000E+00  0.00000000000E+00  0.16097109517E+04  0.16097109517E+04  0.25500000920E-02 0. -1.
       -2   -1    0    0    0  501  0.00000000000E+00  0.00000000000E+00 -0.30596391601E+03  0.30596391602E+03  0.25500000920E-02 0.  1.
    10030    2    1    2    0    0  0.00000000000E+00  0.00000000000E+00  0.13037470357E+04  0.19156748677E+04  0.14035860735E+04 0.  0.
        1    1    3    3  502    0  0.47922165519E+03  0.48169662609E+03  0.89151305347E+03  0.11209284361E+04  0.50400001928E-02 0. -1.
       -1    1    3    3    0  502 -0.47922165519E+03 -0.48169662609E+03  0.41223398218E+03  0.79474643156E+03  0.50400001928E-02 0.  1.
</event>
<event>
 5   0  0.8673728E-04  0.1427484E+04  0.7818609E-02  0.8934161E-01
        1   -1    0    0  501    0  0.00000000000E+00  0.00000000000E+00  0.93314557700E+03  0.93314557701E+03  0.50400001928E-02 0.  1.
       -1   -1    0    0    0  501  0.00000000000E+00  0.00000000000E+00 -0.54592552505E+03  0.54592552508E+03  0.50400001928E-02 0. -1.
    10030    2    1    2    0    0  0.00000000000E+00  0.00000000000E+00  0.38722005194E+03  0.14790711021E+04  0.14274844855E+04 0.  0.
        3    1    3    3  502    0 -0.27487801068E+03 -0.29290624332E+03 -0.41769038688E+03  0.57949741814E+03  0.10100000352E+00 0. -1.
       -3    1    3    3    0  502  0.27487801068E+03  0.29290624332E+03  0.80491043883E+03  0.89957368395E+03  0.10100000352E+00 0.  1.
</event>
<event>
 5   0  0.1578965E-03  0.1416938E+04  0.7818609E-02  0.8941649E-01
       -2   -1    0    0    0  501  0.00000000000E+00  0.00000000000E+00  0.66054685402E+03  0.66054685403E+03  0.25500000920E-02 0.  1.
        2   -1    0    0  501    0  0.00000000000E+00  0.00000000000E+00 -0.75986752881E+03  0.75986752881E+03  0.25500000920E-02 0. -1.
    10030    2    1    2    0    0  0.00000000000E+00  0.00000000000E+00 -0.99320674782E+02  0.14204143828E+04  0.14169376918E+04 0.  0.
        2    1    3    3  502    0  0.60581286284E+03 -0.27874607951E+03  0.19013258062E+03  0.69343997566E+03  0.25500000920E-02 0.  1.
       -2    1    3    3    0  502 -0.60581286284E+03  0.27874607951E+03 -0.28945325540E+03  0.72697440718E+03  0.25500000920E-02 0. -1.
</event>
<event>
 5   0  0.8609148E-04  0.1030578E+04  0.7818609E-02  0.9275629E-01
       -1   -1    0    0    0  501  0.00000000000E+00  0.00000000000E+00  0.69568092154E+03  0.69568092156E+03  0.50400001928E-02 0. -1.
        1   -1    0    0  501    0  0.00000000000E+00  0.00000000000E+00 -0.38167333419E+03  0.38167333423E+03  0.50400001928E-02 0.  1.
    10030    2    1    2    0    0  0.00000000000E+00  0.00000000000E+00  0.31400758735E+03  0.10773542558E+04  0.10305782006E+04 0.  0.
        5    1    3    3  502    0  0.41929769821E+02  0.98667518999E+02  0.68387049196E+03  0.69223863275E+03  0.46999998093E+01 0. -1.
       -5    1    3    3    0  502 -0.41929769821E+02 -0.98667518999E+02 -0.36986290461E+03  0.38511562304E+03  0.46999998093E+01 0.  1.
</event>
<event>
 5   0  0.1648213E-03  0.1424380E+04  0.7818609E-02  0.8936358E-01
        2   -1    0    0  501    0  0.00000000000E+00  0.00000000000E+00  0.10138100849E+04  0.10138100849E+04  0.25500000920E-02 0.  1.
       -2   -1    0    0    0  501  0.00000000000E+00  0.00000000000E+00 -0.50030504795E+03  0.50030504796E+03  0.25500000920E-02 0. -1.
    10030    2    1    2    0    0  0.00000000000E+00  0.00000000000E+00  0.51350503693E+03  0.15141151328E+04  0.14243795886E+04 0.  0.
        4    1    3    3  502    0  0.10841761483E+03 -0.70369035534E+03  0.23902256119E+03  0.75104453467E+03  0.12699999809E+01 0.  1.
       -4    1    3    3    0  502 -0.10841761483E+03  0.70369035534E+03  0.27448247575E+03  0.76307059817E+03  0.12699999809E+01 0. -1.
</event>
<event>
 5   0  0.1648463E-03  0.1393590E+04  0.7818609E-02  0.8958471E-01
        2   -1    0    0  501    0  0.00000000000E+00  0.00000000000E+00  0.48785596941E+03  0.48785596941E+03  0.25500000920E-02 0.  1.
       -2   -1    0    0    0  501  0.00000000000E+00  0.00000000000E+00 -0.99521898001E+03  0.99521898001E+03  0.25500000920E-02 0. -1.
    10030    2    1    2    0    0  0.00000000000E+00  0.00000000000E+00 -0.50736301061E+03  0.14830749494E+04  0.13935903563E+04 0.  0.
        1    1    3    3  502    0 -0.54913237663E+03  0.42815703636E+03 -0.28099476777E+03  0.75088139835E+03  0.50400001928E-02 0. -1.
       -1    1    3    3    0  502  0.54913237663E+03 -0.42815703636E+03 -0.22636824284E+03  0.73219355108E+03  0.50400001928E-02 0.  1.
</event>
<event>
 5   0  0.1648463E-03  0.1389964E+04  0.7818609E-02  0.8961116E-01
        2   -1    0    0  501    0  0.00000000000E+00  0.00000000000E+00  0.16348716269E+04  0.16348716269E+04  0.25500000920E-02 0.  1.
       -2   -1    0    0    0  501  0.00000000000E+00  0.00000000000E+00 -0.29543582318E+03  0.29543582319E+03  0.25500000920E-02 0. -1.
    10030    2    1    2    0    0  0.00000000000E+00  0.00000000000E+00  0.13394358037E+04  0.19303074501E+04  0.13899635174E+04 0.  0.
        1    1    3    3  502    0  0.39109717279E+02  0.69254479628E+03  0.72947889198E+03  0.10066217357E+04  0.50400001928E-02 0. -1.
       -1    1    3    3    0  502 -0.39109717279E+02 -0.69254479628E+03  0.60995691173E+03  0.92368571442E+03  0.50400001928E-02 0.  1.
</event>
<event>
 5   0  0.8502300E-04  0.1042284E+04  0.7818609E-02  0.9263346E-01
       -1   -1    0    0    0  501  0.00000000000E+00  0.00000000000E+00  0.13449071807E+03  0.13449071817E+03  0.50400001928E-02 0. -1.
        1   -1    0    0  501    0  0.00000000000E+00  0.00000000000E+00 -0.20193899320E+04  0.20193899320E+04  0.50400001928E-02 0.  1.
    10030    2    1    2    0    0  0.00000000000E+00  0.00000000000E+00 -0.18848992139E+04  0.21538806502E+04  0.10422844182E+04 0.  0.
        4    1    3    3  502    0 -0.33634963093E+03  0.39775060043E+03 -0.97518748302E+03  0.11055898219E+04  0.12699999809E+01 0.  1.
       -4    1    3    3    0  502  0.33634963093E+03 -0.39775060043E+03 -0.90971173089E+03  0.10482908282E+04  0.12699999809E+01 0. -1.
</event>
<event>
 5   0  0.1648213E-03  0.1405994E+04  0.7818609E-02  0.8949491E-01
        2   -1    0    0  501    0  0.00000000000E+00  0.00000000000E+00  0.92972161475E+03  0.92972161475E+03  0.25500000920E-02 0.  1.
       -2   -1    0    0    0  501  0.00000000000E+00  0.00000000000E+00 -0.53156210790E+03  0.53156210791E+03  0.25500000920E-02 0. -1.
    10030    2    1    2    0    0  0.00000000000E+00  0.00000000000E+00  0.39815950685E+03  0.14612837227E+04  0.14059939990E+04 0.  0.
        4    1    3    3  502    0 -0.34755461675E+03 -0.58866317152E+03  0.28666609185E+02  0.68420898015E+03  0.12699999809E+01 0. -1.
       -4    1    3    3    0  502  0.34755461675E+03  0.58866317152E+03  0.36949289766E+03  0.77707474251E+03  0.12699999809E+01 0.  1.
</event>
<event>
 5   0  0.1648213E-03  0.1407529E+04  0.7818609E-02  0.8948387E-01
        2   -1    0    0  501    0  0.00000000000E+00  0.00000000000E+00  0.66883814717E+03  0.66883814717E+03  0.25500000920E-02 0. -1.
       -2   -1    0    0    0  501  0.00000000000E+00  0.00000000000E+00 -0.74051482593E+03  0.74051482593E+03  0.25500000920E-02 0.  1.
    10030    2    1    2    0    0  0.00000000000E+00  0.00000000000E+00 -0.71676678760E+02  0.14093529731E+04  0.14075291317E+04 0.  0.
        4    1    3    3  502    0 -0.53012624560E+03 -0.42920659412E+03  0.13768022251E+03  0.69585170351E+03  0.12699999809E+01 0. -1.
       -4    1    3    3    0  502  0.53012624560E+03  0.42920659412E+03 -0.20935690127E+03  0.71350126960E+03  0.12699999809E+01 0.  1.
</event>
<event>
 5   0  0.9007180E-04  0.1405443E+04  0.7818609E-02  0.8949888E-01
        1   -1    0    0  501    0  0.00000000000E+00  0.00000000000E+00  0.23481772846E+04  0.23481772846E+04  0.50400001928E-02 0. -1.
       -1   -1    0    0    0  501  0.00000000000E+00  0.00000000000E+00 -0.21029814642E+03  0.21029814648E+03  0.50400001928E-02 0.  1.
    10030    2    1    2    0    0  0.00000000000E+00  0.00000000000E+00  0.21378791382E+04  0.25584754311E+04  0.14054427494E+04 0.  0.
        2    1    3    3  502    0  0.64264175517E+03  0.26838667778E+03  0.89819471058E+03  0.11365621727E+04  0.25500000920E-02 0.  1.
       -2    1    3    3    0  502 -0.64264175517E+03 -0.26838667778E+03  0.12396844276E+04  0.14219132584E+04  0.25500000920E-02 0. -1.
</event>
<event>
 5   0  0.1648463E-03  0.1408833E+04  0.7818609E-02  0.8947450E-01
        2   -1    0    0  501    0  0.00000000000E+00  0.00000000000E+00  0.12841933623E+04  0.12841933623E+04  0.25500000920E-02 0. -1.
       -2   -1    0    0    0  501  0.00000000000E+00  0.00000000000E+00 -0.38639220943E+03  0.38639220944E+03  0.25500000920E-02 0.  1.
    10030    2    1    2    0    0  0.00000000000E+00  0.00000000000E+00  0.89780115288E+03  0.16705855717E+04  0.14088325814E+04 0.  0.
        1    1    3    3  502    0 -0.69839711206E+03  0.53708433036E+02  0.36048779658E+03  0.78777825143E+03  0.50400001928E-02 0. -1.
       -1    1    3    3    0  502  0.69839711206E+03 -0.53708433036E+02  0.53731335630E+03  0.88280732031E+03  0.50400001928E-02 0.  1.
</event>
<event>
 5   0  0.8609148E-04  0.1390515E+04  0.7818609E-02  0.8960713E-01
        1   -1    0    0  501    0  0.00000000000E+00  0.00000000000E+00  0.93306057066E+03  0.93306057068E+03  0.50400001928E-02 0.  1.
       -1   -1    0    0    0  501  0.00000000000E+00  0.00000000000E+00 -0.51806172807E+03  0.51806172809E+03  0.50400001928E-02 0. -1.
    10030    2    1    2    0    0  0.00000000000E+00  0.00000000000E+00  0.41499884260E+03  0.14511222988E+04  0.13905149717E+04 0.  0.
        5    1    3    3  502    0  0.35174995700E+03 -0.15397263647E+03 -0.39735336865E+03  0.55258247765E+03  0.46999998093E+01 0. -1.
       -5    1    3    3    0  502 -0.35174995700E+03  0.15397263647E+03  0.81235221124E+03  0.89853982112E+03  0.46999998093E+01 0.  1.
</event>
<event>
 5   0  0.8609148E-04  0.1396366E+04  0.7818609E-02  0.8956453E-01
       -1   -1    0    0    0  501  0.00000000000E+00  0.00000000000E+00  0.69548270292E+03  0.69548270294E+03  0.50400001928E-02 0. -1.
        1   -1    0    0  501    0  0.00000000000E+00  0.00000000000E+00 -0.70089394634E+03  0.70089394636E+03  0.50400001928E-02 0.  1.
    10030    2    1    2    0    0  0.00000000000E+00  0.00000000000E+00 -0.54112434223E+01  0.13963766493E+04  0.13963661644E+04 0.  0.
        5    1    3    3  502    0 -0.41005617988E+03 -0.46703519826E+03  0.31536842396E+03  0.69695572305E+03  0.46999998093E+01 0. -1.
       -5    1    3    3    0  502  0.41005617988E+03  0.46703519826E+03 -0.32077966738E+03  0.69942092625E+03  0.46999998093E+01 0.  1.
</event>
<event>
 5   0  0.8609148E-04  0.1391133E+04  0.7818609E-02  0.8960262E-01
       -1   -1    0    0    0  501  0.00000000000E+00  0.00000000000E+00  0.40245669279E+03  0.40245669282E+03  0.50400001928E-02 0. -1.
        1   -1    0    0  501    0  0.00000000000E+00  0.00000000000E+00 -0.12021492624E+04  0.12021492625E+04  0.50400001928E-02 0.  1.
    10030    2    1    2    0    0  0.00000000000E+00  0.00000000000E+00 -0.79969256965E+03  0.16046059553E+04  0.13911333745E+04 0.  0.
        5    1    3    3  502    0  0.35995066189E+03 -0.57762240701E+03 -0.23437993825E+03  0.71983898862E+03  0.46999998093E+01 0.  1.
       -5    1    3    3    0  502 -0.35995066189E+03  0.57762240701E+03 -0.56531263140E+03  0.88476696666E+03  0.46999998093E+01 0. -1.
</event>
<event>
 5   0  0.9007180E-04  0.1356353E+04  0.7818609E-02  0.8986032E-01
       -1   -1    0    0    0  501  0.00000000000E+00  0.00000000000E+00  0.46569351267E+03  0.46569351269E+03  0.50400001928E-02 0.  1.
        1   -1    0    0  501    0  0.00000000000E+00  0.00000000000E+00 -0.98761025847E+03  0.98761025848E+03  0.50400001928E-02 0. -1.
    10030    2    1    2    0    0  0.00000000000E+00  0.00000000000E+00 -0.52191674580E+03  0.14533037712E+04  0.13563534797E+04 0.  0.
        2    1    3    3  502    0 -0.89183013749E+02 -0.59832731072E+03  0.67506210672E+02  0.60869226148E+03  0.25500000920E-02 0. -1.
       -2    1    3    3    0  502  0.89183013749E+02  0.59832731072E+03 -0.58942295647E+03  0.84461150970E+03  0.25500000920E-02 0.  1.
</event>
<event>
 5   0  0.1706986E-03  0.1405563E+04  0.7818609E-02  0.8949801E-01
       -2   -1    0    0    0  501  0.00000000000E+00  0.00000000000E+00  0.23554018353E+03  0.23554018354E+03  0.25500000920E-02 0. -1.
        2   -1    0    0  501    0  0.00000000000E+00  0.00000000000E+00 -0.20968903056E+04  0.20968903056E+04  0.25500000920E-02 0.  1.
    10030    2    1    2    0    0  0.00000000000E+00  0.00000000000E+00 -0.18613501220E+04  0.23324304891E+04  0.14055631290E+04 0.  0.
        3    1    3    3  502    0 -0.26392686850E+03 -0.62904875499E+03 -0.12110259862E+04  0.13899437677E+04  0.10100000352E+00 0.  1.
       -3    1    3    3    0  502  0.26392686850E+03  0.62904875499E+03 -0.65032413583E+03  0.94248672135E+03  0.10100000352E+00 0. -1.
</event>
<event>
 5   0  0.1605214E-03  0.1400215E+04  0.7818609E-02  0.8953663E-01
        2   -1    0    0  501    0  0.00000000000E+00  0.00000000000E+00  0.49090722378E+03  0.49090722379E+03  0.25500000920E-02 0.  1.
       -2   -1    0    0    0  501  0.00000000000E+00  0.00000000000E+00 -0.99845863601E+03  0.99845863601E+03  0.25500000920E-02 0. -1.
    10030    2    1    2    0    0  0.00000000000E+00  0.00000000000E+00 -0.50755141223E+03  0.14893658598E+04  0.14002150650E+04 0.  0.
        5    1    3    3  502    0 -0.39342723245E+03 -0.39286207131E+03 -0.70630779718E+03  0.89889843067E+03  0.46999998093E+01 0. -1.
       -5    1    3    3    0  502  0.39342723245E+03  0.39286207131E+03  0.19875638495E+03  0.59046742913E+03  0.46999998093E+01 0.  1.
</event>
<event>
 5   0  0.1578965E-03  0.1389742E+04  0.7818609E-02  0.8961277E-01
        2   -1    0    0  501    0  0.00000000000E+00  0.00000000000E+00  0.12768410375E+04  0.12768410375E+04  0.25500000920E-02 0.  1.
       -2   -1    0    0    0  501  0.00000000000E+00  0.00000000000E+00 -0.37815672456E+03  0.37815672457E+03  0.25500000920E-02 0. -1.
    10030    2    1    2    0    0  0.00000000000E+00  0.00000000000E+00  0.89868431289E+03  0.16549977620E+04  0.13897424575E+04 0.  0.
        2    1    3    3  502    0  0.26428649505E+03 -0.64264661751E+03  0.45172330822E+03  0.82879187596E+03  0.25500000920E-02 0. -1.
       -2    1    3    3    0  502 -0.26428649505E+03  0.64264661751E+03  0.44696100467E+03  0.82620588606E+03  0.25500000920E-02 0.  1.
</event>
<event>
 5   0  0.8502300E-04  0.1392819E+04  0.7818609E-02  0.8959033E-01
        1   -1    0    0  501    0  0.00000000000E+00  0.00000000000E+00  0.10094674142E+04  0.10094674142E+04  0.50400001928E-02 0.  1.
       -1   -1    0    0    0  501  0.00000000000E+00  0.00000000000E+00 -0.48043772610E+03  0.48043772613E+03  0.50400001928E-02 0. -1.
    10030    2    1    2    0    0  0.00000000000E+00  0.00000000000E+00  0.52902968808E+03  0.14899051403E+04  0.13928190537E+04 0.  0.
        4    1    3    3  502    0  0.28799752044E+03 -0.58271053630E+03  0.53192065037E+03  0.83990197766E+03  0.12699999809E+01 0.  1.
       -4    1    3    3    0  502 -0.28799752044E+03  0.58271053630E+03 -0.28909622867E+01  0.65000316265E+03  0.12699999809E+01 0. -1.
</event>
<event>
 5   0  0.1648463E-03  0.1395870E+04  0.7818609E-02  0.8956814E-01
        2   -1    0    0  501    0  0.00000000000E+00  0.00000000000E+00  0.13415450443E+04  0.13415450443E+04  0.25500000920E-02 0. -1.
       -2   -1    0    0    0  501  0.00000000000E+00  0.00000000000E+00 -0.36309844584E+03  0.36309844585E+03  0.25500000920E-02 0.  1.
    10030    2    1    2    0    0  0.00000000000E+00  0.00000000000E+00  0.97844659848E+03  0.17046434902E+04  0.13958695077E+04 0.  0.
        1    1    3    3  502    0 -0.27370090608E+03  0.29423469666E+03 -0.20764183001E+03  0.45232883205E+03  0.50400001928E-02 0.  1.
       -1    1    3    3    0  502  0.27370090608E+03 -0.29423469666E+03  0.11860884285E+04  0.12523146581E+04  0.50400001928E-02 0. -1.
</event>
<event>
 5   0  0.6048000E-04  0.1386917E+04  0.7818609E-02  0.8963344E-01
       -3   -1    0    0    0  501  0.00000000000E+00  0.00000000000E+00  0.58962022126E+03  0.58962022991E+03  0.10100000352E+00 0. -1.
        3   -1    0    0  501    0  0.00000000000E+00  0.00000000000E+00 -0.81558348249E+03  0.81558348874E+03  0.10100000352E+00 0.  1.
    10030    2    1    2    0    0  0.00000000000E+00  0.00000000000E+00 -0.22596326123E+03  0.14052037186E+04  0.13869167587E+04 0.  0.
        5    1    3    3  502    0 -0.22124143191E+03 -0.33605289620E+03  0.45925116054E+03  0.61058417822E+03  0.46999998093E+01 0. -1.
       -5    1    3    3    0  502  0.22124143191E+03  0.33605289620E+03 -0.68521442177E+03  0.79461954043E+03  0.46999998093E+01 0.  1.
</event>
<event>
 5   0  0.9007180E-04  0.1441950E+04  0.7818609E-02  0.8924000E-01
       -1   -1    0    0    0  501  0.00000000000E+00  0.00000000000E+00  0.78654918177E+03  0.78654918178E+03  0.50400001928E-02 0. -1.
        1   -1    0    0  501    0  0.00000000000E+00  0.00000000000E+00 -0.66086783666E+03  0.66086783668E+03  0.50400001928E-02 0.  1.
    10030    2    1    2    0    0  0.00000000000E+00  0.00000000000E+00  0.12568134511E+03  0.14474170185E+04  0.14419501464E+04 0.  0.
        2    1    3    3  502    0  0.61450243211E+03 -0.29041421464E+03  0.30427575114E+03  0.74467267163E+03  0.25500000920E-02 0. -1.
       -2    1    3    3    0  502 -0.61450243211E+03  0.29041421464E+03 -0.17859440603E+03  0.70274434683E+03  0.25500000920E-02 0.  1.
</event>
<event>
 5   0  0.9639548E-04  0.1396766E+04  0.7818609E-02  0.8956163E-01
       -1   -1    0    0    0  501  0.00000000000E+00  0.00000000000E+00  0.18401941124E+03  0.18401941131E+03  0.50400001928E-02 0. -1.
        1   -1    0    0  501    0  0.00000000000E+00  0.00000000000E+00 -0.26504738359E+04  0.26504738359E+04  0.50400001928E-02 0.  1.
    10030    2    1    2    0    0  0.00000000000E+00  0.00000000000E+00 -0.24664544246E+04  0.28344932472E+04  0.13967657426E+04 0.  0.
        1    1    3    3  502    0 -0.53179129938E+03  0.32044150696E+03 -0.18821481243E+04  0.19819097627E+04  0.50400001928E-02 0.  1.
       -1    1    3    3    0  502  0.53179129938E+03 -0.32044150696E+03 -0.58430630033E+03  0.85258348454E+03  0.50400001928E-02 0. -1.
</event>
<event>
 5   0  0.8673728E-04  0.1387996E+04  0.7818609E-02  0.8962554E-01
       -1   -1    0    0    0  501  0.00000000000E+00  0.00000000000E+00  0.13568683692E+04  0.13568683692E+04  0.50400001928E-02 0.  1.
        1   -1    0    0  501    0  0.00000000000E+00  0.00000000000E+00 -0.35495919175E+03  0.35495919179E+03  0.50400001928E-02 0. -1.
    10030    2    1    2    0    0  0.00000000000E+00  0.00000000000E+00  0.10019091774E+04  0.17118275610E+04  0.13879955327E+04 0.  0.
        3    1    3    3  502    0 -0.53701052354E+03  0.23377545457E+03  0.96010619230E+03  0.11246489124E+04  0.10100000352E+00 0.  1.
       -3    1    3    3    0  502  0.53701052354E+03 -0.23377545457E+03  0.41802985146E+02  0.58717864855E+03  0.10100000352E+00 0. -1.
</event>
<event>
 5   0  0.9007180E-04  0.1379832E+04  0.7818609E-02  0.8968548E-01
        1   -1    0    0  501    0  0.00000000000E+00  0.00000000000E+00  0.20171865154E+04  0.20171865154E+04  0.50400001928E-02 0. -1.
       -1   -1    0    0    0  501  0.00000000000E+00  0.00000000000E+00 -0.23596447736E+03  0.23596447741E+03  0.50400001928E-02 0.  1.
    10030    2    1    2    0    0  0.00000000000E+00  0.00000000000E+00  0.17812220380E+04  0.22531509928E+04  0.13798323984E+04 0.  0.
        2    1    3    3  502    0 -0.46065915934E+03 -0.50010972303E+03  0.69970803272E+03  0.97565768957E+03  0.25500000920E-02 0.  1.
       -2    1    3    3    0  502  0.46065915934E+03  0.50010972303E+03  0.10815140053E+04  0.12774933033E+04  0.25500000920E-02 0. -1.
</event>
<event>
 5   0  0.8673728E-04  0.1389149E+04  0.7818609E-02  0.8961711E-01
        1   -1    0    0  501    0  0.00000000000E+00  0.00000000000E+00  0.99336117153E+03  0.99336117154E+03  0.50400001928E-02 0.  1.
       -1   -1    0    0    0  501  0.00000000000E+00  0.00000000000E+00 -0.48565806957E+03  0.48565806959E+03  0.50400001928E-02 0. -1.
    10030    2    1    2    0    0  0.00000000000E+00  0.00000000000E+00  0.50770310196E+03  0.14790192411E+04  0.13891491914E+04 0.  0.
        3    1    3    3  502    0 -0.29805994343E+03 -0.15090356832E+03 -0.39449592001E+03  0.51695131097E+03  0.10100000352E+00 0. -1.
       -3    1    3    3    0  502  0.29805994343E+03  0.15090356832E+03  0.90219902197E+03  0.96206793017E+03  0.10100000352E+00 0.  1.
</event>
<event>
 5   0  0.9639548E-04  0.1394247E+04  0.7818609E-02  0.8957994E-01
        1   -1    0    0  501    0  0.00000000000E+00  0.00000000000E+00  0.42391941506E+03  0.42391941509E+03  0.50400001928E-02 0.  1.
       -1   -1    0    0    0  501  0.00000000000E+00  0.00000000000E+00 -0.11463994239E+04  0.11463994240E+04  0.50400001928E-02 0. -1.
    10030    2    1    2    0    0  0.00000000000E+00  0.00000000000E+00 -0.72248000889E+03  0.15703188391E+04  0.13942467117E+04 0.  0.
        1    1    3    3  502    0  0.32516750938E+03  0.42134925972E+03  0.14585320762E+03  0.55185348239E+03  0.50400001928E-02 0.  1.
       -1    1    3    3    0  502 -0.32516750938E+03 -0.42134925972E+03 -0.86833321650E+03  0.10184653567E+04  0.50400001928E-02 0. -1.
</event>
<event>
 5   0  0.9007180E-04  0.1385671E+04  0.7818609E-02  0.8964256E-01
       -1   -1    0    0    0  501  0.00000000000E+00  0.00000000000E+00  0.41906294602E+03  0.41906294605E+03  0.50400001928E-02 0. -1.
        1   -1    0    0  501    0  0.00000000000E+00  0.00000000000E+00 -0.11454628817E+04  0.11454628817E+04  0.50400001928E-02 0.  1.
    10030    2    1    2    0    0  0.00000000000E+00  0.00000000000E+00 -0.72639993566E+03  0.15645258277E+04  0.13856710285E+04 0.  0.
        2    1    3    3  502    0  0.43730431788E+03 -0.33461951240E+03  0.11156983971E+03  0.56183014662E+03  0.25500000920E-02 0. -1.
       -2    1    3    3    0  502 -0.43730431788E+03  0.33461951240E+03 -0.83796977537E+03  0.10026956811E+04  0.25500000920E-02 0.  1.
</event>
<event>
 5   0  0.1578965E-03  0.1400318E+04  0.7818609E-02  0.8953588E-01
       -2   -1    0    0    0  501  0.00000000000E+00  0.00000000000E+00  0.41774613812E+03  0.41774613813E+03  0.25500000920E-02 0. -1.
        2   -1    0    0  501    0  0.00000000000E+00  0.00000000000E+00 -0.11734943551E+04  0.11734943551E+04  0.25500000920E-02 0.  1.
    10030    2    1    2    0    0  0.00000000000E+00  0.00000000000E+00 -0.75574821698E+03  0.15912404932E+04  0.14003181566E+04 0.  0.
        2    1    3    3  502    0 -0.13352000920E+03 -0.83006138973E+02 -0.11531768765E+04  0.11638447149E+04  0.25500000920E-02 0.  1.
       -2    1    3    3    0  502  0.13352000920E+03  0.83006138973E+02  0.39742865948E+03  0.42739577834E+03  0.25500000920E-02 0. -1.
</event>
<event>
 5   0  0.9007180E-04  0.1393266E+04  0.7818609E-02  0.8958708E-01
       -1   -1    0    0    0  501  0.00000000000E+00  0.00000000000E+00  0.67005513437E+03  0.67005513439E+03  0.50400001928E-02 0.  1.
        1   -1    0    0  501    0  0.00000000000E+00  0.00000000000E+00 -0.72426492818E+03  0.72426492820E+03  0.50400001928E-02 0. -1.
    10030    2    1    2    0    0  0.00000000000E+00  0.00000000000E+00 -0.54209793818E+02  0.13943200626E+04  0.13932658523E+04 0.  0.
        2    1    3    3  502    0  0.57600942433E+03  0.29118607180E+03  0.23524083538E+03  0.68696028703E+03  0.25500000920E-02 0.  1.
       -2    1    3    3    0  502 -0.57600942433E+03 -0.29118607180E+03 -0.28945062920E+03  0.70735977556E+03  0.25500000920E-02 0. -1.
</event>
<event>
 5   0  0.8609148E-04  0.1393065E+04  0.7818609E-02  0.8958854E-01
       -1   -1    0    0    0  501  0.00000000000E+00  0.00000000000E+00  0.39538385694E+03  0.39538385697E+03  0.50400001928E-02 0. -1.
        1   -1    0    0  501    0  0.00000000000E+00  0.00000000000E+00 -0.12270539511E+04  0.12270539511E+04  0.50400001928E-02 0.  1.
    10030    2    1    2    0    0  0.00000000000E+00  0.00000000000E+00 -0.83167009412E+03  0.16224378080E+04  0.13930647133E+04 0.  0.
        5    1    3    3  502    0  0.66943636163E+03 -0.94539903789E+02 -0.61090113045E+03  0.91121079716E+03  0.46999998093E+01 0.  1.
       -5    1    3    3    0  502 -0.66943636163E+03  0.94539903789E+02 -0.22076896367E+03  0.71122701088E+03  0.46999998093E+01 0. -1.
</event>
<event>
 5   0  0.6048000E-04  0.1407042E+04  0.7818609E-02  0.8948737E-01
       -3   -1    0    0    0  501  0.00000000000E+00  0.00000000000E+00  0.38582307415E+03  0.38582308737E+03  0.10100000352E+00 0.  1.
        3   -1    0    0  501    0  0.00000000000E+00  0.00000000000E+00 -0.12828202474E+04  0.12828202513E+04  0.10100000352E+00 0. -1.
    10030    2    1    2    0    0  0.00000000000E+00  0.00000000000E+00 -0.89699717320E+03  0.16686433387E+04  0.14070418128E+04 0.  0.
        3    1    3    3  502    0 -0.49066985842E+03  0.35582906955E+03 -0.87207474413E+03  0.10620195885E+04  0.10100000352E+00 0. -1.
       -3    1    3    3    0  502  0.49066985842E+03 -0.35582906955E+03 -0.24922429066E+02  0.60662375025E+03  0.10100000352E+00 0.  1.
</event>
<event>
 5   0  0.1706986E-03  0.1395846E+04  0.7818609E-02  0.8956831E-01
        2   -1    0    0  501    0  0.00000000000E+00  0.00000000000E+00  0.19898705841E+04  0.19898705841E+04  0.25500000920E-02 0.  1.
       -2   -1    0    0    0  501  0.00000000000E+00  0.00000000000E+00 -0.24478812859E+03  0.24478812860E+03  0.25500000920E-02 0. -1.
    10030    2    1    2    0    0  0.00000000000E+00  0.00000000000E+00  0.17450824555E+04  0.22346587127E+04  0.13958462615E+04 0.  0.
        3    1    3    3  502    0 -0.43827473080E+03  0.24202384048E+03  0.94091102157E+02  0.50942460161E+03  0.10100000352E+00 0. -1.
       -3    1    3    3    0  502  0.43827473080E+03 -0.24202384048E+03  0.16509913534E+04  0.17252341111E+04  0.10100000352E+00 0.  1.
</event>
<event>
 5   0  0.1706986E-03  0.1525790E+04  0.7818609E-02  0.8867482E-01
        2   -1    0    0  501    0  0.00000000000E+00  0.00000000000E+00  0.18298563984E+04  0.18298563984E+04  0.25500000920E-02 0. -1.
       -2   -1    0    0    0  501  0.00000000000E+00  0.00000000000E+00 -0.31806264404E+03  0.31806264405E+03  0.25500000920E-02 0.  1.
    10030    2    1    2    0    0  0.00000000000E+00  0.00000000000E+00  0.15117937543E+04  0.21479190424E+04  0.15257902402E+04 0.  0.
        3    1    3    3  502    0  0.59030811562E+03 -0.24613320859E+03  0.17043234239E+03  0.66188550466E+03  0.10100000352E+00 0.  1.
       -3    1    3    3    0  502 -0.59030811562E+03  0.24613320859E+03  0.13413614119E+04  0.14860335378E+04  0.10100000352E+00 0. -1.
</event>
<event>
 5   0  0.1648213E-03  0.1393963E+04  0.7818609E-02  0.8958200E-01
        2   -1    0    0  501    0  0.00000000000E+00  0.00000000000E+00  0.58400767395E+03  0.58400767396E+03  0.25500000920E-02 0. -1.
       -2   -1    0    0    0  501  0.00000000000E+00  0.00000000000E+00 -0.83180984833E+03  0.83180984833E+03  0.25500000920E-02 0.  1.
    10030    2    1    2    0    0  0.00000000000E+00  0.00000000000E+00 -0.24780217437E+03  0.14158175223E+04  0.13939631770E+04 0.  0.
        4    1    3    3  502    0  0.45524469874E+03  0.24060875991E+03 -0.60099018689E+03  0.79141084698E+03  0.12699999809E+01 0.  1.
       -4    1    3    3    0  502 -0.45524469874E+03 -0.24060875991E+03  0.35318801252E+03  0.62440667531E+03  0.12699999809E+01 0. -1.
</event>
<event>
 5   0  0.1706986E-03  0.1454688E+04  0.7818609E-02  0.8915157E-01
        2   -1    0    0  501    0  0.00000000000E+00  0.00000000000E+00  0.15043475517E+04  0.15043475517E+04  0.25500000920E-02 0. -1.
       -2   -1    0    0    0  501  0.00000000000E+00  0.00000000000E+00 -0.35166700583E+03  0.35166700584E+03  0.25500000920E-02 0.  1.
    10030    2    1    2    0    0  0.00000000000E+00  0.00000000000E+00  0.11526805459E+04  0.18560145575E+04  0.14546881442E+04 0.  0.
        3    1    3    3  502    0  0.26108195879E+03 -0.36377759200E+03  0.13076476645E+04  0.13821868001E+04  0.10100000352E+00 0. -1.
       -3    1    3    3    0  502 -0.26108195879E+03  0.36377759200E+03 -0.15496711866E+03  0.47382775743E+03  0.10100000352E+00 0.  1.
</event>
<event>
 5   0  0.1648463E-03  0.1372111E+04  0.7818609E-02  0.8974257E-01
        2   -1    0    0  501    0  0.00000000000E+00  0.00000000000E+00  0.13842067193E+04  0.13842067193E+04  0.25500000920E-02 0.  1.
       -2   -1    0    0    0  501  0.00000000000E+00  0.00000000000E+00 -0.34003022783E+03  0.34003022784E+03  0.25500000920E-02 0. -1.
    10030    2    1    2    0    0  0.00000000000E+00  0.00000000000E+00  0.10441764915E+04  0.17242369471E+04  0.13721109666E+04 0.  0.
        1    1    3    3  502    0  0.52159467094E+03 -0.32388842776E+03  0.90676388376E+03  0.10950732648E+04  0.50400001928E-02 0.  1.
       -1    1    3    3    0  502 -0.52159467094E+03  0.32388842776E+03  0.13741260770E+03  0.62916368233E+03  0.50400001928E-02 0. -1.
</event>
<event>
 5   0  0.1605214E-03  0.1385989E+04  0.7818609E-02  0.8964024E-01
        2   -1    0    0  501    0  0.00000000000E+00  0.00000000000E+00  0.18602149483E+04  0.18602149483E+04  0.25500000920E-02 0.  1.
       -2   -1    0    0    0  501  0.00000000000E+00  0.00000000000E+00 -0.25816434310E+03  0.25816434312E+03  0.25500000920E-02 0. -1.
    10030    2    1    2    0    0  0.00000000000E+00  0.00000000000E+00  0.16020506052E+04  0.21183792914E+04  0.13859887015E+04 0.  0.
        5    1    3    3  502    0 -0.24724823893E+02  0.44143102136E+03 -0.14567089577E+02  0.44238778649E+03  0.46999998093E+01 0. -1.
       -5    1    3    3    0  502  0.24724823893E+02 -0.44143102136E+03  0.16166176948E+04  0.16759915049E+04  0.46999998093E+01 0.  1.
</event>
<event>
 5   0  0.1605214E-03  0.1399085E+04  0.7818609E-02  0.8954481E-01
       -2   -1    0    0    0  501  0.00000000000E+00  0.00000000000E+00  0.29010457559E+03  0.29010457560E+03  0.25500000920E-02 0.  1.
        2   -1    0    0  501    0  0.00000000000E+00  0.00000000000E+00 -0.16868391435E+04  0.16868391435E+04  0.25500000920E-02 0. -1.
    10030    2    1    2    0    0  0.00000000000E+00  0.00000000000E+00 -0.13967345679E+04  0.19769437191E+04  0.13990850636E+04 0.  0.
        5    1    3    3  502    0 -0.65611196152E+03  0.17059384893E+03 -0.45463565456E+03  0.81627252541E+03  0.46999998093E+01 0.  1.
       -5    1    3    3    0  502  0.65611196152E+03 -0.17059384893E+03 -0.94209891332E+03  0.11606711937E+04  0.46999998093E+01 0. -1.
</event>
<event>
 5   0  0.8673728E-04  0.1419805E+04  0.7818609E-02  0.8939606E-01
       -1   -1    0    0    0  501  0.00000000000E+00  0.00000000000E+00  0.22658090281E+03  0.22658090287E+03  0.50400001928E-02 0.  1.
        1   -1    0    0  501    0  0.00000000000E+00  0.00000000000E+00 -0.22242000767E+04  0.22242000767E+04  0.50400001928E-02 0. -1.
    10030    2    1    2    0    0  0.00000000000E+00  0.00000000000E+00 -0.19976191739E+04  0.24507809796E+04  0.14198045802E+04 0.  0.
        3    1    3    3  502    0  0.37482925088E+03  0.14144494212E+03  0.12798986820E+02  0.40083346072E+03  0.10100000352E+00 0.  1.
       -3    1    3    3    0  502 -0.37482925088E+03 -0.14144494212E+03 -0.20104181607E+04  0.20499475189E+04  0.10100000352E+00 0. -1.
</event>
<event>
 5   0  0.9639548E-04  0.1333885E+04  0.7818609E-02  0.9003117E-01
        1   -1    0    0  501    0  0.00000000000E+00  0.00000000000E+00  0.12894265168E+04  0.12894265168E+04  0.50400001928E-02 0.  1.
       -1   -1    0    0    0  501  0.00000000000E+00  0.00000000000E+00 -0.34496911641E+03  0.34496911645E+03  0.50400001928E-02 0. -1.
    10030    2    1    2    0    0  0.00000000000E+00  0.00000000000E+00  0.94445740038E+03  0.16343956332E+04  0.13338850418E+04 0.  0.
        1    1    3    3  502    0 -0.29209350017E+03 -0.35180543089E+03 -0.12267015751E+03  0.47342754632E+03  0.50400001928E-02 0. -1.
       -1    1    3    3    0  502  0.29209350017E+03  0.35180543089E+03  0.10671275579E+04  0.11609680869E+04  0.50400001928E-02 0.  1.
</event>
<event>
 5   0  0.8673728E-04  0.1390404E+04  0.7818609E-02  0.8960794E-01
       -1   -1    0    0    0  501  0.00000000000E+00  0.00000000000E+00  0.19779254188E+03  0.19779254194E+03  0.50400001928E-02 0. -1.
        1   -1    0    0  501    0  0.00000000000E+00  0.00000000000E+00 -0.24434977944E+04  0.24434977944E+04  0.50400001928E-02 0.  1.
    10030    2    1    2    0    0  0.00000000000E+00  0.00000000000E+00 -0.22457052525E+04  0.26412903363E+04  0.13904037398E+04 0.  0.
        3    1    3    3  502    0  0.63976036832E+02 -0.29198077306E+03 -0.23151957130E+04  0.23344114686E+04  0.10100000352E+00 0.  1.
       -3    1    3    3    0  502 -0.63976036832E+02  0.29198077306E+03  0.69490460521E+02  0.30687886768E+03  0.10100000352E+00 0. -1.
</event>
<event>
 5   0  0.9639548E-04  0.1420649E+04  0.7818609E-02  0.8939006E-01
        1   -1    0    0  501    0  0.00000000000E+00  0.00000000000E+00  0.58180188611E+03  0.58180188613E+03  0.50400001928E-02 0.  1.
       -1   -1    0    0    0  501  0.00000000000E+00  0.00000000000E+00 -0.86723851370E+03  0.86723851371E+03  0.50400001928E-02 0. -1.
    10030    2    1    2    0    0  0.00000000000E+00  0.00000000000E+00 -0.28543662759E+03  0.14490403998E+04  0.14206491516E+04 0.  0.
        1    1    3    3  502    0 -0.81495309621E+02  0.66533720744E+03  0.97023482160E+02  0.67729509168E+03  0.50400001928E-02 0. -1.
       -1    1    3    3    0  502  0.81495309621E+02 -0.66533720744E+03 -0.38246010975E+03  0.77174530816E+03  0.50400001928E-02 0.  1.
</event>
<event>
 5   0  0.8502300E-04  0.1532488E+04  0.7818609E-02  0.8863132E-01
       -1   -1    0    0    0  501  0.00000000000E+00  0.00000000000E+00  0.60242403744E+03  0.60242403746E+03  0.50400001928E-02 0.  1.
        1   -1    0    0  501    0  0.00000000000E+00  0.00000000000E+00 -0.97461237223E+03  0.97461237224E+03  0.50400001928E-02 0. -1.
    10030    2    1    2    0    0  0.00000000000E+00  0.00000000000E+00 -0.37218833479E+03  0.15770364097E+04  0.15324880688E+04 0.  0.
        4    1    3    3  502    0  0.25829734926E+02 -0.22453763477E+03 -0.93952750160E+03  0.96633217053E+03  0.12699999809E+01 0. -1.
       -4    1    3    3    0  502 -0.25829734926E+02  0.22453763477E+03  0.56733916681E+03  0.61070423916E+03  0.12699999809E+01 0.  1.
</event>
<event>
 5   0  0.1648213E-03  0.1408520E+04  0.7818609E-02  0.8947674E-01
       -2   -1    0    0    0  501  0.00000000000E+00  0.00000000000E+00  0.55113990179E+03  0.55113990180E+03  0.25500000920E-02 0. -1.
        2   -1    0    0  501    0  0.00000000000E+00  0.00000000000E+00 -0.89992032054E+03  0.89992032054E+03  0.25500000920E-02 0.  1.
    10030    2    1    2    0    0  0.00000000000E+00  0.00000000000E+00 -0.34878041875E+03  0.14510602223E+04  0.14085197863E+04 0.  0.
        4    1    3    3  502    0 -0.53172170099E+03  0.24066345228E+03 -0.58041736086E+03  0.82312380007E+03  0.12699999809E+01 0.  1.
       -4    1    3    3    0  502  0.53172170099E+03 -0.24066345228E+03  0.23163694211E+03  0.62793642227E+03  0.12699999809E+01 0. -1.
</event>
<event>
 5   0  0.1605214E-03  0.1387700E+04  0.7818609E-02  0.8962770E-01
        2   -1    0    0  501    0  0.00000000000E+00  0.00000000000E+00  0.97758542088E+03  0.97758542088E+03  0.25500000920E-02 0.  1.
       -2   -1    0    0    0  501  0.00000000000E+00  0.00000000000E+00 -0.49246617567E+03  0.49246617568E+03  0.25500000920E-02 0. -1.
    10030    2    1    2    0    0  0.00000000000E+00  0.00000000000E+00  0.48511924521E+03  0.14700515966E+04  0.13876999007E+04 0.  0.
        5    1    3    3  502    0 -0.97855621540E+01  0.47050067213E+03  0.78265786349E+03  0.91325903279E+03  0.46999998093E+01 0.  1.
       -5    1    3    3    0  502  0.97855621540E+01 -0.47050067213E+03 -0.29753861827E+03  0.55679256377E+03  0.46999998093E+01 0. -1.
</event>
<event>
 5   0  0.9639548E-04  0.1398959E+04  0.7818609E-02  0.8954572E-01
        1   -1    0    0  501    0  0.00000000000E+00  0.00000000000E+00  0.15314525092E+04  0.15314525092E+04  0.50400001928E-02 0.  1.
       -1   -1    0    0    0  501  0.00000000000E+00  0.00000000000E+00 -0.31948216275E+03  0.31948216279E+03  0.50400001928E-02 0. -1.
    10030    2    1    2    0    0  0.00000000000E+00  0.00000000000E+00  0.12119703465E+04  0.18509346720E+04  0.13989592701E+04 0.  0.
        1    1    3    3  502    0 -0.66330263253E+03 -0.13497390198E+03  0.37271971076E+03  0.77272784301E+03  0.50400001928E-02 0. -1.
       -1    1    3    3    0  502  0.66330263253E+03  0.13497390198E+03  0.83925063571E+03  0.10782068290E+04  0.50400001928E-02 0.  1.
</event>
<event>
 5   0  0.1706986E-03  0.1392134E+04  0.7818609E-02  0.8959532E-01
        2   -1    0    0  501    0  0.00000000000E+00  0.00000000000E+00  0.12986780677E+04  0.12986780677E+04  0.25500000920E-02 0.  1.
       -2   -1    0    0    0  501  0.00000000000E+00  0.00000000000E+00 -0.37307887927E+03  0.37307887928E+03  0.25500000920E-02 0. -1.
    10030    2    1    2    0    0  0.00000000000E+00  0.00000000000E+00  0.92559918845E+03  0.16717569470E+04  0.13921341287E+04 0.  0.
        3    1    3    3  502    0 -0.55063601967E+03  0.23369539626E+03  0.35361586606E+02  0.59921950602E+03  0.10100000352E+00 0.  1.
       -3    1    3    3    0  502  0.55063601967E+03 -0.23369539626E+03  0.89023760185E+03  0.10725374410E+04  0.10100000352E+00 0. -1.
</event>
<event>
 5   0  0.1648463E-03  0.1358833E+04  0.7818609E-02  0.8984168E-01
        2   -1    0    0  501    0  0.00000000000E+00  0.00000000000E+00  0.60191196773E+03  0.60191196774E+03  0.25500000920E-02 0. -1.
       -2   -1    0    0    0  501  0.00000000000E+00  0.00000000000E+00 -0.76690097199E+03  0.76690097199E+03  0.25500000920E-02 0.  1.
    10030    2    1    2    0    0  0.00000000000E+00  0.00000000000E+00 -0.16498900426E+03  0.13688129397E+04  0.13588331364E+04 0.  0.
        1    1    3    3  502    0 -0.38209074827E+03 -0.17792806008E+03 -0.61928255242E+03  0.74910787891E+03  0.50400001928E-02 0.  1.
       -1    1    3    3    0  502  0.38209074827E+03  0.17792806008E+03  0.45429354817E+03  0.61970506082E+03  0.50400001928E-02 0. -1.
</event>
<event>
 5   0  0.1578965E-03  0.1402187E+04  0.7818609E-02  0.8952237E-01
       -2   -1    0    0    0  501  0.00000000000E+00  0.00000000000E+00  0.25791041394E+03  0.25791041395E+03  0.25500000920E-02 0.  1.
        2   -1    0    0  501    0  0.00000000000E+00  0.00000000000E+00 -0.19058261827E+04  0.19058261827E+04  0.25500000920E-02 0. -1.
    10030    2    1    2    0    0  0.00000000000E+00  0.00000000000E+00 -0.16479157687E+04  0.21637365966E+04  0.14021874621E+04 0.  0.
        2    1    3    3  502    0 -0.14526124582E+03  0.53874076263E+03 -0.14789915642E+04  0.15807461801E+04  0.25500000920E-02 0. -1.
       -2    1    3    3    0  502  0.14526124582E+03 -0.53874076263E+03 -0.16892420446E+03  0.58299041649E+03  0.25500000920E-02 0.  1.
</event>
<event>
 5   0  0.9007180E-04  0.1382795E+04  0.7818609E-02  0.8966367E-01
        1   -1    0    0  501    0  0.00000000000E+00  0.00000000000E+00  0.52516922294E+03  0.52516922297E+03  0.50400001928E-02 0. -1.
       -1   -1    0    0    0  501  0.00000000000E+00  0.00000000000E+00 -0.91024149720E+03  0.91024149721E+03  0.50400001928E-02 0.  1.
    10030    2    1    2    0    0  0.00000000000E+00  0.00000000000E+00 -0.38507227425E+03  0.14354107202E+04  0.13827954582E+04 0.  0.
        2    1    3    3  502    0  0.13041547019E+03 -0.15541715683E+03 -0.87864562324E+03  0.90176539008E+03  0.25500000920E-02 0.  1.
       -2    1    3    3    0  502 -0.13041547019E+03  0.15541715683E+03  0.49357334898E+03  0.53364533010E+03  0.25500000920E-02 0. -1.
</event>
<event>
 5   0  0.8502300E-04  0.1444466E+04  0.7818609E-02  0.8922246E-01
       -1   -1    0    0    0  501  0.00000000000E+00  0.00000000000E+00  0.36274506840E+03  0.36274506844E+03  0.50400001928E-02 0. -1.
        1   -1    0    0  501    0  0.00000000000E+00  0.00000000000E+00 -0.14379811342E+04  0.14379811342E+04  0.50400001928E-02 0.  1.
    10030    2    1    2    0    0  0.00000000000E+00  0.00000000000E+00 -0.10752360658E+04  0.18007262026E+04  0.14444660812E+04 0.  0.
        4    1    3    3  502    0  0.23447231651E+03 -0.66469027678E+03 -0.73405162508E+03  0.10176560482E+04  0.12699999809E+01 0.  1.
       -4    1    3    3    0  502 -0.23447231651E+03  0.66469027678E+03 -0.34118444069E+03  0.78307015441E+03  0.12699999809E+01 0. -1.
</event>
<event>
 5   0  0.1605214E-03  0.1382417E+04  0.7818609E-02  0.8966645E-01
       -2   -1    0    0    0  501  0.00000000000E+00  0.00000000000E+00  0.30299632390E+03  0.30299632391E+03  0.25500000920E-02 0. -1.
        2   -1    0    0  501    0  0.00000000000E+00  0.00000000000E+00 -0.15768146053E+04  0.15768146053E+04  0.25500000920E-02 0.  1.
    10030    2    1    2    0    0  0.00000000000E+00  0.00000000000E+00 -0.12738182814E+04  0.18798109292E+04  0.13824167662E+04 0.  0.
        5    1    3    3  502    0  0.57272752501E+03  0.59460041472E+02 -0.11698392593E+03  0.58758798776E+03  0.46999998093E+01 0. -1.
       -5    1    3    3    0  502 -0.57272752501E+03 -0.59460041472E+02 -0.11568343554E+04  0.12922229414E+04  0.46999998093E+01 0.  1.
</event>
<event>
 5   0  0.9007180E-04  0.1397057E+04  0.7818609E-02  0.8955951E-01
       -1   -1    0    0    0  501  0.00000000000E+00  0.00000000000E+00  0.84729602785E+03  0.84729602787E+03  0.50400001928E-02 0. -1.
        1   -1    0    0  501    0  0.00000000000E+00  0.00000000000E+00 -0.57588164875E+03  0.57588164877E+03  0.50400001928E-02 0.  1.
    10030    2    1    2    0    0  0.00000000000E+00  0.00000000000E+00  0.27141437910E+03  0.14231776766E+04  0.13970572408E+04 0.  0.
        2    1    3    3  502    0 -0.82482668199E+02  0.36599293675E+03 -0.46453605875E+03  0.59711637910E+03  0.25500000920E-02 0.  1.
       -2    1    3    3    0  502  0.82482668199E+02 -0.36599293675E+03  0.73595043786E+03  0.82606129754E+03  0.25500000920E-02 0. -1.
</event>
<event>
 5   0  0.8609148E-04  0.1364383E+04  0.7818609E-02  0.8980011E-01
        1   -1    0    0  501    0  0.00000000000E+00  0.00000000000E+00  0.54029843823E+03  0.54029843826E+03  0.50400001928E-02 0.  1.
       -1   -1    0    0    0  501  0.00000000000E+00  0.00000000000E+00 -0.86134891200E+03  0.86134891202E+03  0.50400001928E-02 0. -1.
    10030    2    1    2    0    0  0.00000000000E+00  0.00000000000E+00 -0.32105047377E+03  0.14016473503E+04  0.13643833361E+04 0.  0.
        5    1    3    3  502    0  0.25933485032E+03  0.54040658322E+03 -0.49510348360E+03  0.77745957403E+03  0.46999998093E+01 0.  1.
       -5    1    3    3    0  502 -0.25933485032E+03 -0.54040658322E+03  0.17405300983E+03  0.62418777624E+03  0.46999998093E+01 0. -1.
</event>
<event>
 5   0  0.8502300E-04  0.1412983E+04  0.7818609E-02  0.8944474E-01
        1   -1    0    0  501    0  0.00000000000E+00  0.00000000000E+00  0.68863738852E+03  0.68863738853E+03  0.50400001928E-02 0.  1.
       -1   -1    0    0    0  501  0.00000000000E+00  0.00000000000E+00 -0.72480876431E+03  0.72480876433E+03  0.50400001928E-02 0. -1.
    10030    2    1    2    0    0  0.00000000000E+00  0.00000000000E+00 -0.36171375794E+02  0.14134461529E+04  0.14129832478E+04 0.  0.
        4    1    3    3  502    0 -0.34615427114E+03  0.14007780870E+03 -0.61801896712E+03  0.72207591605E+03  0.12699999809E+01 0. -1.
       -4    1    3    3    0  502  0.34615427114E+03 -0.14007780870E+03  0.58184759133E+03  0.69137023681E+03  0.12699999809E+01 0.  1.
</event>
<event>
 5   0  0.8673728E-04  0.1392045E+04  0.7818609E-02  0.8959597E-01
       -1   -1    0    0    0  501  0.00000000000E+00  0.00000000000E+00  0.47800283918E+03  0.47800283920E+03  0.50400001928E-02 0. -1.
        1   -1    0    0  501    0  0.00000000000E+00  0.00000000000E+00 -0.10134822347E+04  0.10134822347E+04  0.50400001928E-02 0.  1.
    10030    2    1    2    0    0  0.00000000000E+00  0.00000000000E+00 -0.53547939552E+03  0.14914850739E+04  0.13920450936E+04 0.  0.
        3    1    3    3  502    0 -0.37465033135E+02 -0.68726324204E+03 -0.15684243836E+03  0.70592772522E+03  0.10100000352E+00 0. -1.
       -3    1    3    3    0  502  0.37465033135E+02  0.68726324204E+03 -0.37863695717E+03  0.78555734870E+03  0.10100000352E+00 0.  1.
</event>
<event>
 5   0  0.8609148E-04  0.1444540E+04  0.7818609E-02  0.8922195E-01
       -1   -1    0    0    0  501  0.00000000000E+00  0.00000000000E+00  0.86380725298E+03  0.86380725299E+03  0.50400001928E-02 0.  1.
        1   -1    0    0  501    0  0.00000000000E+00  0.00000000000E+00 -0.60392375263E+03  0.60392375265E+03  0.50400001928E-02 0. -1.
    10030    2    1    2    0    0  0.00000000000E+00  0.00000000000E+00  0.25988350035E+03  0.14677310056E+04  0.14445396745E+04 0.  0.
        5    1    3    3  502    0 -0.13684511568E+02  0.35793622678E+03 -0.50730022381E+03  0.62103237868E+03  0.46999998093E+01 0. -1.
       -5    1    3    3    0  502  0.13684511568E+02 -0.35793622678E+03  0.76718372415E+03  0.84669862697E+03  0.46999998093E+01 0.  1.
</event>
<event>
 5   0  0.9639548E-04  0.1395035E+04  0.7818609E-02  0.8957420E-01
        1   -1    0    0  501    0  0.00000000000E+00  0.00000000000E+00  0.13125894181E+04  0.13125894181E+04  0.50400001928E-02 0. -1.
       -1   -1    0    0    0  501  0.00000000000E+00  0.00000000000E+00 -0.37066475864E+03  0.37066475868E+03  0.50400001928E-02 0.  1.
    10030    2    1    2    0    0  0.00000000000E+00  0.00000000000E+00  0.94192465942E+03  0.16832541768E+04  0.13950349671E+04 0.  0.
        1    1    3    3  502    0 -0.59334124547E+03 -0.10906060654E+03  0.89341591916E+03  0.10780259988E+04  0.50400001928E-02 0. -1.
       -1    1    3    3    0  502  0.59334124547E+03  0.10906060654E+03  0.48508740261E+02  0.60522817794E+03  0.50400001928E-02 0.  1.
</event>
<event>
 5   0  0.6048000E-04  0.1385138E+04  0.7818609E-02  0.8964647E-01
       -3   -1    0    0    0  501  0.00000000000E+00  0.00000000000E+00  0.73820033882E+03  0.73820034573E+03  0.10100000352E+00 0.  1.
        3   -1    0    0  501    0  0.00000000000E+00  0.00000000000E+00 -0.64975849776E+03  0.64975850561E+03  0.10100000352E+00 0. -1.
    10030    2    1    2    0    0  0.00000000000E+00  0.00000000000E+00  0.88441841062E+02  0.13879588513E+04  0.13851381930E+04 0.  0.
        3    1    3    3  502    0 -0.20419059082E+03 -0.64707041744E+03 -0.94834944577E+02  0.68511867543E+03  0.10100000352E+00 0. -1.
       -3    1    3    3    0  502  0.20419059082E+03  0.64707041744E+03  0.18327678564E+03  0.70284017590E+03  0.10100000352E+00 0.  1.
</event>
<event>
 5   0  0.1648463E-03  0.1408559E+04  0.7818609E-02  0.8947646E-01
       -2   -1    0    0    0  501  0.00000000000E+00  0.00000000000E+00  0.26659033043E+03  0.26659033044E+03  0.25500000920E-02 0.  1.
        2   -1    0    0  501    0  0.00000000000E+00  0.00000000000E+00 -0.18605689631E+04  0.18605689631E+04  0.25500000920E-02 0. -1.
    10030    2    1    2    0    0  0.00000000000E+00  0.00000000000E+00 -0.15939786327E+04  0.21271592935E+04  0.14085591144E+04 0.  0.
        1    1    3    3  502    0  0.51772611314E+03 -0.46927867787E+03 -0.66406984671E+03  0.96397695359E+03  0.50400001928E-02 0.  1.
       -1    1    3    3    0  502 -0.51772611314E+03  0.46927867787E+03 -0.92990878595E+03  0.11631823399E+04  0.50400001928E-02 0. -1.
</event>
<event>
 5   0  0.9639548E-04  0.1512228E+04  0.7818609E-02  0.8876362E-01
        1   -1    0    0  501    0  0.00000000000E+00  0.00000000000E+00  0.17983345103E+04  0.17983345103E+04  0.50400001928E-02 0.  1.
       -1   -1    0    0    0  501  0.00000000000E+00  0.00000000000E+00 -0.31791012721E+03  0.31791012725E+03  0.50400001928E-02 0. -1.
    10030    2    1    2    0    0  0.00000000000E+00  0.00000000000E+00  0.14804243831E+04  0.21162446375E+04  0.15122284920E+04 0.  0.
        1    1    3    3  502    0  0.60071592535E+03  0.42273050310E+03  0.48929767754E+03  0.88259442469E+03  0.50400001928E-02 0. -1.
       -1    1    3    3    0  502 -0.60071592535E+03 -0.42273050310E+03  0.99112670551E+03  0.12336502128E+04  0.50400001928E-02 0.  1.
</event>
<event>
 5   0  0.1648213E-03  0.1391311E+04  0.7818609E-02  0.8960132E-01
       -2   -1    0    0    0  501  0.00000000000E+00  0.00000000000E+00  0.28067828926E+03  0.28067828927E+03  0.25500000920E-02 0. -1.
        2   -1    0    0  501    0  0.00000000000E+00  0.00000000000E+00 -0.17241684372E+04  0.17241684372E+04  0.25500000920E-02 0.  1.
    10030    2    1    2    0    0  0.00000000000E+00  0.00000000000E+00 -0.14434901479E+04  0.20048467264E+04  0.13913111045E+04 0.  0.
        4    1    3    3  502    0 -0.68772172635E+00  0.35029062584E+03 -0.15878080130E+04  0.16259888974E+04  0.12699999809E+01 0.  1.
       -4    1    3    3    0  502  0.68772172635E+00 -0.35029062584E+03  0.14431786510E+03  0.37885782901E+03  0.12699999809E+01 0. -1.
</event>
<event>
 5   0  0.1605214E-03  0.1403463E+04  0.7818609E-02  0.8951316E-01
        2   -1    0    0  501    0  0.00000000000E+00  0.00000000000E+00  0.12944800864E+04  0.12944800864E+04  0.25500000920E-02 0.  1.
       -2   -1    0    0    0  501  0.00000000000E+00  0.00000000000E+00 -0.38040520899E+03  0.38040520900E+03  0.25500000920E-02 0. -1.
    10030    2    1    2    0    0  0.00000000000E+00  0.00000000000E+00  0.91407487741E+03  0.16748852954E+04  0.14034628143E+04 0.  0.
        5    1    3    3  502    0  0.68091948745E+03 -0.16690363664E+03  0.42130118050E+03  0.81793945191E+03  0.46999998093E+01 0. -1.
       -5    1    3    3    0  502 -0.68091948745E+03  0.16690363664E+03  0.49277369691E+03  0.85694584349E+03  0.46999998093E+01 0.  1.
</event>
<event>
 5   0  0.9007180E-04  0.1390997E+04  0.7818609E-02  0.8960361E-01
        1   -1    0    0  501    0  0.00000000000E+00  0.00000000000E+00  0.42099346229E+03  0.42099346232E+03  0.50400001928E-02 0. -1.
       -1   -1    0    0    0  501  0.00000000000E+00  0.00000000000E+00 -0.11489926003E+04  0.11489926003E+04  0.50400001928E-02 0.  1.
    10030    2    1    2    0    0  0.00000000000E+00  0.00000000000E+00 -0.72799913797E+03  0.15699860626E+04  0.13909973012E+04 0.  0.
        2    1    3    3  502    0  0.69521815310E+03 -0.11610518570E+02 -0.34596585968E+03  0.77663083934E+03  0.25500000920E-02 0. -1.
       -2    1    3    3    0  502 -0.69521815310E+03  0.11610518570E+02 -0.38203327829E+03  0.79335522326E+03  0.25500000920E-02 0.  1.
</event>
<event>
 5   0  0.9639548E-04  0.1411186E+04  0.7818609E-02  0.8945761E-01
        1   -1    0    0  501    0  0.00000000000E+00  0.00000000000E+00  0.16935916754E+04  0.16935916754E+04  0.50400001928E-02 0. -1.
       -1   -1    0    0    0  501  0.00000000000E+00  0.00000000000E+00 -0.29396783703E+03  0.29396783708E+03  0.50400001928E-02 0.  1.
    10030    2    1    2    0    0  0.00000000000E+00  0.00000000000E+00  0.13996238384E+04  0.19875595125E+04  0.14111860000E+04 0.  0.
        1    1    3    3  502    0 -0.43811853263E+02 -0.14176231886E+03 -0.27174632582E+03  0.30961605119E+03  0.50400001928E-02 0.  1.
       -1    1    3    3    0  502  0.43811853263E+02  0.14176231886E+03  0.16713701642E+04  0.16779434613E+04  0.50400001928E-02 0. -1.
</event>
<event>
 5   0  0.1578965E-03  0.1411583E+04  0.7818609E-02  0.8945477E-01
       -2   -1    0    0    0  501  0.00000000000E+00  0.00000000000E+00  0.65241922982E+03  0.65241922983E+03  0.25500000920E-02 0. -1.
        2   -1    0    0  501    0  0.00000000000E+00  0.00000000000E+00 -0.76352950580E+03  0.76352950580E+03  0.25500000920E-02 0.  1.
    10030    2    1    2    0    0  0.00000000000E+00  0.00000000000E+00 -0.11111027598E+03  0.14159487356E+04  0.14115825617E+04 0.  0.
        2    1    3    3  502    0  0.38500225260E+03  0.14622849390E+03 -0.63050499285E+03  0.75309099912E+03  0.25500000920E-02 0.  1.
       -2    1    3    3    0  502 -0.38500225260E+03 -0.14622849390E+03  0.51939471687E+03  0.66285773651E+03  0.25500000920E-02 0. -1.
</event>
<event>
 5   0  0.8673728E-04  0.1399143E+04  0.7818609E-02  0.8954439E-01
        1   -1    0    0  501    0  0.00000000000E+00  0.00000000000E+00  0.13769354165E+04  0.13769354165E+04  0.50400001928E-02 0.  1.
       -1   -1    0    0    0  501  0.00000000000E+00  0.00000000000E+00 -0.35542737197E+03  0.35542737200E+03  0.50400001928E-02 0. -1.
    10030    2    1    2    0    0  0.00000000000E+00  0.00000000000E+00  0.10215080445E+04  0.17323627885E+04  0.13991433615E+04 0.  0.
        3    1    3    3  502    0 -0.50542045176E+03  0.47761840204E+03  0.60530398896E+03  0.92193389149E+03  0.10100000352E+00 0. -1.
       -3    1    3    3    0  502  0.50542045176E+03 -0.47761840204E+03  0.41620405555E+03  0.81042889700E+03  0.10100000352E+00 0.  1.
</event>
<event>
 5   0  0.8673728E-04  0.1397257E+04  0.7818609E-02  0.8955806E-01
       -1   -1    0    0    0  501  0.00000000000E+00  0.00000000000E+00  0.27505994089E+03  0.27505994094E+03  0.50400001928E-02 0.  1.
        1   -1    0    0  501    0  0.00000000000E+00  0.00000000000E+00 -0.17744565060E+04  0.17744565060E+04  0.50400001928E-02 0. -1.
    10030    2    1    2    0    0  0.00000000000E+00  0.00000000000E+00 -0.14993965651E+04  0.20495164469E+04  0.13972571727E+04 0.  0.
        3    1    3    3  502    0 -0.12988529327E+03 -0.51565988585E+03 -0.14143230155E+04  0.15109880574E+04  0.10100000352E+00 0. -1.
       -3    1    3    3    0  502  0.12988529327E+03  0.51565988585E+03 -0.85073549603E+02  0.53852838952E+03  0.10100000352E+00 0.  1.
</event>
<event>
 5   0  0.1578965E-03  0.1399397E+04  0.7818609E-02  0.8954255E-01
       -2   -1    0    0    0  501  0.00000000000E+00  0.00000000000E+00  0.21931436128E+03  0.21931436130E+03  0.25500000920E-02 0. -1.
        2   -1    0    0  501    0  0.00000000000E+00  0.00000000000E+00 -0.22323104430E+04  0.22323104430E+04  0.25500000920E-02 0.  1.
    10030    2    1    2    0    0  0.00000000000E+00  0.00000000000E+00 -0.20129960817E+04  0.24516248043E+04  0.13993966400E+04 0.  0.
        2    1    3    3  502    0 -0.89055860633E+02 -0.45341573467E+03 -0.19269808459E+04  0.19816084264E+04  0.25500000920E-02 0. -1.
       -2    1    3    3    0  502  0.89055860633E+02  0.45341573467E+03 -0.86015235800E+02  0.47001637797E+03  0.25500000920E-02 0.  1.
</event>
<event>
 5   0  0.8609148E-04  0.1421420E+04  0.7818609E-02  0.8938458E-01
       -1   -1    0    0    0  501  0.00000000000E+00  0.00000000000E+00  0.85696769938E+03  0.85696769939E+03  0.50400001928E-02 0. -1.
        1   -1    0    0  501    0  0.00000000000E+00  0.00000000000E+00 -0.58941400866E+03  0.58941400868E+03  0.50400001928E-02 0.  1.
    10030    2    1    2    0    0  0.00000000000E+00  0.00000000000E+00  0.26755369071E+03  0.14463817081E+04  0.14214200885E+04 0.  0.
        5    1    3    3  502    0  0.31666131908E+03  0.15614004539E+03 -0.49384683137E+03  0.60709215744E+03  0.46999998093E+01 0.  1.
       -5    1    3    3    0  502 -0.31666131908E+03 -0.15614004539E+03  0.76140052209E+03  0.83928955063E+03  0.46999998093E+01 0. -1.
</event>
<event>
 5   0  0.1706986E-03  0.1426606E+04  0.7818609E-02  0.8934782E-01
        2   -1    0    0  501    0  0.00000000000E+00  0.00000000000E+00  0.19671074915E+04  0.19671074915E+04  0.25500000920E-02 0. -1.
       -2   -1    0    0    0  501  0.00000000000E+00  0.00000000000E+00 -0.25865457026E+03  0.25865457027E+03  0.25500000920E-02 0.  1.
    10030    2    1    2    0    0  0.00000000000E+00  0.00000000000E+00  0.17084529213E+04  0.22257620618E+04  0.14266062427E+04 0.  0.
        3    1    3    3  502    0  0.48693618473E+03  0.34560441854E+03  0.24545228779E+03  0.64559747358E+03  0.10100000352E+00 0.  1.
       -3    1    3    3    0  502 -0.48693618473E+03 -0.34560441854E+03  0.14630006335E+04  0.15801645882E+04  0.10100000352E+00 0. -1.
</event>
<event>
 5   0  0.1706986E-03  0.1402867E+04  0.7818609E-02  0.8951746E-01
       -2   -1    0    0    0  501  0.00000000000E+00  0.00000000000E+00  0.34108187539E+03  0.34108187540E+03  0.25500000920E-02 0. -1.
        2   -1    0    0  501    0  0.00000000000E+00  0.00000000000E+00 -0.14424955717E+04  0.14424955717E+04  0.25500000920E-02 0.  1.
    10030    2    1    2    0    0  0.00000000000E+00  0.00000000000E+00 -0.11014136963E+04  0.17835774471E+04  0.14028671995E+04 0.  0.
        3    1    3    3  502    0  0.48947916720E+03 -0.88083697986E+02  0.78158019769E+02  0.50344540839E+03  0.10100000352E+00 0.  1.
       -3    1    3    3    0  502 -0.48947916720E+03  0.88083697986E+02 -0.11795717161E+04  0.12801320387E+04  0.10100000352E+00 0. -1.
</event>
<event>
 5   0  0.1578965E-03  0.1387364E+04  0.7818609E-02  0.8963016E-01
        2   -1    0    0  501    0  0.00000000000E+00  0.00000000000E+00  0.20385663207E+04  0.20385663207E+04  0.25500000920E-02 0. -1.
       -2   -1    0    0    0  501  0.00000000000E+00  0.00000000000E+00 -0.23604576915E+03  0.23604576916E+03  0.25500000920E-02 0.  1.
    10030    2    1    2    0    0  0.00000000000E+00  0.00000000000E+00  0.18025205515E+04  0.22746120899E+04  0.13873643431E+04 0.  0.
        2    1    3    3  502    0  0.28661400830E+03 -0.40463487690E+02  0.19348215991E+04  0.19563536245E+04  0.25500000920E-02 0. -1.
       -2    1    3    3    0  502 -0.28661400830E+03  0.40463487690E+02 -0.13230104758E+03  0.31825846538E+03  0.25500000920E-02 0.  1.
</event>
<event>
 5   0  0.8502300E-04  0.1410601E+04  0.7818609E-02  0.8946181E-01
       -1   -1    0    0    0  501  0.00000000000E+00  0.00000000000E+00  0.77659608653E+03  0.77659608654E+03  0.50400001928E-02 0.  1.
        1   -1    0    0  501    0  0.00000000000E+00  0.00000000000E+00 -0.64054983741E+03  0.64054983743E+03  0.50400001928E-02 0. -1.
    10030    2    1    2    0    0  0.00000000000E+00  0.00000000000E+00  0.13604624911E+03  0.14171459240E+04  0.14106005770E+04 0.  0.
        4    1    3    3  502    0 -0.34317878755E+03  0.15260030204E+02 -0.55082404242E+03  0.64916352898E+03  0.12699999809E+01 0. -1.
       -4    1    3    3    0  502  0.34317878755E+03 -0.15260030204E+02  0.68687029153E+03  0.76798239500E+03  0.12699999809E+01 0.  1.
</event>
<event>
 5   0  0.1648463E-03  0.1423577E+04  0.7818609E-02  0.8936927E-01
       -2   -1    0    0    0  501  0.00000000000E+00  0.00000000000E+00  0.33419108419E+03  0.33419108419E+03  0.25500000920E-02 0. -1.
        2   -1    0    0  501    0  0.00000000000E+00  0.00000000000E+00 -0.15160279738E+04  0.15160279738E+04  0.25500000920E-02 0.  1.
    10030    2    1    2    0    0  0.00000000000E+00  0.00000000000E+00 -0.11818368897E+04  0.18502190580E+04  0.14235772297E+04 0.  0.
        1    1    3    3  502    0  0.32113550066E+03  0.11156367236E+03  0.22185325547E+03  0.40594744705E+03  0.50400001928E-02 0. -1.
       -1    1    3    3    0  502 -0.32113550066E+03 -0.11156367236E+03 -0.14036901451E+04  0.14442716110E+04  0.50400001928E-02 0.  1.
</event>
<event>
 5   0  0.1578965E-03  0.1433068E+04  0.7818609E-02  0.8930224E-01
        2   -1    0    0  501    0  0.00000000000E+00  0.00000000000E+00  0.14432345602E+04  0.14432345602E+04  0.25500000920E-02 0.  1.
       -2   -1    0    0    0  501  0.00000000000E+00  0.00000000000E+00 -0.35574308838E+03  0.35574308839E+03  0.25500000920E-02 0. -1.
    10030    2    1    2    0    0  0.00000000000E+00  0.00000000000E+00  0.10874914719E+04  0.17989776486E+04  0.14330676463E+04 0.  0.
        2    1    3    3  502    0  0.96344912690E+02  0.37430852308E+02 -0.34633547665E+03  0.36143003928E+03  0.25500000920E-02 0. -1.
       -2    1    3    3    0  502 -0.96344912690E+02 -0.37430852308E+02  0.14338269485E+04  0.14375476094E+04  0.25500000920E-02 0.  1.
</event>
<event>
 5   0  0.1648463E-03  0.1384439E+04  0.7818609E-02  0.8965160E-01
       -2   -1    0    0    0  501  0.00000000000E+00  0.00000000000E+00  0.33193610717E+03  0.33193610718E+03  0.25500000920E-02 0. -1.
        2   -1    0    0  501    0  0.00000000000E+00  0.00000000000E+00 -0.14435535825E+04  0.14435535825E+04  0.25500000920E-02 0.  1.
    10030    2    1    2    0    0  0.00000000000E+00  0.00000000000E+00 -0.11116174753E+04  0.17754896897E+04  0.13844385962E+04 0.  0.
        1    1    3    3  502    0  0.36042642541E+02  0.37809889817E+03  0.18636968593E+03  0.42307388095E+03  0.50400001928E-02 0. -1.
       -1    1    3    3    0  502 -0.36042642541E+02 -0.37809889817E+03 -0.12979871613E+04  0.13524158087E+04  0.50400001928E-02 0.  1.
</event>
<event>
 5   0  0.1706986E-03  0.1392974E+04  0.7818609E-02  0.8958920E-01
       -2   -1    0    0    0  501  0.00000000000E+00  0.00000000000E+00  0.69882153902E+03  0.69882153902E+03  0.25500000920E-02 0.  1.
        2   -1    0    0  501    0  0.00000000000E+00  0.00000000000E+00 -0.69416068975E+03  0.69416068976E+03  0.25500000920E-02 0. -1.
    10030    2    1    2    0    0  0.00000000000E+00  0.00000000000E+00  0.46608492647E+01  0.13929822288E+04  0.13929744313E+04 0.  0.
        3    1    3    3  502    0 -0.58592369061E+03 -0.24440738912E+03  0.28878078140E+03  0.69744956304E+03  0.10100000352E+00 0. -1.
       -3    1    3    3    0  502  0.58592369061E+03  0.24440738912E+03 -0.28411993213E+03  0.69553266574E+03  0.10100000352E+00 0.  1.
</event>
<event>
 5   0  0.9007180E-04  0.1432321E+04  0.7818609E-02  0.8930750E-01
        1   -1    0    0  501    0  0.00000000000E+00  0.00000000000E+00  0.66456971430E+03  0.66456971432E+03  0.50400001928E-02 0. -1.
       -1   -1    0    0    0  501  0.00000000000E+00  0.00000000000E+00 -0.77175581007E+03  0.77175581008E+03  0.50400001928E-02 0.  1.
    10030    2    1    2    0    0  0.00000000000E+00  0.00000000000E+00 -0.10718609577E+03  0.14363255244E+04  0.14323205482E+04 0.  0.
        2    1    3    3  502    0 -0.26282796481E+03  0.65370916394E+03  0.75106483394E+02  0.70855853248E+03  0.25500000920E-02 0.  1.
       -2    1    3    3    0  502  0.26282796481E+03 -0.65370916394E+03 -0.18229257917E+03  0.72776699192E+03  0.25500000920E-02 0. -1.
</event>
<event>
 5   0  0.1706986E-03  0.1427390E+04  0.7818609E-02  0.8934228E-01
        2   -1    0    0  501    0  0.00000000000E+00  0.00000000000E+00  0.10016126770E+04  0.10016126770E+04  0.25500000920E-02 0.  1.
       -2   -1    0    0    0  501  0.00000000000E+00  0.00000000000E+00 -0.50854025776E+03  0.50854025777E+03  0.25500000920E-02 0. -1.
    10030    2    1    2    0    0  0.00000000000E+00  0.00000000000E+00  0.49307241925E+03  0.15101529348E+04  0.14273897421E+04 0.  0.
        3    1    3    3  502    0  0.21083432774E+03 -0.17727732679E+03  0.94310480584E+03  0.98250956705E+03  0.10100000352E+00 0.  1.
       -3    1    3    3    0  502 -0.21083432774E+03  0.17727732679E+03 -0.45003238658E+03  0.52764336774E+03  0.10100000352E+00 0. -1.
</event>
<event>
 5   0  0.1648213E-03  0.1188506E+04  0.7818609E-02  0.9122977E-01
        2   -1    0    0  501    0  0.00000000000E+00  0.00000000000E+00  0.74421546627E+03  0.74421546627E+03  0.25500000920E-02 0.  1.
       -2   -1    0    0    0  501  0.00000000000E+00  0.00000000000E+00 -0.47450897523E+03  0.47450897523E+03  0.25500000920E-02 0. -1.
    10030    2    1    2    0    0  0.00000000000E+00  0.00000000000E+00  0.26970649104E+03  0.12187244415E+04  0.11885064884E+04 0.  0.
        4    1    3    3  502    0 -0.29966582459E+03 -0.50755784200E+03  0.57294653709E+02  0.59219832797E+03  0.12699999809E+01 0. -1.
       -4    1    3    3    0  502  0.29966582459E+03  0.50755784200E+03  0.21241183733E+03  0.62652611354E+03  0.12699999809E+01 0.  1.
</event>
<event>
 5   0  0.9639548E-04  0.1305995E+04  0.7818609E-02  0.9024824E-01
       -1   -1    0    0    0  501  0.00000000000E+00  0.00000000000E+00  0.88422356623E+03  0.88422356625E+03  0.50400001928E-02 0. -1.
        1   -1    0    0  501    0  0.00000000000E+00  0.00000000000E+00 -0.48223765624E+03  0.48223765627E+03  0.50400001928E-02 0.  1.
    10030    2    1    2    0    0  0.00000000000E+00  0.00000000000E+00  0.40198591000E+03  0.13664612225E+04  0.13059952530E+04 0.  0.
        1    1    3    3  502    0  0.11937201775E+02 -0.27609986376E+03  0.82002018704E+03  0.86533619983E+03  0.50400001928E-02 0. -1.
       -1    1    3    3    0  502 -0.11937201775E+02  0.27609986376E+03 -0.41803427704E+03  0.50112502269E+03  0.50400001928E-02 0.  1.
</event>
<event>
 5   0  0.9007180E-04  0.1409415E+04  0.7818609E-02  0.8947032E-01
        1   -1    0    0  501    0  0.00000000000E+00  0.00000000000E+00  0.12472374380E+04  0.12472374380E+04  0.50400001928E-02 0. -1.
       -1   -1    0    0    0  501  0.00000000000E+00  0.00000000000E+00 -0.39817013816E+03  0.39817013819E+03  0.50400001928E-02 0.  1.
    10030    2    1    2    0    0  0.00000000000E+00  0.00000000000E+00  0.84906729985E+03  0.16454075762E+04  0.14094150603E+04 0.  0.
        2    1    3    3  502    0  0.65264734946E+03 -0.14545437476E+03  0.16477583991E+03  0.68866291850E+03  0.25500000920E-02 0.  1.
       -2    1    3    3    0  502 -0.65264734946E+03  0.14545437476E+03  0.68429145994E+03  0.95674465770E+03  0.25500000920E-02 0. -1.
</event>
<event>
 5   0  0.8609148E-04  0.1502222E+04  0.7818609E-02  0.8882976E-01
       -1   -1    0    0    0  501  0.00000000000E+00  0.00000000000E+00  0.57960320231E+03  0.57960320233E+03  0.50400001928E-02 0. -1.
        1   -1    0    0  501    0  0.00000000000E+00  0.00000000000E+00 -0.97336933736E+03  0.97336933738E+03  0.50400001928E-02 0.  1.
    10030    2    1    2    0    0  0.00000000000E+00  0.00000000000E+00 -0.39376613506E+03  0.15529725397E+04  0.15022223337E+04 0.  0.
        5    1    3    3  502    0 -0.21100858074E+03  0.50144176291E+03 -0.73223660425E+03  0.91222858831E+03  0.46999998093E+01 0.  1.
       -5    1    3    3    0  502  0.21100858074E+03 -0.50144176291E+03  0.33847046919E+03  0.64074395139E+03  0.46999998093E+01 0. -1.
</event>
<event>
 5   0  0.6048000E-04  0.1397472E+04  0.7818609E-02  0.8955651E-01
        3   -1    0    0  501    0  0.00000000000E+00  0.00000000000E+00  0.66099699929E+03  0.66099700701E+03  0.10100000352E+00 0.  1.
       -3   -1    0    0    0  501  0.00000000000E+00  0.00000000000E+00 -0.73862935784E+03  0.73862936474E+03  0.10100000352E+00 0. -1.
    10030    2    1    2    0    0  0.00000000000E+00  0.00000000000E+00 -0.77632358547E+02  0.13996263718E+04  0.13974717161E+04 0.  0.
        3    1    3    3  502    0 -0.31622489247E+03  0.61097127312E+03 -0.16126551153E+03  0.70660502022E+03  0.10100000352E+00 0.  1.
       -3    1    3    3    0  502  0.31622489247E+03 -0.61097127312E+03  0.83633152986E+02  0.69302135153E+03  0.10100000352E+00 0. -1.
</event>
<event>
 5   0  0.8673728E-04  0.1422731E+04  0.7818609E-02  0.8937527E-01
       -1   -1    0    0    0  501  0.00000000000E+00  0.00000000000E+00  0.58601262386E+03  0.58601262388E+03  0.50400001928E-02 0.  1.
        1   -1    0    0  501    0  0.00000000000E+00  0.00000000000E+00 -0.86353274703E+03  0.86353274705E+03  0.50400001928E-02 0. -1.
    10030    2    1    2    0    0  0.00000000000E+00  0.00000000000E+00 -0.27752012317E+03  0.14495453709E+04  0.14227313041E+04 0.  0.
        3    1    3    3  502    0 -0.27583270482E+03  0.11528535590E+03 -0.79642291962E+03  0.85068435476E+03  0.10100000352E+00 0. -1.
       -3    1    3    3    0  502  0.27583270482E+03 -0.11528535590E+03  0.51890279644E+03  0.59886101617E+03  0.10100000352E+00 0.  1.
</event>
<event>
 5   0  0.1648213E-03  0.1030314E+04  0.7818609E-02  0.9275908E-01
        2   -1    0    0  501    0  0.00000000000E+00  0.00000000000E+00  0.91986537157E+03  0.91986537157E+03  0.25500000920E-02 0. -1.
       -2   -1    0    0    0  501  0.00000000000E+00  0.00000000000E+00 -0.28850585128E+03  0.28850585129E+03  0.25500000920E-02 0.  1.
    10030    2    1    2    0    0  0.00000000000E+00  0.00000000000E+00  0.63135952029E+03  0.12083712229E+04  0.10303136262E+04 0.  0.
        4    1    3    3  502    0  0.50455583726E+03 -0.80139861701E+02  0.23800816641E+03  0.56360313211E+03  0.12699999809E+01 0.  1.
       -4    1    3    3    0  502 -0.50455583726E+03  0.80139861701E+02  0.39335135388E+03  0.64476809075E+03  0.12699999809E+01 0. -1.
</event>
<event>
 5   0  0.9639548E-04  0.1304605E+04  0.7818609E-02  0.9025922E-01
        1   -1    0    0  501    0  0.00000000000E+00  0.00000000000E+00  0.22487773428E+04  0.22487773428E+04  0.50400001928E-02 0.  1.
       -1   -1    0    0    0  501  0.00000000000E+00  0.00000000000E+00 -0.18921319043E+03  0.18921319050E+03  0.50400001928E-02 0. -1.
    10030    2    1    2    0    0  0.00000000000E+00  0.00000000000E+00  0.20595641523E+04  0.24379905333E+04  0.13046046691E+04 0.  0.
        1    1    3    3  502    0  0.55482234070E+03 -0.20843082631E+03  0.52064547033E+03  0.78888715599E+03  0.50400001928E-02 0.  1.
       -1    1    3    3    0  502 -0.55482234070E+03  0.20843082631E+03  0.15389186820E+04  0.16491033773E+04  0.50400001928E-02 0. -1.
</event>
<event>
 5   0  0.1605214E-03  0.1387002E+04  0.7818609E-02  0.8963281E-01
        2   -1    0    0  501    0  0.00000000000E+00  0.00000000000E+00  0.14305655820E+04  0.14305655820E+04  0.25500000920E-02 0. -1.
       -2   -1    0    0    0  501  0.00000000000E+00  0.00000000000E+00 -0.33619115901E+03  0.33619115902E+03  0.25500000920E-02 0.  1.
    10030    2    1    2    0    0  0.00000000000E+00  0.00000000000E+00  0.10943744230E+04  0.17667567410E+04  0.13870018040E+04 0.  0.
        5    1    3    3  502    0  0.60802626969E+03  0.97124676519E+02  0.14078401305E+03  0.63164180969E+03  0.46999998093E+01 0.  1.
       -5    1    3    3    0  502 -0.60802626969E+03 -0.97124676519E+02  0.95359040995E+03  0.11351149313E+04  0.46999998093E+01 0. -1.
</event>
<event>
 5   0  0.1605214E-03  0.1371318E+04  0.7818609E-02  0.8974845E-01
       -2   -1    0    0    0  501  0.00000000000E+00  0.00000000000E+00  0.55071346663E+03  0.55071346664E+03  0.25500000920E-02 0.  1.
        2   -1    0    0  501    0  0.00000000000E+00  0.00000000000E+00 -0.85367187296E+03  0.85367187297E+03  0.25500000920E-02 0. -1.
    10030    2    1    2    0    0  0.00000000000E+00  0.00000000000E+00 -0.30295840633E+03  0.14043853396E+04  0.13713184846E+04 0.  0.
        5    1    3    3  502    0  0.67866669332E+03  0.96699642696E+02 -0.13823662321E+03  0.69933593896E+03  0.46999998093E+01 0.  1.
       -5    1    3    3    0  502 -0.67866669332E+03 -0.96699642696E+02 -0.16472178312E+03  0.70504940065E+03  0.46999998093E+01 0. -1.
</event>
<event>
 5   0  0.1605214E-03  0.1367275E+04  0.7818609E-02  0.8977853E-01
       -2   -1    0    0    0  501  0.00000000000E+00  0.00000000000E+00  0.37622478286E+03  0.37622478287E+03  0.25500000920E-02 0.  1.
        2   -1    0    0  501    0  0.00000000000E+00  0.00000000000E+00 -0.12422365018E+04  0.12422365018E+04  0.25500000920E-02 0. -1.
    10030    2    1    2    0    0  0.00000000000E+00  0.00000000000E+00 -0.86601171895E+03  0.16184612847E+04  0.13672748929E+04 0.  0.
        5    1    3    3  502    0  0.38737043736E+02  0.55247461600E+03  0.41380105826E+02  0.55539460119E+03  0.46999998093E+01 0.  1.
       -5    1    3    3    0  502 -0.38737043736E+02 -0.55247461600E+03 -0.90739182477E+03  0.10630666835E+04  0.46999998093E+01 0. -1.
</event>
<event>
 5   0  0.1578965E-03  0.1401144E+04  0.7818609E-02  0.8952991E-01
        2   -1    0    0  501    0  0.00000000000E+00  0.00000000000E+00  0.67614155863E+03  0.67614155863E+03  0.25500000920E-02 0.  1.
       -2   -1    0    0    0  501  0.00000000000E+00  0.00000000000E+00 -0.72588534884E+03  0.72588534885E+03  0.25500000920E-02 0. -1.
    10030    2    1    2    0    0  0.00000000000E+00  0.00000000000E+00 -0.49743790218E+02  0.14020269075E+04  0.14011441770E+04 0.  0.
        2    1    3    3  502    0 -0.66603652048E+03  0.17556525125E+03 -0.15291128108E+03  0.70555627979E+03  0.25500000920E-02 0. -1.
       -2    1    3    3    0  502  0.66603652048E+03 -0.17556525125E+03  0.10316749086E+03  0.69647062769E+03  0.25500000920E-02 0.  1.
</event>
<event>
 5   0  0.8502300E-04  0.1407259E+04  0.7818609E-02  0.8948581E-01
       -1   -1    0    0    0  501  0.00000000000E+00  0.00000000000E+00  0.20464173026E+03  0.20464173033E+03  0.50400001928E-02 0.  1.
        1   -1    0    0  501    0  0.00000000000E+00  0.00000000000E+00 -0.24193241856E+04  0.24193241856E+04  0.50400001928E-02 0. -1.
    10030    2    1    2    0    0  0.00000000000E+00  0.00000000000E+00 -0.22146824553E+04  0.26239659159E+04  0.14072593045E+04 0.  0.
        4    1    3    3  502    0 -0.47104507836E+03  0.43461561205E+03 -0.16487764084E+04  0.17689656452E+04  0.12699999809E+01 0.  1.
       -4    1    3    3    0  502  0.47104507836E+03 -0.43461561205E+03 -0.56590604689E+03  0.85500027070E+03  0.12699999809E+01 0. -1.
</event>
<event>
 5   0  0.1648463E-03  0.1384302E+04  0.7818609E-02  0.8965260E-01
        2   -1    0    0  501    0  0.00000000000E+00  0.00000000000E+00  0.19427480021E+04  0.19427480021E+04  0.25500000920E-02 0. -1.
       -2   -1    0    0    0  501  0.00000000000E+00  0.00000000000E+00 -0.24659569704E+03  0.24659569705E+03  0.25500000920E-02 0.  1.
    10030    2    1    2    0    0  0.00000000000E+00  0.00000000000E+00  0.16961523050E+04  0.21893436991E+04  0.13843024204E+04 0.  0.
        1    1    3    3  502    0 -0.79260264164E+02 -0.48261991261E+03  0.16226630488E+04  0.16947682849E+04  0.50400001928E-02 0. -1.
       -1    1    3    3    0  502  0.79260264164E+02  0.48261991261E+03  0.73489256202E+02  0.49457541420E+03  0.50400001928E-02 0.  1.
</event>
<event>
 5   0  0.1605214E-03  0.1390880E+04  0.7818609E-02  0.8960447E-01
       -2   -1    0    0    0  501  0.00000000000E+00  0.00000000000E+00  0.44481752162E+03  0.44481752163E+03  0.25500000920E-02 0.  1.
        2   -1    0    0  501    0  0.00000000000E+00  0.00000000000E+00 -0.10872698171E+04  0.10872698171E+04  0.25500000920E-02 0. -1.
    10030    2    1    2    0    0  0.00000000000E+00  0.00000000000E+00 -0.64245229550E+03  0.15320873387E+04  0.13908798156E+04 0.  0.
        5    1    3    3  502    0 -0.32145552170E+03  0.30535077809E+03 -0.91138171764E+03  0.10135144179E+04  0.46999998093E+01 0. -1.
       -5    1    3    3    0  502  0.32145552170E+03 -0.30535077809E+03  0.26892942214E+03  0.51857292082E+03  0.46999998093E+01 0.  1.
</event>
<event>
 5   0  0.1648213E-03  0.1398503E+04  0.7818609E-02  0.8954903E-01
        2   -1    0    0  501    0  0.00000000000E+00  0.00000000000E+00  0.78601792712E+03  0.78601792712E+03  0.25500000920E-02 0.  1.
       -2   -1    0    0    0  501  0.00000000000E+00  0.00000000000E+00 -0.62206302883E+03  0.62206302884E+03  0.25500000920E-02 0. -1.
    10030    2    1    2    0    0  0.00000000000E+00  0.00000000000E+00  0.16395489829E+03  0.14080809560E+04  0.13985030461E+04 0.  0.
        4    1    3    3  502    0 -0.45218847147E+03 -0.52049985589E+03  0.19920752667E+03  0.71769057768E+03  0.12699999809E+01 0.  1.
       -4    1    3    3    0  502  0.45218847147E+03  0.52049985589E+03 -0.35252628385E+02  0.69039037828E+03  0.12699999809E+01 0. -1.
</event>
<event>
 5   0  0.1605214E-03  0.1402376E+04  0.7818609E-02  0.8952101E-01
        2   -1    0    0  501    0  0.00000000000E+00  0.00000000000E+00  0.16445893356E+04  0.16445893356E+04  0.25500000920E-02 0. -1.
       -2   -1    0    0    0  501  0.00000000000E+00  0.00000000000E+00 -0.29895877407E+03  0.29895877408E+03  0.25500000920E-02 0.  1.
    10030    2    1    2    0    0  0.00000000000E+00  0.00000000000E+00  0.13456305616E+04  0.19435481097E+04  0.14023757152E+04 0.  0.
        5    1    3    3  502    0 -0.67716785180E+03 -0.68221773514E+02  0.43912901952E+03  0.80997956497E+03  0.46999998093E+01 0.  1.
       -5    1    3    3    0  502  0.67716785180E+03  0.68221773514E+02  0.90650154205E+03  0.11335685447E+04  0.46999998093E+01 0. -1.
</event>
<event>
 5   0  0.1605214E-03  0.1389084E+04  0.7818609E-02  0.8961758E-01
        2   -1    0    0  501    0  0.00000000000E+00  0.00000000000E+00  0.16908076798E+04  0.16908076798E+04  0.25500000920E-02 0. -1.
       -2   -1    0    0    0  501  0.00000000000E+00  0.00000000000E+00 -0.28530064943E+03  0.28530064944E+03  0.25500000920E-02 0.  1.
    10030    2    1    2    0    0  0.00000000000E+00  0.00000000000E+00  0.14055070304E+04  0.19761083292E+04  0.13890839127E+04 0.  0.
        5    1    3    3  502    0  0.15410580457E+03  0.15493498836E+03  0.16406040234E+04  0.16551003297E+04  0.46999998093E+01 0. -1.
       -5    1    3    3    0  502 -0.15410580457E+03 -0.15493498836E+03 -0.23509699307E+03  0.32100799954E+03  0.46999998093E+01 0.  1.
</event>
<event>
 5   0  0.8502300E-04  0.1400197E+04  0.7818609E-02  0.8953676E-01
       -1   -1    0    0    0  501  0.00000000000E+00  0.00000000000E+00  0.38494236434E+03  0.38494236437E+03  0.50400001928E-02 0.  1.
        1   -1    0    0  501    0  0.00000000000E+00  0.00000000000E+00 -0.12732756548E+04  0.12732756548E+04  0.50400001928E-02 0. -1.
    10030    2    1    2    0    0  0.00000000000E+00  0.00000000000E+00 -0.88833329042E+03  0.16582180191E+04  0.14001967591E+04 0.  0.
        4    1    3    3  502    0 -0.29159862349E+03  0.51948212061E+03 -0.87969123974E+03  0.10624263368E+04  0.12699999809E+01 0. -1.
       -4    1    3    3    0  502  0.29159862349E+03 -0.51948212061E+03 -0.86420506810E+01  0.59579168238E+03  0.12699999809E+01 0.  1.
</event>
<event>
 5   0  0.8673728E-04  0.1393185E+04  0.7818609E-02  0.8958767E-01
        1   -1    0    0  501    0  0.00000000000E+00  0.00000000000E+00  0.83828318353E+03  0.83828318354E+03  0.50400001928E-02 0. -1.
       -1   -1    0    0    0  501  0.00000000000E+00  0.00000000000E+00 -0.57885080323E+03  0.57885080325E+03  0.50400001928E-02 0.  1.
    10030    2    1    2    0    0  0.00000000000E+00  0.00000000000E+00  0.25943238030E+03  0.14171339868E+04  0.13931846886E+04 0.  0.
        3    1    3    3  502    0 -0.35247388343E+03 -0.30120462318E+03 -0.39910424396E+03  0.61175670922E+03  0.10100000352E+00 0.  1.
       -3    1    3    3    0  502  0.35247388343E+03  0.30120462318E+03  0.65853662426E+03  0.80537727757E+03  0.10100000352E+00 0. -1.
</event>
<event>
 5   0  0.8609148E-04  0.1411368E+04  0.7818609E-02  0.8945631E-01
        1   -1    0    0  501    0  0.00000000000E+00  0.00000000000E+00  0.36411429025E+03  0.36411429029E+03  0.50400001928E-02 0.  1.
       -1   -1    0    0    0  501  0.00000000000E+00  0.00000000000E+00 -0.13676747243E+04  0.13676747243E+04  0.50400001928E-02 0. -1.
    10030    2    1    2    0    0  0.00000000000E+00  0.00000000000E+00 -0.10035604341E+04  0.17317890146E+04  0.14113680053E+04 0.  0.
        5    1    3    3  502    0 -0.33636083603E+03 -0.58783155068E+03 -0.74497741698E+03  0.10068256978E+04  0.46999998093E+01 0. -1.
       -5    1    3    3    0  502  0.33636083603E+03  0.58783155068E+03 -0.25858301710E+03  0.72496331681E+03  0.46999998093E+01 0.  1.
</event>
<event>
 5   0  0.1648463E-03  0.1413787E+04  0.7818609E-02  0.8943899E-01
       -2   -1    0    0    0  501  0.00000000000E+00  0.00000000000E+00  0.12572813508E+04  0.12572813508E+04  0.25500000920E-02 0. -1.
        2   -1    0    0  501    0  0.00000000000E+00  0.00000000000E+00 -0.39744368318E+03  0.39744368318E+03  0.25500000920E-02 0.  1.
    10030    2    1    2    0    0  0.00000000000E+00  0.00000000000E+00  0.85983766758E+03  0.16547250339E+04  0.14137871563E+04 0.  0.
        1    1    3    3  502    0 -0.14979215194E+03  0.50009856791E+03  0.98775915200E+03  0.11172306874E+04  0.50400001928E-02 0. -1.
       -1    1    3    3    0  502  0.14979215194E+03 -0.50009856791E+03 -0.12792148442E+03  0.53749434658E+03  0.50400001928E-02 0.  1.
</event>
<event>
 5   0  0.1605214E-03  0.1223965E+04  0.7818609E-02  0.9092135E-01
        2   -1    0    0  501    0  0.00000000000E+00  0.00000000000E+00  0.56215944139E+03  0.56215944139E+03  0.25500000920E-02 0. -1.
       -2   -1    0    0    0  501  0.00000000000E+00  0.00000000000E+00 -0.66622149862E+03  0.66622149862E+03  0.25500000920E-02 0.  1.
    10030    2    1    2    0    0  0.00000000000E+00  0.00000000000E+00 -0.10406205723E+03  0.12283809400E+04  0.12239652046E+04 0.  0.
        5    1    3    3  502    0 -0.31964231013E+03  0.20812274334E+02  0.47128689920E+03  0.56985769148E+03  0.46999998093E+01 0. -1.
       -5    1    3    3    0  502  0.31964231013E+03 -0.20812274334E+02 -0.57534895643E+03  0.65852324853E+03  0.46999998093E+01 0.  1.
</event>
<event>
 5   0  0.8609148E-04  0.1386831E+04  0.7818609E-02  0.8963407E-01
        1   -1    0    0  501    0  0.00000000000E+00  0.00000000000E+00  0.82872240257E+03  0.82872240258E+03  0.50400001928E-02 0.  1.
       -1   -1    0    0    0  501  0.00000000000E+00  0.00000000000E+00 -0.58020011230E+03  0.58020011232E+03  0.50400001928E-02 0. -1.
    10030    2    1    2    0    0  0.00000000000E+00  0.00000000000E+00  0.24852229027E+03  0.14089225149E+04  0.13868306761E+04 0.  0.
        5    1    3    3  502    0  0.46932836712E+03  0.25854862077E+03  0.57136977143E+03  0.78332752485E+03  0.46999998093E+01 0.  1.
       -5    1    3    3    0  502 -0.46932836712E+03 -0.25854862077E+03 -0.32284748116E+03  0.62559499005E+03  0.46999998093E+01 0. -1.
</event>
<event>
 5   0  0.9639548E-04  0.1399421E+04  0.7818609E-02  0.8954237E-01
       -1   -1    0    0    0  501  0.00000000000E+00  0.00000000000E+00  0.48979527539E+03  0.48979527541E+03  0.50400001928E-02 0.  1.
        1   -1    0    0  501    0  0.00000000000E+00  0.00000000000E+00 -0.99959127146E+03  0.99959127148E+03  0.50400001928E-02 0. -1.
    10030    2    1    2    0    0  0.00000000000E+00  0.00000000000E+00 -0.50979599608E+03  0.14893865469E+04  0.13994214263E+04 0.  0.
        1    1    3    3  502    0 -0.28277048719E+03 -0.57014838655E+03 -0.56439662763E+03  0.85063028656E+03  0.50400001928E-02 0.  1.
       -1    1    3    3    0  502  0.28277048719E+03  0.57014838655E+03  0.54600631553E+02  0.63875626032E+03  0.50400001928E-02 0. -1.
</event>
<event>
 5   0  0.1648213E-03  0.1437054E+04  0.7818609E-02  0.8927425E-01
       -2   -1    0    0    0  501  0.00000000000E+00  0.00000000000E+00  0.40184481064E+03  0.40184481064E+03  0.25500000920E-02 0.  1.
        2   -1    0    0  501    0  0.00000000000E+00  0.00000000000E+00 -0.12847771091E+04  0.12847771091E+04  0.25500000920E-02 0. -1.
    10030    2    1    2    0    0  0.00000000000E+00  0.00000000000E+00 -0.88293229842E+03  0.16866219197E+04  0.14370539504E+04 0.  0.
        4    1    3    3  502    0 -0.23512303796E+03  0.50007171544E+03  0.97558380176E+02  0.56113618133E+03  0.12699999809E+01 0.  1.
       -4    1    3    3    0  502  0.23512303796E+03 -0.50007171544E+03 -0.98049067859E+03  0.11254857384E+04  0.12699999809E+01 0. -1.
</event>
<event>
 5   0  0.9639548E-04  0.1408750E+04  0.7818609E-02  0.8947509E-01
       -1   -1    0    0    0  501  0.00000000000E+00  0.00000000000E+00  0.29306754714E+03  0.29306754718E+03  0.50400001928E-02 0. -1.
        1   -1    0    0  501    0  0.00000000000E+00  0.00000000000E+00 -0.16929353166E+04  0.16929353166E+04  0.50400001928E-02 0.  1.
    10030    2    1    2    0    0  0.00000000000E+00  0.00000000000E+00 -0.13998677695E+04  0.19860028638E+04  0.14087503693E+04 0.  0.
        1    1    3    3  502    0 -0.60848510377E+03 -0.35460658597E+03 -0.68299042097E+03  0.98105854438E+03  0.50400001928E-02 0.  1.
       -1    1    3    3    0  502  0.60848510377E+03  0.35460658597E+03 -0.71687734848E+03  0.10049443194E+04  0.50400001928E-02 0. -1.
</event>
<event>
 5   0  0.1648213E-03  0.1395565E+04  0.7818609E-02  0.8957035E-01
        2   -1    0    0  501    0  0.00000000000E+00  0.00000000000E+00  0.89801511518E+03  0.89801511518E+03  0.25500000920E-02 0. -1.
       -2   -1    0    0    0  501  0.00000000000E+00  0.00000000000E+00 -0.54219633253E+03  0.54219633254E+03  0.25500000920E-02 0.  1.
    10030    2    1    2    0    0  0.00000000000E+00  0.00000000000E+00  0.35581878265E+03  0.14402114477E+04  0.13955651214E+04 0.  0.
        4    1    3    3  502    0  0.92295714761E+02 -0.16586713060E+03  0.87085810325E+03  0.89130570113E+03  0.12699999809E+01 0. -1.
       -4    1    3    3    0  502 -0.92295714761E+02  0.16586713060E+03 -0.51503932060E+03  0.54890574659E+03  0.12699999809E+01 0.  1.
</event>
<event>
 5   0  0.1648463E-03  0.1606811E+04  0.7818609E-02  0.8816375E-01
       -2   -1    0    0    0  501  0.00000000000E+00  0.00000000000E+00  0.61523234534E+03  0.61523234535E+03  0.25500000920E-02 0. -1.
        2   -1    0    0  501    0  0.00000000000E+00  0.00000000000E+00 -0.10491320952E+04  0.10491320952E+04  0.25500000920E-02 0.  1.
    10030    2    1    2    0    0  0.00000000000E+00  0.00000000000E+00 -0.43389974983E+03  0.16643644405E+04  0.16068105047E+04 0.  0.
        1    1    3    3  502    0 -0.31061346792E+03 -0.67179520320E+03  0.10676706221E+03  0.74778922639E+03  0.50400001928E-02 0. -1.
       -1    1    3    3    0  502  0.31061346792E+03  0.67179520320E+03 -0.54066681204E+03  0.91657521414E+03  0.50400001928E-02 0.  1.
</event>
<event>
 5   0  0.6048000E-04  0.1399300E+04  0.7818609E-02  0.8954325E-01
        4   -1    0    0  501    0  0.00000000000E+00  0.00000000000E+00  0.10890741008E+04  0.10890748413E+04  0.12699999809E+01 0.  1.
       -4   -1    0    0    0  501  0.00000000000E+00  0.00000000000E+00 -0.44947207023E+03  0.44947386444E+03  0.12699999809E+01 0. -1.
    10030    2    1    2    0    0  0.00000000000E+00  0.00000000000E+00  0.63960203055E+03  0.15385487057E+04  0.13993003117E+04 0.  0.
        5    1    3    3  502    0 -0.54622183531E+03 -0.40716540253E+03  0.49484916999E+03  0.84204498064E+03  0.46999998093E+01 0.  1.
       -5    1    3    3    0  502  0.54622183531E+03  0.40716540253E+03  0.14475286056E+03  0.69650372506E+03  0.46999998093E+01 0. -1.
</event>
<event>
 5   0  0.9639548E-04  0.1416571E+04  0.7818609E-02  0.8941911E-01
        1   -1    0    0  501    0  0.00000000000E+00  0.00000000000E+00  0.66160505853E+03  0.66160505855E+03  0.50400001928E-02 0. -1.
       -1   -1    0    0    0  501  0.00000000000E+00  0.00000000000E+00 -0.75825908994E+03  0.75825908996E+03  0.50400001928E-02 0.  1.
    10030    2    1    2    0    0  0.00000000000E+00  0.00000000000E+00 -0.96654031413E+02  0.14198641485E+04  0.14165705766E+04 0.  0.
        1    1    3    3  502    0  0.18212697169E+03  0.13223583729E+03 -0.72146234349E+03  0.75575423491E+03  0.50400001928E-02 0.  1.
       -1    1    3    3    0  502 -0.18212697169E+03 -0.13223583729E+03  0.62480831207E+03  0.66410991360E+03  0.50400001928E-02 0. -1.
</event>
<event>
 5   0  0.6048000E-04  0.1396135E+04  0.7818609E-02  0.8956621E-01
        3   -1    0    0  501    0  0.00000000000E+00  0.00000000000E+00  0.49300151426E+03  0.49300152461E+03  0.10100000352E+00 0. -1.
       -3   -1    0    0    0  501  0.00000000000E+00  0.00000000000E+00 -0.98843130418E+03  0.98843130934E+03  0.10100000352E+00 0.  1.
    10030    2    1    2    0    0  0.00000000000E+00  0.00000000000E+00 -0.49542978991E+03  0.14814328339E+04  0.13961348663E+04 0.  0.
        1    1    3    3  502    0 -0.58295688082E+03 -0.35305515080E+03 -0.87452623576E+02  0.68712053222E+03  0.50400001928E-02 0. -1.
       -1    1    3    3    0  502  0.58295688082E+03  0.35305515080E+03 -0.40797716634E+03  0.79431230173E+03  0.50400001928E-02 0.  1.
</event>
<event>
 5   0  0.1648213E-03  0.1405331E+04  0.7818609E-02  0.8949969E-01
       -2   -1    0    0    0  501  0.00000000000E+00  0.00000000000E+00  0.68159542355E+03  0.68159542356E+03  0.25500000920E-02 0.  1.
        2   -1    0    0  501    0  0.00000000000E+00  0.00000000000E+00 -0.72438720382E+03  0.72438720383E+03  0.25500000920E-02 0. -1.
    10030    2    1    2    0    0  0.00000000000E+00  0.00000000000E+00 -0.42791780269E+02  0.14059826274E+04  0.14053312820E+04 0.  0.
        4    1    3    3  502    0 -0.54446697238E+03  0.22002099182E+03  0.36463767209E+03  0.69124219030E+03  0.12699999809E+01 0.  1.
       -4    1    3    3    0  502  0.54446697238E+03 -0.22002099182E+03 -0.40742945236E+03  0.71474043708E+03  0.12699999809E+01 0. -1.
</event>
<event>
 5   0  0.8502300E-04  0.1354607E+04  0.7818609E-02  0.8987348E-01
        1   -1    0    0  501    0  0.00000000000E+00  0.00000000000E+00  0.12724781269E+04  0.12724781269E+04  0.50400001928E-02 0.  1.
       -1   -1    0    0    0  501  0.00000000000E+00  0.00000000000E+00 -0.36050900514E+03  0.36050900518E+03  0.50400001928E-02 0. -1.
    10030    2    1    2    0    0  0.00000000000E+00  0.00000000000E+00  0.91196912176E+03  0.16329871321E+04  0.13546066937E+04 0.  0.
        4    1    3    3  502    0 -0.17122972343E+01  0.46353381836E+03 -0.13933510382E+03  0.48402728930E+03  0.12699999809E+01 0.  1.
       -4    1    3    3    0  502  0.17122972343E+01 -0.46353381836E+03  0.10513042256E+04  0.11489598428E+04  0.12699999809E+01 0. -1.
</event>
<event>
 5   0  0.1648213E-03  0.1344572E+04  0.7818609E-02  0.8994947E-01
        2   -1    0    0  501    0  0.00000000000E+00  0.00000000000E+00  0.19428898963E+04  0.19428898963E+04  0.25500000920E-02 0.  1.
       -2   -1    0    0    0  501  0.00000000000E+00  0.00000000000E+00 -0.23262688810E+03  0.23262688811E+03  0.25500000920E-02 0. -1.
    10030    2    1    2    0    0  0.00000000000E+00  0.00000000000E+00  0.17102630082E+04  0.21755167844E+04  0.13445719475E+04 0.  0.
        4    1    3    3  502    0 -0.31280299591E+03 -0.48863211664E+03  0.30558359447E+03  0.65573623186E+03  0.12699999809E+01 0. -1.
       -4    1    3    3    0  502  0.31280299591E+03  0.48863211664E+03  0.14046794137E+04  0.15197805525E+04  0.12699999809E+01 0.  1.
</event>
<event>
 5   0  0.9007180E-04  0.1398911E+04  0.7818609E-02  0.8954607E-01
        1   -1    0    0  501    0  0.00000000000E+00  0.00000000000E+00  0.71064283616E+03  0.71064283618E+03  0.50400001928E-02 0. -1.
       -1   -1    0    0    0  501  0.00000000000E+00  0.00000000000E+00 -0.68844475217E+03  0.68844475218E+03  0.50400001928E-02 0.  1.
    10030    2    1    2    0    0  0.00000000000E+00  0.00000000000E+00  0.22198083992E+02  0.13990875884E+04  0.13989114786E+04 0.  0.
        2    1    3    3  502    0  0.66002936108E+03 -0.20562214470E+03 -0.95305645261E+02  0.69785556522E+03  0.25500000920E-02 0.  1.
       -2    1    3    3    0  502 -0.66002936108E+03  0.20562214470E+03  0.11750372925E+03  0.70123202314E+03  0.25500000920E-02 0. -1.
</event>
<event>
 5   0  0.1648463E-03  0.1416561E+04  0.7818609E-02  0.8941918E-01
       -2   -1    0    0    0  501  0.00000000000E+00  0.00000000000E+00  0.12569801703E+04  0.12569801703E+04  0.25500000920E-02 0. -1.
        2   -1    0    0  501    0  0.00000000000E+00  0.00000000000E+00 -0.39910015537E+03  0.39910015538E+03  0.25500000920E-02 0.  1.
    10030    2    1    2    0    0  0.00000000000E+00  0.00000000000E+00  0.85788001489E+03  0.16560803257E+04  0.14165605970E+04 0.  0.
        1    1    3    3  502    0 -0.16185588177E+03 -0.24510857904E+03  0.11824202604E+04  0.12183567680E+04  0.50400001928E-02 0. -1.
       -1    1    3    3    0  502  0.16185588177E+03  0.24510857904E+03 -0.32454024546E+03  0.43772355766E+03  0.50400001928E-02 0.  1.
</event>
<event>
 5   0  0.8673728E-04  0.1406138E+04  0.7818609E-02  0.8949387E-01
        1   -1    0    0  501    0  0.00000000000E+00  0.00000000000E+00  0.91378316472E+03  0.91378316474E+03  0.50400001928E-02 0.  1.
       -1   -1    0    0    0  501  0.00000000000E+00  0.00000000000E+00 -0.54094474197E+03  0.54094474199E+03  0.50400001928E-02 0. -1.
    10030    2    1    2    0    0  0.00000000000E+00  0.00000000000E+00  0.37283842276E+03  0.14547279067E+04  0.14061382553E+04 0.  0.
        3    1    3    3  502    0 -0.16045676800E+03  0.62096395638E+03  0.48440632583E+03  0.80373634248E+03  0.10100000352E+00 0.  1.
       -3    1    3    3    0  502  0.16045676800E+03 -0.62096395638E+03 -0.11156790307E+03  0.65099156425E+03  0.10100000352E+00 0. -1.
</event>
<event>
 5   0  0.9639548E-04  0.1317461E+04  0.7818609E-02  0.9015832E-01
       -1   -1    0    0    0  501  0.00000000000E+00  0.00000000000E+00  0.60205962085E+03  0.60205962087E+03  0.50400001928E-02 0.  1.
        1   -1    0    0  501    0  0.00000000000E+00  0.00000000000E+00 -0.72073580437E+03  0.72073580439E+03  0.50400001928E-02 0. -1.
    10030    2    1    2    0    0  0.00000000000E+00  0.00000000000E+00 -0.11867618352E+03  0.13227954253E+04  0.13174610812E+04 0.  0.
        1    1    3    3  502    0  0.53218055371E+03  0.37133774322E+03 -0.17301339056E+03  0.67159622886E+03  0.50400001928E-02 0.  1.
       -1    1    3    3    0  502 -0.53218055371E+03 -0.37133774322E+03  0.54337207034E+02  0.65119919639E+03  0.50400001928E-02 0. -1.
</event>
<event>
 5   0  0.8673728E-04  0.1379292E+04  0.7818609E-02  0.8968946E-01
       -1   -1    0    0    0  501  0.00000000000E+00  0.00000000000E+00  0.77568620776E+03  0.77568620777E+03  0.50400001928E-02 0. -1.
        1   -1    0    0  501    0  0.00000000000E+00  0.00000000000E+00 -0.61314918009E+03  0.61314918011E+03  0.50400001928E-02 0.  1.
    10030    2    1    2    0    0  0.00000000000E+00  0.00000000000E+00  0.16253702767E+03  0.13888353879E+04  0.13792916477E+04 0.  0.
        3    1    3    3  502    0 -0.20078888421E+03  0.93336289202E+02  0.73892135533E+03  0.77138357415E+03  0.10100000352E+00 0. -1.
       -3    1    3    3    0  502  0.20078888421E+03 -0.93336289202E+02 -0.57638432767E+03  0.61745181373E+03  0.10100000352E+00 0.  1.
</event>
<event>
 5   0  0.1706986E-03  0.1410599E+04  0.7818609E-02  0.8946182E-01
        2   -1    0    0  501    0  0.00000000000E+00  0.00000000000E+00  0.26865211107E+04  0.26865211107E+04  0.25500000920E-02 0. -1.
       -2   -1    0    0    0  501  0.00000000000E+00  0.00000000000E+00 -0.18516411371E+03  0.18516411373E+03  0.25500000920E-02 0.  1.
    10030    2    1    2    0    0  0.00000000000E+00  0.00000000000E+00  0.25013569970E+04  0.28716852244E+04  0.14105988805E+04 0.  0.
        3    1    3    3  502    0  0.59856226704E+03 -0.34669205903E+03  0.97024780104E+03  0.11915758377E+04  0.10100000352E+00 0. -1.
       -3    1    3    3    0  502 -0.59856226704E+03  0.34669205903E+03  0.15311091959E+04  0.16801093867E+04  0.10100000352E+00 0.  1.
</event>
<event>
 5   0  0.1578965E-03  0.1364745E+04  0.7818609E-02  0.8979741E-01
        2   -1    0    0  501    0  0.00000000000E+00  0.00000000000E+00  0.10423364891E+04  0.10423364891E+04  0.25500000920E-02 0.  1.
       -2   -1    0    0    0  501  0.00000000000E+00  0.00000000000E+00 -0.44671977636E+03  0.44671977636E+03  0.25500000920E-02 0. -1.
    10030    2    1    2    0    0  0.00000000000E+00  0.00000000000E+00  0.59561671278E+03  0.14890562655E+04  0.13647451386E+04 0.  0.
        2    1    3    3  502    0  0.41442986942E+03 -0.52930797263E+02  0.88646851666E+03  0.97998990658E+03  0.25500000920E-02 0.  1.
       -2    1    3    3    0  502 -0.41442986942E+03  0.52930797263E+02 -0.29085180388E+03  0.50906635893E+03  0.25500000920E-02 0. -1.
</event>
<event>
 5   0  0.8502300E-04  0.1393161E+04  0.7818609E-02  0.8958784E-01
       -1   -1    0    0    0  501  0.00000000000E+00  0.00000000000E+00  0.34856074771E+03  0.34856074775E+03  0.50400001928E-02 0.  1.
        1   -1    0    0  501    0  0.00000000000E+00  0.00000000000E+00 -0.13920804814E+04  0.13920804814E+04  0.50400001928E-02 0. -1.
    10030    2    1    2    0    0  0.00000000000E+00  0.00000000000E+00 -0.10435197337E+04  0.17406412291E+04  0.13931613166E+04 0.  0.
        4    1    3    3  502    0 -0.37411501902E+03  0.58740603900E+03 -0.54008413116E+03  0.88130606700E+03  0.12699999809E+01 0. -1.
       -4    1    3    3    0  502  0.37411501902E+03 -0.58740603900E+03 -0.50343560250E+03  0.85933516213E+03  0.12699999809E+01 0.  1.
</event>
<event>
 5   0  0.1648463E-03  0.1353863E+04  0.7818609E-02  0.8987909E-01
       -2   -1    0    0    0  501  0.00000000000E+00  0.00000000000E+00  0.55569168204E+03  0.55569168204E+03  0.25500000920E-02 0. -1.
        2   -1    0    0  501    0  0.00000000000E+00  0.00000000000E+00 -0.82462378346E+03  0.82462378347E+03  0.25500000920E-02 0.  1.
    10030    2    1    2    0    0  0.00000000000E+00  0.00000000000E+00 -0.26893210143E+03  0.13803154655E+04  0.13538634751E+04 0.  0.
        1    1    3    3  502    0  0.42157889561E+03 -0.46556320159E+03  0.12297231395E+03  0.64000003901E+03  0.50400001928E-02 0. -1.
       -1    1    3    3    0  502 -0.42157889561E+03  0.46556320159E+03 -0.39190441538E+03  0.74031542651E+03  0.50400001928E-02 0.  1.
</event>
<event>
 5   0  0.6048000E-04  0.1429557E+04  0.7818609E-02  0.8932697E-01
        4   -1    0    0  501    0  0.00000000000E+00  0.00000000000E+00  0.43701229422E+03  0.43701413958E+03  0.12699999809E+01 0. -1.
       -4   -1    0    0    0  501  0.00000000000E+00  0.00000000000E+00 -0.11690886120E+04  0.11690893018E+04  0.12699999809E+01 0.  1.
    10030    2    1    2    0    0  0.00000000000E+00  0.00000000000E+00 -0.73207631774E+03  0.16061034413E+04  0.14295567597E+04 0.  0.
        4    1    3    3  502    0  0.24061908576E+03  0.60034764465E+03 -0.24170441247E+02  0.64722535643E+03  0.12699999809E+01 0. -1.
       -4    1    3    3    0  502 -0.24061908576E+03 -0.60034764465E+03 -0.70790587649E+03  0.95887808492E+03  0.12699999809E+01 0.  1.
</event>
<event>
 5   0  0.8502300E-04  0.1418592E+04  0.7818609E-02  0.8940469E-01
       -1   -1    0    0    0  501  0.00000000000E+00  0.00000000000E+00  0.11127326499E+04  0.11127326499E+04  0.50400001928E-02 0. -1.
        1   -1    0    0  501    0  0.00000000000E+00  0.00000000000E+00 -0.45213117780E+03  0.45213117783E+03  0.50400001928E-02 0.  1.
    10030    2    1    2    0    0  0.00000000000E+00  0.00000000000E+00  0.66060147211E+03  0.15648638277E+04  0.14185924342E+04 0.  0.
        4    1    3    3  502    0 -0.47122346008E+03  0.48845222932E+03  0.55761206666E+03  0.87839055063E+03  0.12699999809E+01 0. -1.
       -4    1    3    3    0  502  0.47122346008E+03 -0.48845222932E+03  0.10298940545E+03  0.68647327712E+03  0.12699999809E+01 0.  1.
</event>
<event>
 5   0  0.1648463E-03  0.1365015E+04  0.7818609E-02  0.8979539E-01
       -2   -1    0    0    0  501  0.00000000000E+00  0.00000000000E+00  0.12626896399E+04  0.12626896399E+04  0.25500000920E-02 0.  1.
        2   -1    0    0  501    0  0.00000000000E+00  0.00000000000E+00 -0.36890798134E+03  0.36890798135E+03  0.25500000920E-02 0. -1.
    10030    2    1    2    0    0  0.00000000000E+00  0.00000000000E+00  0.89378165858E+03  0.16315976213E+04  0.13650147049E+04 0.  0.
        1    1    3    3  502    0 -0.39082395248E+03 -0.55624667287E+03  0.51922912900E+03  0.85542539788E+03  0.50400001928E-02 0. -1.
       -1    1    3    3    0  502  0.39082395248E+03  0.55624667287E+03  0.37455252958E+03  0.77617222338E+03  0.50400001928E-02 0.  1.
</event>
<event>
 5   0  0.9639548E-04  0.1403488E+04  0.7818609E-02  0.8951298E-01
       -1   -1    0    0    0  501  0.00000000000E+00  0.00000000000E+00  0.66998234433E+03  0.66998234434E+03  0.50400001928E-02 0.  1.
        1   -1    0    0  501    0  0.00000000000E+00  0.00000000000E+00 -0.73501109445E+03  0.73501109447E+03  0.50400001928E-02 0. -1.
    10030    2    1    2    0    0  0.00000000000E+00  0.00000000000E+00 -0.65028750126E+02  0.14049934388E+04  0.14034877359E+04 0.  0.
        1    1    3    3  502    0  0.30610102278E+03 -0.32215913807E+03 -0.57619933258E+03  0.72766064706E+03  0.50400001928E-02 0. -1.
       -1    1    3    3    0  502 -0.30610102278E+03  0.32215913807E+03  0.51117058246E+03  0.67733279175E+03  0.50400001928E-02 0.  1.
</event>
<event>
 5   0  0.1648463E-03  0.1408764E+04  0.7818609E-02  0.8947499E-01
       -2   -1    0    0    0  501  0.00000000000E+00  0.00000000000E+00  0.35665707465E+03  0.35665707466E+03  0.25500000920E-02 0. -1.
        2   -1    0    0  501    0  0.00000000000E+00  0.00000000000E+00 -0.13911231648E+04  0.13911231648E+04  0.25500000920E-02 0.  1.
    10030    2    1    2    0    0  0.00000000000E+00  0.00000000000E+00 -0.10344660901E+04  0.17477802394E+04  0.14087638815E+04 0.  0.
        1    1    3    3  502    0  0.32256774764E+03 -0.44785406986E+03 -0.10601930159E+04  0.11952541365E+04  0.50400001928E-02 0.  1.
       -1    1    3    3    0  502 -0.32256774764E+03  0.44785406986E+03  0.25726925800E+02  0.55252610296E+03  0.50400001928E-02 0. -1.
</event>
<event>
 5   0  0.8502300E-04  0.1385918E+04  0.7818609E-02  0.8964075E-01
        1   -1    0    0  501    0  0.00000000000E+00  0.00000000000E+00  0.91783777520E+03  0.91783777521E+03  0.50400001928E-02 0.  1.
       -1   -1    0    0    0  501  0.00000000000E+00  0.00000000000E+00 -0.52317794020E+03  0.52317794023E+03  0.50400001928E-02 0. -1.
    10030    2    1    2    0    0  0.00000000000E+00  0.00000000000E+00  0.39465983500E+03  0.14410157154E+04  0.13859184344E+04 0.  0.
        4    1    3    3  502    0 -0.35822320563E+03  0.58312976547E+03  0.31040382068E+03  0.75147610289E+03  0.12699999809E+01 0. -1.
       -4    1    3    3    0  502  0.35822320563E+03 -0.58312976547E+03  0.84256014321E+02  0.68953961255E+03  0.12699999809E+01 0.  1.
</event>
<event>
 5   0  0.1578965E-03  0.1458840E+04  0.7818609E-02  0.8912295E-01
       -2   -1    0    0    0  501  0.00000000000E+00  0.00000000000E+00  0.64166245745E+03  0.64166245746E+03  0.25500000920E-02 0. -1.
        2   -1    0    0  501    0  0.00000000000E+00  0.00000000000E+00 -0.82918006132E+03  0.82918006132E+03  0.25500000920E-02 0.  1.
    10030    2    1    2    0    0  0.00000000000E+00  0.00000000000E+00 -0.18751760387E+03  0.14708425188E+04  0.14588402460E+04 0.  0.
        2    1    3    3  502    0 -0.45782294663E+03  0.10019444269E+03 -0.65729646429E+03  0.80726663426E+03  0.25500000920E-02 0.  1.
       -2    1    3    3    0  502  0.45782294663E+03 -0.10019444269E+03  0.46977886043E+03  0.66357588452E+03  0.25500000920E-02 0. -1.
</event>
<event>
 5   0  0.1578965E-03  0.1354516E+04  0.7818609E-02  0.8987416E-01
       -2   -1    0    0    0  501  0.00000000000E+00  0.00000000000E+00  0.57229312767E+03  0.57229312767E+03  0.25500000920E-02 0.  1.
        2   -1    0    0  501    0  0.00000000000E+00  0.00000000000E+00 -0.80147499646E+03  0.80147499647E+03  0.25500000920E-02 0. -1.
    10030    2    1    2    0    0  0.00000000000E+00  0.00000000000E+00 -0.22918186880E+03  0.13737681241E+04  0.13545163454E+04 0.  0.
        2    1    3    3  502    0  0.41454945748E+03  0.19423445646E+03 -0.62078419508E+03  0.77133085874E+03  0.25500000920E-02 0. -1.
       -2    1    3    3    0  502 -0.41454945748E+03 -0.19423445646E+03  0.39160232629E+03  0.60243726540E+03  0.25500000920E-02 0.  1.
</event>
<event>
 5   0  0.8502300E-04  0.1399459E+04  0.7818609E-02  0.8954210E-01
        1   -1    0    0  501    0  0.00000000000E+00  0.00000000000E+00  0.73830380884E+03  0.73830380886E+03  0.50400001928E-02 0. -1.
       -1   -1    0    0    0  501  0.00000000000E+00  0.00000000000E+00 -0.66317026824E+03  0.66317026826E+03  0.50400001928E-02 0.  1.
    10030    2    1    2    0    0  0.00000000000E+00  0.00000000000E+00  0.75133540605E+02  0.14014740771E+04  0.13994586596E+04 0.  0.
        4    1    3    3  502    0 -0.11702164815E+03 -0.94656394126E+02 -0.64676617789E+03  0.66404969757E+03  0.12699999809E+01 0.  1.
       -4    1    3    3    0  502  0.11702164815E+03  0.94656394126E+02  0.72189971849E+03  0.73742437954E+03  0.12699999809E+01 0. -1.
</event>
<event>
 5   0  0.8609148E-04  0.1406830E+04  0.7818609E-02  0.8948890E-01
       -1   -1    0    0    0  501  0.00000000000E+00  0.00000000000E+00  0.48377873888E+03  0.48377873891E+03  0.50400001928E-02 0.  1.
        1   -1    0    0  501    0  0.00000000000E+00  0.00000000000E+00 -0.10227659234E+04  0.10227659234E+04  0.50400001928E-02 0. -1.
    10030    2    1    2    0    0  0.00000000000E+00  0.00000000000E+00 -0.53898718453E+03  0.15065446623E+04  0.14068296395E+04 0.  0.
        5    1    3    3  502    0 -0.34730439929E+03 -0.56385485651E+03 -0.15585269572E+02  0.66243311783E+03  0.46999998093E+01 0.  1.
       -5    1    3    3    0  502  0.34730439929E+03  0.56385485651E+03 -0.52340191495E+03  0.84411154449E+03  0.46999998093E+01 0. -1.
</event>
<event>
 5   0  0.9007180E-04  0.1412171E+04  0.7818609E-02  0.8945055E-01
       -1   -1    0    0    0  501  0.00000000000E+00  0.00000000000E+00  0.69807074282E+03  0.69807074284E+03  0.50400001928E-02 0.  1.
        1   -1    0    0  501    0  0.00000000000E+00  0.00000000000E+00 -0.71419249523E+03  0.71419249525E+03  0.50400001928E-02 0. -1.
    10030    2    1    2    0    0  0.00000000000E+00  0.00000000000E+00 -0.16121752412E+02  0.14122632381E+04  0.14121712158E+04 0.  0.
        2    1    3    3  502    0  0.10165935455E+03  0.68196172808E+03  0.14410179984E+03  0.70439459940E+03  0.25500000920E-02 0.  1.
       -2    1    3    3    0  502 -0.10165935455E+03 -0.68196172808E+03 -0.16022355225E+03  0.70786863869E+03  0.25500000920E-02 0. -1.
</event>
<event>
 5   0  0.1706986E-03  0.1390648E+04  0.7818609E-02  0.8960616E-01
       -2   -1    0    0    0  501  0.00000000000E+00  0.00000000000E+00  0.24540993322E+03  0.24540993323E+03  0.25500000920E-02 0. -1.
        2   -1    0    0  501    0  0.00000000000E+00  0.00000000000E+00 -0.19700719273E+04  0.19700719273E+04  0.25500000920E-02 0.  1.
    10030    2    1    2    0    0  0.00000000000E+00  0.00000000000E+00 -0.17246619941E+04  0.22154818605E+04  0.13906476479E+04 0.  0.
        3    1    3    3  502    0  0.12637243421E+03  0.41114734079E+03  0.80239508925E+01  0.43020520913E+03  0.10100000352E+00 0. -1.
       -3    1    3    3    0  502 -0.12637243421E+03 -0.41114734079E+03 -0.17326859450E+04  0.17852766514E+04  0.10100000352E+00 0.  1.
</event>
<event>
 5   0  0.9007180E-04  0.1463604E+04  0.7818609E-02  0.8909023E-01
        1   -1    0    0  501    0  0.00000000000E+00  0.00000000000E+00  0.12372276523E+04  0.12372276523E+04  0.50400001928E-02 0. -1.
       -1   -1    0    0    0  501  0.00000000000E+00  0.00000000000E+00 -0.43285023122E+03  0.43285023125E+03  0.50400001928E-02 0.  1.
    10030    2    1    2    0    0  0.00000000000E+00  0.00000000000E+00  0.80437742109E+03  0.16700778836E+04  0.14636041479E+04 0.  0.
        2    1    3    3  502    0  0.46501721918E+03  0.56322085010E+03  0.45417372309E+03  0.86007703775E+03  0.25500000920E-02 0.  1.
       -2    1    3    3    0  502 -0.46501721918E+03 -0.56322085010E+03  0.35020369800E+03  0.81000084581E+03  0.25500000920E-02 0. -1.
</event>
<event>
 5   0  0.9639548E-04  0.1402641E+04  0.7818609E-02  0.8951909E-01
        1   -1    0    0  501    0  0.00000000000E+00  0.00000000000E+00  0.59474688474E+03  0.59474688477E+03  0.50400001928E-02 0. -1.
       -1   -1    0    0    0  501  0.00000000000E+00  0.00000000000E+00 -0.82699117594E+03  0.82699117596E+03  0.50400001928E-02 0.  1.
    10030    2    1    2    0    0  0.00000000000E+00  0.00000000000E+00 -0.23224429120E+03  0.14217380607E+04  0.14026409742E+04 0.  0.
        1    1    3    3  502    0  0.66699373016E+03 -0.21645545278E+03 -0.10516635495E+03  0.70907937592E+03  0.50400001928E-02 0.  1.
       -1    1    3    3    0  502 -0.66699373016E+03  0.21645545278E+03 -0.12707793625E+03  0.71265868480E+03  0.50400001928E-02 0. -1.
</event>
<event>
 5   0  0.1648463E-03  0.1454553E+04  0.7818609E-02  0.8915250E-01
       -2   -1    0    0    0  501  0.00000000000E+00  0.00000000000E+00  0.40812404248E+03  0.40812404248E+03  0.25500000920E-02 0. -1.
        2   -1    0    0  501    0  0.00000000000E+00  0.00000000000E+00 -0.12960061192E+04  0.12960061192E+04  0.25500000920E-02 0.  1.
    10030    2    1    2    0    0  0.00000000000E+00  0.00000000000E+00 -0.88788207669E+03  0.17041301617E+04  0.14545532049E+04 0.  0.
        1    1    3    3  502    0  0.30556203360E+02 -0.68214638255E+03 -0.73724401387E+03  0.10048811396E+04  0.50400001928E-02 0.  1.
       -1    1    3    3    0  502 -0.30556203360E+02  0.68214638255E+03 -0.15063806282E+03  0.69924902201E+03  0.50400001928E-02 0. -1.
</event>
<event>
 5   0  0.6048000E-04  0.1371758E+04  0.7818609E-02  0.8974519E-01
       -3   -1    0    0    0  501  0.00000000000E+00  0.00000000000E+00  0.80658860079E+03  0.80658860712E+03  0.10100000352E+00 0. -1.
        3   -1    0    0  501    0  0.00000000000E+00  0.00000000000E+00 -0.58323450202E+03  0.58323451077E+03  0.10100000352E+00 0.  1.
    10030    2    1    2    0    0  0.00000000000E+00  0.00000000000E+00  0.22335409877E+03  0.13898231179E+04  0.13717584502E+04 0.  0.
        2    1    3    3  502    0  0.16011111801E+03  0.65657881319E+03  0.23026112514E+03  0.71396883251E+03  0.25500000920E-02 0. -1.
       -2    1    3    3    0  502 -0.16011111801E+03 -0.65657881319E+03 -0.69070263672E+01  0.67585428537E+03  0.25500000920E-02 0.  1.
</event>
<event>
 5   0  0.8609148E-04  0.1405632E+04  0.7818609E-02  0.8949752E-01
        1   -1    0    0  501    0  0.00000000000E+00  0.00000000000E+00  0.92600943164E+03  0.92600943165E+03  0.50400001928E-02 0.  1.
       -1   -1    0    0    0  501  0.00000000000E+00  0.00000000000E+00 -0.53341829842E+03  0.53341829844E+03  0.50400001928E-02 0. -1.
    10030    2    1    2    0    0  0.00000000000E+00  0.00000000000E+00  0.39259113322E+03  0.14594277301E+04  0.14056320648E+04 0.  0.
        5    1    3    3  502    0  0.25534980484E+02 -0.67875727467E+03  0.38365916883E+03  0.78011532543E+03  0.46999998093E+01 0.  1.
       -5    1    3    3    0  502 -0.25534980484E+02  0.67875727467E+03  0.89319643883E+01  0.67931240467E+03  0.46999998093E+01 0. -1.
</event>
<event>
 5   0  0.1578965E-03  0.1403146E+04  0.7818609E-02  0.8951544E-01
        2   -1    0    0  501    0  0.00000000000E+00  0.00000000000E+00  0.71428458035E+03  0.71428458035E+03  0.25500000920E-02 0. -1.
       -2   -1    0    0    0  501  0.00000000000E+00  0.00000000000E+00 -0.68908794300E+03  0.68908794301E+03  0.25500000920E-02 0.  1.
    10030    2    1    2    0    0  0.00000000000E+00  0.00000000000E+00  0.25196637342E+02  0.14033725234E+04  0.14031463105E+04 0.  0.
        2    1    3    3  502    0  0.47448631609E+03 -0.29790797503E+03  0.43494411002E+03  0.70926920460E+03  0.25500000920E-02 0. -1.
       -2    1    3    3    0  502 -0.47448631609E+03  0.29790797503E+03 -0.40974747268E+03  0.69410331876E+03  0.25500000920E-02 0.  1.
</event>
<event>
 5   0  0.1578965E-03  0.1395336E+04  0.7818609E-02  0.8957201E-01
        2   -1    0    0  501    0  0.00000000000E+00  0.00000000000E+00  0.34386763236E+03  0.34386763237E+03  0.25500000920E-02 0.  1.
       -2   -1    0    0    0  501  0.00000000000E+00  0.00000000000E+00 -0.14154884998E+04  0.14154884998E+04  0.25500000920E-02 0. -1.
    10030    2    1    2    0    0  0.00000000000E+00  0.00000000000E+00 -0.10716208674E+04  0.17593561322E+04  0.13953360586E+04 0.  0.
        2    1    3    3  502    0  0.20052927553E+03  0.52162026268E+03 -0.91881727828E+01  0.55891333076E+03  0.25500000920E-02 0.  1.
       -2    1    3    3    0  502 -0.20052927553E+03 -0.52162026268E+03 -0.10624326947E+04  0.12004428014E+04  0.25500000920E-02 0. -1.
</event>
<event>
 5   0  0.8673728E-04  0.1219846E+04  0.7818609E-02  0.9095660E-01
       -1   -1    0    0    0  501  0.00000000000E+00  0.00000000000E+00  0.11990887790E+04  0.11990887790E+04  0.50400001928E-02 0.  1.
        1   -1    0    0  501    0  0.00000000000E+00  0.00000000000E+00 -0.31024080968E+03  0.31024080972E+03  0.50400001928E-02 0. -1.
    10030    2    1    2    0    0  0.00000000000E+00  0.00000000000E+00  0.88884796928E+03  0.15093295887E+04  0.12198463407E+04 0.  0.
        3    1    3    3  502    0 -0.54921747960E+03 -0.26087006722E+03  0.50393378854E+03  0.78971026668E+03  0.10100000352E+00 0. -1.
       -3    1    3    3    0  502  0.54921747960E+03  0.26087006722E+03  0.38491418074E+03  0.71961932201E+03  0.10100000352E+00 0.  1.
</event>
<event>
 5   0  0.1605214E-03  0.1458246E+04  0.7818609E-02  0.8912703E-01
        2   -1    0    0  501    0  0.00000000000E+00  0.00000000000E+00  0.18513471631E+04  0.18513471631E+04  0.25500000920E-02 0. -1.
       -2   -1    0    0    0  501  0.00000000000E+00  0.00000000000E+00 -0.28715334838E+03  0.28715334839E+03  0.25500000920E-02 0.  1.
    10030    2    1    2    0    0  0.00000000000E+00  0.00000000000E+00  0.15641938147E+04  0.21385005114E+04  0.14582462575E+04 0.  0.
        5    1    3    3  502    0  0.33819185021E+03  0.46980605047E+03  0.14321779393E+04  0.15447482618E+04  0.46999998093E+01 0. -1.
       -5    1    3    3    0  502 -0.33819185021E+03 -0.46980605047E+03  0.13201587542E+03  0.59375224966E+03  0.46999998093E+01 0.  1.
</event>
<event>
 5   0  0.8502300E-04  0.1352233E+04  0.7818609E-02  0.8989139E-01
        1   -1    0    0  501    0  0.00000000000E+00  0.00000000000E+00  0.13182416954E+04  0.13182416954E+04  0.50400001928E-02 0.  1.
       -1   -1    0    0    0  501  0.00000000000E+00  0.00000000000E+00 -0.34677544746E+03  0.34677544750E+03  0.50400001928E-02 0. -1.
    10030    2    1    2    0    0  0.00000000000E+00  0.00000000000E+00  0.97146624790E+03  0.16650171429E+04  0.13522334914E+04 0.  0.
        4    1    3    3  502    0 -0.54029235356E+02 -0.64785248134E+03  0.25702683279E+03  0.69906823810E+03  0.12699999809E+01 0. -1.
       -4    1    3    3    0  502  0.54029235356E+02  0.64785248134E+03  0.71443941512E+03  0.96594890477E+03  0.12699999809E+01 0.  1.
</event>
<event>
 5   0  0.1578965E-03  0.1099902E+04  0.7818609E-02  0.9205287E-01
        2   -1    0    0  501    0  0.00000000000E+00  0.00000000000E+00  0.94395765063E+03  0.94395765064E+03  0.25500000920E-02 0.  1.
       -2   -1    0    0    0  501  0.00000000000E+00  0.00000000000E+00 -0.32040221202E+03  0.32040221203E+03  0.25500000920E-02 0. -1.
    10030    2    1    2    0    0  0.00000000000E+00  0.00000000000E+00  0.62355543861E+03  0.12643598627E+04  0.10999020308E+04 0.  0.
        2    1    3    3  502    0  0.12441446895E+03  0.52358852656E+03  0.44194391397E+03  0.69637513477E+03  0.25500000920E-02 0.  1.
       -2    1    3    3    0  502 -0.12441446895E+03 -0.52358852656E+03  0.18161152464E+03  0.56798472789E+03  0.25500000920E-02 0. -1.
</event>
<event>
 5   0  0.8609148E-04  0.1412339E+04  0.7818609E-02  0.8944935E-01
       -1   -1    0    0    0  501  0.00000000000E+00  0.00000000000E+00  0.65296821755E+03  0.65296821757E+03  0.50400001928E-02 0.  1.
        1   -1    0    0  501    0  0.00000000000E+00  0.00000000000E+00 -0.76370544009E+03  0.76370544010E+03  0.50400001928E-02 0. -1.
    10030    2    1    2    0    0  0.00000000000E+00  0.00000000000E+00 -0.11073722254E+03  0.14166736577E+04  0.14123390244E+04 0.  0.
        5    1    3    3  502    0 -0.55041136663E+03  0.43405576925E+03 -0.14104860415E+03  0.71503418245E+03  0.46999998093E+01 0.  1.
       -5    1    3    3    0  502  0.55041136663E+03 -0.43405576925E+03  0.30311381608E+02  0.70163947522E+03  0.46999998093E+01 0. -1.
</event>
<event>
 5   0  0.6048000E-04  0.1419972E+04  0.7818609E-02  0.8939488E-01
       -3   -1    0    0    0  501  0.00000000000E+00  0.00000000000E+00  0.66429547814E+03  0.66429548582E+03  0.10100000352E+00 0. -1.
        3   -1    0    0  501    0  0.00000000000E+00  0.00000000000E+00 -0.75881861825E+03  0.75881862497E+03  0.10100000352E+00 0.  1.
    10030    2    1    2    0    0  0.00000000000E+00  0.00000000000E+00 -0.94523140108E+02  0.14231141108E+04  0.14199715308E+04 0.  0.
        2    1    3    3  502    0  0.94635009534E+02 -0.45063197312E+02 -0.75102167372E+03  0.75830075246E+03  0.25500000920E-02 0.  1.
       -2    1    3    3    0  502 -0.94635009534E+02  0.45063197312E+02  0.65649853361E+03  0.66481335833E+03  0.25500000920E-02 0. -1.
</event>
<event>
 5   0  0.9007180E-04  0.1409433E+04  0.7818609E-02  0.8947019E-01
       -1   -1    0    0    0  501  0.00000000000E+00  0.00000000000E+00  0.61581088213E+03  0.61581088215E+03  0.50400001928E-02 0. -1.
        1   -1    0    0  501    0  0.00000000000E+00  0.00000000000E+00 -0.80645749622E+03  0.80645749623E+03  0.50400001928E-02 0.  1.
    10030    2    1    2    0    0  0.00000000000E+00  0.00000000000E+00 -0.19064661409E+03  0.14222683784E+04  0.14094329387E+04 0.  0.
        2    1    3    3  502    0  0.22347623256E+03  0.52533301390E+03 -0.51225529812E+03  0.76702144198E+03  0.25500000920E-02 0.  1.
       -2    1    3    3    0  502 -0.22347623256E+03 -0.52533301390E+03  0.32160868403E+03  0.65524693640E+03  0.25500000920E-02 0. -1.
</event>
<event>
 5   0  0.8609148E-04  0.1423254E+04  0.7818609E-02  0.8937156E-01
       -1   -1    0    0    0  501  0.00000000000E+00  0.00000000000E+00  0.55516916094E+03  0.55516916097E+03  0.50400001928E-02 0. -1.
        1   -1    0    0  501    0  0.00000000000E+00  0.00000000000E+00 -0.91217810411E+03  0.91217810412E+03  0.50400001928E-02 0.  1.
    10030    2    1    2    0    0  0.00000000000E+00  0.00000000000E+00 -0.35700894316E+03  0.14673472651E+04  0.14232542327E+04 0.  0.
        5    1    3    3  502    0  0.23979246465E+03 -0.44734935262E+03 -0.69272418481E+03  0.85878446400E+03  0.46999998093E+01 0.  1.
       -5    1    3    3    0  502 -0.23979246465E+03  0.44734935262E+03  0.33571524165E+03  0.60856280109E+03  0.46999998093E+01 0. -1.
</event>
<event>
 5   0  0.1578965E-03  0.1451444E+04  0.7818609E-02  0.8917400E-01
       -2   -1    0    0    0  501  0.00000000000E+00  0.00000000000E+00  0.43477113505E+03  0.43477113506E+03  0.25500000920E-02 0.  1.
        2   -1    0    0  501    0  0.00000000000E+00  0.00000000000E+00 -0.12113790986E+04  0.12113790986E+04  0.25500000920E-02 0. -1.
    10030    2    1    2    0    0  0.00000000000E+00  0.00000000000E+00 -0.77660796353E+03  0.16461502336E+04  0.14514443368E+04 0.  0.
        2    1    3    3  502    0 -0.11934351440E+03  0.35741809453E+03 -0.10917326600E+04  0.11549332317E+04  0.25500000920E-02 0. -1.
       -2    1    3    3    0  502  0.11934351440E+03 -0.35741809453E+03  0.31512469644E+03  0.49121700199E+03  0.25500000920E-02 0.  1.
</event>
<event>
 5   0  0.1578965E-03  0.1386964E+04  0.7818609E-02  0.8963309E-01
        2   -1    0    0  501    0  0.00000000000E+00  0.00000000000E+00  0.84599833705E+03  0.84599833705E+03  0.25500000920E-02 0.  1.
       -2   -1    0    0    0  501  0.00000000000E+00  0.00000000000E+00 -0.56846126513E+03  0.56846126514E+03  0.25500000920E-02 0. -1.
    10030    2    1    2    0    0  0.00000000000E+00  0.00000000000E+00  0.27753707191E+03  0.14144596022E+04  0.13869640010E+04 0.  0.
        2    1    3    3  502    0  0.38428290312E+03  0.30354021249E+03 -0.36199248522E+03  0.60897337346E+03  0.25500000920E-02 0. -1.
       -2    1    3    3    0  502 -0.38428290312E+03 -0.30354021249E+03  0.63952955713E+03  0.80548622873E+03  0.25500000920E-02 0.  1.
</event>
<event>
 5   0  0.8502300E-04  0.1547131E+04  0.7818609E-02  0.8853703E-01
        1   -1    0    0  501    0  0.00000000000E+00  0.00000000000E+00  0.12355028863E+04  0.12355028863E+04  0.50400001928E-02 0. -1.
       -1   -1    0    0    0  501  0.00000000000E+00  0.00000000000E+00 -0.48433980504E+03  0.48433980507E+03  0.50400001928E-02 0.  1.
    10030    2    1    2    0    0  0.00000000000E+00  0.00000000000E+00  0.75116308121E+03  0.17198426913E+04  0.15471305402E+04 0.  0.
        4    1    3    3  502    0  0.40937263083E+03 -0.18205357567E+03  0.10765917767E+04  0.11660964462E+04  0.12699999809E+01 0. -1.
       -4    1    3    3    0  502 -0.40937263083E+03  0.18205357567E+03 -0.32542869547E+03  0.55374624515E+03  0.12699999809E+01 0.  1.
</event>
<event>
 5   0  0.1648213E-03  0.1392063E+04  0.7818609E-02  0.8959584E-01
       -2   -1    0    0    0  501  0.00000000000E+00  0.00000000000E+00  0.35313894949E+03  0.35313894950E+03  0.25500000920E-02 0. -1.
        2   -1    0    0  501    0  0.00000000000E+00  0.00000000000E+00 -0.13718668200E+04  0.13718668200E+04  0.25500000920E-02 0.  1.
    10030    2    1    2    0    0  0.00000000000E+00  0.00000000000E+00 -0.10187278705E+04  0.17250057695E+04  0.13920626533E+04 0.  0.
        4    1    3    3  502    0 -0.68467739086E+02 -0.58381758955E+03 -0.47487943097E+02  0.58973513275E+03  0.12699999809E+01 0. -1.
       -4    1    3    3    0  502  0.68467739086E+02  0.58381758955E+03 -0.97123992738E+03  0.11352706367E+04  0.12699999809E+01 0.  1.
</event>
<event>
 5   0  0.6048000E-04  0.1377652E+04  0.7818609E-02  0.8970156E-01
        3   -1    0    0  501    0  0.00000000000E+00  0.00000000000E+00  0.66850271181E+03  0.66850271944E+03  0.10100000352E+00 0. -1.
       -3   -1    0    0    0  501  0.00000000000E+00  0.00000000000E+00 -0.70976678573E+03  0.70976679292E+03  0.10100000352E+00 0.  1.
    10030    2    1    2    0    0  0.00000000000E+00  0.00000000000E+00 -0.41264073920E+02  0.13782695124E+04  0.13776516704E+04 0.  0.
        1    1    3    3  502    0  0.26269818207E+03 -0.63203032625E+03 -0.98180431201E+02  0.69145648110E+03  0.50400001928E-02 0. -1.
       -1    1    3    3    0  502 -0.26269818207E+03  0.63203032625E+03  0.56916357282E+02  0.68681303126E+03  0.50400001928E-02 0.  1.
</event>
<event>
 5   0  0.6048000E-04  0.1394957E+04  0.7818609E-02  0.8957477E-01
        3   -1    0    0  501    0  0.00000000000E+00  0.00000000000E+00  0.10481740631E+04  0.10481740679E+04  0.10100000352E+00 0.  1.
       -3   -1    0    0    0  501  0.00000000000E+00  0.00000000000E+00 -0.46411782692E+03  0.46411783790E+03  0.10100000352E+00 0. -1.
    10030    2    1    2    0    0  0.00000000000E+00  0.00000000000E+00  0.58405623614E+03  0.15122919058E+04  0.13949570321E+04 0.  0.
        2    1    3    3  502    0 -0.37006148624E+03  0.33772104502E+03  0.81810286053E+03  0.95931918477E+03  0.25500000920E-02 0.  1.
       -2    1    3    3    0  502  0.37006148624E+03 -0.33772104502E+03 -0.23404662439E+03  0.55297272106E+03  0.25500000920E-02 0. -1.
</event>
<event>
 5   0  0.8673728E-04  0.1413778E+04  0.7818609E-02  0.8943905E-01
        1   -1    0    0  501    0  0.00000000000E+00  0.00000000000E+00  0.31615496798E+03  0.31615496802E+03  0.50400001928E-02 0.  1.
       -1   -1    0    0    0  501  0.00000000000E+00  0.00000000000E+00 -0.15805282996E+04  0.15805282996E+04  0.50400001928E-02 0. -1.
    10030    2    1    2    0    0  0.00000000000E+00  0.00000000000E+00 -0.12643733316E+04  0.18966832677E+04  0.14137777393E+04 0.  0.
        3    1    3    3  502    0 -0.15670644929E+03 -0.37411041055E+03 -0.14088813978E+04  0.14661044689E+04  0.10100000352E+00 0. -1.
       -3    1    3    3    0  502  0.15670644929E+03  0.37411041055E+03  0.14450806616E+03  0.43057879874E+03  0.10100000352E+00 0.  1.
</event>
<event>
 5   0  0.1578965E-03  0.1389503E+04  0.7818609E-02  0.8961452E-01
        2   -1    0    0  501    0  0.00000000000E+00  0.00000000000E+00  0.21199547072E+04  0.21199547072E+04  0.25500000920E-02 0.  1.
       -2   -1    0    0    0  501  0.00000000000E+00  0.00000000000E+00 -0.22768384984E+03  0.22768384986E+03  0.25500000920E-02 0. -1.
    10030    2    1    2    0    0  0.00000000000E+00  0.00000000000E+00  0.18922708573E+04  0.23476385570E+04  0.13895027157E+04 0.  0.
        2    1    3    3  502    0  0.53323941583E+03  0.42894475397E+03  0.11484700601E+04  0.13369073848E+04  0.25500000920E-02 0.  1.
       -2    1    3    3    0  502 -0.53323941583E+03 -0.42894475397E+03  0.74380079719E+03  0.10107311722E+04  0.25500000920E-02 0. -1.
</event>
<event>
 5   0  0.9639548E-04  0.1404893E+04  0.7818609E-02  0.8950284E-01
        1   -1    0    0  501    0  0.00000000000E+00  0.00000000000E+00  0.60627658640E+03  0.60627658642E+03  0.50400001928E-02 0.  1.
       -1   -1    0    0    0  501  0.00000000000E+00  0.00000000000E+00 -0.81387119744E+03  0.81387119745E+03  0.50400001928E-02 0. -1.
    10030    2    1    2    0    0  0.00000000000E+00  0.00000000000E+00 -0.20759461104E+03  0.14201477839E+04  0.14048929516E+04 0.  0.
        1    1    3    3  502    0  0.31028040411E+03  0.48311182055E+03 -0.51286420805E+03  0.76987054513E+03  0.50400001928E-02 0. -1.
       -1    1    3    3    0  502 -0.31028040411E+03 -0.48311182055E+03  0.30526959701E+03  0.65027723874E+03  0.50400001928E-02 0.  1.
</event>
<event>
 5   0  0.1578965E-03  0.1392615E+04  0.7818609E-02  0.8959182E-01
        2   -1    0    0  501    0  0.00000000000E+00  0.00000000000E+00  0.17215079946E+04  0.17215079946E+04  0.25500000920E-02 0.  1.
       -2   -1    0    0    0  501  0.00000000000E+00  0.00000000000E+00 -0.28163910747E+03  0.28163910748E+03  0.25500000920E-02 0. -1.
    10030    2    1    2    0    0  0.00000000000E+00  0.00000000000E+00  0.14398688871E+04  0.20031471021E+04  0.13926147710E+04 0.  0.
        2    1    3    3  502    0 -0.43878558583E+03 -0.81250858303E+02  0.14887889661E+04  0.15542287727E+04  0.25500000920E-02 0.  1.
       -2    1    3    3    0  502  0.43878558583E+03  0.81250858303E+02 -0.48920078979E+02  0.44891832936E+03  0.25500000920E-02 0. -1.
</event>
<event>
 5   0  0.1578965E-03  0.1333803E+04  0.7818609E-02  0.9003181E-01
       -2   -1    0    0    0  501  0.00000000000E+00  0.00000000000E+00  0.76472469673E+03  0.76472469674E+03  0.25500000920E-02 0.  1.
        2   -1    0    0  501    0  0.00000000000E+00  0.00000000000E+00 -0.58159156829E+03  0.58159156829E+03  0.25500000920E-02 0. -1.
    10030    2    1    2    0    0  0.00000000000E+00  0.00000000000E+00  0.18313312844E+03  0.13463162650E+04  0.13338027376E+04 0.  0.
        2    1    3    3  502    0 -0.42187686216E+03 -0.12639324011E+03  0.59706646007E+03  0.74191892800E+03  0.25500000920E-02 0.  1.
       -2    1    3    3    0  502  0.42187686216E+03  0.12639324011E+03 -0.41393333163E+03  0.60439733703E+03  0.25500000920E-02 0. -1.
</event>
<event>
 5   0  0.8673728E-04  0.1402895E+04  0.7818609E-02  0.8951725E-01
       -1   -1    0    0    0  501  0.00000000000E+00  0.00000000000E+00  0.22599367987E+03  0.22599367993E+03  0.50400001928E-02 0.  1.
        1   -1    0    0  501    0  0.00000000000E+00  0.00000000000E+00 -0.21771799334E+04  0.21771799334E+04  0.50400001928E-02 0. -1.
    10030    2    1    2    0    0  0.00000000000E+00  0.00000000000E+00 -0.19511862535E+04  0.24031736133E+04  0.14028954415E+04 0.  0.
        3    1    3    3  502    0  0.61058948978E+03 -0.58881848726E+02 -0.15583748086E+04  0.16747592817E+04  0.10100000352E+00 0. -1.
       -3    1    3    3    0  502 -0.61058948978E+03  0.58881848726E+02 -0.39281144489E+03  0.72841433166E+03  0.10100000352E+00 0.  1.
</event>
<event>
 5   0  0.9639548E-04  0.1386405E+04  0.7818609E-02  0.8963718E-01
       -1   -1    0    0    0  501  0.00000000000E+00  0.00000000000E+00  0.98036283926E+03  0.98036283927E+03  0.50400001928E-02 0. -1.
        1   -1    0    0  501    0  0.00000000000E+00  0.00000000000E+00 -0.49015529904E+03  0.49015529907E+03  0.50400001928E-02 0.  1.
    10030    2    1    2    0    0  0.00000000000E+00  0.00000000000E+00  0.49020754022E+03  0.14705181383E+04  0.13864054828E+04 0.  0.
        1    1    3    3  502    0  0.49054597422E+03 -0.16038224043E+03 -0.24576080689E+03  0.57162591797E+03  0.50400001928E-02 0. -1.
       -1    1    3    3    0  502 -0.49054597422E+03  0.16038224043E+03  0.73596834711E+03  0.89889222037E+03  0.50400001928E-02 0.  1.
</event>
<event>
 5   0  0.8673728E-04  0.1008692E+04  0.7818609E-02  0.9299063E-01
        1   -1    0    0  501    0  0.00000000000E+00  0.00000000000E+00  0.10851445882E+04  0.10851445882E+04  0.50400001928E-02 0. -1.
       -1   -1    0    0    0  501  0.00000000000E+00  0.00000000000E+00 -0.23440642535E+03  0.23440642541E+03  0.50400001928E-02 0.  1.
    10030    2    1    2    0    0  0.00000000000E+00  0.00000000000E+00  0.85073816284E+03  0.13195510136E+04  0.10086919529E+04 0.  0.
        3    1    3    3  502    0  0.32474934157E+03 -0.29247060388E+03  0.75466608000E+03  0.87207917730E+03  0.10100000352E+00 0. -1.
       -3    1    3    3    0  502 -0.32474934157E+03  0.29247060388E+03  0.96072082843E+02  0.44747183631E+03  0.10100000352E+00 0.  1.
</event>
<event>
 5   0  0.6048000E-04  0.1411389E+04  0.7818609E-02  0.8945616E-01
        3   -1    0    0  501    0  0.00000000000E+00  0.00000000000E+00  0.41989833644E+03  0.41989834859E+03  0.10100000352E+00 0.  1.
       -3   -1    0    0    0  501  0.00000000000E+00  0.00000000000E+00 -0.11860125474E+04  0.11860125517E+04  0.10100000352E+00 0. -1.
    10030    2    1    2    0    0  0.00000000000E+00  0.00000000000E+00 -0.76611421095E+03  0.16059109003E+04  0.14113889738E+04 0.  0.
        1    1    3    3  502    0 -0.35662089493E+03  0.59751334503E+03 -0.24937355657E+03  0.73918051308E+03  0.50400001928E-02 0. -1.
       -1    1    3    3    0  502  0.35662089493E+03 -0.59751334503E+03 -0.51674065438E+03  0.86673038720E+03  0.50400001928E-02 0.  1.
</event>
<event>
 5   0  0.8502300E-04  0.1239524E+04  0.7818609E-02  0.9078948E-01
       -1   -1    0    0    0  501  0.00000000000E+00  0.00000000000E+00  0.13688800309E+04  0.13688800309E+04  0.50400001928E-02 0. -1.
        1   -1    0    0  501    0  0.00000000000E+00  0.00000000000E+00 -0.28059802818E+03  0.28059802822E+03  0.50400001928E-02 0.  1.
    10030    2    1    2    0    0  0.00000000000E+00  0.00000000000E+00  0.10882820027E+04  0.16494780591E+04  0.12395241628E+04 0.  0.
        4    1    3    3  502    0 -0.30532886793E+03 -0.32846371990E+03 -0.25110761251E+02  0.44916177054E+03  0.12699999809E+01 0.  1.
       -4    1    3    3    0  502  0.30532886793E+03  0.32846371990E+03  0.11133927640E+04  0.12003162886E+04  0.12699999809E+01 0. -1.
</event>
<event>
 5   0  0.8502300E-04  0.1402106E+04  0.7818609E-02  0.8952295E-01
       -1   -1    0    0    0  501  0.00000000000E+00  0.00000000000E+00  0.13950759083E+04  0.13950759083E+04  0.50400001928E-02 0. -1.
        1   -1    0    0  501    0  0.00000000000E+00  0.00000000000E+00 -0.35229299529E+03  0.35229299533E+03  0.50400001928E-02 0.  1.
    10030    2    1    2    0    0  0.00000000000E+00  0.00000000000E+00  0.10427829130E+04  0.17473689036E+04  0.14021062305E+04 0.  0.
        4    1    3    3  502    0  0.17496630716E+03 -0.62461912731E+03  0.18999413092E+03  0.67591541300E+03  0.12699999809E+01 0. -1.
       -4    1    3    3    0  502 -0.17496630716E+03  0.62461912731E+03  0.85278878208E+03  0.10714534906E+04  0.12699999809E+01 0.  1.
</event>
<event>
 5   0  0.1648463E-03  0.1405082E+04  0.7818609E-02  0.8950148E-01
       -2   -1    0    0    0  501  0.00000000000E+00  0.00000000000E+00  0.27323694502E+03  0.27323694504E+03  0.25500000920E-02 0. -1.
        2   -1    0    0  501    0  0.00000000000E+00  0.00000000000E+00 -0.18063591387E+04  0.18063591387E+04  0.25500000920E-02 0.  1.
    10030    2    1    2    0    0  0.00000000000E+00  0.00000000000E+00 -0.15331221937E+04  0.20795960837E+04  0.14050822790E+04 0.  0.
        1    1    3    3  502    0 -0.23650111819E+03 -0.43351295985E+03 -0.15061401145E+04  0.15850313277E+04  0.50400001928E-02 0.  1.
       -1    1    3    3    0  502  0.23650111819E+03  0.43351295985E+03 -0.26982079148E+02  0.49456475601E+03  0.50400001928E-02 0. -1.
</event>
<event>
 5   0  0.1706986E-03  0.1396578E+04  0.7818609E-02  0.8956300E-01
        2   -1    0    0  501    0  0.00000000000E+00  0.00000000000E+00  0.75312601067E+03  0.75312601067E+03  0.25500000920E-02 0. -1.
       -2   -1    0    0    0  501  0.00000000000E+00  0.00000000000E+00 -0.64744438406E+03  0.64744438407E+03  0.25500000920E-02 0.  1.
    10030    2    1    2    0    0  0.00000000000E+00  0.00000000000E+00  0.10568162661E+03  0.14005703947E+04  0.13965775397E+04 0.  0.
        3    1    3    3  502    0  0.23313979967E+02 -0.97298919942E+02 -0.64021863781E+03  0.64798961094E+03  0.10100000352E+00 0.  1.
       -3    1    3    3    0  502 -0.23313979967E+02  0.97298919942E+02  0.74590026442E+03  0.75258078380E+03  0.10100000352E+00 0. -1.
</event>
<event>
 5   0  0.6048000E-04  0.1406232E+04  0.7818609E-02  0.8949320E-01
        3   -1    0    0  501    0  0.00000000000E+00  0.00000000000E+00  0.13433126883E+04  0.13433126921E+04  0.10100000352E+00 0.  1.
       -3   -1    0    0    0  501  0.00000000000E+00  0.00000000000E+00 -0.36802475532E+03  0.36802476918E+03  0.10100000352E+00 0. -1.
    10030    2    1    2    0    0  0.00000000000E+00  0.00000000000E+00  0.97528793295E+03  0.17113374613E+04  0.14062323258E+04 0.  0.
        2    1    3    3  502    0  0.29016268520E+02  0.21691068176E+03  0.13008108026E+04  0.13190909490E+04  0.25500000920E-02 0.  1.
       -2    1    3    3    0  502 -0.29016268520E+02 -0.21691068176E+03 -0.32552286962E+03  0.39224651223E+03  0.25500000920E-02 0. -1.
</event>
<event>
 5   0  0.1578965E-03  0.1392979E+04  0.7818609E-02  0.8958916E-01
       -2   -1    0    0    0  501  0.00000000000E+00  0.00000000000E+00  0.63997375770E+03  0.63997375770E+03  0.25500000920E-02 0. -1.
        2   -1    0    0  501    0  0.00000000000E+00  0.00000000000E+00 -0.75799636206E+03  0.75799636206E+03  0.25500000920E-02 0.  1.
    10030    2    1    2    0    0  0.00000000000E+00  0.00000000000E+00 -0.11802260436E+03  0.13979701198E+04  0.13929792248E+04 0.  0.
        2    1    3    3  502    0  0.60485855082E+03  0.34461969593E+03 -0.81025684401E+02  0.70084360799E+03  0.25500000920E-02 0. -1.
       -2    1    3    3    0  502 -0.60485855082E+03 -0.34461969593E+03 -0.36996919963E+02  0.69712651177E+03  0.25500000920E-02 0.  1.
</event>
<event>
 5   0  0.1648213E-03  0.1395069E+04  0.7818609E-02  0.8957396E-01
        2   -1    0    0  501    0  0.00000000000E+00  0.00000000000E+00  0.67501063525E+03  0.67501063526E+03  0.25500000920E-02 0. -1.
       -2   -1    0    0    0  501  0.00000000000E+00  0.00000000000E+00 -0.72080990905E+03  0.72080990906E+03  0.25500000920E-02 0.  1.
    10030    2    1    2    0    0  0.00000000000E+00  0.00000000000E+00 -0.45799273797E+02  0.13958205443E+04  0.13950689655E+04 0.  0.
        4    1    3    3  502    0 -0.53616764449E+03 -0.44530034452E+03  0.51261994684E+01  0.69699069624E+03  0.12699999809E+01 0.  1.
       -4    1    3    3    0  502  0.53616764449E+03  0.44530034452E+03 -0.50925473265E+02  0.69882984807E+03  0.12699999809E+01 0. -1.
</event>
<event>
 5   0  0.8502300E-04  0.1414951E+04  0.7818609E-02  0.8943067E-01
       -1   -1    0    0    0  501  0.00000000000E+00  0.00000000000E+00  0.67097765919E+03  0.67097765921E+03  0.50400001928E-02 0.  1.
        1   -1    0    0  501    0  0.00000000000E+00  0.00000000000E+00 -0.74595863426E+03  0.74595863427E+03  0.50400001928E-02 0. -1.
    10030    2    1    2    0    0  0.00000000000E+00  0.00000000000E+00 -0.74980975062E+02  0.14169362935E+04  0.14149509932E+04 0.  0.
        4    1    3    3  502    0 -0.28646451939E+03  0.37238385599E+01 -0.68527071959E+03  0.74274717089E+03  0.12699999809E+01 0. -1.
       -4    1    3    3    0  502  0.28646451939E+03 -0.37238385599E+01  0.61028974453E+03  0.67418912259E+03  0.12699999809E+01 0.  1.
</event>
<event>
 5   0  0.1605214E-03  0.1253971E+04  0.7818609E-02  0.9066884E-01
        2   -1    0    0  501    0  0.00000000000E+00  0.00000000000E+00  0.10489348318E+04  0.10489348318E+04  0.25500000920E-02 0. -1.
       -2   -1    0    0    0  501  0.00000000000E+00  0.00000000000E+00 -0.37477158137E+03  0.37477158138E+03  0.25500000920E-02 0.  1.
    10030    2    1    2    0    0  0.00000000000E+00  0.00000000000E+00  0.67416325043E+03  0.14237064132E+04  0.12539712368E+04 0.  0.
        5    1    3    3  502    0 -0.29221665465E+03 -0.32068566694E+03 -0.17679681406E+03  0.46851795450E+03  0.46999998093E+01 0.  1.
       -5    1    3    3    0  502  0.29221665465E+03  0.32068566694E+03  0.85096006449E+03  0.95518845867E+03  0.46999998093E+01 0. -1.
</event>
<event>
 5   0  0.1706986E-03  0.1388313E+04  0.7818609E-02  0.8962322E-01
        2   -1    0    0  501    0  0.00000000000E+00  0.00000000000E+00  0.94827131159E+03  0.94827131159E+03  0.25500000920E-02 0.  1.
       -2   -1    0    0    0  501  0.00000000000E+00  0.00000000000E+00 -0.50813849511E+03  0.50813849512E+03  0.25500000920E-02 0. -1.
    10030    2    1    2    0    0  0.00000000000E+00  0.00000000000E+00  0.44013281648E+03  0.14564098067E+04  0.13883128714E+04 0.  0.
        3    1    3    3  502    0  0.57053527074E+03  0.33276625889E+03  0.44410498207E+03  0.79591024841E+03  0.10100000352E+00 0.  1.
       -3    1    3    3    0  502 -0.57053527074E+03 -0.33276625889E+03 -0.39721655965E+01  0.66049955830E+03  0.10100000352E+00 0. -1.
</event>
<event>
 5   0  0.8502300E-04  0.1410124E+04  0.7818609E-02  0.8946523E-01
       -1   -1    0    0    0  501  0.00000000000E+00  0.00000000000E+00  0.77546230067E+03  0.77546230069E+03  0.50400001928E-02 0.  1.
        1   -1    0    0  501    0  0.00000000000E+00  0.00000000000E+00 -0.64105267269E+03  0.64105267271E+03  0.50400001928E-02 0. -1.
    10030    2    1    2    0    0  0.00000000000E+00  0.00000000000E+00  0.13440962798E+03  0.14165149734E+04  0.14101236548E+04 0.  0.
        4    1    3    3  502    0  0.66037752604E+03  0.21638390072E+03 -0.52457300115E+02  0.69690304249E+03  0.12699999809E+01 0. -1.
       -4    1    3    3    0  502 -0.66037752604E+03 -0.21638390072E+03  0.18686692810E+03  0.71961193091E+03  0.12699999809E+01 0.  1.
</event>
<event>
 5   0  0.8673728E-04  0.1362142E+04  0.7818609E-02  0.8981687E-01
        1   -1    0    0  501    0  0.00000000000E+00  0.00000000000E+00  0.57138355717E+03  0.57138355719E+03  0.50400001928E-02 0.  1.
       -1   -1    0    0    0  501  0.00000000000E+00  0.00000000000E+00 -0.81181533573E+03  0.81181533574E+03  0.50400001928E-02 0. -1.
    10030    2    1    2    0    0  0.00000000000E+00  0.00000000000E+00 -0.24043177855E+03  0.13831988929E+04  0.13621423337E+04 0.  0.
        3    1    3    3  502    0 -0.24571877214E+03 -0.30755430647E+03 -0.68458658910E+03  0.78970005356E+03  0.10100000352E+00 0. -1.
       -3    1    3    3    0  502  0.24571877214E+03  0.30755430647E+03  0.44415481055E+03  0.59349883938E+03  0.10100000352E+00 0.  1.
</event>
<event>
 5   0  0.1648213E-03  0.1413996E+04  0.7818609E-02  0.8943749E-01
        2   -1    0    0  501    0  0.00000000000E+00  0.00000000000E+00  0.75934927301E+03  0.75934927302E+03  0.25500000920E-02 0. -1.
       -2   -1    0    0    0  501  0.00000000000E+00  0.00000000000E+00 -0.65825601415E+03  0.65825601415E+03  0.25500000920E-02 0.  1.
    10030    2    1    2    0    0  0.00000000000E+00  0.00000000000E+00  0.10109325886E+03  0.14176052872E+04  0.14139960761E+04 0.  0.
        4    1    3    3  502    0 -0.30785826430E+03  0.59148136578E+03 -0.18503762502E+03  0.69200249460E+03  0.12699999809E+01 0.  1.
       -4    1    3    3    0  502  0.30785826430E+03 -0.59148136578E+03  0.28613088389E+03  0.72560279256E+03  0.12699999809E+01 0. -1.
</event>
<event>
 5   0  0.1706986E-03  0.1407835E+04  0.7818609E-02  0.8948167E-01
        2   -1    0    0  501    0  0.00000000000E+00  0.00000000000E+00  0.18529392822E+04  0.18529392822E+04  0.25500000920E-02 0. -1.
       -2   -1    0    0    0  501  0.00000000000E+00  0.00000000000E+00 -0.26741291402E+03  0.26741291403E+03  0.25500000920E-02 0.  1.
    10030    2    1    2    0    0  0.00000000000E+00  0.00000000000E+00  0.15855263682E+04  0.21203521963E+04  0.14078350656E+04 0.  0.
        3    1    3    3  502    0  0.49953764306E+03  0.41428650838E+03  0.12033779270E+04  0.13672196653E+04  0.10100000352E+00 0. -1.
       -3    1    3    3    0  502 -0.49953764306E+03 -0.41428650838E+03  0.38214844125E+03  0.75313253098E+03  0.10100000352E+00 0.  1.
</event>
<event>
 5   0  0.1578965E-03  0.1406492E+04  0.7818609E-02  0.8949133E-01
        2   -1    0    0  501    0  0.00000000000E+00  0.00000000000E+00  0.18229690407E+04  0.18229690407E+04  0.25500000920E-02 0.  1.
       -2   -1    0    0    0  501  0.00000000000E+00  0.00000000000E+00 -0.27129078589E+03  0.27129078590E+03  0.25500000920E-02 0. -1.
    10030    2    1    2    0    0  0.00000000000E+00  0.00000000000E+00  0.15516782549E+04  0.20942598267E+04  0.14064916690E+04 0.  0.
        2    1    3    3  502    0 -0.64997470273E+03  0.25511284664E+03  0.90046213938E+03  0.11394655515E+04  0.25500000920E-02 0.  1.
       -2    1    3    3    0  502  0.64997470273E+03 -0.25511284664E+03  0.65121611548E+03  0.95479427510E+03  0.25500000920E-02 0. -1.
</event>
<event>
 5   0  0.1578965E-03  0.1374898E+04  0.7818609E-02  0.8972192E-01
        2   -1    0    0  501    0  0.00000000000E+00  0.00000000000E+00  0.78754597013E+03  0.78754597013E+03  0.25500000920E-02 0.  1.
       -2   -1    0    0    0  501  0.00000000000E+00  0.00000000000E+00 -0.60007405187E+03  0.60007405187E+03  0.25500000920E-02 0. -1.
    10030    2    1    2    0    0  0.00000000000E+00  0.00000000000E+00  0.18747191826E+03  0.13876200220E+04  0.13748976709E+04 0.  0.
        2    1    3    3  502    0 -0.63485855710E+03  0.24192232343E+03 -0.12183255685E+02  0.67949998515E+03  0.25500000920E-02 0. -1.
       -2    1    3    3    0  502  0.63485855710E+03 -0.24192232343E+03  0.19965517395E+03  0.70812003685E+03  0.25500000920E-02 0.  1.
</event>
<event>
 5   0  0.1648213E-03  0.1404681E+04  0.7818609E-02  0.8950438E-01
        2   -1    0    0  501    0  0.00000000000E+00  0.00000000000E+00  0.10083189563E+04  0.10083189563E+04  0.25500000920E-02 0. -1.
       -2   -1    0    0    0  501  0.00000000000E+00  0.00000000000E+00 -0.48921210267E+03  0.48921210267E+03  0.25500000920E-02 0.  1.
    10030    2    1    2    0    0  0.00000000000E+00  0.00000000000E+00  0.51910685365E+03  0.14975310590E+04  0.14046805143E+04 0.  0.
        4    1    3    3  502    0  0.58141656407E+03  0.39354216645E+03  0.27976907505E+03  0.75577311808E+03  0.12699999809E+01 0.  1.
       -4    1    3    3    0  502 -0.58141656407E+03 -0.39354216645E+03  0.23933777860E+03  0.74175794092E+03  0.12699999809E+01 0. -1.
</event>
<event>
 5   0  0.1605214E-03  0.1363979E+04  0.7818609E-02  0.8980313E-01
        2   -1    0    0  501    0  0.00000000000E+00  0.00000000000E+00  0.76486622446E+03  0.76486622446E+03  0.25500000920E-02 0. -1.
       -2   -1    0    0    0  501  0.00000000000E+00  0.00000000000E+00 -0.60809256740E+03  0.60809256740E+03  0.25500000920E-02 0.  1.
    10030    2    1    2    0    0  0.00000000000E+00  0.00000000000E+00  0.15677365706E+03  0.13729587919E+04  0.13639786892E+04 0.  0.
        5    1    3    3  502    0  0.31377696228E+03  0.50102052520E+03  0.42063985246E+03  0.72556014513E+03  0.46999998093E+01 0. -1.
       -5    1    3    3    0  502 -0.31377696228E+03 -0.50102052520E+03 -0.26386619539E+03  0.64739864674E+03  0.46999998093E+01 0.  1.
</event>
<event>
 5   0  0.1605214E-03  0.1067108E+04  0.7818609E-02  0.9237857E-01
       -2   -1    0    0    0  501  0.00000000000E+00  0.00000000000E+00  0.27027109058E+03  0.27027109059E+03  0.25500000920E-02 0.  1.
        2   -1    0    0  501    0  0.00000000000E+00  0.00000000000E+00 -0.10533130600E+04  0.10533130600E+04  0.25500000920E-02 0. -1.
    10030    2    1    2    0    0  0.00000000000E+00  0.00000000000E+00 -0.78304196940E+03  0.13235841506E+04  0.10671083721E+04 0.  0.
        5    1    3    3  502    0  0.21630996485E+03 -0.84869531194E+02 -0.98722978325E+03  0.10142177149E+04  0.46999998093E+01 0. -1.
       -5    1    3    3    0  502 -0.21630996485E+03  0.84869531194E+02  0.20418781385E+03  0.30936643570E+03  0.46999998093E+01 0.  1.
</event>
<event>
 5   0  0.1706986E-03  0.1406517E+04  0.7818609E-02  0.8949115E-01
       -2   -1    0    0    0  501  0.00000000000E+00  0.00000000000E+00  0.80032849566E+03  0.80032849566E+03  0.25500000920E-02 0. -1.
        2   -1    0    0  501    0  0.00000000000E+00  0.00000000000E+00 -0.61796147264E+03  0.61796147265E+03  0.25500000920E-02 0.  1.
    10030    2    1    2    0    0  0.00000000000E+00  0.00000000000E+00  0.18236702301E+03  0.14182899683E+04  0.14065165136E+04 0.  0.
        3    1    3    3  502    0 -0.59347316974E+03 -0.24373996687E+02 -0.28848868731E+03  0.66032584973E+03  0.10100000352E+00 0.  1.
       -3    1    3    3    0  502  0.59347316974E+03  0.24373996687E+02  0.47085571032E+03  0.75796411858E+03  0.10100000352E+00 0. -1.
</event>
<event>
 5   0  0.9639548E-04  0.1336851E+04  0.7818609E-02  0.9000842E-01
       -1   -1    0    0    0  501  0.00000000000E+00  0.00000000000E+00  0.97725838077E+03  0.97725838078E+03  0.50400001928E-02 0. -1.
        1   -1    0    0  501    0  0.00000000000E+00  0.00000000000E+00 -0.45718984936E+03  0.45718984939E+03  0.50400001928E-02 0.  1.
    10030    2    1    2    0    0  0.00000000000E+00  0.00000000000E+00  0.52006853141E+03  0.14344482302E+04  0.13368509445E+04 0.  0.
        1    1    3    3  502    0  0.32679216165E+03 -0.47058877355E+03  0.62947501526E+03  0.85116726063E+03  0.50400001928E-02 0. -1.
       -1    1    3    3    0  502 -0.32679216165E+03  0.47058877355E+03 -0.10940648385E+03  0.58328096955E+03  0.50400001928E-02 0.  1.
</event>
<event>
 5   0  0.9639548E-04  0.1606434E+04  0.7818609E-02  0.8816605E-01
       -1   -1    0    0    0  501  0.00000000000E+00  0.00000000000E+00  0.83767260972E+03  0.83767260974E+03  0.50400001928E-02 0.  1.
        1   -1    0    0  501    0  0.00000000000E+00  0.00000000000E+00 -0.77017869628E+03  0.77017869629E+03  0.50400001928E-02 0. -1.
    10030    2    1    2    0    0  0.00000000000E+00  0.00000000000E+00  0.67493913444E+02  0.16078513060E+04  0.16064340615E+04 0.  0.
        1    1    3    3  502    0 -0.35211641127E+03  0.46974778690E+03  0.58241727443E+03  0.82695757568E+03  0.50400001928E-02 0.  1.
       -1    1    3    3    0  502  0.35211641127E+03 -0.46974778690E+03 -0.51492336099E+03  0.78089373035E+03  0.50400001928E-02 0. -1.
</event>
<event>
 5   0  0.1578965E-03  0.1268929E+04  0.7818609E-02  0.9054574E-01
       -2   -1    0    0    0  501  0.00000000000E+00  0.00000000000E+00  0.28193200989E+03  0.28193200990E+03  0.25500000920E-02 0.  1.
        2   -1    0    0  501    0  0.00000000000E+00  0.00000000000E+00 -0.14278094173E+04  0.14278094173E+04  0.25500000920E-02 0. -1.
    10030    2    1    2    0    0  0.00000000000E+00  0.00000000000E+00 -0.11458774074E+04  0.17097414272E+04  0.12689289638E+04 0.  0.
        2    1    3    3  502    0 -0.51662192390E+02  0.42132688857E+03 -0.12083008111E+04  0.12806936321E+04  0.25500000920E-02 0. -1.
       -2    1    3    3    0  502  0.51662192390E+02 -0.42132688857E+03  0.62423403702E+02  0.42904779511E+03  0.25500000920E-02 0.  1.
</event>
<event>
 5   0  0.1648213E-03  0.1383479E+04  0.7818609E-02  0.8965865E-01
        2   -1    0    0  501    0  0.00000000000E+00  0.00000000000E+00  0.26907464623E+04  0.26907464623E+04  0.25500000920E-02 0. -1.
       -2   -1    0    0    0  501  0.00000000000E+00  0.00000000000E+00 -0.17783292751E+03  0.17783292753E+03  0.25500000920E-02 0.  1.
    10030    2    1    2    0    0  0.00000000000E+00  0.00000000000E+00  0.25129135348E+04  0.28685793898E+04  0.13834786888E+04 0.  0.
        4    1    3    3  502    0  0.40450003398E+03 -0.28685267212E+03  0.25646498524E+03  0.55828365061E+03  0.12699999809E+01 0.  1.
       -4    1    3    3    0  502 -0.40450003398E+03  0.28685267212E+03  0.22564485495E+04  0.23102957392E+04  0.12699999809E+01 0. -1.
</event>
<event>
 5   0  0.8609148E-04  0.1423344E+04  0.7818609E-02  0.8937092E-01
        1   -1    0    0  501    0  0.00000000000E+00  0.00000000000E+00  0.17824937205E+04  0.17824937205E+04  0.50400001928E-02 0.  1.
       -1   -1    0    0    0  501  0.00000000000E+00  0.00000000000E+00 -0.28413952025E+03  0.28413952030E+03  0.50400001928E-02 0. -1.
    10030    2    1    2    0    0  0.00000000000E+00  0.00000000000E+00  0.14983542002E+04  0.20666332408E+04  0.14233438244E+04 0.  0.
        5    1    3    3  502    0  0.49830871478E+03  0.22345479776E+03  0.86646973320E+02  0.55296781990E+03  0.46999998093E+01 0. -1.
       -5    1    3    3    0  502 -0.49830871478E+03 -0.22345479776E+03  0.14117072269E+04  0.15136654209E+04  0.46999998093E+01 0.  1.
</event>
<event>
 5   0  0.1648463E-03  0.1453474E+04  0.7818609E-02  0.8915996E-01
        2   -1    0    0  501    0  0.00000000000E+00  0.00000000000E+00  0.18430091856E+04  0.18430091856E+04  0.25500000920E-02 0. -1.
       -2   -1    0    0    0  501  0.00000000000E+00  0.00000000000E+00 -0.28656742275E+03  0.28656742276E+03  0.25500000920E-02 0.  1.
    10030    2    1    2    0    0  0.00000000000E+00  0.00000000000E+00  0.15564417628E+04  0.21295766084E+04  0.14534736220E+04 0.  0.
        1    1    3    3  502    0  0.40504933042E+03  0.11414101288E+03 -0.89884841806E+02  0.43031664587E+03  0.50400001928E-02 0.  1.
       -1    1    3    3    0  502 -0.40504933042E+03 -0.11414101288E+03  0.16463266047E+04  0.16992599625E+04  0.50400001928E-02 0. -1.
</event>
<event>
 5   0  0.8609148E-04  0.1350121E+04  0.7818609E-02  0.8990737E-01
        1   -1    0    0  501    0  0.00000000000E+00  0.00000000000E+00  0.40062030378E+03  0.40062030381E+03  0.50400001928E-02 0.  1.
       -1   -1    0    0    0  501  0.00000000000E+00  0.00000000000E+00 -0.11375021028E+04  0.11375021029E+04  0.50400001928E-02 0. -1.
    10030    2    1    2    0    0  0.00000000000E+00  0.00000000000E+00 -0.73688179906E+03  0.15381224067E+04  0.13501206435E+04 0.  0.
        5    1    3    3  502    0  0.26810916140E+02 -0.28391152204E+03  0.32860745644E+03  0.43512013054E+03  0.46999998093E+01 0.  1.
       -5    1    3    3    0  502 -0.26810916140E+02  0.28391152204E+03 -0.10654892555E+04  0.11030022761E+04  0.46999998093E+01 0. -1.
</event>
<event>
 5   0  0.8502300E-04  0.1420551E+04  0.7818609E-02  0.8939075E-01
       -1   -1    0    0    0  501  0.00000000000E+00  0.00000000000E+00  0.51138212463E+03  0.51138212465E+03  0.50400001928E-02 0. -1.
        1   -1    0    0  501    0  0.00000000000E+00  0.00000000000E+00 -0.98652528346E+03  0.98652528347E+03  0.50400001928E-02 0.  1.
    10030    2    1    2    0    0  0.00000000000E+00  0.00000000000E+00 -0.47514315883E+03  0.14979074081E+04  0.14205511543E+04 0.  0.
        4    1    3    3  502    0 -0.53521161590E+03  0.46500936136E+03 -0.28236548028E+03  0.76316253662E+03  0.12699999809E+01 0. -1.
       -4    1    3    3    0  502  0.53521161590E+03 -0.46500936136E+03 -0.19277767855E+03  0.73474487150E+03  0.12699999809E+01 0.  1.
</event>
<event>
 5   0  0.9639548E-04  0.1443178E+04  0.7818609E-02  0.8923144E-01
       -1   -1    0    0    0  501  0.00000000000E+00  0.00000000000E+00  0.56476482709E+03  0.56476482712E+03  0.50400001928E-02 0.  1.
        1   -1    0    0  501    0  0.00000000000E+00  0.00000000000E+00 -0.92196045453E+03  0.92196045454E+03  0.50400001928E-02 0. -1.
    10030    2    1    2    0    0  0.00000000000E+00  0.00000000000E+00 -0.35719562744E+03  0.14867252817E+04  0.14431782104E+04 0.  0.
        1    1    3    3  502    0 -0.36554691082E+03 -0.18801870940E+03 -0.78954879665E+03  0.89014767393E+03  0.50400001928E-02 0. -1.
       -1    1    3    3    0  502  0.36554691082E+03  0.18801870940E+03  0.43235316921E+03  0.59657760773E+03  0.50400001928E-02 0.  1.
</event>
<event>
 5   0  0.9639548E-04  0.1307053E+04  0.7818609E-02  0.9023991E-01
       -1   -1    0    0    0  501  0.00000000000E+00  0.00000000000E+00  0.87950543867E+03  0.87950543869E+03  0.50400001928E-02 0. -1.
        1   -1    0    0  501    0  0.00000000000E+00  0.00000000000E+00 -0.48561015152E+03  0.48561015155E+03  0.50400001928E-02 0.  1.
    10030    2    1    2    0    0  0.00000000000E+00  0.00000000000E+00  0.39389528715E+03  0.13651155902E+04  0.13070528212E+04 0.  0.
        1    1    3    3  502    0  0.39634491388E+02 -0.32556330667E+03  0.78733235730E+03  0.85290949134E+03  0.50400001928E-02 0. -1.
       -1    1    3    3    0  502 -0.39634491388E+02  0.32556330667E+03 -0.39343707014E+03  0.51220609889E+03  0.50400001928E-02 0.  1.
</event>
<event>
 5   0  0.9639548E-04  0.1348236E+04  0.7818609E-02  0.8992165E-01
        1   -1    0    0  501    0  0.00000000000E+00  0.00000000000E+00  0.61036522083E+03  0.61036522085E+03  0.50400001928E-02 0. -1.
       -1   -1    0    0    0  501  0.00000000000E+00  0.00000000000E+00 -0.74452976263E+03  0.74452976265E+03  0.50400001928E-02 0.  1.
    10030    2    1    2    0    0  0.00000000000E+00  0.00000000000E+00 -0.13416454180E+03  0.13548949835E+04  0.13482359927E+04 0.  0.
        1    1    3    3  502    0  0.51259292833E+03  0.34433723736E+03 -0.33881643024E+03  0.70435517790E+03  0.50400001928E-02 0.  1.
       -1    1    3    3    0  502 -0.51259292833E+03 -0.34433723736E+03  0.20465188844E+03  0.65053980560E+03  0.50400001928E-02 0. -1.
</event>
<event>
 5   0  0.9007180E-04  0.1407758E+04  0.7818609E-02  0.8948222E-01
        1   -1    0    0  501    0  0.00000000000E+00  0.00000000000E+00  0.13919327738E+04  0.13919327738E+04  0.50400001928E-02 0. -1.
       -1   -1    0    0    0  501  0.00000000000E+00  0.00000000000E+00 -0.35594060518E+03  0.35594060521E+03  0.50400001928E-02 0.  1.
    10030    2    1    2    0    0  0.00000000000E+00  0.00000000000E+00  0.10359921686E+04  0.17478733790E+04  0.14077576410E+04 0.  0.
        2    1    3    3  502    0 -0.10910390514E+03 -0.31549674301E+03  0.12873916641E+04  0.13299696063E+04  0.25500000920E-02 0. -1.
       -2    1    3    3    0  502  0.10910390514E+03  0.31549674301E+03 -0.25139949542E+03  0.41790377274E+03  0.25500000920E-02 0.  1.
</event>
<event>
 5   0  0.8609148E-04  0.1407856E+04  0.7818609E-02  0.8948152E-01
        1   -1    0    0  501    0  0.00000000000E+00  0.00000000000E+00  0.72642039485E+03  0.72642039487E+03  0.50400001928E-02 0. -1.
       -1   -1    0    0    0  501  0.00000000000E+00  0.00000000000E+00 -0.68213180056E+03  0.68213180058E+03  0.50400001928E-02 0.  1.
    10030    2    1    2    0    0  0.00000000000E+00  0.00000000000E+00  0.44288594289E+02  0.14085521954E+04  0.14078557482E+04 0.  0.
        5    1    3    3  502    0  0.49273754078E+03 -0.38513016070E+03 -0.30108956607E+03  0.69411277295E+03  0.46999998093E+01 0.  1.
       -5    1    3    3    0  502 -0.49273754078E+03  0.38513016070E+03  0.34537816036E+03  0.71443942250E+03  0.46999998093E+01 0. -1.
</event>
<event>
 5   0  0.1706986E-03  0.1400266E+04  0.7818609E-02  0.8953626E-01
       -2   -1    0    0    0  501  0.00000000000E+00  0.00000000000E+00  0.35363587166E+03  0.35363587166E+03  0.25500000920E-02 0.  1.
        2   -1    0    0  501    0  0.00000000000E+00  0.00000000000E+00 -0.13861333607E+04  0.13861333607E+04  0.25500000920E-02 0. -1.
    10030    2    1    2    0    0  0.00000000000E+00  0.00000000000E+00 -0.10324974890E+04  0.17397692323E+04  0.14002663736E+04 0.  0.
        3    1    3    3  502    0 -0.18335170796E+03  0.47773584101E+03  0.77454215342E+02  0.51754086628E+03  0.10100000352E+00 0.  1.
       -3    1    3    3    0  502  0.18335170796E+03 -0.47773584101E+03 -0.11099517044E+04  0.12222283661E+04  0.10100000352E+00 0. -1.
</event>
<event>
 5   0  0.8673728E-04  0.1415811E+04  0.7818609E-02  0.8942452E-01
        1   -1    0    0  501    0  0.00000000000E+00  0.00000000000E+00  0.10671179562E+04  0.10671179562E+04  0.50400001928E-02 0. -1.
       -1   -1    0    0    0  501  0.00000000000E+00  0.00000000000E+00 -0.46961103119E+03  0.46961103122E+03  0.50400001928E-02 0.  1.
    10030    2    1    2    0    0  0.00000000000E+00  0.00000000000E+00  0.59750692504E+03  0.15367289875E+04  0.14158112358E+04 0.  0.
        3    1    3    3  502    0 -0.60839619447E+03 -0.12721747125E+03 -0.69005390550E+02  0.62537346327E+03  0.10100000352E+00 0.  1.
       -3    1    3    3    0  502  0.60839619447E+03  0.12721747125E+03  0.66651231559E+03  0.91135552419E+03  0.10100000352E+00 0. -1.
</event>
<event>
 5   0  0.9007180E-04  0.1381167E+04  0.7818609E-02  0.8967565E-01
        1   -1    0    0  501    0  0.00000000000E+00  0.00000000000E+00  0.12971107428E+04  0.12971107428E+04  0.50400001928E-02 0. -1.
       -1   -1    0    0    0  501  0.00000000000E+00  0.00000000000E+00 -0.36766751034E+03  0.36766751037E+03  0.50400001928E-02 0.  1.
    10030    2    1    2    0    0  0.00000000000E+00  0.00000000000E+00  0.92944323247E+03  0.16647782532E+04  0.13811668653E+04 0.  0.
        2    1    3    3  502    0 -0.28991609057E+01  0.66460417364E+03  0.69085854349E+03  0.95864103807E+03  0.25500000920E-02 0. -1.
       -2    1    3    3    0  502  0.28991609057E+01 -0.66460417364E+03  0.23858468898E+03  0.70613721512E+03  0.25500000920E-02 0.  1.
</event>
<event>
 5   0  0.1605214E-03  0.1387171E+04  0.7818609E-02  0.8963158E-01
        2   -1    0    0  501    0  0.00000000000E+00  0.00000000000E+00  0.16801828947E+04  0.16801828947E+04  0.25500000920E-02 0.  1.
       -2   -1    0    0    0  501  0.00000000000E+00  0.00000000000E+00 -0.28631457036E+03  0.28631457037E+03  0.25500000920E-02 0. -1.
    10030    2    1    2    0    0  0.00000000000E+00  0.00000000000E+00  0.13938683244E+04  0.19664974651E+04  0.13871709969E+04 0.  0.
        5    1    3    3  502    0  0.57216860713E+03 -0.23074457983E+03  0.11461663395E+04  0.13016679084E+04  0.46999998093E+01 0.  1.
       -5    1    3    3    0  502 -0.57216860713E+03  0.23074457983E+03  0.24770198490E+03  0.66482955667E+03  0.46999998093E+01 0. -1.
</event>
<event>
 5   0  0.1706986E-03  0.1479159E+04  0.7818609E-02  0.8898432E-01
        2   -1    0    0  501    0  0.00000000000E+00  0.00000000000E+00  0.81968841870E+03  0.81968841870E+03  0.25500000920E-02 0. -1.
       -2   -1    0    0    0  501  0.00000000000E+00  0.00000000000E+00 -0.66729933512E+03  0.66729933513E+03  0.25500000920E-02 0.  1.
    10030    2    1    2    0    0  0.00000000000E+00  0.00000000000E+00  0.15238908357E+03  0.14869877538E+04  0.14791585943E+04 0.  0.
        3    1    3    3  502    0  0.51376208754E+03  0.37625848999E+03  0.45429108956E+03  0.78224186678E+03  0.10100000352E+00 0.  1.
       -3    1    3    3    0  502 -0.51376208754E+03 -0.37625848999E+03 -0.30190200599E+03  0.70474588705E+03  0.10100000352E+00 0. -1.
</event>
<event>
 5   0  0.9639548E-04  0.1409539E+04  0.7818609E-02  0.8946943E-01
        1   -1    0    0  501    0  0.00000000000E+00  0.00000000000E+00  0.10600899042E+04  0.10600899042E+04  0.50400001928E-02 0.  1.
       -1   -1    0    0    0  501  0.00000000000E+00  0.00000000000E+00 -0.46854524390E+03  0.46854524393E+03  0.50400001928E-02 0. -1.
    10030    2    1    2    0    0  0.00000000000E+00  0.00000000000E+00  0.59154466027E+03  0.15286351481E+04  0.14095390491E+04 0.  0.
        1    1    3    3  502    0  0.29745924991E+03  0.49590680865E+03  0.73266891492E+03  0.93338593686E+03  0.50400001928E-02 0.  1.
       -1    1    3    3    0  502 -0.29745924991E+03 -0.49590680865E+03 -0.14112425465E+03  0.59524921125E+03  0.50400001928E-02 0. -1.
</event>
<event>
 5   0  0.1648213E-03  0.1396223E+04  0.7818609E-02  0.8956557E-01
        2   -1    0    0  501    0  0.00000000000E+00  0.00000000000E+00  0.79478734942E+03  0.79478734942E+03  0.25500000920E-02 0.  1.
       -2   -1    0    0    0  501  0.00000000000E+00  0.00000000000E+00 -0.61319504653E+03  0.61319504654E+03  0.25500000920E-02 0. -1.
    10030    2    1    2    0    0  0.00000000000E+00  0.00000000000E+00  0.18159230289E+03  0.14079823960E+04  0.13962229990E+04 0.  0.
        4    1    3    3  502    0  0.59161064831E+03  0.24879550360E+03  0.36780168046E+03  0.73971754802E+03  0.12699999809E+01 0.  1.
       -4    1    3    3    0  502 -0.59161064831E+03 -0.24879550360E+03 -0.18620937757E+03  0.66826484794E+03  0.12699999809E+01 0. -1.
</event>
<event>
 5   0  0.1648463E-03  0.1393496E+04  0.7818609E-02  0.8958540E-01
       -2   -1    0    0    0  501  0.00000000000E+00  0.00000000000E+00  0.93168943931E+03  0.93168943931E+03  0.25500000920E-02 0. -1.
        2   -1    0    0  501    0  0.00000000000E+00  0.00000000000E+00 -0.52105105614E+03  0.52105105614E+03  0.25500000920E-02 0.  1.
    10030    2    1    2    0    0  0.00000000000E+00  0.00000000000E+00  0.41063838317E+03  0.14527404955E+04  0.13934959869E+04 0.  0.
        1    1    3    3  502    0  0.16212452654E+03 -0.31209148244E+03 -0.42172764672E+03  0.54912627287E+03  0.50400001928E-02 0.  1.
       -1    1    3    3    0  502 -0.16212452654E+03  0.31209148244E+03  0.83236602989E+03  0.90361422259E+03  0.50400001928E-02 0. -1.
</event>
<event>
 5   0  0.1706986E-03  0.1499589E+04  0.7818609E-02  0.8884726E-01
        2   -1    0    0  501    0  0.00000000000E+00  0.00000000000E+00  0.88536292769E+03  0.88536292770E+03  0.25500000920E-02 0. -1.
       -2   -1    0    0    0  501  0.00000000000E+00  0.00000000000E+00 -0.63498436246E+03  0.63498436246E+03  0.25500000920E-02 0.  1.
    10030    2    1    2    0    0  0.00000000000E+00  0.00000000000E+00  0.25037856524E+03  0.15203472902E+04  0.14995887625E+04 0.  0.
        3    1    3    3  502    0  0.40340004781E+03  0.17998731692E+03  0.73943460998E+03  0.86133070621E+03  0.10100000352E+00 0. -1.
       -3    1    3    3    0  502 -0.40340004781E+03 -0.17998731692E+03 -0.48905604474E+03  0.65901658395E+03  0.10100000352E+00 0.  1.
</event>
<event>
 5   0  0.8609148E-04  0.1373933E+04  0.7818609E-02  0.8972906E-01
        1   -1    0    0  501    0  0.00000000000E+00  0.00000000000E+00  0.46303412221E+03  0.46303412223E+03  0.50400001928E-02 0.  1.
       -1   -1    0    0    0  501  0.00000000000E+00  0.00000000000E+00 -0.10191972327E+04  0.10191972327E+04  0.50400001928E-02 0. -1.
    10030    2    1    2    0    0  0.00000000000E+00  0.00000000000E+00 -0.55616311048E+03  0.14822313549E+04  0.13739331804E+04 0.  0.
        5    1    3    3  502    0 -0.34867020311E+03  0.20048121270E+03 -0.87887811925E+03  0.96654667020E+03  0.46999998093E+01 0. -1.
       -5    1    3    3    0  502  0.34867020311E+03 -0.20048121270E+03  0.32271500877E+03  0.51568468473E+03  0.46999998093E+01 0.  1.
</event>
<event>
 5   0  0.9007180E-04  0.1402767E+04  0.7818609E-02  0.8951818E-01
        1   -1    0    0  501    0  0.00000000000E+00  0.00000000000E+00  0.75964813150E+03  0.75964813151E+03  0.50400001928E-02 0.  1.
       -1   -1    0    0    0  501  0.00000000000E+00  0.00000000000E+00 -0.64758760649E+03  0.64758760651E+03  0.50400001928E-02 0. -1.
    10030    2    1    2    0    0  0.00000000000E+00  0.00000000000E+00  0.11206052501E+03  0.14072357380E+04  0.14027668591E+04 0.  0.
        2    1    3    3  502    0  0.69977321815E+03 -0.19067875160E+02  0.99672585489E+02  0.70709317986E+03  0.25500000920E-02 0.  1.
       -2    1    3    3    0  502 -0.69977321815E+03  0.19067875160E+02  0.12387939517E+02  0.70014255816E+03  0.25500000920E-02 0. -1.
</event>
<event>
 5   0  0.8673728E-04  0.1377753E+04  0.7818609E-02  0.8970081E-01
       -1   -1    0    0    0  501  0.00000000000E+00  0.00000000000E+00  0.22147052758E+03  0.22147052764E+03  0.50400001928E-02 0.  1.
        1   -1    0    0  501    0  0.00000000000E+00  0.00000000000E+00 -0.21427264166E+04  0.21427264166E+04  0.50400001928E-02 0. -1.
    10030    2    1    2    0    0  0.00000000000E+00  0.00000000000E+00 -0.19212558890E+04  0.23641969442E+04  0.13777528806E+04 0.  0.
        3    1    3    3  502    0 -0.15906131219E+03 -0.64228345203E+03 -0.63179395208E+03  0.91487274628E+03  0.10100000352E+00 0.  1.
       -3    1    3    3    0  502  0.15906131219E+03  0.64228345203E+03 -0.12894619369E+04  0.14493241980E+04  0.10100000352E+00 0. -1.
</event>
<event>
 5   0  0.1578965E-03  0.1055814E+04  0.7818609E-02  0.9249362E-01
        2   -1    0    0  501    0  0.00000000000E+00  0.00000000000E+00  0.84361182735E+03  0.84361182736E+03  0.25500000920E-02 0.  1.
       -2   -1    0    0    0  501  0.00000000000E+00  0.00000000000E+00 -0.33034820773E+03  0.33034820774E+03  0.25500000920E-02 0. -1.
    10030    2    1    2    0    0  0.00000000000E+00  0.00000000000E+00  0.51326361962E+03  0.11739600351E+04  0.10558137245E+04 0.  0.
        2    1    3    3  502    0  0.47423618003E+03 -0.47922125668E+02  0.43279133515E+01  0.47667097186E+03  0.25500000920E-02 0. -1.
       -2    1    3    3    0  502 -0.47423618003E+03  0.47922125668E+02  0.50893570627E+03  0.69728906323E+03  0.25500000920E-02 0.  1.
</event>
<event>
 5   0  0.1648213E-03  0.1392360E+04  0.7818609E-02  0.8959367E-01
        2   -1    0    0  501    0  0.00000000000E+00  0.00000000000E+00  0.14940541220E+04  0.14940541220E+04  0.25500000920E-02 0.  1.
       -2   -1    0    0    0  501  0.00000000000E+00  0.00000000000E+00 -0.32439688669E+03  0.32439688670E+03  0.25500000920E-02 0. -1.
    10030    2    1    2    0    0  0.00000000000E+00  0.00000000000E+00  0.11696572353E+04  0.18184510087E+04  0.13923598755E+04 0.  0.
        4    1    3    3  502    0 -0.62155575291E+03  0.22089779267E+03  0.29414726929E+03  0.72225453804E+03  0.12699999809E+01 0.  1.
       -4    1    3    3    0  502  0.62155575291E+03 -0.22089779267E+03  0.87550996601E+03  0.10961964707E+04  0.12699999809E+01 0. -1.
</event>
<event>
 5   0  0.9007180E-04  0.1340478E+04  0.7818609E-02  0.8998068E-01
       -1   -1    0    0    0  501  0.00000000000E+00  0.00000000000E+00  0.57842420054E+03  0.57842420056E+03  0.50400001928E-02 0.  1.
        1   -1    0    0  501    0  0.00000000000E+00  0.00000000000E+00 -0.77662726668E+03  0.77662726670E+03  0.50400001928E-02 0. -1.
    10030    2    1    2    0    0  0.00000000000E+00  0.00000000000E+00 -0.19820306615E+03  0.13550514673E+04  0.13404775356E+04 0.  0.
        2    1    3    3  502    0  0.48872798828E+03 -0.45083330819E+03 -0.13838268244E+02  0.66505429551E+03  0.25500000920E-02 0. -1.
       -2    1    3    3    0  502 -0.48872798828E+03  0.45083330819E+03 -0.18436479790E+03  0.68999717175E+03  0.25500000920E-02 0.  1.
</event>
<event>
 5   0  0.8609148E-04  0.1392261E+04  0.7818609E-02  0.8959440E-01
        1   -1    0    0  501    0  0.00000000000E+00  0.00000000000E+00  0.18187847722E+04  0.18187847722E+04  0.50400001928E-02 0. -1.
       -1   -1    0    0    0  501  0.00000000000E+00  0.00000000000E+00 -0.26644024520E+03  0.26644024525E+03  0.50400001928E-02 0.  1.
    10030    2    1    2    0    0  0.00000000000E+00  0.00000000000E+00  0.15523445270E+04  0.20852250175E+04  0.13922606950E+04 0.  0.
        5    1    3    3  502    0  0.27713152451E+03 -0.14794851682E+03 -0.15420943315E+03  0.34999040669E+03  0.46999998093E+01 0.  1.
       -5    1    3    3    0  502 -0.27713152451E+03  0.14794851682E+03  0.17065539602E+04  0.17352346108E+04  0.46999998093E+01 0. -1.
</event>
<event>
 5   0  0.9007180E-04  0.1411945E+04  0.7818609E-02  0.8945217E-01
       -1   -1    0    0    0  501  0.00000000000E+00  0.00000000000E+00  0.10509147277E+04  0.10509147277E+04  0.50400001928E-02 0. -1.
        1   -1    0    0  501    0  0.00000000000E+00  0.00000000000E+00 -0.47425064515E+03  0.47425064517E+03  0.50400001928E-02 0.  1.
    10030    2    1    2    0    0  0.00000000000E+00  0.00000000000E+00  0.57666408257E+03  0.15251653729E+04  0.14119447406E+04 0.  0.
        2    1    3    3  502    0 -0.44706693576E+03 -0.27236952009E+03  0.79996143307E+03  0.95602944250E+03  0.25500000920E-02 0. -1.
       -2    1    3    3    0  502  0.44706693576E+03  0.27236952009E+03 -0.22329735050E+03  0.56913593040E+03  0.25500000920E-02 0.  1.
</event>
<event>
 5   0  0.6048000E-04  0.1377341E+04  0.7818609E-02  0.8970385E-01
       -3   -1    0    0    0  501  0.00000000000E+00  0.00000000000E+00  0.15958558658E+04  0.15958558690E+04  0.10100000352E+00 0. -1.
        3   -1    0    0  501    0  0.00000000000E+00  0.00000000000E+00 -0.29718681089E+03  0.29718682805E+03  0.10100000352E+00 0.  1.
    10030    2    1    2    0    0  0.00000000000E+00  0.00000000000E+00  0.12986690549E+04  0.18930426971E+04  0.13773414024E+04 0.  0.
        5    1    3    3  502    0 -0.52151682792E+03 -0.38966971763E+03  0.95796083980E+03  0.11582458078E+04  0.46999998093E+01 0. -1.
       -5    1    3    3    0  502  0.52151682792E+03  0.38966971763E+03  0.34070821514E+03  0.73479688929E+03  0.46999998093E+01 0.  1.
</event>
<event>
 5   0  0.1578965E-03  0.1413327E+04  0.7818609E-02  0.8944228E-01
        2   -1    0    0  501    0  0.00000000000E+00  0.00000000000E+00  0.91709388066E+03  0.91709388066E+03  0.25500000920E-02 0. -1.
       -2   -1    0    0    0  501  0.00000000000E+00  0.00000000000E+00 -0.54451711668E+03  0.54451711669E+03  0.25500000920E-02 0.  1.
    10030    2    1    2    0    0  0.00000000000E+00  0.00000000000E+00  0.37257676397E+03  0.14616109973E+04  0.14133270190E+04 0.  0.
        2    1    3    3  502    0  0.54829261013E+03  0.41535902357E+03  0.18813264665E+02  0.68811470244E+03  0.25500000920E-02 0.  1.
       -2    1    3    3    0  502 -0.54829261013E+03 -0.41535902357E+03  0.35376349931E+03  0.77349629491E+03  0.25500000920E-02 0. -1.
</event>
<event>
 5   0  0.1706986E-03  0.1391771E+04  0.7818609E-02  0.8959796E-01
        2   -1    0    0  501    0  0.00000000000E+00  0.00000000000E+00  0.98724104482E+03  0.98724104482E+03  0.25500000920E-02 0. -1.
       -2   -1    0    0    0  501  0.00000000000E+00  0.00000000000E+00 -0.49051542342E+03  0.49051542343E+03  0.25500000920E-02 0.  1.
    10030    2    1    2    0    0  0.00000000000E+00  0.00000000000E+00  0.49672562140E+03  0.14777564682E+04  0.13917714742E+04 0.  0.
        3    1    3    3  502    0 -0.12804135973E+03 -0.47338463933E+03  0.77259596152E+03  0.91509132687E+03  0.10100000352E+00 0. -1.
       -3    1    3    3    0  502  0.12804135973E+03  0.47338463933E+03 -0.27587034013E+03  0.56266514137E+03  0.10100000352E+00 0.  1.
</event>
<event>
 5   0  0.1578965E-03  0.1286092E+04  0.7818609E-02  0.9040667E-01
        2   -1    0    0  501    0  0.00000000000E+00  0.00000000000E+00  0.12165876399E+04  0.12165876399E+04  0.25500000920E-02 0.  1.
       -2   -1    0    0    0  501  0.00000000000E+00  0.00000000000E+00 -0.33989203476E+03  0.33989203477E+03  0.25500000920E-02 0. -1.
    10030    2    1    2    0    0  0.00000000000E+00  0.00000000000E+00  0.87669560519E+03  0.15564796747E+04  0.12860924514E+04 0.  0.
        2    1    3    3  502    0  0.30554043928E+03 -0.47086894289E+03  0.81805434691E+03  0.99211160457E+03  0.25500000920E-02 0.  1.
       -2    1    3    3    0  502 -0.30554043928E+03  0.47086894289E+03  0.58641258279E+02  0.56436807014E+03  0.25500000920E-02 0. -1.
</event>
<event>
 5   0  0.8673728E-04  0.1424917E+04  0.7818609E-02  0.8935977E-01
       -1   -1    0    0    0  501  0.00000000000E+00  0.00000000000E+00  0.18902028012E+03  0.18902028019E+03  0.50400001928E-02 0.  1.
        1   -1    0    0  501    0  0.00000000000E+00  0.00000000000E+00 -0.26854119217E+04  0.26854119217E+04  0.50400001928E-02 0. -1.
    10030    2    1    2    0    0  0.00000000000E+00  0.00000000000E+00 -0.24963916416E+04  0.28744322019E+04  0.14249172801E+04 0.  0.
        3    1    3    3  502    0 -0.57123665427E+03  0.84510102169E+02 -0.20900109234E+04  0.21683170761E+04  0.10100000352E+00 0.  1.
       -3    1    3    3    0  502  0.57123665427E+03 -0.84510102169E+02 -0.40638071825E+03  0.70611512582E+03  0.10100000352E+00 0. -1.
</event>
<event>
 5   0  0.8609148E-04  0.1408652E+04  0.7818609E-02  0.8947579E-01
       -1   -1    0    0    0  501  0.00000000000E+00  0.00000000000E+00  0.24164471271E+03  0.24164471276E+03  0.50400001928E-02 0. -1.
        1   -1    0    0  501    0  0.00000000000E+00  0.00000000000E+00 -0.20529111952E+04  0.20529111952E+04  0.50400001928E-02 0.  1.
    10030    2    1    2    0    0  0.00000000000E+00  0.00000000000E+00 -0.18112664825E+04  0.22945559079E+04  0.14086520309E+04 0.  0.
        5    1    3    3  502    0 -0.12141906492E+03  0.46343627992E+03 -0.64676044071E+02  0.48344684873E+03  0.46999998093E+01 0. -1.
       -5    1    3    3    0  502  0.12141906492E+03 -0.46343627992E+03 -0.17465904384E+04  0.18111090592E+04  0.46999998093E+01 0.  1.
</event>
<event>
 5   0  0.1605214E-03  0.1386603E+04  0.7818609E-02  0.8963573E-01
        2   -1    0    0  501    0  0.00000000000E+00  0.00000000000E+00  0.20302857664E+04  0.20302857664E+04  0.25500000920E-02 0.  1.
       -2   -1    0    0    0  501  0.00000000000E+00  0.00000000000E+00 -0.23674848164E+03  0.23674848165E+03  0.25500000920E-02 0. -1.
    10030    2    1    2    0    0  0.00000000000E+00  0.00000000000E+00  0.17935372848E+04  0.22670342481E+04  0.13866031480E+04 0.  0.
        5    1    3    3  502    0  0.20608243552E+03  0.32746634505E+03  0.18373168471E+04  0.18776206923E+04  0.46999998093E+01 0.  1.
       -5    1    3    3    0  502 -0.20608243552E+03 -0.32746634505E+03 -0.43779562325E+02  0.38941355581E+03  0.46999998093E+01 0. -1.
</event>
<event>
 5   0  0.8609148E-04  0.1405784E+04  0.7818609E-02  0.8949643E-01
       -1   -1    0    0    0  501  0.00000000000E+00  0.00000000000E+00  0.72846468318E+03  0.72846468320E+03  0.50400001928E-02 0.  1.
        1   -1    0    0  501    0  0.00000000000E+00  0.00000000000E+00 -0.67821666621E+03  0.67821666622E+03  0.50400001928E-02 0. -1.
    10030    2    1    2    0    0  0.00000000000E+00  0.00000000000E+00  0.50248016973E+02  0.14066813494E+04  0.14057836091E+04 0.  0.
        5    1    3    3  502    0 -0.57028137186E+03  0.74612428798E+02 -0.37917230421E+03  0.68889881978E+03  0.46999998093E+01 0. -1.
       -5    1    3    3    0  502  0.57028137186E+03 -0.74612428798E+02  0.42942032118E+03  0.71778252964E+03  0.46999998093E+01 0.  1.
</event>
<event>
 5   0  0.9007180E-04  0.1398502E+04  0.7818609E-02  0.8954903E-01
        1   -1    0    0  501    0  0.00000000000E+00  0.00000000000E+00  0.13910027900E+04  0.13910027900E+04  0.50400001928E-02 0.  1.
       -1   -1    0    0    0  501  0.00000000000E+00  0.00000000000E+00 -0.35151053935E+03  0.35151053939E+03  0.50400001928E-02 0. -1.
    10030    2    1    2    0    0  0.00000000000E+00  0.00000000000E+00  0.10394922507E+04  0.17425133294E+04  0.13985022574E+04 0.  0.
        2    1    3    3  502    0 -0.10779866292E+03  0.69016359822E+03  0.48023056946E+03  0.84768375229E+03  0.25500000920E-02 0.  1.
       -2    1    3    3    0  502  0.10779866292E+03 -0.69016359822E+03  0.55926168120E+03  0.89482957713E+03  0.25500000920E-02 0. -1.
</event>
<event>
 5   0  0.1605214E-03  0.1453598E+04  0.7818609E-02  0.8915910E-01
       -2   -1    0    0    0  501  0.00000000000E+00  0.00000000000E+00  0.33985578150E+03  0.33985578151E+03  0.25500000920E-02 0. -1.
        2   -1    0    0  501    0  0.00000000000E+00  0.00000000000E+00 -0.15542967284E+04  0.15542967284E+04  0.25500000920E-02 0.  1.
    10030    2    1    2    0    0  0.00000000000E+00  0.00000000000E+00 -0.12144409469E+04  0.18941525099E+04  0.14535979215E+04 0.  0.
        5    1    3    3  502    0 -0.68737903993E+03  0.93897153338E+01 -0.91458281826E+03  0.11441424443E+04  0.46999998093E+01 0. -1.
       -5    1    3    3    0  502  0.68737903993E+03 -0.93897153338E+01 -0.29985812867E+03  0.75001006568E+03  0.46999998093E+01 0.  1.
</event>
<event>
 5   0  0.9639548E-04  0.1402682E+04  0.7818609E-02  0.8951879E-01
        1   -1    0    0  501    0  0.00000000000E+00  0.00000000000E+00  0.15509524533E+04  0.15509524533E+04  0.50400001928E-02 0.  1.
       -1   -1    0    0    0  501  0.00000000000E+00  0.00000000000E+00 -0.31714658522E+03  0.31714658526E+03  0.50400001928E-02 0. -1.
    10030    2    1    2    0    0  0.00000000000E+00  0.00000000000E+00  0.12338058681E+04  0.18680990386E+04  0.14026821086E+04 0.  0.
        1    1    3    3  502    0 -0.31062872083E+02  0.52313057492E+03  0.12376566193E+04  0.13440328894E+04  0.50400001928E-02 0.  1.
       -1    1    3    3    0  502  0.31062872083E+02 -0.52313057492E+03 -0.38507511800E+01  0.52406614921E+03  0.50400001928E-02 0. -1.
</event>
<event>
 5   0  0.1706986E-03  0.1392620E+04  0.7818609E-02  0.8959178E-01
       -2   -1    0    0    0  501  0.00000000000E+00  0.00000000000E+00  0.36011854363E+03  0.36011854364E+03  0.25500000920E-02 0.  1.
        2   -1    0    0  501    0  0.00000000000E+00  0.00000000000E+00 -0.13463553348E+04  0.13463553348E+04  0.25500000920E-02 0. -1.
    10030    2    1    2    0    0  0.00000000000E+00  0.00000000000E+00 -0.98623679120E+03  0.17064738785E+04  0.13926198654E+04 0.  0.
        3    1    3    3  502    0 -0.59214999160E+03  0.22496563028E+03 -0.13882687761E+03  0.64847826448E+03  0.10100000352E+00 0.  1.
       -3    1    3    3    0  502  0.59214999160E+03 -0.22496563028E+03 -0.84740991359E+03  0.10579956140E+04  0.10100000352E+00 0. -1.
</event>
<event>
 5   0  0.1648463E-03  0.1400659E+04  0.7818609E-02  0.8953342E-01
        2   -1    0    0  501    0  0.00000000000E+00  0.00000000000E+00  0.89447351001E+03  0.89447351002E+03  0.25500000920E-02 0.  1.
       -2   -1    0    0    0  501  0.00000000000E+00  0.00000000000E+00 -0.54832431119E+03  0.54832431120E+03  0.25500000920E-02 0. -1.
    10030    2    1    2    0    0  0.00000000000E+00  0.00000000000E+00  0.34614919882E+03  0.14427978212E+04  0.14006592323E+04 0.  0.
        1    1    3    3  502    0  0.44292802087E+02 -0.65101976593E+02 -0.54375006379E+03  0.54942174290E+03  0.50400001928E-02 0. -1.
       -1    1    3    3    0  502 -0.44292802087E+02  0.65101976593E+02  0.88989926261E+03  0.89337607831E+03  0.50400001928E-02 0.  1.
</event>
<event>
 5   0  0.1706986E-03  0.1263448E+04  0.7818609E-02  0.9059064E-01
       -2   -1    0    0    0  501  0.00000000000E+00  0.00000000000E+00  0.34515815677E+03  0.34515815678E+03  0.25500000920E-02 0.  1.
        2   -1    0    0  501    0  0.00000000000E+00  0.00000000000E+00 -0.11562105940E+04  0.11562105940E+04  0.25500000920E-02 0. -1.
    10030    2    1    2    0    0  0.00000000000E+00  0.00000000000E+00 -0.81105243720E+03  0.15013687508E+04  0.12634484833E+04 0.  0.
        3    1    3    3  502    0  0.26239477759E+03  0.57326473065E+03 -0.45294019185E+03  0.77629781547E+03  0.10100000352E+00 0.  1.
       -3    1    3    3    0  502 -0.26239477759E+03 -0.57326473065E+03 -0.35811224535E+03  0.72507093528E+03  0.10100000352E+00 0. -1.
</event>
<event>
 5   0  0.9007180E-04  0.1342188E+04  0.7818609E-02  0.8996763E-01
       -1   -1    0    0    0  501  0.00000000000E+00  0.00000000000E+00  0.44807634186E+03  0.44807634189E+03  0.50400001928E-02 0. -1.
        1   -1    0    0  501    0  0.00000000000E+00  0.00000000000E+00 -0.10051121916E+04  0.10051121916E+04  0.50400001928E-02 0.  1.
    10030    2    1    2    0    0  0.00000000000E+00  0.00000000000E+00 -0.55703584973E+03  0.14531885335E+04  0.13421877574E+04 0.  0.
        2    1    3    3  502    0  0.22566733801E+03 -0.56130550950E+03 -0.59301867489E+03  0.84714861224E+03  0.25500000920E-02 0.  1.
       -2    1    3    3    0  502 -0.22566733801E+03  0.56130550950E+03  0.35982825162E+02  0.60603992126E+03  0.25500000920E-02 0. -1.
</event>
<event>
 5   0  0.1648213E-03  0.1394396E+04  0.7818609E-02  0.8957885E-01
       -2   -1    0    0    0  501  0.00000000000E+00  0.00000000000E+00  0.26327450154E+03  0.26327450155E+03  0.25500000920E-02 0. -1.
        2   -1    0    0  501    0  0.00000000000E+00  0.00000000000E+00 -0.18463058250E+04  0.18463058250E+04  0.25500000920E-02 0.  1.
    10030    2    1    2    0    0  0.00000000000E+00  0.00000000000E+00 -0.15830313234E+04  0.21095803265E+04  0.13943962791E+04 0.  0.
        4    1    3    3  502    0 -0.15795278617E+03  0.18791741495E+03 -0.17787578201E+04  0.17956177302E+04  0.12699999809E+01 0.  1.
       -4    1    3    3    0  502  0.15795278617E+03 -0.18791741495E+03  0.19572649667E+03  0.31396259634E+03  0.12699999809E+01 0. -1.
</event>
<event>
 5   0  0.8609148E-04  0.1432028E+04  0.7818609E-02  0.8930956E-01
       -1   -1    0    0    0  501  0.00000000000E+00  0.00000000000E+00  0.39226903355E+03  0.39226903358E+03  0.50400001928E-02 0.  1.
        1   -1    0    0  501    0  0.00000000000E+00  0.00000000000E+00 -0.13069507908E+04  0.13069507908E+04  0.50400001928E-02 0. -1.
    10030    2    1    2    0    0  0.00000000000E+00  0.00000000000E+00 -0.91468175727E+03  0.16992198244E+04  0.14320283847E+04 0.  0.
        5    1    3    3  502    0  0.58814911243E+03 -0.16070351011E+03 -0.90275878434E+03  0.10893762019E+04  0.46999998093E+01 0. -1.
       -5    1    3    3    0  502 -0.58814911243E+03  0.16070351011E+03 -0.11922972932E+02  0.60984362249E+03  0.46999998093E+01 0.  1.
</event>
<event>
 5   0  0.9007180E-04  0.1340381E+04  0.7818609E-02  0.8998142E-01
       -1   -1    0    0    0  501  0.00000000000E+00  0.00000000000E+00  0.79628329711E+03  0.79628329713E+03  0.50400001928E-02 0.  1.
        1   -1    0    0  501    0  0.00000000000E+00  0.00000000000E+00 -0.56406430407E+03  0.56406430409E+03  0.50400001928E-02 0. -1.
    10030    2    1    2    0    0  0.00000000000E+00  0.00000000000E+00  0.23221899304E+03  0.13603476012E+04  0.13403805189E+04 0.  0.
        2    1    3    3  502    0  0.59572130295E+03  0.26839920366E+02 -0.19430742126E+03  0.62718388538E+03  0.25500000920E-02 0. -1.
       -2    1    3    3    0  502 -0.59572130295E+03 -0.26839920366E+02  0.42652641430E+03  0.73316371584E+03  0.25500000920E-02 0.  1.
</event>
<event>
 5   0  0.6048000E-04  0.1391253E+04  0.7818609E-02  0.8960175E-01
        3   -1    0    0  501    0  0.00000000000E+00  0.00000000000E+00  0.72735904108E+03  0.72735904809E+03  0.10100000352E+00 0. -1.
       -3   -1    0    0    0  501  0.00000000000E+00  0.00000000000E+00 -0.66527791509E+03  0.66527792276E+03  0.10100000352E+00 0.  1.
    10030    2    1    2    0    0  0.00000000000E+00  0.00000000000E+00  0.62081125993E+02  0.13926369708E+04  0.13912525531E+04 0.  0.
        3    1    3    3  502    0  0.14953109985E+03 -0.67864734161E+03 -0.20174755950E+00  0.69492576222E+03  0.10100000352E+00 0. -1.
       -3    1    3    3    0  502 -0.14953109985E+03  0.67864734161E+03  0.62282873552E+02  0.69771120862E+03  0.10100000352E+00 0.  1.
</event>
<event>
 5   0  0.9007180E-04  0.1427372E+04  0.7818609E-02  0.8934240E-01
       -1   -1    0    0    0  501  0.00000000000E+00  0.00000000000E+00  0.57208539956E+03  0.57208539958E+03  0.50400001928E-02 0.  1.
        1   -1    0    0  501    0  0.00000000000E+00  0.00000000000E+00 -0.89033471768E+03  0.89033471769E+03  0.50400001928E-02 0. -1.
    10030    2    1    2    0    0  0.00000000000E+00  0.00000000000E+00 -0.31824931812E+03  0.14624201173E+04  0.14273717003E+04 0.  0.
        2    1    3    3  502    0 -0.18402676766E+03 -0.23928244395E+03  0.50345843864E+03  0.58701987926E+03  0.25500000920E-02 0.  1.
       -2    1    3    3    0  502  0.18402676766E+03  0.23928244395E+03 -0.82170775676E+03  0.87540023802E+03  0.25500000920E-02 0. -1.
</event>
<event>
 5   0  0.8673728E-04  0.1280691E+04  0.7818609E-02  0.9045019E-01
       -1   -1    0    0    0  501  0.00000000000E+00  0.00000000000E+00  0.59997423100E+03  0.59997423102E+03  0.50400001928E-02 0.  1.
        1   -1    0    0  501    0  0.00000000000E+00  0.00000000000E+00 -0.68343375345E+03  0.68343375347E+03  0.50400001928E-02 0. -1.
    10030    2    1    2    0    0  0.00000000000E+00  0.00000000000E+00 -0.83459522445E+02  0.12834079845E+04  0.12806914393E+04 0.  0.
        3    1    3    3  502    0 -0.53571880217E+03 -0.33150227258E+03 -0.15666497043E+03  0.64917818423E+03  0.10100000352E+00 0. -1.
       -3    1    3    3    0  502  0.53571880217E+03  0.33150227258E+03  0.73205447988E+02  0.63422980026E+03  0.10100000352E+00 0.  1.
</event>
<event>
 5   0  0.8609148E-04  0.1393060E+04  0.7818609E-02  0.8958857E-01
        1   -1    0    0  501    0  0.00000000000E+00  0.00000000000E+00  0.20930430313E+04  0.20930430313E+04  0.50400001928E-02 0. -1.
       -1   -1    0    0    0  501  0.00000000000E+00  0.00000000000E+00 -0.23179374994E+03  0.23179374999E+03  0.50400001928E-02 0.  1.
    10030    2    1    2    0    0  0.00000000000E+00  0.00000000000E+00  0.18612492814E+04  0.23248367813E+04  0.13930603621E+04 0.  0.
        5    1    3    3  502    0  0.37779211224E+03  0.24556649258E+03  0.18170168686E+04  0.18720582718E+04  0.46999998093E+01 0. -1.
       -5    1    3    3    0  502 -0.37779211224E+03 -0.24556649258E+03  0.44232412824E+02  0.45277850953E+03  0.46999998093E+01 0.  1.
</event>
<event>
 5   0  0.1605214E-03  0.1409238E+04  0.7818609E-02  0.8947158E-01
       -2   -1    0    0    0  501  0.00000000000E+00  0.00000000000E+00  0.47178509346E+03  0.47178509346E+03  0.25500000920E-02 0. -1.
        2   -1    0    0  501    0  0.00000000000E+00  0.00000000000E+00 -0.10523608718E+04  0.10523608718E+04  0.25500000920E-02 0.  1.
    10030    2    1    2    0    0  0.00000000000E+00  0.00000000000E+00 -0.58057577835E+03  0.15241459653E+04  0.14092383365E+04 0.  0.
        5    1    3    3  502    0 -0.16112894581E+03 -0.29535953891E+03  0.37927661444E+03  0.50702330781E+03  0.46999998093E+01 0.  1.
       -5    1    3    3    0  502  0.16112894581E+03  0.29535953891E+03 -0.95985239278E+03  0.10171226575E+04  0.46999998093E+01 0. -1.
</event>
<event>
 5   0  0.8673728E-04  0.1432237E+04  0.7818609E-02  0.8930809E-01
        1   -1    0    0  501    0  0.00000000000E+00  0.00000000000E+00  0.68807978838E+03  0.68807978840E+03  0.50400001928E-02 0.  1.
       -1   -1    0    0    0  501  0.00000000000E+00  0.00000000000E+00 -0.74529973208E+03  0.74529973210E+03  0.50400001928E-02 0. -1.
    10030    2    1    2    0    0  0.00000000000E+00  0.00000000000E+00 -0.57219943699E+02  0.14333795205E+04  0.14322369664E+04 0.  0.
        3    1    3    3  502    0  0.45058566300E+03  0.15561102392E+03  0.50621641705E+03  0.69533970228E+03  0.10100000352E+00 0.  1.
       -3    1    3    3    0  502 -0.45058566300E+03 -0.15561102392E+03 -0.56343636075E+03  0.73803981822E+03  0.10100000352E+00 0. -1.
</event>
<event>
 5   0  0.8609148E-04  0.1392561E+04  0.7818609E-02  0.8959221E-01
        1   -1    0    0  501    0  0.00000000000E+00  0.00000000000E+00  0.12031336272E+04  0.12031336272E+04  0.50400001928E-02 0. -1.
       -1   -1    0    0    0  501  0.00000000000E+00  0.00000000000E+00 -0.40295337764E+03  0.40295337767E+03  0.50400001928E-02 0.  1.
    10030    2    1    2    0    0  0.00000000000E+00  0.00000000000E+00  0.80018024956E+03  0.16060870049E+04  0.13925613220E+04 0.  0.
        5    1    3    3  502    0 -0.20971205789E+02  0.67775342566E+03  0.21774976846E+03  0.71219839170E+03  0.46999998093E+01 0.  1.
       -5    1    3    3    0  502  0.20971205789E+02 -0.67775342566E+03  0.58243048109E+03  0.89388861318E+03  0.46999998093E+01 0. -1.
</event>
<event>
 5   0  0.8502300E-04  0.1359373E+04  0.7818609E-02  0.8983763E-01
        1   -1    0    0  501    0  0.00000000000E+00  0.00000000000E+00  0.11233581195E+04  0.11233581195E+04  0.50400001928E-02 0. -1.
       -1   -1    0    0    0  501  0.00000000000E+00  0.00000000000E+00 -0.41124345603E+03  0.41124345606E+03  0.50400001928E-02 0.  1.
    10030    2    1    2    0    0  0.00000000000E+00  0.00000000000E+00  0.71211466348E+03  0.15346015756E+04  0.13593729076E+04 0.  0.
        4    1    3    3  502    0 -0.38777655085E+03 -0.30404355595E+03  0.88454713283E+03  0.10125405574E+04  0.12699999809E+01 0. -1.
       -4    1    3    3    0  502  0.38777655085E+03  0.30404355595E+03 -0.17243246935E+03  0.52206101817E+03  0.12699999809E+01 0.  1.
</event>
<event>
 5   0  0.9007180E-04  0.1470797E+04  0.7818609E-02  0.8904108E-01
       -1   -1    0    0    0  501  0.00000000000E+00  0.00000000000E+00  0.28177629098E+03  0.28177629103E+03  0.50400001928E-02 0.  1.
        1   -1    0    0  501    0  0.00000000000E+00  0.00000000000E+00 -0.19192912752E+04  0.19192912752E+04  0.50400001928E-02 0. -1.
    10030    2    1    2    0    0  0.00000000000E+00  0.00000000000E+00 -0.16375149842E+04  0.22010675663E+04  0.14707967594E+04 0.  0.
        2    1    3    3  502    0 -0.39008459978E+03  0.62154690068E+03 -0.89090485533E+03  0.11542088225E+04  0.25500000920E-02 0. -1.
       -2    1    3    3    0  502  0.39008459978E+03 -0.62154690068E+03 -0.74661012891E+03  0.10468587437E+04  0.25500000920E-02 0.  1.
</event>
<event>
 5   0  0.1578965E-03  0.1378543E+04  0.7818609E-02  0.8969498E-01
       -2   -1    0    0    0  501  0.00000000000E+00  0.00000000000E+00  0.67531109432E+03  0.67531109432E+03  0.25500000920E-02 0. -1.
        2   -1    0    0  501    0  0.00000000000E+00  0.00000000000E+00 -0.70352058365E+03  0.70352058365E+03  0.25500000920E-02 0.  1.
    10030    2    1    2    0    0  0.00000000000E+00  0.00000000000E+00 -0.28209489327E+02  0.13788316780E+04  0.13785430791E+04 0.  0.
        2    1    3    3  502    0 -0.51092463379E+03  0.23182485001E+03  0.38636453148E+03  0.68122264619E+03  0.25500000920E-02 0. -1.
       -2    1    3    3    0  502  0.51092463379E+03 -0.23182485001E+03 -0.41457402081E+03  0.69760903178E+03  0.25500000920E-02 0.  1.
</event>
<event>
 5   0  0.1706986E-03  0.1378024E+04  0.7818609E-02  0.8969881E-01
       -2   -1    0    0    0  501  0.00000000000E+00  0.00000000000E+00  0.50204233967E+03  0.50204233967E+03  0.25500000920E-02 0. -1.
        2   -1    0    0  501    0  0.00000000000E+00  0.00000000000E+00 -0.94561303410E+03  0.94561303410E+03  0.25500000920E-02 0.  1.
    10030    2    1    2    0    0  0.00000000000E+00  0.00000000000E+00 -0.44357069443E+03  0.14476553738E+04  0.13780243540E+04 0.  0.
        3    1    3    3  502    0  0.11505109928E+03  0.44702039716E+03 -0.75917388257E+03  0.88848690767E+03  0.10100000352E+00 0.  1.
       -3    1    3    3    0  502 -0.11505109928E+03 -0.44702039716E+03  0.31560318814E+03  0.55916846610E+03  0.10100000352E+00 0. -1.
</event>
<event>
 5   0  0.1648213E-03  0.1387130E+04  0.7818609E-02  0.8963188E-01
       -2   -1    0    0    0  501  0.00000000000E+00  0.00000000000E+00  0.28760566675E+03  0.28760566676E+03  0.25500000920E-02 0.  1.
        2   -1    0    0  501    0  0.00000000000E+00  0.00000000000E+00 -0.16725408884E+04  0.16725408884E+04  0.25500000920E-02 0. -1.
    10030    2    1    2    0    0  0.00000000000E+00  0.00000000000E+00 -0.13849352216E+04  0.19601465551E+04  0.13871297522E+04 0.  0.
        4    1    3    3  502    0  0.31107334306E+03 -0.16127620813E+03  0.15333100748E+03  0.38247699385E+03  0.12699999809E+01 0.  1.
       -4    1    3    3    0  502 -0.31107334306E+03  0.16127620813E+03 -0.15382662291E+04  0.15776695613E+04  0.12699999809E+01 0. -1.
</event>
<event>
 5   0  0.8609148E-04  0.1403497E+04  0.7818609E-02  0.8951291E-01
        1   -1    0    0  501    0  0.00000000000E+00  0.00000000000E+00  0.49307949875E+03  0.49307949877E+03  0.50400001928E-02 0. -1.
       -1   -1    0    0    0  501  0.00000000000E+00  0.00000000000E+00 -0.99872593181E+03  0.99872593182E+03  0.50400001928E-02 0.  1.
    10030    2    1    2    0    0  0.00000000000E+00  0.00000000000E+00 -0.50564643306E+03  0.14918054306E+04  0.14034974626E+04 0.  0.
        5    1    3    3  502    0 -0.41833519298E+03 -0.43735693765E+03  0.12469112121E+03  0.61794448804E+03  0.46999998093E+01 0. -1.
       -5    1    3    3    0  502  0.41833519298E+03  0.43735693765E+03 -0.63033755427E+03  0.87386094255E+03  0.46999998093E+01 0.  1.
</event>
<event>
 5   0  0.1648463E-03  0.1402032E+04  0.7818609E-02  0.8952349E-01
       -2   -1    0    0    0  501  0.00000000000E+00  0.00000000000E+00  0.24807448542E+03  0.24807448543E+03  0.25500000920E-02 0.  1.
        2   -1    0    0  501    0  0.00000000000E+00  0.00000000000E+00 -0.19809523020E+04  0.19809523020E+04  0.25500000920E-02 0. -1.
    10030    2    1    2    0    0  0.00000000000E+00  0.00000000000E+00 -0.17328778166E+04  0.22290267875E+04  0.14020324147E+04 0.  0.
        1    1    3    3  502    0 -0.44136380885E+03 -0.16166385775E+03 -0.39582613637E+02  0.47170329445E+03  0.50400001928E-02 0.  1.
       -1    1    3    3    0  502  0.44136380885E+03  0.16166385775E+03 -0.16932952030E+04  0.17573234930E+04  0.50400001928E-02 0. -1.
</event>
<event>
 5   0  0.1605214E-03  0.1389830E+04  0.7818609E-02  0.8961213E-01
        2   -1    0    0  501    0  0.00000000000E+00  0.00000000000E+00  0.12782253368E+04  0.12782253368E+04  0.25500000920E-02 0. -1.
       -2   -1    0    0    0  501  0.00000000000E+00  0.00000000000E+00 -0.37779454384E+03  0.37779454384E+03  0.25500000920E-02 0.  1.
    10030    2    1    2    0    0  0.00000000000E+00  0.00000000000E+00  0.90043079295E+03  0.16560198806E+04  0.13898295695E+04 0.  0.
        5    1    3    3  502    0  0.86899427368E+01  0.12601052358E+03  0.12644133901E+04  0.12707153411E+04  0.46999998093E+01 0. -1.
       -5    1    3    3    0  502 -0.86899427368E+01 -0.12601052358E+03 -0.36398259713E+03  0.38530453951E+03  0.46999998093E+01 0.  1.
</event>
<event>
 5   0  0.8502300E-04  0.1408529E+04  0.7818609E-02  0.8947668E-01
        1   -1    0    0  501    0  0.00000000000E+00  0.00000000000E+00  0.11978524922E+04  0.11978524922E+04  0.50400001928E-02 0.  1.
       -1   -1    0    0    0  501  0.00000000000E+00  0.00000000000E+00 -0.41406475685E+03  0.41406475688E+03  0.50400001928E-02 0. -1.
    10030    2    1    2    0    0  0.00000000000E+00  0.00000000000E+00  0.78378773539E+03  0.16119172491E+04  0.14085290213E+04 0.  0.
        4    1    3    3  502    0  0.44262793014E+03 -0.29439335822E+03  0.92055100996E+03  0.10630158554E+04  0.12699999809E+01 0. -1.
       -4    1    3    3    0  502 -0.44262793014E+03  0.29439335822E+03 -0.13676327457E+03  0.54890139377E+03  0.12699999809E+01 0.  1.
</event>
<event>
 5   0  0.9007180E-04  0.1357039E+04  0.7818609E-02  0.8985517E-01
        1   -1    0    0  501    0  0.00000000000E+00  0.00000000000E+00  0.97326891084E+03  0.97326891086E+03  0.50400001928E-02 0.  1.
       -1   -1    0    0    0  501  0.00000000000E+00  0.00000000000E+00 -0.47303312009E+03  0.47303312012E+03  0.50400001928E-02 0. -1.
    10030    2    1    2    0    0  0.00000000000E+00  0.00000000000E+00  0.50023579075E+03  0.14463020310E+04  0.13570385840E+04 0.  0.
        2    1    3    3  502    0 -0.15648926615E+03 -0.27247902127E+03 -0.39081693067E+03  0.50146942156E+03  0.25500000920E-02 0. -1.
       -2    1    3    3    0  502  0.15648926615E+03  0.27247902127E+03  0.89105272142E+03  0.94483260941E+03  0.25500000920E-02 0.  1.
</event>
<event>
 5   0  0.9007180E-04  0.1352700E+04  0.7818609E-02  0.8988786E-01
       -1   -1    0    0    0  501  0.00000000000E+00  0.00000000000E+00  0.39214137018E+03  0.39214137021E+03  0.50400001928E-02 0. -1.
        1   -1    0    0  501    0  0.00000000000E+00  0.00000000000E+00 -0.11665424997E+04  0.11665424997E+04  0.50400001928E-02 0.  1.
    10030    2    1    2    0    0  0.00000000000E+00  0.00000000000E+00 -0.77440112950E+03  0.15586838699E+04  0.13527003722E+04 0.  0.
        2    1    3    3  502    0 -0.40732778215E+03  0.51664086526E+03 -0.20641489070E+03  0.68952216271E+03  0.25500000920E-02 0.  1.
       -2    1    3    3    0  502  0.40732778215E+03 -0.51664086526E+03 -0.56798623879E+03  0.86916170718E+03  0.25500000920E-02 0. -1.
</event>
<event>
 5   0  0.8609148E-04  0.1418278E+04  0.7818609E-02  0.8940693E-01
       -1   -1    0    0    0  501  0.00000000000E+00  0.00000000000E+00  0.59451270318E+03  0.59451270320E+03  0.50400001928E-02 0.  1.
        1   -1    0    0  501    0  0.00000000000E+00  0.00000000000E+00 -0.84586655451E+03  0.84586655453E+03  0.50400001928E-02 0. -1.
    10030    2    1    2    0    0  0.00000000000E+00  0.00000000000E+00 -0.25135385133E+03  0.14403792577E+04  0.14182784097E+04 0.  0.
        5    1    3    3  502    0 -0.36770111644E+03  0.51954548595E+03 -0.44315777784E+03  0.77559172834E+03  0.46999998093E+01 0. -1.
       -5    1    3    3    0  502  0.36770111644E+03 -0.51954548595E+03  0.19180392651E+03  0.66478752939E+03  0.46999998093E+01 0.  1.
</event>
<event>
 5   0  0.9007180E-04  0.1388819E+04  0.7818609E-02  0.8961952E-01
        1   -1    0    0  501    0  0.00000000000E+00  0.00000000000E+00  0.50471383729E+03  0.50471383732E+03  0.50400001928E-02 0.  1.
       -1   -1    0    0    0  501  0.00000000000E+00  0.00000000000E+00 -0.95540164576E+03  0.95540164578E+03  0.50400001928E-02 0. -1.
    10030    2    1    2    0    0  0.00000000000E+00  0.00000000000E+00 -0.45068780847E+03  0.14601154831E+04  0.13888188231E+04 0.  0.
        2    1    3    3  502    0 -0.21431453128E+03  0.78967511764E+02 -0.91478148131E+03  0.94286358758E+03  0.25500000920E-02 0. -1.
       -2    1    3    3    0  502  0.21431453128E+03 -0.78967511764E+02  0.46409367284E+03  0.51725189551E+03  0.25500000920E-02 0.  1.
</event>
<event>
 5   0  0.1578965E-03  0.1386187E+04  0.7818609E-02  0.8963878E-01
        2   -1    0    0  501    0  0.00000000000E+00  0.00000000000E+00  0.34472250416E+03  0.34472250417E+03  0.25500000920E-02 0.  1.
       -2   -1    0    0    0  501  0.00000000000E+00  0.00000000000E+00 -0.13935226548E+04  0.13935226548E+04  0.25500000920E-02 0. -1.
    10030    2    1    2    0    0  0.00000000000E+00  0.00000000000E+00 -0.10488001506E+04  0.17382451589E+04  0.13861870280E+04 0.  0.
        2    1    3    3  502    0  0.17374178502E+03  0.32019208880E+03 -0.12637881737E+04  0.13152451215E+04  0.25500000920E-02 0. -1.
       -2    1    3    3    0  502 -0.17374178502E+03 -0.32019208880E+03  0.21498802311E+03  0.42300003744E+03  0.25500000920E-02 0.  1.
</event>
<event>
 5   0  0.1578965E-03  0.1301255E+04  0.7818609E-02  0.9028570E-01
       -2   -1    0    0    0  501  0.00000000000E+00  0.00000000000E+00  0.23057524268E+03  0.23057524269E+03  0.25500000920E-02 0.  1.
        2   -1    0    0  501    0  0.00000000000E+00  0.00000000000E+00 -0.18359134311E+04  0.18359134311E+04  0.25500000920E-02 0. -1.
    10030    2    1    2    0    0  0.00000000000E+00  0.00000000000E+00 -0.16053381884E+04  0.20664886738E+04  0.13012550633E+04 0.  0.
        2    1    3    3  502    0  0.15420443792E+03  0.81273026548E+02 -0.17981414982E+04  0.18065705525E+04  0.25500000920E-02 0. -1.
       -2    1    3    3    0  502 -0.15420443792E+03 -0.81273026548E+02  0.19280330978E+03  0.25991812131E+03  0.25500000920E-02 0.  1.
</event>
<event>
 5   0  0.1706986E-03  0.1382743E+04  0.7818609E-02  0.8966406E-01
        2   -1    0    0  501    0  0.00000000000E+00  0.00000000000E+00  0.88683353993E+03  0.88683353993E+03  0.25500000920E-02 0.  1.
       -2   -1    0    0    0  501  0.00000000000E+00  0.00000000000E+00 -0.53898991929E+03  0.53898991930E+03  0.25500000920E-02 0. -1.
    10030    2    1    2    0    0  0.00000000000E+00  0.00000000000E+00  0.34784362064E+03  0.14258234592E+04  0.13827426921E+04 0.  0.
        3    1    3    3  502    0 -0.26061105134E+03  0.61363615977E+03 -0.14886409475E+02  0.66685011213E+03  0.10100000352E+00 0.  1.
       -3    1    3    3    0  502  0.26061105134E+03 -0.61363615977E+03  0.36273003011E+03  0.75897334710E+03  0.10100000352E+00 0. -1.
</event>
<event>
 5   0  0.9639548E-04  0.1381178E+04  0.7818609E-02  0.8967556E-01
       -1   -1    0    0    0  501  0.00000000000E+00  0.00000000000E+00  0.13589722310E+04  0.13589722310E+04  0.50400001928E-02 0.  1.
        1   -1    0    0  501    0  0.00000000000E+00  0.00000000000E+00 -0.35093679474E+03  0.35093679478E+03  0.50400001928E-02 0. -1.
    10030    2    1    2    0    0  0.00000000000E+00  0.00000000000E+00  0.10080354363E+04  0.17099090258E+04  0.13811782780E+04 0.  0.
        1    1    3    3  502    0  0.30368781760E+01  0.60430212011E+03  0.90213681602E+02  0.61100636934E+03  0.50400001928E-02 0. -1.
       -1    1    3    3    0  502 -0.30368781760E+01 -0.60430212011E+03  0.91782175465E+03  0.10989026564E+04  0.50400001928E-02 0.  1.
</event>
<event>
 5   0  0.9007180E-04  0.1444401E+04  0.7818609E-02  0.8922292E-01
        1   -1    0    0  501    0  0.00000000000E+00  0.00000000000E+00  0.41681240121E+03  0.41681240124E+03  0.50400001928E-02 0. -1.
       -1   -1    0    0    0  501  0.00000000000E+00  0.00000000000E+00 -0.12513385032E+04  0.12513385032E+04  0.50400001928E-02 0.  1.
    10030    2    1    2    0    0  0.00000000000E+00  0.00000000000E+00 -0.83452610200E+03  0.16681509045E+04  0.14444007841E+04 0.  0.
        2    1    3    3  502    0  0.16481615127E+03  0.59598296928E+03 -0.84817451759E+03  0.10496475960E+04  0.25500000920E-02 0.  1.
       -2    1    3    3    0  502 -0.16481615127E+03 -0.59598296928E+03  0.13648415584E+02  0.61850330852E+03  0.25500000920E-02 0. -1.
</event>
<event>
 5   0  0.9007180E-04  0.1398650E+04  0.7818609E-02  0.8954796E-01
       -1   -1    0    0    0  501  0.00000000000E+00  0.00000000000E+00  0.37073779165E+03  0.37073779169E+03  0.50400001928E-02 0. -1.
        1   -1    0    0  501    0  0.00000000000E+00  0.00000000000E+00 -0.13191409456E+04  0.13191409456E+04  0.50400001928E-02 0.  1.
    10030    2    1    2    0    0  0.00000000000E+00  0.00000000000E+00 -0.94840315393E+03  0.16898787373E+04  0.13986499220E+04 0.  0.
        2    1    3    3  502    0 -0.48829608624E+03 -0.13730916736E+03  0.10746451202E+03  0.51849348755E+03  0.25500000920E-02 0. -1.
       -2    1    3    3    0  502  0.48829608624E+03  0.13730916736E+03 -0.10558676660E+04  0.11713852497E+04  0.25500000920E-02 0.  1.
</event>
<event>
 5   0  0.1706986E-03  0.1403146E+04  0.7818609E-02  0.8951544E-01
        2   -1    0    0  501    0  0.00000000000E+00  0.00000000000E+00  0.35923068547E+03  0.35923068548E+03  0.25500000920E-02 0.  1.
       -2   -1    0    0    0  501  0.00000000000E+00  0.00000000000E+00 -0.13701640255E+04  0.13701640255E+04  0.25500000920E-02 0. -1.
    10030    2    1    2    0    0  0.00000000000E+00  0.00000000000E+00 -0.10109333400E+04  0.17293947110E+04  0.14031464102E+04 0.  0.
        3    1    3    3  502    0  0.54626221070E+03  0.38166780566E+03 -0.77586820462E+03  0.10227630214E+04  0.10100000352E+00 0. -1.
       -3    1    3    3    0  502 -0.54626221070E+03 -0.38166780566E+03 -0.23506513542E+03  0.70663168964E+03  0.10100000352E+00 0.  1.
</event>
<event>
 5   0  0.1578965E-03  0.1399166E+04  0.7818609E-02  0.8954422E-01
       -2   -1    0    0    0  501  0.00000000000E+00  0.00000000000E+00  0.60231427662E+03  0.60231427662E+03  0.25500000920E-02 0.  1.
        2   -1    0    0  501    0  0.00000000000E+00  0.00000000000E+00 -0.81256000094E+03  0.81256000095E+03  0.25500000920E-02 0. -1.
    10030    2    1    2    0    0  0.00000000000E+00  0.00000000000E+00 -0.21024572433E+03  0.14148742776E+04  0.13991661648E+04 0.  0.
        2    1    3    3  502    0 -0.21301331969E+02 -0.69710012630E+03 -0.16064055949E+03  0.71568688837E+03  0.25500000920E-02 0.  1.
       -2    1    3    3    0  502  0.21301331969E+02  0.69710012630E+03 -0.49605164837E+02  0.69918738920E+03  0.25500000920E-02 0. -1.
</event>
<event>
 5   0  0.1578965E-03  0.1387563E+04  0.7818609E-02  0.8962871E-01
       -2   -1    0    0    0  501  0.00000000000E+00  0.00000000000E+00  0.28268672262E+03  0.28268672263E+03  0.25500000920E-02 0. -1.
        2   -1    0    0  501    0  0.00000000000E+00  0.00000000000E+00 -0.17027070958E+04  0.17027070958E+04  0.25500000920E-02 0.  1.
    10030    2    1    2    0    0  0.00000000000E+00  0.00000000000E+00 -0.14200203731E+04  0.19853938184E+04  0.13875628829E+04 0.  0.
        2    1    3    3  502    0  0.19716905430E+02 -0.11800263111E+03  0.26781543072E+03  0.29332317032E+03  0.25500000920E-02 0. -1.
       -2    1    3    3    0  502 -0.19716905430E+02  0.11800263111E+03 -0.16878358038E+04  0.16920706481E+04  0.25500000920E-02 0.  1.
</event>
<event>
 5   0  0.8502300E-04  0.1402946E+04  0.7818609E-02  0.8951689E-01
       -1   -1    0    0    0  501  0.00000000000E+00  0.00000000000E+00  0.52043164251E+03  0.52043164254E+03  0.50400001928E-02 0. -1.
        1   -1    0    0  501    0  0.00000000000E+00  0.00000000000E+00 -0.94549279839E+03  0.94549279840E+03  0.50400001928E-02 0.  1.
    10030    2    1    2    0    0  0.00000000000E+00  0.00000000000E+00 -0.42506115587E+03  0.14659244409E+04  0.14029460005E+04 0.  0.
        4    1    3    3  502    0 -0.11535538429E+03 -0.18956211877E+03  0.48279030325E+03  0.53134616905E+03  0.12699999809E+01 0. -1.
       -4    1    3    3    0  502  0.11535538429E+03  0.18956211877E+03 -0.90785145912E+03  0.93457827189E+03  0.12699999809E+01 0.  1.
</event>
<event>
 5   0  0.6048000E-04  0.1393231E+04  0.7818609E-02  0.8958733E-01
       -3   -1    0    0    0  501  0.00000000000E+00  0.00000000000E+00  0.44895072370E+03  0.44895073507E+03  0.10100000352E+00 0.  1.
        3   -1    0    0  501    0  0.00000000000E+00  0.00000000000E+00 -0.10809057936E+04  0.10809057983E+04  0.10100000352E+00 0. -1.
    10030    2    1    2    0    0  0.00000000000E+00  0.00000000000E+00 -0.63195506986E+03  0.15298565333E+04  0.13932314245E+04 0.  0.
        1    1    3    3  502    0  0.48421095575E+02 -0.39212244362E+03  0.31401702712E+03  0.50468931694E+03  0.50400001928E-02 0.  1.
       -1    1    3    3    0  502 -0.48421095575E+02  0.39212244362E+03 -0.94597209698E+03  0.10251672164E+04  0.50400001928E-02 0. -1.
</event>
<event>
 5   0  0.1648463E-03  0.1411537E+04  0.7818609E-02  0.8945510E-01
       -2   -1    0    0    0  501  0.00000000000E+00  0.00000000000E+00  0.66928982606E+03  0.66928982606E+03  0.25500000920E-02 0. -1.
        2   -1    0    0  501    0  0.00000000000E+00  0.00000000000E+00 -0.74423522015E+03  0.74423522016E+03  0.25500000920E-02 0.  1.
    10030    2    1    2    0    0  0.00000000000E+00  0.00000000000E+00 -0.74945394099E+02  0.14135250462E+04  0.14115368377E+04 0.  0.
        1    1    3    3  502    0 -0.10073684011E+03 -0.62504265704E+03  0.27486858071E+03  0.69020212312E+03  0.50400001928E-02 0. -1.
       -1    1    3    3    0  502  0.10073684011E+03  0.62504265704E+03 -0.34981397481E+03  0.72332292309E+03  0.50400001928E-02 0.  1.
</event>
<event>
 5   0  0.1706986E-03  0.1047433E+04  0.7818609E-02  0.9257998E-01
        2   -1    0    0  501    0  0.00000000000E+00  0.00000000000E+00  0.46133017162E+03  0.46133017163E+03  0.25500000920E-02 0.  1.
       -2   -1    0    0    0  501  0.00000000000E+00  0.00000000000E+00 -0.59453993028E+03  0.59453993029E+03  0.25500000920E-02 0. -1.
    10030    2    1    2    0    0  0.00000000000E+00  0.00000000000E+00 -0.13320975866E+03  0.10558701019E+04  0.10474334501E+04 0.  0.
        3    1    3    3  502    0  0.35865003490E+03  0.40669552972E+02 -0.44912850980E+03  0.57619466206E+03  0.10100000352E+00 0. -1.
       -3    1    3    3    0  502 -0.35865003490E+03 -0.40669552972E+02  0.31591875114E+03  0.47967543985E+03  0.10100000352E+00 0.  1.
</event>
<event>
 5   0  0.9007180E-04  0.1404353E+04  0.7818609E-02  0.8950674E-01
       -1   -1    0    0    0  501  0.00000000000E+00  0.00000000000E+00  0.44823007929E+03  0.44823007932E+03  0.50400001928E-02 0. -1.
        1   -1    0    0  501    0  0.00000000000E+00  0.00000000000E+00 -0.10999969066E+04  0.10999969066E+04  0.50400001928E-02 0.  1.
    10030    2    1    2    0    0  0.00000000000E+00  0.00000000000E+00 -0.65176682734E+03  0.15482269860E+04  0.14043528057E+04 0.  0.
        2    1    3    3  502    0  0.19176559543E+03 -0.51698462732E+03  0.15340236076E+03  0.57234555364E+03  0.25500000920E-02 0. -1.
       -2    1    3    3    0  502 -0.19176559543E+03  0.51698462732E+03 -0.80516918810E+03  0.97588143232E+03  0.25500000920E-02 0.  1.
</event>
<event>
 5   0  0.1706986E-03  0.1395231E+04  0.7818609E-02  0.8957278E-01
        2   -1    0    0  501    0  0.00000000000E+00  0.00000000000E+00  0.12658716435E+04  0.12658716436E+04  0.25500000920E-02 0. -1.
       -2   -1    0    0    0  501  0.00000000000E+00  0.00000000000E+00 -0.38445219464E+03  0.38445219465E+03  0.25500000920E-02 0.  1.
    10030    2    1    2    0    0  0.00000000000E+00  0.00000000000E+00  0.88141944891E+03  0.16503238382E+04  0.13952306354E+04 0.  0.
        3    1    3    3  502    0  0.37738584229E+03  0.27561263466E+03 -0.17195255286E+03  0.49794586953E+03  0.10100000352E+00 0.  1.
       -3    1    3    3    0  502 -0.37738584229E+03 -0.27561263466E+03  0.10533720018E+04  0.11523779687E+04  0.10100000352E+00 0. -1.
</event>
<event>
 5   0  0.1578965E-03  0.1435539E+04  0.7818609E-02  0.8928488E-01
       -2   -1    0    0    0  501  0.00000000000E+00  0.00000000000E+00  0.71474586783E+03  0.71474586784E+03  0.25500000920E-02 0.  1.
        2   -1    0    0  501    0  0.00000000000E+00  0.00000000000E+00 -0.72080553311E+03  0.72080553312E+03  0.25500000920E-02 0. -1.
    10030    2    1    2    0    0  0.00000000000E+00  0.00000000000E+00 -0.60596652808E+01  0.14355514010E+04  0.14355386115E+04 0.  0.
        2    1    3    3  502    0  0.42908615591E+03  0.46577787044E+03  0.33480275328E+03  0.71634966140E+03  0.25500000920E-02 0.  1.
       -2    1    3    3    0  502 -0.42908615591E+03 -0.46577787044E+03 -0.34086241856E+03  0.71920173955E+03  0.25500000920E-02 0. -1.
</event>
<event>
 5   0  0.1605214E-03  0.1396600E+04  0.7818609E-02  0.8956283E-01
        2   -1    0    0  501    0  0.00000000000E+00  0.00000000000E+00  0.88163904021E+03  0.88163904022E+03  0.25500000920E-02 0. -1.
       -2   -1    0    0    0  501  0.00000000000E+00  0.00000000000E+00 -0.55308668530E+03  0.55308668531E+03  0.25500000920E-02 0.  1.
    10030    2    1    2    0    0  0.00000000000E+00  0.00000000000E+00  0.32855235491E+03  0.14347257255E+04  0.13965998917E+04 0.  0.
        5    1    3    3  502    0 -0.55878735185E+03 -0.21794916021E+03 -0.20305410315E+03  0.63324418657E+03  0.46999998093E+01 0.  1.
       -5    1    3    3    0  502  0.55878735185E+03  0.21794916021E+03  0.53160645807E+03  0.80148153895E+03  0.46999998093E+01 0. -1.
</event>
<event>
 5   0  0.8609148E-04  0.1400079E+04  0.7818609E-02  0.8953761E-01
        1   -1    0    0  501    0  0.00000000000E+00  0.00000000000E+00  0.21137053192E+03  0.21137053198E+03  0.50400001928E-02 0.  1.
       -1   -1    0    0    0  501  0.00000000000E+00  0.00000000000E+00 -0.23184664098E+04  0.23184664098E+04  0.50400001928E-02 0. -1.
    10030    2    1    2    0    0  0.00000000000E+00  0.00000000000E+00 -0.21070958779E+04  0.25298369418E+04  0.14000792526E+04 0.  0.
        5    1    3    3  502    0  0.77191339087E+02 -0.19484098079E+02  0.20313530323E+03  0.21822963667E+03  0.46999998093E+01 0.  1.
       -5    1    3    3    0  502 -0.77191339087E+02  0.19484098079E+02 -0.23102311811E+04  0.23116073051E+04  0.46999998093E+01 0. -1.
</event>
<event>
 5   0  0.8609148E-04  0.1399217E+04  0.7818609E-02  0.8954386E-01
       -1   -1    0    0    0  501  0.00000000000E+00  0.00000000000E+00  0.64950496894E+03  0.64950496896E+03  0.50400001928E-02 0. -1.
        1   -1    0    0  501    0  0.00000000000E+00  0.00000000000E+00 -0.75357661494E+03  0.75357661496E+03  0.50400001928E-02 0.  1.
    10030    2    1    2    0    0  0.00000000000E+00  0.00000000000E+00 -0.10407164600E+03  0.14030815839E+04  0.13992165750E+04 0.  0.
        5    1    3    3  502    0 -0.38769029953E+03 -0.54238116894E+03  0.16056057380E+03  0.68577174674E+03  0.46999998093E+01 0. -1.
       -5    1    3    3    0  502  0.38769029953E+03  0.54238116894E+03 -0.26463221980E+03  0.71730983718E+03  0.46999998093E+01 0.  1.
</event>
<event>
 5   0  0.1648463E-03  0.1402231E+04  0.7818609E-02  0.8952205E-01
       -2   -1    0    0    0  501  0.00000000000E+00  0.00000000000E+00  0.16135763010E+04  0.16135763010E+04  0.25500000920E-02 0.  1.
        2   -1    0    0  501    0  0.00000000000E+00  0.00000000000E+00 -0.30464199704E+03  0.30464199705E+03  0.25500000920E-02 0. -1.
    10030    2    1    2    0    0  0.00000000000E+00  0.00000000000E+00  0.13089343040E+04  0.19182182981E+04  0.14022312316E+04 0.  0.
        1    1    3    3  502    0  0.47412702659E+03  0.37892037036E+03  0.11345974469E+04  0.12867355792E+04  0.50400001928E-02 0.  1.
       -1    1    3    3    0  502 -0.47412702659E+03 -0.37892037036E+03  0.17433685712E+03  0.63148271884E+03  0.50400001928E-02 0. -1.
</event>
<event>
 5   0  0.8502300E-04  0.1386925E+04  0.7818609E-02  0.8963338E-01
        1   -1    0    0  501    0  0.00000000000E+00  0.00000000000E+00  0.21216561713E+04  0.21216561713E+04  0.50400001928E-02 0.  1.
       -1   -1    0    0    0  501  0.00000000000E+00  0.00000000000E+00 -0.22665780631E+03  0.22665780637E+03  0.50400001928E-02 0. -1.
    10030    2    1    2    0    0  0.00000000000E+00  0.00000000000E+00  0.18949983650E+04  0.23483139777E+04  0.13869245598E+04 0.  0.
        4    1    3    3  502    0 -0.22360242524E+03  0.12294541633E+03  0.20392721935E+04  0.20551754943E+04  0.12699999809E+01 0.  1.
       -4    1    3    3    0  502  0.22360242524E+03 -0.12294541633E+03 -0.14427382854E+03  0.29313848343E+03  0.12699999809E+01 0. -1.
</event>
<event>
 5   0  0.1578965E-03  0.1310637E+04  0.7818609E-02  0.9021172E-01
        2   -1    0    0  501    0  0.00000000000E+00  0.00000000000E+00  0.60108039398E+03  0.60108039398E+03  0.25500000920E-02 0. -1.
       -2   -1    0    0    0  501  0.00000000000E+00  0.00000000000E+00 -0.71445056058E+03  0.71445056058E+03  0.25500000920E-02 0.  1.
    10030    2    1    2    0    0  0.00000000000E+00  0.00000000000E+00 -0.11337016660E+03  0.13155309546E+04  0.13106368291E+04 0.  0.
        2    1    3    3  502    0  0.37508727981E+03 -0.53735462629E+03 -0.55352510382E+02  0.65765063847E+03  0.25500000920E-02 0.  1.
       -2    1    3    3    0  502 -0.37508727981E+03  0.53735462629E+03 -0.58017656216E+02  0.65788031609E+03  0.25500000920E-02 0. -1.
</event>
<event>
 5   0  0.9639548E-04  0.1520387E+04  0.7818609E-02  0.8871008E-01
       -1   -1    0    0    0  501  0.00000000000E+00  0.00000000000E+00  0.67436381146E+03  0.67436381148E+03  0.50400001928E-02 0.  1.
        1   -1    0    0  501    0  0.00000000000E+00  0.00000000000E+00 -0.85694750287E+03  0.85694750288E+03  0.50400001928E-02 0. -1.
    10030    2    1    2    0    0  0.00000000000E+00  0.00000000000E+00 -0.18258369141E+03  0.15313113144E+04  0.15203872984E+04 0.  0.
        1    1    3    3  502    0 -0.10138652264E+03  0.28903280582E+03 -0.79204598683E+03  0.84920906442E+03  0.50400001928E-02 0. -1.
       -1    1    3    3    0  502  0.10138652264E+03 -0.28903280582E+03  0.60946229542E+03  0.68210224994E+03  0.50400001928E-02 0.  1.
</event>
<event>
 5   0  0.1648213E-03  0.1410671E+04  0.7818609E-02  0.8946130E-01
        2   -1    0    0  501    0  0.00000000000E+00  0.00000000000E+00  0.94094299902E+03  0.94094299902E+03  0.25500000920E-02 0.  1.
       -2   -1    0    0    0  501  0.00000000000E+00  0.00000000000E+00 -0.52872316354E+03  0.52872316355E+03  0.25500000920E-02 0. -1.
    10030    2    1    2    0    0  0.00000000000E+00  0.00000000000E+00  0.41221983548E+03  0.14696661626E+04  0.14106712716E+04 0.  0.
        4    1    3    3  502    0 -0.21187934863E+03 -0.66028807939E+02 -0.49139962962E+03  0.53919186821E+03  0.12699999809E+01 0. -1.
       -4    1    3    3    0  502  0.21187934863E+03  0.66028807939E+02  0.90361946510E+03  0.93047429435E+03  0.12699999809E+01 0.  1.
</event>
<event>
 5   0  0.8502300E-04  0.1411752E+04  0.7818609E-02  0.8945355E-01
        1   -1    0    0  501    0  0.00000000000E+00  0.00000000000E+00  0.37106696086E+03  0.37106696090E+03  0.50400001928E-02 0.  1.
       -1   -1    0    0    0  501  0.00000000000E+00  0.00000000000E+00 -0.13427795023E+04  0.13427795023E+04  0.50400001928E-02 0. -1.
    10030    2    1    2    0    0  0.00000000000E+00  0.00000000000E+00 -0.97171254144E+03  0.17138464632E+04  0.14117522574E+04 0.  0.
        4    1    3    3  502    0 -0.26233205589E+03 -0.65266284368E+03 -0.41431759930E+03  0.81636240792E+03  0.12699999809E+01 0. -1.
       -4    1    3    3    0  502  0.26233205589E+03  0.65266284368E+03 -0.55739494214E+03  0.89748405529E+03  0.12699999809E+01 0.  1.
</event>
<event>
 5   0  0.6048000E-04  0.1389788E+04  0.7818609E-02  0.8961244E-01
        4   -1    0    0  501    0  0.00000000000E+00  0.00000000000E+00  0.76336074499E+03  0.76336180144E+03  0.12699999809E+01 0.  1.
       -4   -1    0    0    0  501  0.00000000000E+00  0.00000000000E+00 -0.63256585187E+03  0.63256712675E+03  0.12699999809E+01 0. -1.
    10030    2    1    2    0    0  0.00000000000E+00  0.00000000000E+00  0.13079489312E+03  0.13959289282E+04  0.13897878502E+04 0.  0.
        4    1    3    3  502    0  0.42829940714E+03  0.36222410864E+03  0.47736742925E+03  0.73656497503E+03  0.12699999809E+01 0.  1.
       -4    1    3    3    0  502 -0.42829940714E+03 -0.36222410864E+03 -0.34657253613E+03  0.65936395316E+03  0.12699999809E+01 0. -1.
</event>
<event>
 5   0  0.8502300E-04  0.1333057E+04  0.7818609E-02  0.9003754E-01
        1   -1    0    0  501    0  0.00000000000E+00  0.00000000000E+00  0.72713798863E+03  0.72713798865E+03  0.50400001928E-02 0.  1.
       -1   -1    0    0    0  501  0.00000000000E+00  0.00000000000E+00 -0.61097059085E+03  0.61097059087E+03  0.50400001928E-02 0. -1.
    10030    2    1    2    0    0  0.00000000000E+00  0.00000000000E+00  0.11616739778E+03  0.13381085795E+04  0.13330565278E+04 0.  0.
        4    1    3    3  502    0  0.60013806861E+03 -0.20930521804E+02  0.34841075441E+03  0.69425892492E+03  0.12699999809E+01 0.  1.
       -4    1    3    3    0  502 -0.60013806861E+03  0.20930521804E+02 -0.23224335663E+03  0.64384965461E+03  0.12699999809E+01 0. -1.
</event>
<event>
 5   0  0.8609148E-04  0.1379249E+04  0.7818609E-02  0.8968978E-01
       -1   -1    0    0    0  501  0.00000000000E+00  0.00000000000E+00  0.75394415707E+03  0.75394415708E+03  0.50400001928E-02 0.  1.
        1   -1    0    0  501    0  0.00000000000E+00  0.00000000000E+00 -0.63079171964E+03  0.63079171966E+03  0.50400001928E-02 0. -1.
    10030    2    1    2    0    0  0.00000000000E+00  0.00000000000E+00  0.12315243743E+03  0.13847358767E+04  0.13792486815E+04 0.  0.
        5    1    3    3  502    0 -0.67304903705E+03 -0.83231828469E-01  0.21238910706E+03  0.70578058630E+03  0.46999998093E+01 0.  1.
       -5    1    3    3    0  502  0.67304903705E+03  0.83231828469E-01 -0.89236669625E+02  0.67895529044E+03  0.46999998093E+01 0. -1.
</event>
<event>
 5   0  0.1648463E-03  0.1436407E+04  0.7818609E-02  0.8927879E-01
       -2   -1    0    0    0  501  0.00000000000E+00  0.00000000000E+00  0.39346408623E+03  0.39346408624E+03  0.25500000920E-02 0. -1.
        2   -1    0    0  501    0  0.00000000000E+00  0.00000000000E+00 -0.13109607455E+04  0.13109607455E+04  0.25500000920E-02 0.  1.
    10030    2    1    2    0    0  0.00000000000E+00  0.00000000000E+00 -0.91749665930E+03  0.17044248318E+04  0.14364065884E+04 0.  0.
        1    1    3    3  502    0 -0.60442681101E+03 -0.18813572575E+03 -0.56200344871E+02  0.63551970855E+03  0.50400001928E-02 0. -1.
       -1    1    3    3    0  502  0.60442681101E+03  0.18813572575E+03 -0.86129631443E+03  0.10689051232E+04  0.50400001928E-02 0.  1.
</event>
<event>
 5   0  0.8609148E-04  0.1373772E+04  0.7818609E-02  0.8973026E-01
       -1   -1    0    0    0  501  0.00000000000E+00  0.00000000000E+00  0.52285311877E+03  0.52285311879E+03  0.50400001928E-02 0.  1.
        1   -1    0    0  501    0  0.00000000000E+00  0.00000000000E+00 -0.90238047168E+03  0.90238047169E+03  0.50400001928E-02 0. -1.
    10030    2    1    2    0    0  0.00000000000E+00  0.00000000000E+00 -0.37952735291E+03  0.14252335905E+04  0.13737720975E+04 0.  0.
        5    1    3    3  502    0 -0.66464795079E+03  0.14451212861E+03 -0.90526410842E+02  0.68619077148E+03  0.46999998093E+01 0.  1.
       -5    1    3    3    0  502  0.66464795079E+03 -0.14451212861E+03 -0.28900094207E+03  0.73904281901E+03  0.46999998093E+01 0. -1.
</event>
<event>
 5   0  0.1648463E-03  0.1347296E+04  0.7818609E-02  0.8992877E-01
        2   -1    0    0  501    0  0.00000000000E+00  0.00000000000E+00  0.86474606144E+03  0.86474606145E+03  0.25500000920E-02 0.  1.
       -2   -1    0    0    0  501  0.00000000000E+00  0.00000000000E+00 -0.52478027181E+03  0.52478027182E+03  0.25500000920E-02 0. -1.
    10030    2    1    2    0    0  0.00000000000E+00  0.00000000000E+00  0.33996578963E+03  0.13895263333E+04  0.13472960672E+04 0.  0.
        1    1    3    3  502    0  0.56324649722E+03  0.34981152601E+03  0.47140492379E+02  0.66470816635E+03  0.50400001928E-02 0.  1.
       -1    1    3    3    0  502 -0.56324649722E+03 -0.34981152601E+03  0.29282529725E+03  0.72481816692E+03  0.50400001928E-02 0. -1.
</event>
<event>
 5   0  0.8673728E-04  0.1399985E+04  0.7818609E-02  0.8953829E-01
       -1   -1    0    0    0  501  0.00000000000E+00  0.00000000000E+00  0.48898179380E+03  0.48898179383E+03  0.50400001928E-02 0. -1.
        1   -1    0    0  501    0  0.00000000000E+00  0.00000000000E+00 -0.10020612696E+04  0.10020612696E+04  0.50400001928E-02 0.  1.
    10030    2    1    2    0    0  0.00000000000E+00  0.00000000000E+00 -0.51307947576E+03  0.14910430634E+04  0.13999853101E+04 0.  0.
        3    1    3    3  502    0  0.36058328486E+03  0.21127627816E+02  0.38206195067E+03  0.52577374062E+03  0.10100000352E+00 0. -1.
       -3    1    3    3    0  502 -0.36058328486E+03 -0.21127627816E+02 -0.89514142643E+03  0.96526932277E+03  0.10100000352E+00 0.  1.
</event>
<event>
 5   0  0.8609148E-04  0.1412319E+04  0.7818609E-02  0.8944949E-01
       -1   -1    0    0    0  501  0.00000000000E+00  0.00000000000E+00  0.68345370064E+03  0.68345370066E+03  0.50400001928E-02 0. -1.
        1   -1    0    0  501    0  0.00000000000E+00  0.00000000000E+00 -0.72962011757E+03  0.72962011758E+03  0.50400001928E-02 0.  1.
    10030    2    1    2    0    0  0.00000000000E+00  0.00000000000E+00 -0.46166416930E+02  0.14130738182E+04  0.14123194673E+04 0.  0.
        5    1    3    3  502    0  0.30717009267E+03  0.10460474523E+03 -0.65058951149E+03  0.72703811524E+03  0.46999998093E+01 0.  1.
       -5    1    3    3    0  502 -0.30717009267E+03 -0.10460474523E+03  0.60442309456E+03  0.68603570300E+03  0.46999998093E+01 0. -1.
</event>
<event>
 5   0  0.1648213E-03  0.1210278E+04  0.7818609E-02  0.9103908E-01
       -2   -1    0    0    0  501  0.00000000000E+00  0.00000000000E+00  0.86282366371E+03  0.86282366372E+03  0.25500000920E-02 0.  1.
        2   -1    0    0  501    0  0.00000000000E+00  0.00000000000E+00 -0.42441256511E+03  0.42441256512E+03  0.25500000920E-02 0. -1.
    10030    2    1    2    0    0  0.00000000000E+00  0.00000000000E+00  0.43841109860E+03  0.12872362288E+04  0.12102779918E+04 0.  0.
        4    1    3    3  502    0 -0.47178830398E+03  0.89610563015E+02  0.61082717353E+03  0.77699788005E+03  0.12699999809E+01 0. -1.
       -4    1    3    3    0  502  0.47178830398E+03 -0.89610563015E+02 -0.17241607493E+03  0.51023834879E+03  0.12699999809E+01 0.  1.
</event>
<event>
 5   0  0.1578965E-03  0.1398214E+04  0.7818609E-02  0.8955112E-01
       -2   -1    0    0    0  501  0.00000000000E+00  0.00000000000E+00  0.26448935507E+03  0.26448935508E+03  0.25500000920E-02 0.  1.
        2   -1    0    0  501    0  0.00000000000E+00  0.00000000000E+00 -0.18479038643E+04  0.18479038643E+04  0.25500000920E-02 0. -1.
    10030    2    1    2    0    0  0.00000000000E+00  0.00000000000E+00 -0.15834145093E+04  0.21123932194E+04  0.13982144347E+04 0.  0.
        2    1    3    3  502    0 -0.50149865514E+03 -0.16583869199E+03 -0.99797569960E+02  0.53755272099E+03  0.25500000920E-02 0.  1.
       -2    1    3    3    0  502  0.50149865514E+03  0.16583869199E+03 -0.14836169393E+04  0.15748404984E+04  0.25500000920E-02 0. -1.
</event>
<event>
 5   0  0.8502300E-04  0.1401652E+04  0.7818609E-02  0.8952624E-01
       -1   -1    0    0    0  501  0.00000000000E+00  0.00000000000E+00  0.35829096220E+03  0.35829096223E+03  0.50400001928E-02 0. -1.
        1   -1    0    0  501    0  0.00000000000E+00  0.00000000000E+00 -0.13708324315E+04  0.13708324315E+04  0.50400001928E-02 0.  1.
    10030    2    1    2    0    0  0.00000000000E+00  0.00000000000E+00 -0.10125414693E+04  0.17291233937E+04  0.14016516984E+04 0.  0.
        4    1    3    3  502    0 -0.28049221740E+03 -0.88876263263E+02  0.27840150799E+03  0.40507269316E+03  0.12699999809E+01 0. -1.
       -4    1    3    3    0  502  0.28049221740E+03  0.88876263263E+02 -0.12909429773E+04  0.13240507006E+04  0.12699999809E+01 0.  1.
</event>
<event>
 5   0  0.1605214E-03  0.1395050E+04  0.7818609E-02  0.8957409E-01
        2   -1    0    0  501    0  0.00000000000E+00  0.00000000000E+00  0.18906601144E+04  0.18906601144E+04  0.25500000920E-02 0. -1.
       -2   -1    0    0    0  501  0.00000000000E+00  0.00000000000E+00 -0.25733938281E+03  0.25733938283E+03  0.25500000920E-02 0.  1.
    10030    2    1    2    0    0  0.00000000000E+00  0.00000000000E+00  0.16333207316E+04  0.21479994972E+04  0.13950502600E+04 0.  0.
        5    1    3    3  502    0  0.17448624401E+03  0.66779564902E+03  0.66174541416E+03  0.95620372377E+03  0.46999998093E+01 0.  1.
       -5    1    3    3    0  502 -0.17448624401E+03 -0.66779564902E+03  0.97157531742E+03  0.11917957734E+04  0.46999998093E+01 0. -1.
</event>
<event>
 5   0  0.9639548E-04  0.1378599E+04  0.7818609E-02  0.8969457E-01
        1   -1    0    0  501    0  0.00000000000E+00  0.00000000000E+00  0.12116561456E+04  0.12116561456E+04  0.50400001928E-02 0.  1.
       -1   -1    0    0    0  501  0.00000000000E+00  0.00000000000E+00 -0.39213587205E+03  0.39213587208E+03  0.50400001928E-02 0. -1.
    10030    2    1    2    0    0  0.00000000000E+00  0.00000000000E+00  0.81952027356E+03  0.16037920177E+04  0.13785990560E+04 0.  0.
        1    1    3    3  502    0 -0.42642897225E+03 -0.19896290411E+03 -0.17620986485E+03  0.50247171272E+03  0.50400001928E-02 0. -1.
       -1    1    3    3    0  502  0.42642897225E+03  0.19896290411E+03  0.99573013841E+03  0.11013203050E+04  0.50400001928E-02 0.  1.
</event>
<event>
 5   0  0.1648213E-03  0.1427772E+04  0.7818609E-02  0.8933957E-01
        2   -1    0    0  501    0  0.00000000000E+00  0.00000000000E+00  0.92117629079E+03  0.92117629080E+03  0.25500000920E-02 0.  1.
       -2   -1    0    0    0  501  0.00000000000E+00  0.00000000000E+00 -0.55324202742E+03  0.55324202742E+03  0.25500000920E-02 0. -1.
    10030    2    1    2    0    0  0.00000000000E+00  0.00000000000E+00  0.36793426338E+03  0.14744183182E+04  0.14277723050E+04 0.  0.
        4    1    3    3  502    0 -0.72017329474E+02 -0.16271470286E+03  0.89790718210E+03  0.91536959248E+03  0.12699999809E+01 0.  1.
       -4    1    3    3    0  502  0.72017329474E+02  0.16271470286E+03 -0.52997291872E+03  0.55904872574E+03  0.12699999809E+01 0. -1.
</event>
<event>
 5   0  0.9007180E-04  0.1405409E+04  0.7818609E-02  0.8949913E-01
        1   -1    0    0  501    0  0.00000000000E+00  0.00000000000E+00  0.70874041949E+03  0.70874041951E+03  0.50400001928E-02 0.  1.
       -1   -1    0    0    0  501  0.00000000000E+00  0.00000000000E+00 -0.69671953285E+03  0.69671953286E+03  0.50400001928E-02 0. -1.
    10030    2    1    2    0    0  0.00000000000E+00  0.00000000000E+00  0.12020886647E+02  0.14054599524E+04  0.14054085442E+04 0.  0.
        2    1    3    3  502    0 -0.47270723093E+03 -0.44621620808E+03 -0.26089305002E+03  0.70044715295E+03  0.25500000920E-02 0. -1.
       -2    1    3    3    0  502  0.47270723093E+03  0.44621620808E+03  0.27291393666E+03  0.70501279942E+03  0.25500000920E-02 0.  1.
</event>
<event>
 5   0  0.9007180E-04  0.1396224E+04  0.7818609E-02  0.8956556E-01
       -1   -1    0    0    0  501  0.00000000000E+00  0.00000000000E+00  0.37196766405E+03  0.37196766409E+03  0.50400001928E-02 0. -1.
        1   -1    0    0  501    0  0.00000000000E+00  0.00000000000E+00 -0.13102220584E+04  0.13102220584E+04  0.50400001928E-02 0.  1.
    10030    2    1    2    0    0  0.00000000000E+00  0.00000000000E+00 -0.93825439436E+03  0.16821897225E+04  0.13962238194E+04 0.  0.
        2    1    3    3  502    0 -0.35385291888E+03 -0.31125901090E+03 -0.10896544685E+04  0.11871987705E+04  0.25500000920E-02 0.  1.
       -2    1    3    3    0  502  0.35385291888E+03  0.31125901090E+03  0.15140007414E+03  0.49499095196E+03  0.25500000920E-02 0. -1.
</event>
<event>
 5   0  0.1578965E-03  0.1441886E+04  0.7818609E-02  0.8924045E-01
        2   -1    0    0  501    0  0.00000000000E+00  0.00000000000E+00  0.61607356921E+03  0.61607356921E+03  0.25500000920E-02 0.  1.
       -2   -1    0    0    0  501  0.00000000000E+00  0.00000000000E+00 -0.84366363191E+03  0.84366363191E+03  0.25500000920E-02 0. -1.
    10030    2    1    2    0    0  0.00000000000E+00  0.00000000000E+00 -0.22759006270E+03  0.14597372011E+04  0.14418860772E+04 0.  0.
        2    1    3    3  502    0 -0.17180932162E+03  0.20994015202E+03 -0.79002084771E+03  0.83530009592E+03  0.25500000920E-02 0. -1.
       -2    1    3    3    0  502  0.17180932162E+03 -0.20994015202E+03  0.56243078501E+03  0.62443710521E+03  0.25500000920E-02 0.  1.
</event>
<event>
 5   0  0.8609148E-04  0.1305965E+04  0.7818609E-02  0.9024848E-01
        1   -1    0    0  501    0  0.00000000000E+00  0.00000000000E+00  0.48324815184E+03  0.48324815186E+03  0.50400001928E-02 0.  1.
       -1   -1    0    0    0  501  0.00000000000E+00  0.00000000000E+00 -0.88233367559E+03  0.88233367561E+03  0.50400001928E-02 0. -1.
    10030    2    1    2    0    0  0.00000000000E+00  0.00000000000E+00 -0.39908552376E+03  0.13655818275E+04  0.13059649583E+04 0.  0.
        5    1    3    3  502    0 -0.47093602753E+03 -0.37267993094E+03 -0.46754943267E+03  0.76111473178E+03  0.46999998093E+01 0. -1.
       -5    1    3    3    0  502  0.47093602753E+03  0.37267993094E+03  0.68463908910E+02  0.60446709569E+03  0.46999998093E+01 0.  1.
</event>
<event>
 5   0  0.8502300E-04  0.1408276E+04  0.7818609E-02  0.8947850E-01
        1   -1    0    0  501    0  0.00000000000E+00  0.00000000000E+00  0.74293614155E+03  0.74293614157E+03  0.50400001928E-02 0. -1.
       -1   -1    0    0    0  501  0.00000000000E+00  0.00000000000E+00 -0.66736600019E+03  0.66736600021E+03  0.50400001928E-02 0.  1.
    10030    2    1    2    0    0  0.00000000000E+00  0.00000000000E+00  0.75570141360E+02  0.14103021418E+04  0.14082759974E+04 0.  0.
        4    1    3    3  502    0 -0.58850964083E+03 -0.33666184697E+03  0.22812143726E+03  0.71535012378E+03  0.12699999809E+01 0.  1.
       -4    1    3    3    0  502  0.58850964083E+03  0.33666184697E+03 -0.15255129590E+03  0.69495201801E+03  0.12699999809E+01 0. -1.
</event>
<event>
 5   0  0.8609148E-04  0.1402262E+04  0.7818609E-02  0.8952183E-01
        1   -1    0    0  501    0  0.00000000000E+00  0.00000000000E+00  0.13445741902E+04  0.13445741902E+04  0.50400001928E-02 0.  1.
       -1   -1    0    0    0  501  0.00000000000E+00  0.00000000000E+00 -0.36560601147E+03  0.36560601150E+03  0.50400001928E-02 0. -1.
    10030    2    1    2    0    0  0.00000000000E+00  0.00000000000E+00  0.97896817872E+03  0.17101802017E+04  0.14022616116E+04 0.  0.
        5    1    3    3  502    0  0.31989306869E+03 -0.28772451445E+03  0.11646171010E+04  0.12415603302E+04  0.46999998093E+01 0.  1.
       -5    1    3    3    0  502 -0.31989306869E+03  0.28772451445E+03 -0.18564892228E+03  0.46861987149E+03  0.46999998093E+01 0. -1.
</event>
<event>
 5   0  0.1578965E-03  0.1367152E+04  0.7818609E-02  0.8977945E-01
       -2   -1    0    0    0  501  0.00000000000E+00  0.00000000000E+00  0.47619182618E+03  0.47619182619E+03  0.25500000920E-02 0.  1.
        2   -1    0    0  501    0  0.00000000000E+00  0.00000000000E+00 -0.98127724710E+03  0.98127724710E+03  0.25500000920E-02 0. -1.
    10030    2    1    2    0    0  0.00000000000E+00  0.00000000000E+00 -0.50508542091E+03  0.14574690733E+04  0.13671520827E+04 0.  0.
        2    1    3    3  502    0  0.29148063809E+03  0.68974017387E+02  0.40250699921E+03  0.50172727839E+03  0.25500000920E-02 0.  1.
       -2    1    3    3    0  502 -0.29148063809E+03 -0.68974017387E+02 -0.90759242012E+03  0.95574179490E+03  0.25500000920E-02 0. -1.
</event>
<event>
 5   0  0.1578965E-03  0.1386411E+04  0.7818609E-02  0.8963714E-01
       -2   -1    0    0    0  501  0.00000000000E+00  0.00000000000E+00  0.26496693903E+03  0.26496693904E+03  0.25500000920E-02 0. -1.
        2   -1    0    0  501    0  0.00000000000E+00  0.00000000000E+00 -0.18135619366E+04  0.18135619366E+04  0.25500000920E-02 0.  1.
    10030    2    1    2    0    0  0.00000000000E+00  0.00000000000E+00 -0.15485949976E+04  0.20785288757E+04  0.13864111296E+04 0.  0.
        2    1    3    3  502    0 -0.37906559960E+03 -0.18016341383E+03 -0.16014302176E+04  0.16555145202E+04  0.25500000920E-02 0.  1.
       -2    1    3    3    0  502  0.37906559960E+03  0.18016341383E+03  0.52835220038E+02  0.42301435551E+03  0.25500000920E-02 0. -1.
</event>
<event>
 5   0  0.9639548E-04  0.1401461E+04  0.7818609E-02  0.8952762E-01
       -1   -1    0    0    0  501  0.00000000000E+00  0.00000000000E+00  0.30779409125E+03  0.30779409130E+03  0.50400001928E-02 0.  1.
        1   -1    0    0  501    0  0.00000000000E+00  0.00000000000E+00 -0.15952974486E+04  0.15952974486E+04  0.50400001928E-02 0. -1.
    10030    2    1    2    0    0  0.00000000000E+00  0.00000000000E+00 -0.12875033573E+04  0.19030915399E+04  0.14014608500E+04 0.  0.
        1    1    3    3  502    0  0.38973079380E+03  0.44528624111E+03 -0.11533899899E+04  0.12963326722E+04  0.50400001928E-02 0. -1.
       -1    1    3    3    0  502 -0.38973079380E+03 -0.44528624111E+03 -0.13411336739E+03  0.60675886767E+03  0.50400001928E-02 0.  1.
</event>
<event>
 5   0  0.1706986E-03  0.1699064E+04  0.7818609E-02  0.8761898E-01
        2   -1    0    0  501    0  0.00000000000E+00  0.00000000000E+00  0.68018671930E+03  0.68018671930E+03  0.25500000920E-02 0.  1.
       -2   -1    0    0    0  501  0.00000000000E+00  0.00000000000E+00 -0.10610394928E+04  0.10610394928E+04  0.25500000920E-02 0. -1.
    10030    2    1    2    0    0  0.00000000000E+00  0.00000000000E+00 -0.38085277349E+03  0.17412262121E+04  0.16990644151E+04 0.  0.
        3    1    3    3  502    0 -0.26482971754E+03  0.75560509972E+03  0.10057609049E+03  0.80696307610E+03  0.10100000352E+00 0.  1.
       -3    1    3    3    0  502  0.26482971754E+03 -0.75560509972E+03 -0.48142886398E+03  0.93426313600E+03  0.10100000352E+00 0. -1.
</event>
<event>
 5   0  0.1706986E-03  0.1397800E+04  0.7818609E-02  0.8955413E-01
       -2   -1    0    0    0  501  0.00000000000E+00  0.00000000000E+00  0.67355582214E+03  0.67355582215E+03  0.25500000920E-02 0.  1.
        2   -1    0    0  501    0  0.00000000000E+00  0.00000000000E+00 -0.72519775418E+03  0.72519775418E+03  0.25500000920E-02 0. -1.
    10030    2    1    2    0    0  0.00000000000E+00  0.00000000000E+00 -0.51641932036E+02  0.13987535763E+04  0.13977999421E+04 0.  0.
        3    1    3    3  502    0 -0.27925894572E+03  0.47465014771E+03 -0.45644330881E+03  0.71527534967E+03  0.10100000352E+00 0. -1.
       -3    1    3    3    0  502  0.27925894572E+03 -0.47465014771E+03  0.40480137677E+03  0.68347822666E+03  0.10100000352E+00 0.  1.
</event>
<event>
 5   0  0.1648213E-03  0.1423594E+04  0.7818609E-02  0.8936915E-01
       -2   -1    0    0    0  501  0.00000000000E+00  0.00000000000E+00  0.80032516591E+03  0.80032516592E+03  0.25500000920E-02 0. -1.
        2   -1    0    0  501    0  0.00000000000E+00  0.00000000000E+00 -0.63306127928E+03  0.63306127928E+03  0.25500000920E-02 0.  1.
    10030    2    1    2    0    0  0.00000000000E+00  0.00000000000E+00  0.16726388663E+03  0.14333864452E+04  0.14235938654E+04 0.  0.
        4    1    3    3  502    0  0.33771765207E+03  0.56181716213E+02 -0.54471499888E+03  0.64337053139E+03  0.12699999809E+01 0.  1.
       -4    1    3    3    0  502 -0.33771765207E+03 -0.56181716213E+02  0.71197888551E+03  0.79001591381E+03  0.12699999809E+01 0. -1.
</event>
<event>
 5   0  0.8502300E-04  0.1382353E+04  0.7818609E-02  0.8966692E-01
        1   -1    0    0  501    0  0.00000000000E+00  0.00000000000E+00  0.15312102900E+04  0.15312102900E+04  0.50400001928E-02 0.  1.
       -1   -1    0    0    0  501  0.00000000000E+00  0.00000000000E+00 -0.31199181777E+03  0.31199181781E+03  0.50400001928E-02 0. -1.
    10030    2    1    2    0    0  0.00000000000E+00  0.00000000000E+00  0.12192184722E+04  0.18432021078E+04  0.13823531847E+04 0.  0.
        4    1    3    3  502    0  0.50495404382E+03  0.22297963977E+03  0.54972893674E+02  0.55472708431E+03  0.12699999809E+01 0. -1.
       -4    1    3    3    0  502 -0.50495404382E+03 -0.22297963977E+03  0.11642455785E+04  0.12884750235E+04  0.12699999809E+01 0.  1.
</event>
<event>
 5   0  0.8502300E-04  0.1420371E+04  0.7818609E-02  0.8939203E-01
        1   -1    0    0  501    0  0.00000000000E+00  0.00000000000E+00  0.10448994987E+04  0.10448994987E+04  0.50400001928E-02 0. -1.
       -1   -1    0    0    0  501  0.00000000000E+00  0.00000000000E+00 -0.48269119813E+03  0.48269119815E+03  0.50400001928E-02 0.  1.
    10030    2    1    2    0    0  0.00000000000E+00  0.00000000000E+00  0.56220830061E+03  0.15275906969E+04  0.14203714880E+04 0.  0.
        4    1    3    3  502    0  0.16429852876E+03  0.82937440394E+02  0.10188046048E+04  0.10352956395E+04  0.12699999809E+01 0. -1.
       -4    1    3    3    0  502 -0.16429852876E+03 -0.82937440394E+02 -0.45659630421E+03  0.49229505735E+03  0.12699999809E+01 0.  1.
</event>
<event>
 5   0  0.1605214E-03  0.1391535E+04  0.7818609E-02  0.8959969E-01
        2   -1    0    0  501    0  0.00000000000E+00  0.00000000000E+00  0.25663155141E+03  0.25663155142E+03  0.25500000920E-02 0.  1.
       -2   -1    0    0    0  501  0.00000000000E+00  0.00000000000E+00 -0.18863326127E+04  0.18863326127E+04  0.25500000920E-02 0. -1.
    10030    2    1    2    0    0  0.00000000000E+00  0.00000000000E+00 -0.16297010613E+04  0.21429641641E+04  0.13915350731E+04 0.  0.
        5    1    3    3  502    0  0.85952323495E+02  0.58591639671E+03 -0.25241400866E+03  0.64375519230E+03  0.46999998093E+01 0.  1.
       -5    1    3    3    0  502 -0.85952323495E+02 -0.58591639671E+03 -0.13772870526E+04  0.14992089718E+04  0.46999998093E+01 0. -1.
</event>
<event>
 5   0  0.8502300E-04  0.1509344E+04  0.7818609E-02  0.8878263E-01
       -1   -1    0    0    0  501  0.00000000000E+00  0.00000000000E+00  0.43190755658E+03  0.43190755661E+03  0.50400001928E-02 0.  1.
        1   -1    0    0  501    0  0.00000000000E+00  0.00000000000E+00 -0.13186388194E+04  0.13186388194E+04  0.50400001928E-02 0. -1.
    10030    2    1    2    0    0  0.00000000000E+00  0.00000000000E+00 -0.88673126284E+03  0.17505463760E+04  0.15093443219E+04 0.  0.
        4    1    3    3  502    0  0.42165473086E+03  0.57223460306E+03 -0.14930668777E+03  0.72631897463E+03  0.12699999809E+01 0. -1.
       -4    1    3    3    0  502 -0.42165473086E+03 -0.57223460306E+03 -0.73742457507E+03  0.10242274014E+04  0.12699999809E+01 0.  1.
</event>
<event>
 5   0  0.1706986E-03  0.1361478E+04  0.7818609E-02  0.8982185E-01
       -2   -1    0    0    0  501  0.00000000000E+00  0.00000000000E+00  0.52568995285E+03  0.52568995285E+03  0.25500000920E-02 0. -1.
        2   -1    0    0  501    0  0.00000000000E+00  0.00000000000E+00 -0.88151848000E+03  0.88151848001E+03  0.25500000920E-02 0.  1.
    10030    2    1    2    0    0  0.00000000000E+00  0.00000000000E+00 -0.35582852716E+03  0.14072084329E+04  0.13614777386E+04 0.  0.
        3    1    3    3  502    0  0.61149970426E+03  0.25380454007E+03 -0.34152446729E+03  0.74497490215E+03  0.10100000352E+00 0.  1.
       -3    1    3    3    0  502 -0.61149970426E+03 -0.25380454007E+03 -0.14304059869E+02  0.66223353071E+03  0.10100000352E+00 0. -1.
</event>
<event>
 5   0  0.1605214E-03  0.1146850E+04  0.7818609E-02  0.9160694E-01
        2   -1    0    0  501    0  0.00000000000E+00  0.00000000000E+00  0.69874363445E+03  0.69874363446E+03  0.25500000920E-02 0.  1.
       -2   -1    0    0    0  501  0.00000000000E+00  0.00000000000E+00 -0.47058217053E+03  0.47058217054E+03  0.25500000920E-02 0. -1.
    10030    2    1    2    0    0  0.00000000000E+00  0.00000000000E+00  0.22816146392E+03  0.11693258050E+04  0.11468501143E+04 0.  0.
        5    1    3    3  502    0  0.66251114698E+02 -0.10560300170E+03 -0.45657803353E+03  0.47331468904E+03  0.46999998093E+01 0. -1.
       -5    1    3    3    0  502 -0.66251114698E+02  0.10560300170E+03  0.68473949745E+03  0.69601111595E+03  0.46999998093E+01 0.  1.
</event>
<event>
 5   0  0.8502300E-04  0.1297144E+04  0.7818609E-02  0.9031833E-01
       -1   -1    0    0    0  501  0.00000000000E+00  0.00000000000E+00  0.35041167953E+03  0.35041167957E+03  0.50400001928E-02 0. -1.
        1   -1    0    0  501    0  0.00000000000E+00  0.00000000000E+00 -0.12004324535E+04  0.12004324536E+04  0.50400001928E-02 0.  1.
    10030    2    1    2    0    0  0.00000000000E+00  0.00000000000E+00 -0.85002077402E+03  0.15508441331E+04  0.12971438660E+04 0.  0.
        4    1    3    3  502    0  0.33410356739E+02  0.24908664724E+03 -0.11398490334E+04  0.11672265597E+04  0.12699999809E+01 0.  1.
       -4    1    3    3    0  502 -0.33410356739E+02 -0.24908664724E+03  0.28982825942E+03  0.38361757341E+03  0.12699999809E+01 0. -1.
</event>
<event>
 5   0  0.8673728E-04  0.1406605E+04  0.7818609E-02  0.8949052E-01
        1   -1    0    0  501    0  0.00000000000E+00  0.00000000000E+00  0.42082193971E+03  0.42082193974E+03  0.50400001928E-02 0. -1.
       -1   -1    0    0    0  501  0.00000000000E+00  0.00000000000E+00 -0.11754001335E+04  0.11754001335E+04  0.50400001928E-02 0.  1.
    10030    2    1    2    0    0  0.00000000000E+00  0.00000000000E+00 -0.75457819380E+03  0.15962220733E+04  0.14066046554E+04 0.  0.
        3    1    3    3  502    0 -0.63533023424E+03  0.25325075223E+03 -0.19132746028E+03  0.71020184265E+03  0.10100000352E+00 0. -1.
       -3    1    3    3    0  502  0.63533023424E+03 -0.25325075223E+03 -0.56325073352E+03  0.88602023062E+03  0.10100000352E+00 0.  1.
</event>
<event>
 5   0  0.8502300E-04  0.1500586E+04  0.7818609E-02  0.8884063E-01
       -1   -1    0    0    0  501  0.00000000000E+00  0.00000000000E+00  0.98022144244E+03  0.98022144245E+03  0.50400001928E-02 0.  1.
        1   -1    0    0  501    0  0.00000000000E+00  0.00000000000E+00 -0.57429861491E+03  0.57429861493E+03  0.50400001928E-02 0. -1.
    10030    2    1    2    0    0  0.00000000000E+00  0.00000000000E+00  0.40592282753E+03  0.15545200574E+04  0.15005863077E+04 0.  0.
        4    1    3    3  502    0 -0.32693549217E+03  0.66578664458E+02 -0.49321818758E+03  0.59547067776E+03  0.12699999809E+01 0. -1.
       -4    1    3    3    0  502  0.32693549217E+03 -0.66578664458E+02  0.89914101511E+03  0.95904937962E+03  0.12699999809E+01 0.  1.
</event>
<event>
 5   0  0.1605214E-03  0.1512900E+04  0.7818609E-02  0.8875920E-01
        2   -1    0    0  501    0  0.00000000000E+00  0.00000000000E+00  0.12727379808E+04  0.12727379808E+04  0.25500000920E-02 0.  1.
       -2   -1    0    0    0  501  0.00000000000E+00  0.00000000000E+00 -0.44959496909E+03  0.44959496910E+03  0.25500000920E-02 0. -1.
    10030    2    1    2    0    0  0.00000000000E+00  0.00000000000E+00  0.82314301173E+03  0.17223329499E+04  0.15128999876E+04 0.  0.
        5    1    3    3  502    0  0.39481048817E+03 -0.15397689325E+03 -0.30175396898E+03  0.52025162471E+03  0.46999998093E+01 0. -1.
       -5    1    3    3    0  502 -0.39481048817E+03  0.15397689325E+03  0.11248969807E+04  0.12020813252E+04  0.46999998093E+01 0.  1.
</event>
<event>
 5   0  0.8502300E-04  0.1396730E+04  0.7818609E-02  0.8956189E-01
        1   -1    0    0  501    0  0.00000000000E+00  0.00000000000E+00  0.46458243211E+03  0.46458243214E+03  0.50400001928E-02 0.  1.
       -1   -1    0    0    0  501  0.00000000000E+00  0.00000000000E+00 -0.10497892198E+04  0.10497892199E+04  0.50400001928E-02 0. -1.
    10030    2    1    2    0    0  0.00000000000E+00  0.00000000000E+00 -0.58520678774E+03  0.15143716520E+04  0.13967299367E+04 0.  0.
        4    1    3    3  502    0  0.61412685465E+03 -0.33239231486E+03 -0.30202877846E+03  0.76082812809E+03  0.12699999809E+01 0.  1.
       -4    1    3    3    0  502 -0.61412685465E+03  0.33239231486E+03 -0.28317800928E+03  0.75354352390E+03  0.12699999809E+01 0. -1.
</event>
<event>
 5   0  0.9007180E-04  0.1390220E+04  0.7818609E-02  0.8960928E-01
        1   -1    0    0  501    0  0.00000000000E+00  0.00000000000E+00  0.24146345081E+04  0.24146345081E+04  0.50400001928E-02 0. -1.
       -1   -1    0    0    0  501  0.00000000000E+00  0.00000000000E+00 -0.20010409381E+03  0.20010409387E+03  0.50400001928E-02 0.  1.
    10030    2    1    2    0    0  0.00000000000E+00  0.00000000000E+00  0.22145304143E+04  0.26147386019E+04  0.13902204864E+04 0.  0.
        2    1    3    3  502    0  0.50654160409E+03 -0.24586340936E+03  0.18738995695E+04  0.19566636935E+04  0.25500000920E-02 0. -1.
       -2    1    3    3    0  502 -0.50654160409E+03  0.24586340936E+03  0.34063084470E+03  0.65807490843E+03  0.25500000920E-02 0.  1.
</event>
<event>
 5   0  0.8609148E-04  0.1406593E+04  0.7818609E-02  0.8949060E-01
        1   -1    0    0  501    0  0.00000000000E+00  0.00000000000E+00  0.11060906361E+04  0.11060906361E+04  0.50400001928E-02 0.  1.
       -1   -1    0    0    0  501  0.00000000000E+00  0.00000000000E+00 -0.44718390674E+03  0.44718390677E+03  0.50400001928E-02 0. -1.
    10030    2    1    2    0    0  0.00000000000E+00  0.00000000000E+00  0.65890672937E+03  0.15532745429E+04  0.14065929502E+04 0.  0.
        5    1    3    3  502    0  0.19000277363E+01  0.67653826870E+03  0.54156799496E+03  0.86661734479E+03  0.46999998093E+01 0. -1.
       -5    1    3    3    0  502 -0.19000277363E+01 -0.67653826870E+03  0.11733873441E+03  0.68665719811E+03  0.46999998093E+01 0.  1.
</event>
<event>
 5   0  0.1578965E-03  0.1368922E+04  0.7818609E-02  0.8976627E-01
        2   -1    0    0  501    0  0.00000000000E+00  0.00000000000E+00  0.82286845028E+03  0.82286845028E+03  0.25500000920E-02 0.  1.
       -2   -1    0    0    0  501  0.00000000000E+00  0.00000000000E+00 -0.56933374138E+03  0.56933374139E+03  0.25500000920E-02 0. -1.
    10030    2    1    2    0    0  0.00000000000E+00  0.00000000000E+00  0.25353470890E+03  0.13922021917E+04  0.13689218728E+04 0.  0.
        2    1    3    3  502    0  0.64821380281E+03 -0.64351810961E+02 -0.86960058754E+02  0.65717907875E+03  0.25500000920E-02 0. -1.
       -2    1    3    3    0  502 -0.64821380281E+03  0.64351810961E+02  0.34049476765E+03  0.73502311292E+03  0.25500000920E-02 0.  1.
</event>
<event>
 5   0  0.1648213E-03  0.1398901E+04  0.7818609E-02  0.8954614E-01
       -2   -1    0    0    0  501  0.00000000000E+00  0.00000000000E+00  0.47622962068E+03  0.47622962068E+03  0.25500000920E-02 0.  1.
        2   -1    0    0  501    0  0.00000000000E+00  0.00000000000E+00 -0.10273009315E+04  0.10273009315E+04  0.25500000920E-02 0. -1.
    10030    2    1    2    0    0  0.00000000000E+00  0.00000000000E+00 -0.55107131086E+03  0.15035305522E+04  0.13989011873E+04 0.  0.
        4    1    3    3  502    0 -0.66417451401E+03 -0.21344827451E+03 -0.22135101702E+03  0.73190562000E+03  0.12699999809E+01 0.  1.
       -4    1    3    3    0  502  0.66417451401E+03  0.21344827451E+03 -0.32972029385E+03  0.77162493222E+03  0.12699999809E+01 0. -1.
</event>
<event>
 5   0  0.1706986E-03  0.1395780E+04  0.7818609E-02  0.8956879E-01
        2   -1    0    0  501    0  0.00000000000E+00  0.00000000000E+00  0.71070746579E+03  0.71070746579E+03  0.25500000920E-02 0.  1.
       -2   -1    0    0    0  501  0.00000000000E+00  0.00000000000E+00 -0.68530407915E+03  0.68530407916E+03  0.25500000920E-02 0. -1.
    10030    2    1    2    0    0  0.00000000000E+00  0.00000000000E+00  0.25403386633E+02  0.13960115450E+04  0.13957803916E+04 0.  0.
        3    1    3    3  502    0  0.15816394876E+03  0.30677381466E+03  0.61937012029E+03  0.70904538935E+03  0.10100000352E+00 0.  1.
       -3    1    3    3    0  502 -0.15816394876E+03 -0.30677381466E+03 -0.59396673366E+03  0.68696615560E+03  0.10100000352E+00 0. -1.
</event>
<event>
 5   0  0.9639548E-04  0.1407454E+04  0.7818609E-02  0.8948441E-01
        1   -1    0    0  501    0  0.00000000000E+00  0.00000000000E+00  0.76040629933E+03  0.76040629934E+03  0.50400001928E-02 0.  1.
       -1   -1    0    0    0  501  0.00000000000E+00  0.00000000000E+00 -0.65127247876E+03  0.65127247878E+03  0.50400001928E-02 0. -1.
    10030    2    1    2    0    0  0.00000000000E+00  0.00000000000E+00  0.10913382057E+03  0.14116787781E+04  0.14074540070E+04 0.  0.
        1    1    3    3  502    0 -0.58760455506E+03 -0.24220418774E+03 -0.24848190935E+03  0.68241134295E+03  0.50400001928E-02 0. -1.
       -1    1    3    3    0  502  0.58760455506E+03  0.24220418774E+03  0.35761572992E+03  0.72926743517E+03  0.50400001928E-02 0.  1.
</event>
<event>
 5   0  0.8673728E-04  0.1406846E+04  0.7818609E-02  0.8948878E-01
        1   -1    0    0  501    0  0.00000000000E+00  0.00000000000E+00  0.53367401929E+03  0.53367401931E+03  0.50400001928E-02 0. -1.
       -1   -1    0    0    0  501  0.00000000000E+00  0.00000000000E+00 -0.92716505663E+03  0.92716505664E+03  0.50400001928E-02 0.  1.
    10030    2    1    2    0    0  0.00000000000E+00  0.00000000000E+00 -0.39349103734E+03  0.14608390760E+04  0.14068459793E+04 0.  0.
        3    1    3    3  502    0  0.14559886534E+03 -0.65235705687E+03  0.30835125245E+02  0.66911850549E+03  0.10100000352E+00 0. -1.
       -3    1    3    3    0  502 -0.14559886534E+03  0.65235705687E+03 -0.42432616259E+03  0.79172057046E+03  0.10100000352E+00 0.  1.
</event>
<event>
 5   0  0.8609148E-04  0.1404132E+04  0.7818609E-02  0.8950833E-01
       -1   -1    0    0    0  501  0.00000000000E+00  0.00000000000E+00  0.40927931599E+03  0.40927931602E+03  0.50400001928E-02 0. -1.
        1   -1    0    0  501    0  0.00000000000E+00  0.00000000000E+00 -0.12043035323E+04  0.12043035323E+04  0.50400001928E-02 0.  1.
    10030    2    1    2    0    0  0.00000000000E+00  0.00000000000E+00 -0.79502421635E+03  0.16135828484E+04  0.14041317972E+04 0.  0.
        5    1    3    3  502    0  0.20863475580E+03  0.51282321921E+02  0.37055505134E+03  0.42835904793E+03  0.46999998093E+01 0. -1.
       -5    1    3    3    0  502 -0.20863475580E+03 -0.51282321921E+02 -0.11655792677E+04  0.11852238004E+04  0.46999998093E+01 0.  1.
</event>
<event>
 5   0  0.8609148E-04  0.1437483E+04  0.7818609E-02  0.8927125E-01
        1   -1    0    0  501    0  0.00000000000E+00  0.00000000000E+00  0.55078305901E+03  0.55078305904E+03  0.50400001928E-02 0. -1.
       -1   -1    0    0    0  501  0.00000000000E+00  0.00000000000E+00 -0.93791810237E+03  0.93791810239E+03  0.50400001928E-02 0.  1.
    10030    2    1    2    0    0  0.00000000000E+00  0.00000000000E+00 -0.38713504336E+03  0.14887011614E+04  0.14374830803E+04 0.  0.
        5    1    3    3  502    0 -0.28289778374E+03 -0.36819652533E+03  0.37458451443E+03  0.59660329010E+03  0.46999998093E+01 0. -1.
       -5    1    3    3    0  502  0.28289778374E+03  0.36819652533E+03 -0.76171955779E+03  0.89209787133E+03  0.46999998093E+01 0.  1.
</event>
<event>
 5   0  0.1578965E-03  0.1397899E+04  0.7818609E-02  0.8955341E-01
       -2   -1    0    0    0  501  0.00000000000E+00  0.00000000000E+00  0.59743441202E+03  0.59743441203E+03  0.25500000920E-02 0. -1.
        2   -1    0    0  501    0  0.00000000000E+00  0.00000000000E+00 -0.81771360087E+03  0.81771360087E+03  0.25500000920E-02 0.  1.
    10030    2    1    2    0    0  0.00000000000E+00  0.00000000000E+00 -0.22027918885E+03  0.14151480129E+04  0.13978987722E+04 0.  0.
        2    1    3    3  502    0 -0.43439790058E+03  0.17742550370E+03 -0.63455573653E+03  0.78920360374E+03  0.25500000920E-02 0.  1.
       -2    1    3    3    0  502  0.43439790058E+03 -0.17742550370E+03  0.41427654768E+03  0.62594440916E+03  0.25500000920E-02 0. -1.
</event>
<event>
 5   0  0.1578965E-03  0.1423383E+04  0.7818609E-02  0.8937065E-01
        2   -1    0    0  501    0  0.00000000000E+00  0.00000000000E+00  0.10389057305E+04  0.10389057305E+04  0.25500000920E-02 0. -1.
       -2   -1    0    0    0  501  0.00000000000E+00  0.00000000000E+00 -0.48753679853E+03  0.48753679854E+03  0.25500000920E-02 0.  1.
    10030    2    1    2    0    0  0.00000000000E+00  0.00000000000E+00  0.55136893197E+03  0.15264425290E+04  0.14233829756E+04 0.  0.
        2    1    3    3  502    0 -0.65574663809E+03 -0.26932022394E+03  0.20813371944E+03  0.73882114315E+03  0.25500000920E-02 0. -1.
       -2    1    3    3    0  502  0.65574663809E+03  0.26932022394E+03  0.34323521254E+03  0.78762138590E+03  0.25500000920E-02 0.  1.
</event>
<event>
 5   0  0.8673728E-04  0.1215078E+04  0.7818609E-02  0.9099760E-01
        1   -1    0    0  501    0  0.00000000000E+00  0.00000000000E+00  0.48627052908E+03  0.48627052911E+03  0.50400001928E-02 0.  1.
       -1   -1    0    0    0  501  0.00000000000E+00  0.00000000000E+00 -0.75905026349E+03  0.75905026351E+03  0.50400001928E-02 0. -1.
    10030    2    1    2    0    0  0.00000000000E+00  0.00000000000E+00 -0.27277973441E+03  0.12453207926E+04  0.12150782251E+04 0.  0.
        3    1    3    3  502    0  0.48767252576E+03 -0.25576847615E+03  0.12663309124E+03  0.56504686157E+03  0.10100000352E+00 0.  1.
       -3    1    3    3    0  502 -0.48767252576E+03  0.25576847615E+03 -0.39941282565E+03  0.68027393105E+03  0.10100000352E+00 0. -1.
</event>
<event>
 5   0  0.9639548E-04  0.1389856E+04  0.7818609E-02  0.8961194E-01
        1   -1    0    0  501    0  0.00000000000E+00  0.00000000000E+00  0.14355741648E+04  0.14355741648E+04  0.50400001928E-02 0.  1.
       -1   -1    0    0    0  501  0.00000000000E+00  0.00000000000E+00 -0.33639824275E+03  0.33639824279E+03  0.50400001928E-02 0. -1.
    10030    2    1    2    0    0  0.00000000000E+00  0.00000000000E+00  0.10991759221E+04  0.17719724076E+04  0.13898555701E+04 0.  0.
        1    1    3    3  502    0 -0.49092699078E+03 -0.39142550783E+03  0.16987756240E+03  0.65044724973E+03  0.50400001928E-02 0. -1.
       -1    1    3    3    0  502  0.49092699078E+03  0.39142550783E+03  0.92929835968E+03  0.11215251579E+04  0.50400001928E-02 0.  1.
</event>
<event>
 5   0  0.1706986E-03  0.1315222E+04  0.7818609E-02  0.9017580E-01
        2   -1    0    0  501    0  0.00000000000E+00  0.00000000000E+00  0.11492087954E+04  0.11492087954E+04  0.25500000920E-02 0.  1.
       -2   -1    0    0    0  501  0.00000000000E+00  0.00000000000E+00 -0.37630450796E+03  0.37630450797E+03  0.25500000920E-02 0. -1.
    10030    2    1    2    0    0  0.00000000000E+00  0.00000000000E+00  0.77290428742E+03  0.15255133034E+04  0.13152223391E+04 0.  0.
        3    1    3    3  502    0  0.63954712285E+02 -0.59019410314E+03  0.71458656684E+03  0.92900659649E+03  0.10100000352E+00 0.  1.
       -3    1    3    3    0  502 -0.63954712285E+02  0.59019410314E+03  0.58317720580E+02  0.59650670687E+03  0.10100000352E+00 0. -1.
</event>
<event>
 5   0  0.1605214E-03  0.1414988E+04  0.7818609E-02  0.8943040E-01
       -2   -1    0    0    0  501  0.00000000000E+00  0.00000000000E+00  0.75531169156E+03  0.75531169156E+03  0.25500000920E-02 0.  1.
        2   -1    0    0  501    0  0.00000000000E+00  0.00000000000E+00 -0.66270392873E+03  0.66270392873E+03  0.25500000920E-02 0. -1.
    10030    2    1    2    0    0  0.00000000000E+00  0.00000000000E+00  0.92607762829E+02  0.14180156203E+04  0.14149883751E+04 0.  0.
        5    1    3    3  502    0  0.26043931950E+03 -0.59679820046E+03  0.32353484957E+03  0.72711320996E+03  0.46999998093E+01 0.  1.
       -5    1    3    3    0  502 -0.26043931950E+03  0.59679820046E+03 -0.23092708675E+03  0.69090241033E+03  0.46999998093E+01 0. -1.
</event>
<event>
 5   0  0.9007180E-04  0.1412508E+04  0.7818609E-02  0.8944814E-01
       -1   -1    0    0    0  501  0.00000000000E+00  0.00000000000E+00  0.47039020803E+03  0.47039020806E+03  0.50400001928E-02 0. -1.
        1   -1    0    0  501    0  0.00000000000E+00  0.00000000000E+00 -0.10603850875E+04  0.10603850875E+04  0.50400001928E-02 0.  1.
    10030    2    1    2    0    0  0.00000000000E+00  0.00000000000E+00 -0.58999487946E+03  0.15307752956E+04  0.14125080700E+04 0.  0.
        2    1    3    3  502    0 -0.37339040324E+03 -0.18698110782E+02  0.35435832570E+03  0.51511147879E+03  0.25500000920E-02 0. -1.
       -2    1    3    3    0  502  0.37339040324E+03  0.18698110782E+02 -0.94435320517E+03  0.10156638168E+04  0.25500000920E-02 0.  1.
</event>
<event>
 5   0  0.9007180E-04  0.1391138E+04  0.7818609E-02  0.8960258E-01
        1   -1    0    0  501    0  0.00000000000E+00  0.00000000000E+00  0.10980138744E+04  0.10980138744E+04  0.50400001928E-02 0.  1.
       -1   -1    0    0    0  501  0.00000000000E+00  0.00000000000E+00 -0.44062883882E+03  0.44062883884E+03  0.50400001928E-02 0. -1.
    10030    2    1    2    0    0  0.00000000000E+00  0.00000000000E+00  0.65738503557E+03  0.15386427132E+04  0.13911384956E+04 0.  0.
        2    1    3    3  502    0  0.44142872925E+03 -0.16726672663E+03  0.89372091928E+03  0.10107297178E+04  0.25500000920E-02 0.  1.
       -2    1    3    3    0  502 -0.44142872925E+03  0.16726672663E+03 -0.23633588370E+03  0.52791299546E+03  0.25500000920E-02 0. -1.
</event>
<event>
 5   0  0.8673728E-04  0.1384373E+04  0.7818609E-02  0.8965208E-01
       -1   -1    0    0    0  501  0.00000000000E+00  0.00000000000E+00  0.83622811479E+03  0.83622811481E+03  0.50400001928E-02 0. -1.
        1   -1    0    0  501    0  0.00000000000E+00  0.00000000000E+00 -0.57295660925E+03  0.57295660928E+03  0.50400001928E-02 0.  1.
    10030    2    1    2    0    0  0.00000000000E+00  0.00000000000E+00  0.26327150554E+03  0.14091847241E+04  0.13843733965E+04 0.  0.
        3    1    3    3  502    0 -0.62571486396E+02  0.22265558122E+03 -0.53246148362E+03  0.58052212749E+03  0.10100000352E+00 0.  1.
       -3    1    3    3    0  502  0.62571486396E+02 -0.22265558122E+03  0.79573298916E+03  0.82866259660E+03  0.10100000352E+00 0. -1.
</event>
<event>
 5   0  0.1706986E-03  0.1392597E+04  0.7818609E-02  0.8959195E-01
       -2   -1    0    0    0  501  0.00000000000E+00  0.00000000000E+00  0.17814462214E+03  0.17814462215E+03  0.25500000920E-02 0. -1.
        2   -1    0    0  501    0  0.00000000000E+00  0.00000000000E+00 -0.27215601707E+04  0.27215601707E+04  0.25500000920E-02 0.  1.
    10030    2    1    2    0    0  0.00000000000E+00  0.00000000000E+00 -0.25434155486E+04  0.28997047929E+04  0.13925965794E+04 0.  0.
        3    1    3    3  502    0  0.61746563666E+03 -0.77201113876E+02 -0.19222417721E+04  0.20204547174E+04  0.10100000352E+00 0. -1.
       -3    1    3    3    0  502 -0.61746563666E+03  0.77201113876E+02 -0.62117377647E+03  0.87925007547E+03  0.10100000352E+00 0.  1.
</event>
<event>
 5   0  0.8609148E-04  0.1345094E+04  0.7818609E-02  0.8994550E-01
        1   -1    0    0  501    0  0.00000000000E+00  0.00000000000E+00  0.29447627210E+03  0.29447627214E+03  0.50400001928E-02 0. -1.
       -1   -1    0    0    0  501  0.00000000000E+00  0.00000000000E+00 -0.15360131012E+04  0.15360131012E+04  0.50400001928E-02 0.  1.
    10030    2    1    2    0    0  0.00000000000E+00  0.00000000000E+00 -0.12415368291E+04  0.18304893734E+04  0.13450939179E+04 0.  0.
        5    1    3    3  502    0  0.74645176336E+02  0.17649438454E+03  0.25651392994E+03  0.32022438442E+03  0.46999998093E+01 0. -1.
       -5    1    3    3    0  502 -0.74645176336E+02 -0.17649438454E+03 -0.14980507591E+04  0.15102649890E+04  0.46999998093E+01 0.  1.
</event>
<event>
 5   0  0.8502300E-04  0.1414812E+04  0.7818609E-02  0.8943166E-01
        1   -1    0    0  501    0  0.00000000000E+00  0.00000000000E+00  0.83686815817E+03  0.83686815818E+03  0.50400001928E-02 0. -1.
       -1   -1    0    0    0  501  0.00000000000E+00  0.00000000000E+00 -0.59797119272E+03  0.59797119275E+03  0.50400001928E-02 0.  1.
    10030    2    1    2    0    0  0.00000000000E+00  0.00000000000E+00  0.23889696544E+03  0.14348393509E+04  0.14148117199E+04 0.  0.
        4    1    3    3  502    0 -0.61206017311E+03 -0.65689240901E+02  0.47293477992E+03  0.77627421111E+03  0.12699999809E+01 0. -1.
       -4    1    3    3    0  502  0.61206017311E+03  0.65689240901E+02 -0.23403781448E+03  0.65856513982E+03  0.12699999809E+01 0.  1.
</event>
<event>
 5   0  0.1706986E-03  0.1402424E+04  0.7818609E-02  0.8952066E-01
        2   -1    0    0  501    0  0.00000000000E+00  0.00000000000E+00  0.10474186898E+04  0.10474186898E+04  0.25500000920E-02 0. -1.
       -2   -1    0    0    0  501  0.00000000000E+00  0.00000000000E+00 -0.46943796497E+03  0.46943796498E+03  0.25500000920E-02 0.  1.
    10030    2    1    2    0    0  0.00000000000E+00  0.00000000000E+00  0.57798072487E+03  0.15168566548E+04  0.14024237566E+04 0.  0.
        3    1    3    3  502    0 -0.19128886023E+03 -0.65553768757E+03  0.46129042002E+03  0.82408127613E+03  0.10100000352E+00 0. -1.
       -3    1    3    3    0  502  0.19128886023E+03  0.65553768757E+03  0.11669030485E+03  0.69277537869E+03  0.10100000352E+00 0.  1.
</event>
<event>
 5   0  0.1605214E-03  0.1409529E+04  0.7818609E-02  0.8946950E-01
       -2   -1    0    0    0  501  0.00000000000E+00  0.00000000000E+00  0.49958905117E+03  0.49958905118E+03  0.25500000920E-02 0.  1.
        2   -1    0    0  501    0  0.00000000000E+00  0.00000000000E+00 -0.99420259227E+03  0.99420259227E+03  0.25500000920E-02 0. -1.
    10030    2    1    2    0    0  0.00000000000E+00  0.00000000000E+00 -0.49461354110E+03  0.14937916435E+04  0.14095286159E+04 0.  0.
        5    1    3    3  502    0 -0.29210708613E+03  0.61534598539E+03 -0.43892914936E+03  0.81034444507E+03  0.46999998093E+01 0. -1.
       -5    1    3    3    0  502  0.29210708613E+03 -0.61534598539E+03 -0.55684391745E+02  0.68344719838E+03  0.46999998093E+01 0.  1.
</event>
<event>
 5   0  0.1605214E-03  0.1414367E+04  0.7818609E-02  0.8943484E-01
        2   -1    0    0  501    0  0.00000000000E+00  0.00000000000E+00  0.11755078981E+04  0.11755078981E+04  0.25500000920E-02 0. -1.
       -2   -1    0    0    0  501  0.00000000000E+00  0.00000000000E+00 -0.42544031290E+03  0.42544031290E+03  0.25500000920E-02 0.  1.
    10030    2    1    2    0    0  0.00000000000E+00  0.00000000000E+00  0.75006758518E+03  0.16009482110E+04  0.14143669227E+04 0.  0.
        5    1    3    3  502    0 -0.37109368171E+02 -0.66303082673E+02 -0.42078882137E+03  0.42761960452E+03  0.46999998093E+01 0.  1.
       -5    1    3    3    0  502  0.37109368171E+02  0.66303082673E+02  0.11708564066E+04  0.11733286065E+04  0.46999998093E+01 0. -1.
</event>
<event>
 5   0  0.1605214E-03  0.1400690E+04  0.7818609E-02  0.8953319E-01
       -2   -1    0    0    0  501  0.00000000000E+00  0.00000000000E+00  0.29629952463E+03  0.29629952464E+03  0.25500000920E-02 0. -1.
        2   -1    0    0  501    0  0.00000000000E+00  0.00000000000E+00 -0.16553616550E+04  0.16553616550E+04  0.25500000920E-02 0.  1.
    10030    2    1    2    0    0  0.00000000000E+00  0.00000000000E+00 -0.13590621304E+04  0.19516611796E+04  0.14006896465E+04 0.  0.
        5    1    3    3  502    0 -0.66460581638E+03 -0.77260848569E+02 -0.39130254299E+03  0.77511928117E+03  0.46999998093E+01 0. -1.
       -5    1    3    3    0  502  0.66460581638E+03  0.77260848569E+02 -0.96775958739E+03  0.11765418985E+04  0.46999998093E+01 0.  1.
</event>
<event>
 5   0  0.1578965E-03  0.1424747E+04  0.7818609E-02  0.8936098E-01
       -2   -1    0    0    0  501  0.00000000000E+00  0.00000000000E+00  0.47482844433E+03  0.47482844434E+03  0.25500000920E-02 0. -1.
        2   -1    0    0  501    0  0.00000000000E+00  0.00000000000E+00 -0.10687565726E+04  0.10687565726E+04  0.25500000920E-02 0.  1.
    10030    2    1    2    0    0  0.00000000000E+00  0.00000000000E+00 -0.59392812828E+03  0.15435850170E+04  0.14247470242E+04 0.  0.
        2    1    3    3  502    0 -0.36648781488E+03  0.42599806369E+03  0.17737692803E+03  0.58927942720E+03  0.25500000920E-02 0.  1.
       -2    1    3    3    0  502  0.36648781488E+03 -0.42599806369E+03 -0.77130505632E+03  0.95430558975E+03  0.25500000920E-02 0. -1.
</event>
<event>
 5   0  0.1648213E-03  0.1388290E+04  0.7818609E-02  0.8962339E-01
        2   -1    0    0  501    0  0.00000000000E+00  0.00000000000E+00  0.11216108212E+04  0.11216108212E+04  0.25500000920E-02 0. -1.
       -2   -1    0    0    0  501  0.00000000000E+00  0.00000000000E+00 -0.42959385429E+03  0.42959385429E+03  0.25500000920E-02 0.  1.
    10030    2    1    2    0    0  0.00000000000E+00  0.00000000000E+00  0.69201696688E+03  0.15512046755E+04  0.13882897618E+04 0.  0.
        4    1    3    3  502    0 -0.12330099384E+02  0.37815108853E+03 -0.30425162210E+03  0.48551100869E+03  0.12699999809E+01 0.  1.
       -4    1    3    3    0  502  0.12330099384E+02 -0.37815108853E+03  0.99626858899E+03  0.10656936668E+04  0.12699999809E+01 0. -1.
</event>
<event>
 5   0  0.1605214E-03  0.1392419E+04  0.7818609E-02  0.8959324E-01
        2   -1    0    0  501    0  0.00000000000E+00  0.00000000000E+00  0.75831480433E+03  0.75831480433E+03  0.25500000920E-02 0.  1.
       -2   -1    0    0    0  501  0.00000000000E+00  0.00000000000E+00 -0.63919098744E+03  0.63919098744E+03  0.25500000920E-02 0. -1.
    10030    2    1    2    0    0  0.00000000000E+00  0.00000000000E+00  0.11912381689E+03  0.13975057918E+04  0.13924194606E+04 0.  0.
        5    1    3    3  502    0 -0.10513918744E+03  0.42156809789E+03  0.60552692095E+03  0.74529111888E+03  0.46999998093E+01 0.  1.
       -5    1    3    3    0  502  0.10513918744E+03 -0.42156809789E+03 -0.48640310406E+03  0.65221467289E+03  0.46999998093E+01 0. -1.
</event>
<event>
 5   0  0.1605214E-03  0.1391648E+04  0.7818609E-02  0.8959886E-01
        2   -1    0    0  501    0  0.00000000000E+00  0.00000000000E+00  0.39878984150E+03  0.39878984150E+03  0.25500000920E-02 0. -1.
       -2   -1    0    0    0  501  0.00000000000E+00  0.00000000000E+00 -0.12141009973E+04  0.12141009973E+04  0.25500000920E-02 0.  1.
    10030    2    1    2    0    0  0.00000000000E+00  0.00000000000E+00 -0.81531115584E+03  0.16128908388E+04  0.13916481514E+04 0.  0.
        5    1    3    3  502    0  0.68396096879E+03  0.50876771706E+01 -0.25959375350E+03  0.73160064116E+03  0.46999998093E+01 0.  1.
       -5    1    3    3    0  502 -0.68396096879E+03 -0.50876771706E+01 -0.55571740234E+03  0.88129019769E+03  0.46999998093E+01 0. -1.
</event>
<event>
 5   0  0.1648463E-03  0.1345266E+04  0.7818609E-02  0.8994419E-01
        2   -1    0    0  501    0  0.00000000000E+00  0.00000000000E+00  0.12395498827E+04  0.12395498827E+04  0.25500000920E-02 0.  1.
       -2   -1    0    0    0  501  0.00000000000E+00  0.00000000000E+00 -0.36499975367E+03  0.36499975368E+03  0.25500000920E-02 0. -1.
    10030    2    1    2    0    0  0.00000000000E+00  0.00000000000E+00  0.87455012900E+03  0.16045496364E+04  0.13452663704E+04 0.  0.
        1    1    3    3  502    0  0.54111276178E+03 -0.38034954587E+03  0.58319226945E+03  0.88180611314E+03  0.50400001928E-02 0. -1.
       -1    1    3    3    0  502 -0.54111276178E+03  0.38034954587E+03  0.29135785956E+03  0.72274352322E+03  0.50400001928E-02 0.  1.
</event>
<event>
 5   0  0.6048000E-04  0.1173907E+04  0.7818609E-02  0.9136008E-01
        3   -1    0    0  501    0  0.00000000000E+00  0.00000000000E+00  0.66070174748E+03  0.66070175520E+03  0.10100000352E+00 0. -1.
       -3   -1    0    0    0  501  0.00000000000E+00  0.00000000000E+00 -0.52143678390E+03  0.52143679368E+03  0.10100000352E+00 0.  1.
    10030    2    1    2    0    0  0.00000000000E+00  0.00000000000E+00  0.13926496358E+03  0.11821385489E+04  0.11739066482E+04 0.  0.
        3    1    3    3  502    0  0.30585442808E+03 -0.49560597416E+03  0.14323387138E+03  0.59974008113E+03  0.10100000352E+00 0. -1.
       -3    1    3    3    0  502 -0.30585442808E+03  0.49560597416E+03 -0.39689078047E+01  0.58239846775E+03  0.10100000352E+00 0.  1.
</event>
<event>
 5   0  0.1648463E-03  0.1406181E+04  0.7818609E-02  0.8949357E-01
       -2   -1    0    0    0  501  0.00000000000E+00  0.00000000000E+00  0.67887466429E+03  0.67887466430E+03  0.25500000920E-02 0. -1.
        2   -1    0    0  501    0  0.00000000000E+00  0.00000000000E+00 -0.72816998771E+03  0.72816998771E+03  0.25500000920E-02 0.  1.
    10030    2    1    2    0    0  0.00000000000E+00  0.00000000000E+00 -0.49295323412E+02  0.14070446520E+04  0.14061808646E+04 0.  0.
        1    1    3    3  502    0  0.31407138049E+03  0.35457892581E+03 -0.54455234900E+03  0.72173700716E+03  0.50400001928E-02 0.  1.
       -1    1    3    3    0  502 -0.31407138049E+03 -0.35457892581E+03  0.49525702559E+03  0.68530764485E+03  0.50400001928E-02 0. -1.
</event>
<event>
 5   0  0.9007180E-04  0.1418310E+04  0.7818609E-02  0.8940670E-01
       -1   -1    0    0    0  501  0.00000000000E+00  0.00000000000E+00  0.56652173932E+03  0.56652173934E+03  0.50400001928E-02 0. -1.
        1   -1    0    0  501    0  0.00000000000E+00  0.00000000000E+00 -0.88769921052E+03  0.88769921053E+03  0.50400001928E-02 0.  1.
    10030    2    1    2    0    0  0.00000000000E+00  0.00000000000E+00 -0.32117747120E+03  0.14542209499E+04  0.14183101223E+04 0.  0.
        2    1    3    3  502    0 -0.12256426678E+03  0.23411914507E+03 -0.83532927500E+03  0.87613285024E+03  0.25500000920E-02 0.  1.
       -2    1    3    3    0  502  0.12256426678E+03 -0.23411914507E+03  0.51415180380E+03  0.57808809964E+03  0.25500000920E-02 0. -1.
</event>
<event>
 5   0  0.1706986E-03  0.1388835E+04  0.7818609E-02  0.8961940E-01
        2   -1    0    0  501    0  0.00000000000E+00  0.00000000000E+00  0.36758168028E+03  0.36758168029E+03  0.25500000920E-02 0. -1.
       -2   -1    0    0    0  501  0.00000000000E+00  0.00000000000E+00 -0.13118600361E+04  0.13118600362E+04  0.25500000920E-02 0.  1.
    10030    2    1    2    0    0  0.00000000000E+00  0.00000000000E+00 -0.94427835587E+03  0.16794417164E+04  0.13888350750E+04 0.  0.
        3    1    3    3  502    0 -0.13922707789E+03 -0.48720490112E+03 -0.10463241423E+04  0.11625605428E+04  0.10100000352E+00 0.  1.
       -3    1    3    3    0  502  0.13922707789E+03  0.48720490112E+03  0.10204578639E+03  0.51688117360E+03  0.10100000352E+00 0. -1.
</event>
<event>
 5   0  0.8502300E-04  0.1408242E+04  0.7818609E-02  0.8947874E-01
       -1   -1    0    0    0  501  0.00000000000E+00  0.00000000000E+00  0.52120245552E+03  0.52120245555E+03  0.50400001928E-02 0. -1.
        1   -1    0    0  501    0  0.00000000000E+00  0.00000000000E+00 -0.95123544102E+03  0.95123544104E+03  0.50400001928E-02 0.  1.
    10030    2    1    2    0    0  0.00000000000E+00  0.00000000000E+00 -0.43003298550E+03  0.14724378966E+04  0.14082418083E+04 0.  0.
        4    1    3    3  502    0 -0.66232679895E+03  0.20667664819E+03 -0.34045460805E+03  0.77285378861E+03  0.12699999809E+01 0.  1.
       -4    1    3    3    0  502  0.66232679895E+03 -0.20667664819E+03 -0.89578377446E+02  0.69958410797E+03  0.12699999809E+01 0. -1.
</event>
<event>
 5   0  0.9639548E-04  0.1403146E+04  0.7818609E-02  0.8951544E-01
       -1   -1    0    0    0  501  0.00000000000E+00  0.00000000000E+00  0.75305167831E+03  0.75305167833E+03  0.50400001928E-02 0.  1.
        1   -1    0    0  501    0  0.00000000000E+00  0.00000000000E+00 -0.65361382275E+03  0.65361382276E+03  0.50400001928E-02 0. -1.
    10030    2    1    2    0    0  0.00000000000E+00  0.00000000000E+00  0.99437855568E+02  0.14066655011E+04  0.14031464445E+04 0.  0.
        1    1    3    3  502    0  0.57255986822E+03 -0.17588370924E+01  0.45617019331E+03  0.73206498448E+03  0.50400001928E-02 0.  1.
       -1    1    3    3    0  502 -0.57255986822E+03  0.17588370924E+01 -0.35673233774E+03  0.67460051662E+03  0.50400001928E-02 0. -1.
</event>
<event>
 5   0  0.8609148E-04  0.1424061E+04  0.7818609E-02  0.8936584E-01
       -1   -1    0    0    0  501  0.00000000000E+00  0.00000000000E+00  0.62662143021E+03  0.62662143023E+03  0.50400001928E-02 0.  1.
        1   -1    0    0  501    0  0.00000000000E+00  0.00000000000E+00 -0.80908121545E+03  0.80908121547E+03  0.50400001928E-02 0. -1.
    10030    2    1    2    0    0  0.00000000000E+00  0.00000000000E+00 -0.18245978524E+03  0.14357026457E+04  0.14240612745E+04 0.  0.
        5    1    3    3  502    0  0.63098129457E+03 -0.90978369958E+02 -0.41091999823E+03  0.75847992250E+03  0.46999998093E+01 0. -1.
       -5    1    3    3    0  502 -0.63098129457E+03  0.90978369958E+02  0.22846021299E+03  0.67722272320E+03  0.46999998093E+01 0.  1.
</event>
<event>
 5   0  0.1648213E-03  0.1436425E+04  0.7818609E-02  0.8927866E-01
       -2   -1    0    0    0  501  0.00000000000E+00  0.00000000000E+00  0.61603646502E+03  0.61603646502E+03  0.25500000920E-02 0.  1.
        2   -1    0    0  501    0  0.00000000000E+00  0.00000000000E+00 -0.83733590871E+03  0.83733590872E+03  0.25500000920E-02 0. -1.
    10030    2    1    2    0    0  0.00000000000E+00  0.00000000000E+00 -0.22129944369E+03  0.14533723737E+04  0.14364253593E+04 0.  0.
        4    1    3    3  502    0 -0.61004437585E+03 -0.36445884591E+03 -0.21601015973E+03  0.74272901713E+03  0.12699999809E+01 0. -1.
       -4    1    3    3    0  502  0.61004437585E+03  0.36445884591E+03 -0.52892839645E+01  0.71064335661E+03  0.12699999809E+01 0.  1.
</event>
<event>
 5   0  0.9007180E-04  0.1424092E+04  0.7818609E-02  0.8936562E-01
        1   -1    0    0  501    0  0.00000000000E+00  0.00000000000E+00  0.79451523402E+03  0.79451523403E+03  0.50400001928E-02 0.  1.
       -1   -1    0    0    0  501  0.00000000000E+00  0.00000000000E+00 -0.63813724113E+03  0.63813724115E+03  0.50400001928E-02 0. -1.
    10030    2    1    2    0    0  0.00000000000E+00  0.00000000000E+00  0.15637799289E+03  0.14326524752E+04  0.14240923558E+04 0.  0.
        2    1    3    3  502    0  0.69062219384E+03  0.48872260283E+02  0.24550844590E+03  0.73458961977E+03  0.25500000920E-02 0.  1.
       -2    1    3    3    0  502 -0.69062219384E+03 -0.48872260283E+02 -0.89130453010E+02  0.69806285542E+03  0.25500000920E-02 0. -1.
</event>
<event>
 5   0  0.1578965E-03  0.1405128E+04  0.7818609E-02  0.8950115E-01
        2   -1    0    0  501    0  0.00000000000E+00  0.00000000000E+00  0.63733294246E+03  0.63733294246E+03  0.25500000920E-02 0. -1.
       -2   -1    0    0    0  501  0.00000000000E+00  0.00000000000E+00 -0.77447097950E+03  0.77447097950E+03  0.25500000920E-02 0.  1.
    10030    2    1    2    0    0  0.00000000000E+00  0.00000000000E+00 -0.13713803704E+03  0.14118039220E+04  0.14051275646E+04 0.  0.
        2    1    3    3  502    0  0.89462047631E+02 -0.64315738118E+03  0.20092358210E+03  0.67972432705E+03  0.25500000920E-02 0. -1.
       -2    1    3    3    0  502 -0.89462047631E+02  0.64315738118E+03 -0.33806161914E+03  0.73207959491E+03  0.25500000920E-02 0.  1.
</event>
<event>
 5   0  0.1648463E-03  0.1390042E+04  0.7818609E-02  0.8961059E-01
        2   -1    0    0  501    0  0.00000000000E+00  0.00000000000E+00  0.73338070193E+03  0.73338070194E+03  0.25500000920E-02 0.  1.
       -2   -1    0    0    0  501  0.00000000000E+00  0.00000000000E+00 -0.65866730565E+03  0.65866730565E+03  0.25500000920E-02 0. -1.
    10030    2    1    2    0    0  0.00000000000E+00  0.00000000000E+00  0.74713396285E+02  0.13920480076E+04  0.13900415691E+04 0.  0.
        1    1    3    3  502    0  0.69252069159E+03  0.48607932887E+02  0.70665067048E+02  0.69781171611E+03  0.50400001928E-02 0. -1.
       -1    1    3    3    0  502 -0.69252069159E+03 -0.48607932887E+02  0.40483292361E+01  0.69423629148E+03  0.50400001928E-02 0.  1.
</event>
<event>
 5   0  0.1605214E-03  0.1433512E+04  0.7818609E-02  0.8929912E-01
        2   -1    0    0  501    0  0.00000000000E+00  0.00000000000E+00  0.10034063948E+04  0.10034063948E+04  0.25500000920E-02 0.  1.
       -2   -1    0    0    0  501  0.00000000000E+00  0.00000000000E+00 -0.51199509841E+03  0.51199509841E+03  0.25500000920E-02 0. -1.
    10030    2    1    2    0    0  0.00000000000E+00  0.00000000000E+00  0.49141129641E+03  0.15154014932E+04  0.14335119893E+04 0.  0.
        5    1    3    3  502    0 -0.36689137843E+03 -0.62138157738E+02 -0.40186146149E+03  0.54770900891E+03  0.46999998093E+01 0. -1.
       -5    1    3    3    0  502  0.36689137843E+03  0.62138157738E+02  0.89327275790E+03  0.96769248432E+03  0.46999998093E+01 0.  1.
</event>
<event>
 5   0  0.9007180E-04  0.1406561E+04  0.7818609E-02  0.8949083E-01
        1   -1    0    0  501    0  0.00000000000E+00  0.00000000000E+00  0.56921882111E+03  0.56921882113E+03  0.50400001928E-02 0.  1.
       -1   -1    0    0    0  501  0.00000000000E+00  0.00000000000E+00 -0.86891679799E+03  0.86891679801E+03  0.50400001928E-02 0. -1.
    10030    2    1    2    0    0  0.00000000000E+00  0.00000000000E+00 -0.29969797688E+03  0.14381356191E+04  0.14065614745E+04 0.  0.
        2    1    3    3  502    0 -0.39042818155E+03  0.39228607848E+03  0.29380529241E+03  0.62661318385E+03  0.25500000920E-02 0.  1.
       -2    1    3    3    0  502  0.39042818155E+03 -0.39228607848E+03 -0.59350326929E+03  0.81152243529E+03  0.25500000920E-02 0. -1.
</event>
<event>
 5   0  0.8502300E-04  0.1410848E+04  0.7818609E-02  0.8946003E-01
       -1   -1    0    0    0  501  0.00000000000E+00  0.00000000000E+00  0.26743679314E+03  0.26743679319E+03  0.50400001928E-02 0. -1.
        1   -1    0    0  501    0  0.00000000000E+00  0.00000000000E+00 -0.18607130522E+04  0.18607130522E+04  0.50400001928E-02 0.  1.
    10030    2    1    2    0    0  0.00000000000E+00  0.00000000000E+00 -0.15932762591E+04  0.21281498454E+04  0.14108481587E+04 0.  0.
        4    1    3    3  502    0 -0.93603528057E+02  0.17612484575E+03  0.22401639413E+03  0.29994422731E+03  0.12699999809E+01 0. -1.
       -4    1    3    3    0  502  0.93603528057E+02 -0.17612484575E+03 -0.18172926532E+04  0.18282056181E+04  0.12699999809E+01 0.  1.
</event>
<event>
 5   0  0.1648213E-03  0.1404833E+04  0.7818609E-02  0.8950327E-01
       -2   -1    0    0    0  501  0.00000000000E+00  0.00000000000E+00  0.21973424671E+03  0.21973424673E+03  0.25500000920E-02 0.  1.
        2   -1    0    0  501    0  0.00000000000E+00  0.00000000000E+00 -0.22453906047E+04  0.22453906047E+04  0.25500000920E-02 0. -1.
    10030    2    1    2    0    0  0.00000000000E+00  0.00000000000E+00 -0.20256563580E+04  0.24651248515E+04  0.14048333896E+04 0.  0.
        4    1    3    3  502    0  0.24777796892E+03  0.17154574770E+03  0.10052384304E+03  0.31769249497E+03  0.12699999809E+01 0.  1.
       -4    1    3    3    0  502 -0.24777796892E+03 -0.17154574770E+03 -0.21261802011E+04  0.21474323565E+04  0.12699999809E+01 0. -1.
</event>
<event>
 5   0  0.1706986E-03  0.1464545E+04  0.7818609E-02  0.8908379E-01
        2   -1    0    0  501    0  0.00000000000E+00  0.00000000000E+00  0.52824874883E+03  0.52824874884E+03  0.25500000920E-02 0.  1.
       -2   -1    0    0    0  501  0.00000000000E+00  0.00000000000E+00 -0.10150954616E+04  0.10150954616E+04  0.25500000920E-02 0. -1.
    10030    2    1    2    0    0  0.00000000000E+00  0.00000000000E+00 -0.48684671281E+03  0.15433442105E+04  0.14645448543E+04 0.  0.
        3    1    3    3  502    0 -0.10957576284E+03 -0.46430409550E+03 -0.82886639538E+03  0.95634964971E+03  0.10100000352E+00 0. -1.
       -3    1    3    3    0  502  0.10957576284E+03  0.46430409550E+03  0.34201968258E+03  0.58699456077E+03  0.10100000352E+00 0.  1.
</event>
<event>
 5   0  0.9639548E-04  0.1399888E+04  0.7818609E-02  0.8953899E-01
        1   -1    0    0  501    0  0.00000000000E+00  0.00000000000E+00  0.12247562801E+04  0.12247562801E+04  0.50400001928E-02 0.  1.
       -1   -1    0    0    0  501  0.00000000000E+00  0.00000000000E+00 -0.40001575588E+03  0.40001575591E+03  0.50400001928E-02 0. -1.
    10030    2    1    2    0    0  0.00000000000E+00  0.00000000000E+00  0.82474052419E+03  0.16247720360E+04  0.13998882944E+04 0.  0.
        1    1    3    3  502    0  0.31108942269E+03  0.30311843812E+03 -0.22467891032E+03  0.48901741196E+03  0.50400001928E-02 0. -1.
       -1    1    3    3    0  502 -0.31108942269E+03 -0.30311843812E+03  0.10494194345E+04  0.11357546240E+04  0.50400001928E-02 0.  1.
</event>
<event>
 5   0  0.8673728E-04  0.1387957E+04  0.7818609E-02  0.8962582E-01
       -1   -1    0    0    0  501  0.00000000000E+00  0.00000000000E+00  0.14716090218E+04  0.14716090218E+04  0.50400001928E-02 0.  1.
        1   -1    0    0  501    0  0.00000000000E+00  0.00000000000E+00 -0.32726524530E+03  0.32726524534E+03  0.50400001928E-02 0. -1.
    10030    2    1    2    0    0  0.00000000000E+00  0.00000000000E+00  0.11443437765E+04  0.17988742671E+04  0.13879574742E+04 0.  0.
        3    1    3    3  502    0  0.45930191047E+03 -0.46770101258E+03  0.27689799973E+03  0.71160030536E+03  0.10100000352E+00 0. -1.
       -3    1    3    3    0  502 -0.45930191047E+03  0.46770101258E+03  0.86744577673E+03  0.10872739617E+04  0.10100000352E+00 0.  1.
</event>
<event>
 5   0  0.9007180E-04  0.1383942E+04  0.7818609E-02  0.8965525E-01
       -1   -1    0    0    0  501  0.00000000000E+00  0.00000000000E+00  0.76464218141E+03  0.76464218143E+03  0.50400001928E-02 0. -1.
        1   -1    0    0  501    0  0.00000000000E+00  0.00000000000E+00 -0.62620630880E+03  0.62620630882E+03  0.50400001928E-02 0.  1.
    10030    2    1    2    0    0  0.00000000000E+00  0.00000000000E+00  0.13843587260E+03  0.13908484903E+04  0.13839418456E+04 0.  0.
        2    1    3    3  502    0 -0.44215195502E+02 -0.37053041835E+03 -0.51642170502E+03  0.63713354319E+03  0.25500000920E-02 0.  1.
       -2    1    3    3    0  502  0.44215195502E+02  0.37053041835E+03  0.65485757763E+03  0.75371494706E+03  0.25500000920E-02 0. -1.
</event>
<event>
 5   0  0.9007180E-04  0.1340514E+04  0.7818609E-02  0.8998040E-01
       -1   -1    0    0    0  501  0.00000000000E+00  0.00000000000E+00  0.42389960222E+03  0.42389960225E+03  0.50400001928E-02 0. -1.
        1   -1    0    0  501    0  0.00000000000E+00  0.00000000000E+00 -0.10597899728E+04  0.10597899728E+04  0.50400001928E-02 0.  1.
    10030    2    1    2    0    0  0.00000000000E+00  0.00000000000E+00 -0.63589037058E+03  0.14836895751E+04  0.13405141520E+04 0.  0.
        2    1    3    3  502    0  0.12474598062E+03  0.15080174757E+02  0.41074671011E+03  0.42953676353E+03  0.25500000920E-02 0. -1.
       -2    1    3    3    0  502 -0.12474598062E+03 -0.15080174757E+02 -0.10466370807E+04  0.10541528115E+04  0.25500000920E-02 0.  1.
</event>
<event>
 5   0  0.1605214E-03  0.1455857E+04  0.7818609E-02  0.8914350E-01
       -2   -1    0    0    0  501  0.00000000000E+00  0.00000000000E+00  0.13478025519E+04  0.13478025519E+04  0.25500000920E-02 0. -1.
        2   -1    0    0  501    0  0.00000000000E+00  0.00000000000E+00 -0.39314355198E+03  0.39314355198E+03  0.25500000920E-02 0.  1.
    10030    2    1    2    0    0  0.00000000000E+00  0.00000000000E+00  0.95465899990E+03  0.17409461039E+04  0.14558569746E+04 0.  0.
        5    1    3    3  502    0 -0.45060527506E+02 -0.45299188846E+03  0.11565582944E+04  0.12429325325E+04  0.46999998093E+01 0. -1.
       -5    1    3    3    0  502  0.45060527506E+02  0.45299188846E+03 -0.20189929445E+03  0.49801357135E+03  0.46999998093E+01 0.  1.
</event>
<event>
 5   0  0.8609148E-04  0.1387100E+04  0.7818609E-02  0.8963210E-01
       -1   -1    0    0    0  501  0.00000000000E+00  0.00000000000E+00  0.59939561628E+03  0.59939561630E+03  0.50400001928E-02 0.  1.
        1   -1    0    0  501    0  0.00000000000E+00  0.00000000000E+00 -0.80249415810E+03  0.80249415812E+03  0.50400001928E-02 0. -1.
    10030    2    1    2    0    0  0.00000000000E+00  0.00000000000E+00 -0.20309854182E+03  0.14018897744E+04  0.13870998241E+04 0.  0.
        5    1    3    3  502    0  0.39633907412E+03  0.26690112055E+03 -0.60957033534E+03  0.77454435222E+03  0.46999998093E+01 0. -1.
       -5    1    3    3    0  502 -0.39633907412E+03 -0.26690112055E+03  0.40647179351E+03  0.62734542220E+03  0.46999998093E+01 0.  1.
</event>
<event>
 5   0  0.8673728E-04  0.1297526E+04  0.7818609E-02  0.9031530E-01
       -1   -1    0    0    0  501  0.00000000000E+00  0.00000000000E+00  0.51387961417E+03  0.51387961420E+03  0.50400001928E-02 0.  1.
        1   -1    0    0  501    0  0.00000000000E+00  0.00000000000E+00 -0.81905021098E+03  0.81905021099E+03  0.50400001928E-02 0. -1.
    10030    2    1    2    0    0  0.00000000000E+00  0.00000000000E+00 -0.30517059680E+03  0.13329298252E+04  0.12975256551E+04 0.  0.
        3    1    3    3  502    0 -0.40705384365E+03 -0.35089049694E+03 -0.52592455103E+03  0.75193990189E+03  0.10100000352E+00 0. -1.
       -3    1    3    3    0  502  0.40705384365E+03  0.35089049694E+03  0.22075395423E+03  0.58098992330E+03  0.10100000352E+00 0.  1.
</event>
<event>
 5   0  0.8609148E-04  0.1396922E+04  0.7818609E-02  0.8956049E-01
       -1   -1    0    0    0  501  0.00000000000E+00  0.00000000000E+00  0.10702519738E+04  0.10702519738E+04  0.50400001928E-02 0. -1.
        1   -1    0    0  501    0  0.00000000000E+00  0.00000000000E+00 -0.45582547365E+03  0.45582547368E+03  0.50400001928E-02 0.  1.
    10030    2    1    2    0    0  0.00000000000E+00  0.00000000000E+00  0.61442650012E+03  0.15260774475E+04  0.13969224931E+04 0.  0.
        5    1    3    3  502    0  0.69349703373E+03 -0.47221253184E+02  0.23265325207E+03  0.73301951423E+03  0.46999998093E+01 0.  1.
       -5    1    3    3    0  502 -0.69349703373E+03  0.47221253184E+02  0.38177324805E+03  0.79305793323E+03  0.46999998093E+01 0. -1.
</event>
<event>
 5   0  0.9639548E-04  0.1485048E+04  0.7818609E-02  0.8894457E-01
        1   -1    0    0  501    0  0.00000000000E+00  0.00000000000E+00  0.88178689068E+03  0.88178689069E+03  0.50400001928E-02 0. -1.
       -1   -1    0    0    0  501  0.00000000000E+00  0.00000000000E+00 -0.62525517599E+03  0.62525517601E+03  0.50400001928E-02 0.  1.
    10030    2    1    2    0    0  0.00000000000E+00  0.00000000000E+00  0.25653171469E+03  0.15070420667E+04  0.14850479016E+04 0.  0.
        1    1    3    3  502    0  0.49583613356E+03  0.30895257547E+03 -0.33681927508E+03  0.67435331194E+03  0.50400001928E-02 0.  1.
       -1    1    3    3    0  502 -0.49583613356E+03 -0.30895257547E+03  0.59335098976E+03  0.83268875476E+03  0.50400001928E-02 0. -1.
</event>
<event>
 5   0  0.1578965E-03  0.1394174E+04  0.7818609E-02  0.8958047E-01
       -2   -1    0    0    0  501  0.00000000000E+00  0.00000000000E+00  0.59600471981E+03  0.59600471981E+03  0.25500000920E-02 0.  1.
        2   -1    0    0  501    0  0.00000000000E+00  0.00000000000E+00 -0.81531276322E+03  0.81531276322E+03  0.25500000920E-02 0. -1.
    10030    2    1    2    0    0  0.00000000000E+00  0.00000000000E+00 -0.21930804341E+03  0.14113174830E+04  0.13941739562E+04 0.  0.
        2    1    3    3  502    0  0.29745698448E+03  0.55468430360E+03  0.19365495999E+03  0.65852682391E+03  0.25500000920E-02 0.  1.
       -2    1    3    3    0  502 -0.29745698448E+03 -0.55468430360E+03 -0.41296300341E+03  0.75279065912E+03  0.25500000920E-02 0. -1.
</event>
<event>
 5   0  0.1648463E-03  0.1412374E+04  0.7818609E-02  0.8944910E-01
       -2   -1    0    0    0  501  0.00000000000E+00  0.00000000000E+00  0.76622517667E+03  0.76622517667E+03  0.25500000920E-02 0.  1.
        2   -1    0    0  501    0  0.00000000000E+00  0.00000000000E+00 -0.65085279343E+03  0.65085279344E+03  0.25500000920E-02 0. -1.
    10030    2    1    2    0    0  0.00000000000E+00  0.00000000000E+00  0.11537238323E+03  0.14170779701E+04  0.14123736002E+04 0.  0.
        1    1    3    3  502    0 -0.19737768369E+03 -0.26603577930E+03  0.68343557209E+03  0.75948480374E+03  0.50400001928E-02 0.  1.
       -1    1    3    3    0  502  0.19737768369E+03  0.26603577930E+03 -0.56806318886E+03  0.65759316637E+03  0.50400001928E-02 0. -1.
</event>
<event>
 5   0  0.6048000E-04  0.1454424E+04  0.7818609E-02  0.8915339E-01
        3   -1    0    0  501    0  0.00000000000E+00  0.00000000000E+00  0.70287269228E+03  0.70287269954E+03  0.10100000352E+00 0.  1.
       -3   -1    0    0    0  501  0.00000000000E+00  0.00000000000E+00 -0.75239405676E+03  0.75239406354E+03  0.10100000352E+00 0. -1.
    10030    2    1    2    0    0  0.00000000000E+00  0.00000000000E+00 -0.49521364481E+02  0.14552667631E+04  0.14544239362E+04 0.  0.
        2    1    3    3  502    0  0.67257117569E+03 -0.15105480110E+03  0.20703648181E+03  0.71974554122E+03  0.25500000920E-02 0. -1.
       -2    1    3    3    0  502 -0.67257117569E+03  0.15105480110E+03 -0.25655784629E+03  0.73552122186E+03  0.25500000920E-02 0.  1.
</event>
<event>
 5   0  0.9007180E-04  0.1397915E+04  0.7818609E-02  0.8955329E-01
        1   -1    0    0  501    0  0.00000000000E+00  0.00000000000E+00  0.22407470425E+04  0.22407470425E+04  0.50400001928E-02 0.  1.
       -1   -1    0    0    0  501  0.00000000000E+00  0.00000000000E+00 -0.21802623788E+03  0.21802623794E+03  0.50400001928E-02 0. -1.
    10030    2    1    2    0    0  0.00000000000E+00  0.00000000000E+00  0.20227208046E+04  0.24587732804E+04  0.13979150873E+04 0.  0.
        2    1    3    3  502    0  0.26865478215E+03 -0.21950555235E+03 -0.55898765463E+02  0.35140112617E+03  0.25500000920E-02 0. -1.
       -2    1    3    3    0  502 -0.26865478215E+03  0.21950555235E+03  0.20786195700E+04  0.21073721542E+04  0.25500000920E-02 0.  1.
</event>
<event>
 5   0  0.8673728E-04  0.1459509E+04  0.7818609E-02  0.8911834E-01
        1   -1    0    0  501    0  0.00000000000E+00  0.00000000000E+00  0.66061433216E+03  0.66061433218E+03  0.50400001928E-02 0.  1.
       -1   -1    0    0    0  501  0.00000000000E+00  0.00000000000E+00 -0.80613133090E+03  0.80613133091E+03  0.50400001928E-02 0. -1.
    10030    2    1    2    0    0  0.00000000000E+00  0.00000000000E+00 -0.14551699874E+03  0.14667456631E+04  0.14595093844E+04 0.  0.
        3    1    3    3  502    0  0.30091249403E+03  0.36455004628E+03 -0.63147976344E+03  0.78880401060E+03  0.10100000352E+00 0.  1.
       -3    1    3    3    0  502 -0.30091249403E+03 -0.36455004628E+03  0.48596276470E+03  0.67794165249E+03  0.10100000352E+00 0. -1.
</event>
<event>
 5   0  0.1578965E-03  0.1221883E+04  0.7818609E-02  0.9093915E-01
        2   -1    0    0  501    0  0.00000000000E+00  0.00000000000E+00  0.10272780721E+04  0.10272780721E+04  0.25500000920E-02 0. -1.
       -2   -1    0    0    0  501  0.00000000000E+00  0.00000000000E+00 -0.36333835751E+03  0.36333835752E+03  0.25500000920E-02 0.  1.
    10030    2    1    2    0    0  0.00000000000E+00  0.00000000000E+00  0.66393971458E+03  0.13906164296E+04  0.12218830180E+04 0.  0.
        2    1    3    3  502    0  0.26844675598E+03  0.33084172420E+03  0.83030593898E+03  0.93323515770E+03  0.25500000920E-02 0. -1.
       -2    1    3    3    0  502 -0.26844675598E+03 -0.33084172420E+03 -0.16636622440E+03  0.45738127191E+03  0.25500000920E-02 0.  1.
</event>
<event>
 5   0  0.1706986E-03  0.1357638E+04  0.7818609E-02  0.8985066E-01
        2   -1    0    0  501    0  0.00000000000E+00  0.00000000000E+00  0.12881149848E+04  0.12881149848E+04  0.25500000920E-02 0.  1.
       -2   -1    0    0    0  501  0.00000000000E+00  0.00000000000E+00 -0.35772847759E+03  0.35772847760E+03  0.25500000920E-02 0. -1.
    10030    2    1    2    0    0  0.00000000000E+00  0.00000000000E+00  0.93038650724E+03  0.16458434624E+04  0.13576382618E+04 0.  0.
        3    1    3    3  502    0 -0.18702179557E+03 -0.24188410663E+02 -0.32533614479E+03  0.37603969010E+03  0.10100000352E+00 0. -1.
       -3    1    3    3    0  502  0.18702179557E+03  0.24188410663E+02  0.12557226520E+04  0.12698037723E+04  0.10100000352E+00 0.  1.
</event>
<event>
 5   0  0.9639548E-04  0.1404809E+04  0.7818609E-02  0.8950345E-01
       -1   -1    0    0    0  501  0.00000000000E+00  0.00000000000E+00  0.55644367700E+03  0.55644367702E+03  0.50400001928E-02 0.  1.
        1   -1    0    0  501    0  0.00000000000E+00  0.00000000000E+00 -0.88665217346E+03  0.88665217347E+03  0.50400001928E-02 0. -1.
    10030    2    1    2    0    0  0.00000000000E+00  0.00000000000E+00 -0.33020849646E+03  0.14430958505E+04  0.14048088776E+04 0.  0.
        1    1    3    3  502    0 -0.36011940570E+03 -0.53522255718E+03  0.12035937472E+03  0.65622827673E+03  0.50400001928E-02 0.  1.
       -1    1    3    3    0  502  0.36011940570E+03  0.53522255718E+03 -0.45056787118E+03  0.78686757377E+03  0.50400001928E-02 0. -1.
</event>
<event>
 5   0  0.1578965E-03  0.1392278E+04  0.7818609E-02  0.8959427E-01
        2   -1    0    0  501    0  0.00000000000E+00  0.00000000000E+00  0.51854102807E+03  0.51854102808E+03  0.25500000920E-02 0.  1.
       -2   -1    0    0    0  501  0.00000000000E+00  0.00000000000E+00 -0.93456335086E+03  0.93456335086E+03  0.25500000920E-02 0. -1.
    10030    2    1    2    0    0  0.00000000000E+00  0.00000000000E+00 -0.41602232278E+03  0.14531043789E+04  0.13922779044E+04 0.  0.
        2    1    3    3  502    0 -0.68315716873E+03  0.12954071711E+03 -0.17300593492E+03  0.71653022832E+03  0.25500000920E-02 0. -1.
       -2    1    3    3    0  502  0.68315716873E+03 -0.12954071711E+03 -0.24301638787E+03  0.73657415062E+03  0.25500000920E-02 0.  1.
</event>
<event>
 5   0  0.8502300E-04  0.1417676E+04  0.7818609E-02  0.8941123E-01
        1   -1    0    0  501    0  0.00000000000E+00  0.00000000000E+00  0.37055664095E+03  0.37055664099E+03  0.50400001928E-02 0. -1.
       -1   -1    0    0    0  501  0.00000000000E+00  0.00000000000E+00 -0.13559358379E+04  0.13559358380E+04  0.50400001928E-02 0.  1.
    10030    2    1    2    0    0  0.00000000000E+00  0.00000000000E+00 -0.98537919699E+03  0.17264924789E+04  0.14176756039E+04 0.  0.
        4    1    3    3  502    0 -0.49028774796E+03 -0.44855828481E+03 -0.19224540840E+03  0.69177056935E+03  0.12699999809E+01 0. -1.
       -4    1    3    3    0  502  0.49028774796E+03  0.44855828481E+03 -0.79313378860E+03  0.10347219096E+04  0.12699999809E+01 0.  1.
</event>
<event>
 5   0  0.8673728E-04  0.1387386E+04  0.7818609E-02  0.8963000E-01
        1   -1    0    0  501    0  0.00000000000E+00  0.00000000000E+00  0.13226724176E+04  0.13226724176E+04  0.50400001928E-02 0.  1.
       -1   -1    0    0    0  501  0.00000000000E+00  0.00000000000E+00 -0.36381642641E+03  0.36381642644E+03  0.50400001928E-02 0. -1.
    10030    2    1    2    0    0  0.00000000000E+00  0.00000000000E+00  0.95885599115E+03  0.16864888440E+04  0.13873859626E+04 0.  0.
        3    1    3    3  502    0 -0.48269122512E+03 -0.11753146247E+03  0.10679599605E+04  0.11778552334E+04  0.10100000352E+00 0.  1.
       -3    1    3    3    0  502  0.48269122512E+03  0.11753146247E+03 -0.10910396936E+03  0.50863361057E+03  0.10100000352E+00 0. -1.
</event>
<event>
 5   0  0.1605214E-03  0.1392857E+04  0.7818609E-02  0.8959005E-01
       -2   -1    0    0    0  501  0.00000000000E+00  0.00000000000E+00  0.66338114806E+03  0.66338114806E+03  0.25500000920E-02 0. -1.
        2   -1    0    0  501    0  0.00000000000E+00  0.00000000000E+00 -0.73112243192E+03  0.73112243192E+03  0.25500000920E-02 0.  1.
    10030    2    1    2    0    0  0.00000000000E+00  0.00000000000E+00 -0.67741283863E+02  0.13945035800E+04  0.13928572623E+04 0.  0.
        5    1    3    3  502    0  0.50046117569E+02  0.64526106850E+03  0.22357973056E+03  0.68474553399E+03  0.46999998093E+01 0. -1.
       -5    1    3    3    0  502 -0.50046117569E+02 -0.64526106850E+03 -0.29132101442E+03  0.70975804599E+03  0.46999998093E+01 0.  1.
</event>
<event>
 5   0  0.1578965E-03  0.1402199E+04  0.7818609E-02  0.8952228E-01
        2   -1    0    0  501    0  0.00000000000E+00  0.00000000000E+00  0.13264838924E+04  0.13264838924E+04  0.25500000920E-02 0. -1.
       -2   -1    0    0    0  501  0.00000000000E+00  0.00000000000E+00 -0.37055917557E+03  0.37055917558E+03  0.25500000920E-02 0.  1.
    10030    2    1    2    0    0  0.00000000000E+00  0.00000000000E+00  0.95592471679E+03  0.16970430680E+04  0.14021993832E+04 0.  0.
        2    1    3    3  502    0 -0.47983592746E+03  0.39521338383E+01  0.10966028907E+04  0.11969945850E+04  0.25500000920E-02 0. -1.
       -2    1    3    3    0  502  0.47983592746E+03 -0.39521338383E+01 -0.14067817393E+03  0.50004848292E+03  0.25500000920E-02 0.  1.
</event>
<event>
 5   0  0.6048000E-04  0.1380201E+04  0.7818609E-02  0.8968276E-01
        3   -1    0    0  501    0  0.00000000000E+00  0.00000000000E+00  0.65887289740E+03  0.65887290514E+03  0.10100000352E+00 0.  1.
       -3   -1    0    0    0  501  0.00000000000E+00  0.00000000000E+00 -0.72280799092E+03  0.72280799798E+03  0.10100000352E+00 0. -1.
    10030    2    1    2    0    0  0.00000000000E+00  0.00000000000E+00 -0.63935093520E+02  0.13816809031E+04  0.13802008629E+04 0.  0.
        1    1    3    3  502    0 -0.30064050824E+03  0.16427709767E+03 -0.63166496259E+03  0.71859049882E+03  0.50400001928E-02 0. -1.
       -1    1    3    3    0  502  0.30064050824E+03 -0.16427709767E+03  0.56772986907E+03  0.66309040430E+03  0.50400001928E-02 0.  1.
</event>
<event>
 5   0  0.8609148E-04  0.1410737E+04  0.7818609E-02  0.8946083E-01
        1   -1    0    0  501    0  0.00000000000E+00  0.00000000000E+00  0.14313037004E+04  0.14313037004E+04  0.50400001928E-02 0.  1.
       -1   -1    0    0    0  501  0.00000000000E+00  0.00000000000E+00 -0.34761623708E+03  0.34761623712E+03  0.50400001928E-02 0. -1.
    10030    2    1    2    0    0  0.00000000000E+00  0.00000000000E+00  0.10836874634E+04  0.17789199376E+04  0.14107365544E+04 0.  0.
        5    1    3    3  502    0  0.51269583113E+03 -0.46231702130E+02  0.11499059877E+04  0.12598810484E+04  0.46999998093E+01 0.  1.
       -5    1    3    3    0  502 -0.51269583113E+03  0.46231702130E+02 -0.66218524319E+02  0.51903888920E+03  0.46999998093E+01 0. -1.
</event>
<event>
 5   0  0.9007180E-04  0.1403224E+04  0.7818609E-02  0.8951488E-01
        1   -1    0    0  501    0  0.00000000000E+00  0.00000000000E+00  0.15200534478E+04  0.15200534478E+04  0.50400001928E-02 0.  1.
       -1   -1    0    0    0  501  0.00000000000E+00  0.00000000000E+00 -0.32384354457E+03  0.32384354461E+03  0.50400001928E-02 0. -1.
    10030    2    1    2    0    0  0.00000000000E+00  0.00000000000E+00  0.11962099032E+04  0.18438969924E+04  0.14032241396E+04 0.  0.
        2    1    3    3  502    0 -0.64137720887E+02 -0.69348841077E+03  0.70975743438E+03  0.99438193808E+03  0.25500000920E-02 0. -1.
       -2    1    3    3    0  502  0.64137720887E+02  0.69348841077E+03  0.48645246887E+03  0.84951505436E+03  0.25500000920E-02 0.  1.
</event>
<event>
 5   0  0.9639548E-04  0.1443752E+04  0.7818609E-02  0.8922744E-01
        1   -1    0    0  501    0  0.00000000000E+00  0.00000000000E+00  0.16159086478E+04  0.16159086478E+04  0.50400001928E-02 0.  1.
       -1   -1    0    0    0  501  0.00000000000E+00  0.00000000000E+00 -0.32248400034E+03  0.32248400038E+03  0.50400001928E-02 0. -1.
    10030    2    1    2    0    0  0.00000000000E+00  0.00000000000E+00  0.12934246474E+04  0.19383926481E+04  0.14437516199E+04 0.  0.
        1    1    3    3  502    0 -0.69472069731E+03  0.14958219265E+03  0.47639146157E+03  0.85554690363E+03  0.50400001928E-02 0. -1.
       -1    1    3    3    0  502  0.69472069731E+03 -0.14958219265E+03  0.81703318584E+03  0.10828457445E+04  0.50400001928E-02 0.  1.
</event>
<event>
 5   0  0.1578965E-03  0.1392156E+04  0.7818609E-02  0.8959516E-01
       -2   -1    0    0    0  501  0.00000000000E+00  0.00000000000E+00  0.65206645026E+03  0.65206645026E+03  0.25500000920E-02 0.  1.
        2   -1    0    0  501    0  0.00000000000E+00  0.00000000000E+00 -0.74306044805E+03  0.74306044805E+03  0.25500000920E-02 0. -1.
    10030    2    1    2    0    0  0.00000000000E+00  0.00000000000E+00 -0.90993997793E+02  0.13951268983E+04  0.13921562968E+04 0.  0.
        2    1    3    3  502    0  0.55083166812E+03 -0.17827155248E+02  0.38060607335E+03  0.66977183962E+03  0.25500000920E-02 0.  1.
       -2    1    3    3    0  502 -0.55083166812E+03  0.17827155248E+02 -0.47160007115E+03  0.72535505870E+03  0.25500000920E-02 0. -1.
</event>
<event>
 5   0  0.9639548E-04  0.1386163E+04  0.7818609E-02  0.8963896E-01
        1   -1    0    0  501    0  0.00000000000E+00  0.00000000000E+00  0.71378175072E+03  0.71378175074E+03  0.50400001928E-02 0. -1.
       -1   -1    0    0    0  501  0.00000000000E+00  0.00000000000E+00 -0.67298137364E+03  0.67298137366E+03  0.50400001928E-02 0.  1.
    10030    2    1    2    0    0  0.00000000000E+00  0.00000000000E+00  0.40800377077E+02  0.13867631244E+04  0.13861627943E+04 0.  0.
        1    1    3    3  502    0 -0.19466575878E+03  0.44181753832E+03 -0.47707197041E+03  0.67874528343E+03  0.50400001928E-02 0.  1.
       -1    1    3    3    0  502  0.19466575878E+03 -0.44181753832E+03  0.51787234749E+03  0.70801784096E+03  0.50400001928E-02 0. -1.
</event>
<event>
 5   0  0.6048000E-04  0.1412148E+04  0.7818609E-02  0.8945072E-01
       -4   -1    0    0    0  501  0.00000000000E+00  0.00000000000E+00  0.13731620349E+04  0.13731626222E+04  0.12699999809E+01 0.  1.
        4   -1    0    0  501    0  0.00000000000E+00  0.00000000000E+00 -0.36305833263E+03  0.36306055389E+03  0.12699999809E+01 0. -1.
    10030    2    1    2    0    0  0.00000000000E+00  0.00000000000E+00  0.10101037022E+04  0.17362231761E+04  0.14121478066E+04 0.  0.
        4    1    3    3  502    0  0.33755446132E+03  0.25084225607E+03 -0.19227004170E+03  0.46242213790E+03  0.12699999809E+01 0. -1.
       -4    1    3    3    0  502 -0.33755446132E+03 -0.25084225607E+03  0.12023737439E+04  0.12738010382E+04  0.12699999809E+01 0.  1.
</event>
<event>
 5   0  0.8673728E-04  0.1394911E+04  0.7818609E-02  0.8957511E-01
       -1   -1    0    0    0  501  0.00000000000E+00  0.00000000000E+00  0.76502281660E+03  0.76502281661E+03  0.50400001928E-02 0. -1.
        1   -1    0    0  501    0  0.00000000000E+00  0.00000000000E+00 -0.63585533527E+03  0.63585533529E+03  0.50400001928E-02 0.  1.
    10030    2    1    2    0    0  0.00000000000E+00  0.00000000000E+00  0.12916748132E+03  0.14008781519E+04  0.13949105198E+04 0.  0.
        3    1    3    3  502    0 -0.66842640613E+02  0.50423225404E+03  0.54383146461E+03  0.74462794516E+03  0.10100000352E+00 0. -1.
       -3    1    3    3    0  502  0.66842640613E+02 -0.50423225404E+03 -0.41466398329E+03  0.65625020674E+03  0.10100000352E+00 0.  1.
</event>
<event>
 5   0  0.6048000E-04  0.1444932E+04  0.7818609E-02  0.8921922E-01
       -3   -1    0    0    0  501  0.00000000000E+00  0.00000000000E+00  0.34568507612E+03  0.34568509087E+03  0.10100000352E+00 0. -1.
        3   -1    0    0  501    0  0.00000000000E+00  0.00000000000E+00 -0.15099209226E+04  0.15099209260E+04  0.10100000352E+00 0.  1.
    10030    2    1    2    0    0  0.00000000000E+00  0.00000000000E+00 -0.11642358465E+04  0.18556060169E+04  0.14449320342E+04 0.  0.
        4    1    3    3  502    0 -0.54942418891E+03 -0.29064606852E+03 -0.10919567536E+03  0.63108429304E+03  0.12699999809E+01 0. -1.
       -4    1    3    3    0  502  0.54942418891E+03  0.29064606852E+03 -0.10550401712E+04  0.12245217238E+04  0.12699999809E+01 0.  1.
</event>
<event>
 5   0  0.8609148E-04  0.1392553E+04  0.7818609E-02  0.8959227E-01
       -1   -1    0    0    0  501  0.00000000000E+00  0.00000000000E+00  0.50907614052E+03  0.50907614054E+03  0.50400001928E-02 0. -1.
        1   -1    0    0  501    0  0.00000000000E+00  0.00000000000E+00 -0.95231503056E+03  0.95231503057E+03  0.50400001928E-02 0.  1.
    10030    2    1    2    0    0  0.00000000000E+00  0.00000000000E+00 -0.44323889004E+03  0.14613911711E+04  0.13925528505E+04 0.  0.
        5    1    3    3  502    0  0.31247874092E+03  0.61982017361E+03 -0.16453607514E+03  0.71338224057E+03  0.46999998093E+01 0.  1.
       -5    1    3    3    0  502 -0.31247874092E+03 -0.61982017361E+03 -0.27870281490E+03  0.74800893054E+03  0.46999998093E+01 0. -1.
</event>
<event>
 5   0  0.1578965E-03  0.1407722E+04  0.7818609E-02  0.8948248E-01
       -2   -1    0    0    0  501  0.00000000000E+00  0.00000000000E+00  0.71744016676E+03  0.71744016676E+03  0.25500000920E-02 0. -1.
        2   -1    0    0  501    0  0.00000000000E+00  0.00000000000E+00 -0.69053915001E+03  0.69053915001E+03  0.25500000920E-02 0.  1.
    10030    2    1    2    0    0  0.00000000000E+00  0.00000000000E+00  0.26901016748E+02  0.14079793168E+04  0.14077223063E+04 0.  0.
        2    1    3    3  502    0 -0.67586455388E+03  0.25249882621E+02 -0.18149549509E+03  0.70026499735E+03  0.25500000920E-02 0.  1.
       -2    1    3    3    0  502  0.67586455388E+03 -0.25249882621E+02  0.20839651184E+03  0.70771431943E+03  0.25500000920E-02 0. -1.
</event>
<event>
 5   0  0.6048000E-04  0.1079981E+04  0.7818609E-02  0.9224927E-01
        3   -1    0    0  501    0  0.00000000000E+00  0.00000000000E+00  0.71812354518E+03  0.71812355228E+03  0.10100000352E+00 0. -1.
       -3   -1    0    0    0  501  0.00000000000E+00  0.00000000000E+00 -0.40604373960E+03  0.40604375216E+03  0.10100000352E+00 0.  1.
    10030    2    1    2    0    0  0.00000000000E+00  0.00000000000E+00  0.31207980558E+03  0.11241673044E+04  0.10799807051E+04 0.  0.
        1    1    3    3  502    0  0.18737095619E+03 -0.72729244858E+01 -0.37106658559E+03  0.41575375118E+03  0.50400001928E-02 0.  1.
       -1    1    3    3    0  502 -0.18737095619E+03  0.72729244858E+01  0.68314639116E+03  0.70841355326E+03  0.50400001928E-02 0. -1.
</event>
<event>
 5   0  0.9639548E-04  0.1404396E+04  0.7818609E-02  0.8950642E-01
       -1   -1    0    0    0  501  0.00000000000E+00  0.00000000000E+00  0.10106582324E+04  0.10106582325E+04  0.50400001928E-02 0. -1.
        1   -1    0    0  501    0  0.00000000000E+00  0.00000000000E+00 -0.48788236759E+03  0.48788236761E+03  0.50400001928E-02 0.  1.
    10030    2    1    2    0    0  0.00000000000E+00  0.00000000000E+00  0.52277586486E+03  0.14985406001E+04  0.14043964274E+04 0.  0.
        1    1    3    3  502    0 -0.32630325294E+03  0.17443419824E+03 -0.37542857387E+03  0.52711262221E+03  0.50400001928E-02 0.  1.
       -1    1    3    3    0  502  0.32630325294E+03 -0.17443419824E+03  0.89820443872E+03  0.97142797786E+03  0.50400001928E-02 0. -1.
</event>
<event>
 5   0  0.1578965E-03  0.1401847E+04  0.7818609E-02  0.8952483E-01
        2   -1    0    0  501    0  0.00000000000E+00  0.00000000000E+00  0.14350775345E+04  0.14350775345E+04  0.25500000920E-02 0.  1.
       -2   -1    0    0    0  501  0.00000000000E+00  0.00000000000E+00 -0.34234647409E+03  0.34234647410E+03  0.25500000920E-02 0. -1.
    10030    2    1    2    0    0  0.00000000000E+00  0.00000000000E+00  0.10927310604E+04  0.17774240086E+04  0.14018469731E+04 0.  0.
        2    1    3    3  502    0 -0.32044430790E+03 -0.92497853591E+02  0.13280161975E+04  0.13692579846E+04  0.25500000920E-02 0.  1.
       -2    1    3    3    0  502  0.32044430790E+03  0.92497853591E+02 -0.23528513715E+03  0.40816602401E+03  0.25500000920E-02 0. -1.
</event>
<event>
 5   0  0.9007180E-04  0.1081225E+04  0.7818609E-02  0.9223687E-01
        1   -1    0    0  501    0  0.00000000000E+00  0.00000000000E+00  0.31377087384E+03  0.31377087388E+03  0.50400001928E-02 0. -1.
       -1   -1    0    0    0  501  0.00000000000E+00  0.00000000000E+00 -0.93144991787E+03  0.93144991788E+03  0.50400001928E-02 0.  1.
    10030    2    1    2    0    0  0.00000000000E+00  0.00000000000E+00 -0.61767904403E+03  0.12452207918E+04  0.10812249622E+04 0.  0.
        2    1    3    3  502    0 -0.46004139476E+03  0.27728076714E+03 -0.37926284440E+03  0.65754316502E+03  0.25500000920E-02 0.  1.
       -2    1    3    3    0  502  0.46004139476E+03 -0.27728076714E+03 -0.23841619963E+03  0.58767762674E+03  0.25500000920E-02 0. -1.
</event>
<event>
 5   0  0.9007180E-04  0.1402735E+04  0.7818609E-02  0.8951841E-01
       -1   -1    0    0    0  501  0.00000000000E+00  0.00000000000E+00  0.37065476910E+03  0.37065476913E+03  0.50400001928E-02 0. -1.
        1   -1    0    0  501    0  0.00000000000E+00  0.00000000000E+00 -0.13271546946E+04  0.13271546946E+04  0.50400001928E-02 0.  1.
    10030    2    1    2    0    0  0.00000000000E+00  0.00000000000E+00 -0.95649992550E+03  0.16978094637E+04  0.14027347817E+04 0.  0.
        2    1    3    3  502    0  0.60936946951E+03  0.40953041392E+02 -0.60882329867E+02  0.61377109745E+03  0.25500000920E-02 0. -1.
       -2    1    3    3    0  502 -0.60936946951E+03 -0.40953041392E+02 -0.89561759563E+03  0.10840383663E+04  0.25500000920E-02 0.  1.
</event>
<event>
 5   0  0.8502300E-04  0.1397035E+04  0.7818609E-02  0.8955967E-01
        1   -1    0    0  501    0  0.00000000000E+00  0.00000000000E+00  0.97146334206E+03  0.97146334208E+03  0.50400001928E-02 0.  1.
       -1   -1    0    0    0  501  0.00000000000E+00  0.00000000000E+00 -0.50225981957E+03  0.50225981959E+03  0.50400001928E-02 0. -1.
    10030    2    1    2    0    0  0.00000000000E+00  0.00000000000E+00  0.46920352249E+03  0.14737231617E+04  0.13970354368E+04 0.  0.
        4    1    3    3  502    0  0.39294801214E+03 -0.25306314819E+03 -0.31300495846E+03  0.56251472349E+03  0.12699999809E+01 0. -1.
       -4    1    3    3    0  502 -0.39294801214E+03  0.25306314819E+03  0.78220848096E+03  0.91120843818E+03  0.12699999809E+01 0.  1.
</event>
<event>
 5   0  0.8502300E-04  0.1321465E+04  0.7818609E-02  0.9012714E-01
       -1   -1    0    0    0  501  0.00000000000E+00  0.00000000000E+00  0.42430721675E+03  0.42430721678E+03  0.50400001928E-02 0.  1.
        1   -1    0    0  501    0  0.00000000000E+00  0.00000000000E+00 -0.10288945774E+04  0.10288945774E+04  0.50400001928E-02 0. -1.
    10030    2    1    2    0    0  0.00000000000E+00  0.00000000000E+00 -0.60458736066E+03  0.14532017942E+04  0.13214649363E+04 0.  0.
        4    1    3    3  502    0 -0.38815726230E+03  0.38158719673E+03  0.10959995619E+03  0.55523743775E+03  0.12699999809E+01 0.  1.
       -4    1    3    3    0  502  0.38815726230E+03 -0.38158719673E+03 -0.71418731685E+03  0.89796435644E+03  0.12699999809E+01 0. -1.
</event>
<event>
 5   0  0.8609148E-04  0.1402478E+04  0.7818609E-02  0.8952027E-01
       -1   -1    0    0    0  501  0.00000000000E+00  0.00000000000E+00  0.47498769957E+03  0.47498769960E+03  0.50400001928E-02 0.  1.
        1   -1    0    0  501    0  0.00000000000E+00  0.00000000000E+00 -0.10352608810E+04  0.10352608810E+04  0.50400001928E-02 0. -1.
    10030    2    1    2    0    0  0.00000000000E+00  0.00000000000E+00 -0.56027318144E+03  0.15102485806E+04  0.14024780702E+04 0.  0.
        5    1    3    3  502    0  0.18740467828E+03 -0.63393560227E+03 -0.28239960293E+02  0.66167548438E+03  0.46999998093E+01 0.  1.
       -5    1    3    3    0  502 -0.18740467828E+03  0.63393560227E+03 -0.53203322115E+03  0.84857309625E+03  0.46999998093E+01 0. -1.
</event>
<event>
 5   0  0.8673728E-04  0.1384904E+04  0.7818609E-02  0.8964819E-01
       -1   -1    0    0    0  501  0.00000000000E+00  0.00000000000E+00  0.50128700384E+03  0.50128700387E+03  0.50400001928E-02 0. -1.
        1   -1    0    0  501    0  0.00000000000E+00  0.00000000000E+00 -0.95651765490E+03  0.95651765492E+03  0.50400001928E-02 0.  1.
    10030    2    1    2    0    0  0.00000000000E+00  0.00000000000E+00 -0.45523065106E+03  0.14578046588E+04  0.13849041402E+04 0.  0.
        3    1    3    3  502    0  0.21308507735E+03 -0.62169054651E+03 -0.45723908186E+03  0.80060725328E+03  0.10100000352E+00 0.  1.
       -3    1    3    3    0  502 -0.21308507735E+03  0.62169054651E+03  0.20084308020E+01  0.65719740551E+03  0.10100000352E+00 0. -1.
</event>
<event>
 5   0  0.1605214E-03  0.1227138E+04  0.7818609E-02  0.9089428E-01
        2   -1    0    0  501    0  0.00000000000E+00  0.00000000000E+00  0.40310474875E+03  0.40310474876E+03  0.25500000920E-02 0. -1.
       -2   -1    0    0    0  501  0.00000000000E+00  0.00000000000E+00 -0.93391896011E+03  0.93391896011E+03  0.25500000920E-02 0.  1.
    10030    2    1    2    0    0  0.00000000000E+00  0.00000000000E+00 -0.53081421136E+03  0.13370237089E+04  0.12271384075E+04 0.  0.
        5    1    3    3  502    0 -0.55048343747E+03 -0.18605954560E+02 -0.55992103832E+03  0.78543736582E+03  0.46999998093E+01 0.  1.
       -5    1    3    3    0  502  0.55048343747E+03  0.18605954560E+02  0.29106826962E+02  0.55158634306E+03  0.46999998093E+01 0. -1.
</event>
<event>
 5   0  0.8609148E-04  0.1200477E+04  0.7818609E-02  0.9112439E-01
        1   -1    0    0  501    0  0.00000000000E+00  0.00000000000E+00  0.13032247400E+04  0.13032247401E+04  0.50400001928E-02 0.  1.
       -1   -1    0    0    0  501  0.00000000000E+00  0.00000000000E+00 -0.27645743792E+03  0.27645743797E+03  0.50400001928E-02 0. -1.
    10030    2    1    2    0    0  0.00000000000E+00  0.00000000000E+00  0.10267673021E+04  0.15796821780E+04  0.12004768598E+04 0.  0.
        5    1    3    3  502    0  0.33969773574E+03  0.30176548435E+03  0.10294483476E+04  0.11252746107E+04  0.46999998093E+01 0.  1.
       -5    1    3    3    0  502 -0.33969773574E+03 -0.30176548435E+03 -0.26810454560E+01  0.45440756730E+03  0.46999998093E+01 0. -1.
</event>
<event>
 5   0  0.1648463E-03  0.1391287E+04  0.7818609E-02  0.8960150E-01
       -2   -1    0    0    0  501  0.00000000000E+00  0.00000000000E+00  0.48000090477E+03  0.48000090478E+03  0.25500000920E-02 0. -1.
        2   -1    0    0  501    0  0.00000000000E+00  0.00000000000E+00 -0.10081644664E+04  0.10081644664E+04  0.25500000920E-02 0.  1.
    10030    2    1    2    0    0  0.00000000000E+00  0.00000000000E+00 -0.52816356167E+03  0.14881653712E+04  0.13912869669E+04 0.  0.
        1    1    3    3  502    0  0.47513201911E+02  0.60200488431E+03  0.10529379133E+03  0.61298790169E+03  0.50400001928E-02 0. -1.
       -1    1    3    3    0  502 -0.47513201911E+02 -0.60200488431E+03 -0.63345735300E+03  0.87517746954E+03  0.50400001928E-02 0.  1.
</event>
<event>
 5   0  0.8673728E-04  0.1393828E+04  0.7818609E-02  0.8958298E-01
        1   -1    0    0  501    0  0.00000000000E+00  0.00000000000E+00  0.12105887328E+04  0.12105887328E+04  0.50400001928E-02 0. -1.
       -1   -1    0    0    0  501  0.00000000000E+00  0.00000000000E+00 -0.40120064245E+03  0.40120064249E+03  0.50400001928E-02 0.  1.
    10030    2    1    2    0    0  0.00000000000E+00  0.00000000000E+00  0.80938809032E+03  0.16117893753E+04  0.13938277905E+04 0.  0.
        3    1    3    3  502    0 -0.65198955254E+03  0.51923892850E+02  0.68295215232E+03  0.94562683963E+03  0.10100000352E+00 0. -1.
       -3    1    3    3    0  502  0.65198955254E+03 -0.51923892850E+02  0.12643593800E+03  0.66616253564E+03  0.10100000352E+00 0.  1.
</event>
<event>
 5   0  0.8502300E-04  0.1411478E+04  0.7818609E-02  0.8945552E-01
        1   -1    0    0  501    0  0.00000000000E+00  0.00000000000E+00  0.12790856167E+04  0.12790856167E+04  0.50400001928E-02 0. -1.
       -1   -1    0    0    0  501  0.00000000000E+00  0.00000000000E+00 -0.38939363800E+03  0.38939363803E+03  0.50400001928E-02 0.  1.
    10030    2    1    2    0    0  0.00000000000E+00  0.00000000000E+00  0.88969197872E+03  0.16684792548E+04  0.14114783762E+04 0.  0.
        4    1    3    3  502    0  0.33951618097E+03  0.11796340568E+03 -0.27309523809E+03  0.45140804621E+03  0.12699999809E+01 0.  1.
       -4    1    3    3    0  502 -0.33951618097E+03 -0.11796340568E+03  0.11627872168E+04  0.12170712086E+04  0.12699999809E+01 0. -1.
</event>
<event>
 5   0  0.1648463E-03  0.1407073E+04  0.7818609E-02  0.8948715E-01
       -2   -1    0    0    0  501  0.00000000000E+00  0.00000000000E+00  0.31181768338E+03  0.31181768339E+03  0.25500000920E-02 0.  1.
        2   -1    0    0  501    0  0.00000000000E+00  0.00000000000E+00 -0.15873487015E+04  0.15873487015E+04  0.25500000920E-02 0. -1.
    10030    2    1    2    0    0  0.00000000000E+00  0.00000000000E+00 -0.12755310181E+04  0.18991663849E+04  0.14070726987E+04 0.  0.
        1    1    3    3  502    0  0.22714640117E+03  0.60838076039E+03 -0.27248803394E+03  0.70425305526E+03  0.50400001928E-02 0.  1.
       -1    1    3    3    0  502 -0.22714640117E+03 -0.60838076039E+03 -0.10030429842E+04  0.11949133296E+04  0.50400001928E-02 0. -1.
</event>
<event>
 5   0  0.1605214E-03  0.1405903E+04  0.7818609E-02  0.8949557E-01
        2   -1    0    0  501    0  0.00000000000E+00  0.00000000000E+00  0.99709070647E+03  0.99709070648E+03  0.25500000920E-02 0. -1.
       -2   -1    0    0    0  501  0.00000000000E+00  0.00000000000E+00 -0.49558279325E+03  0.49558279326E+03  0.25500000920E-02 0.  1.
    10030    2    1    2    0    0  0.00000000000E+00  0.00000000000E+00  0.50150791322E+03  0.14926734997E+04  0.14059032647E+04 0.  0.
        5    1    3    3  502    0 -0.56188550454E+03  0.27477984306E+03 -0.89823799172E+02  0.63190955623E+03  0.46999998093E+01 0.  1.
       -5    1    3    3    0  502  0.56188550454E+03 -0.27477984306E+03  0.59133171239E+03  0.86076394351E+03  0.46999998093E+01 0. -1.
</event>
<event>
 5   0  0.1648463E-03  0.1417415E+04  0.7818609E-02  0.8941308E-01
       -2   -1    0    0    0  501  0.00000000000E+00  0.00000000000E+00  0.26563038233E+03  0.26563038234E+03  0.25500000920E-02 0.  1.
        2   -1    0    0  501    0  0.00000000000E+00  0.00000000000E+00 -0.18908474202E+04  0.18908474202E+04  0.25500000920E-02 0. -1.
    10030    2    1    2    0    0  0.00000000000E+00  0.00000000000E+00 -0.16252170378E+04  0.21564778025E+04  0.14174152859E+04 0.  0.
        1    1    3    3  502    0  0.56751972759E+03 -0.41534593590E+03 -0.67931622245E+03  0.97778393205E+03  0.50400001928E-02 0.  1.
       -1    1    3    3    0  502 -0.56751972759E+03  0.41534593590E+03 -0.94590081540E+03  0.11786938705E+04  0.50400001928E-02 0. -1.
</event>
<event>
 5   0  0.1706986E-03  0.1416197E+04  0.7818609E-02  0.8942177E-01
        2   -1    0    0  501    0  0.00000000000E+00  0.00000000000E+00  0.15568700286E+04  0.15568700286E+04  0.25500000920E-02 0.  1.
       -2   -1    0    0    0  501  0.00000000000E+00  0.00000000000E+00 -0.32205847780E+03  0.32205847781E+03  0.25500000920E-02 0. -1.
    10030    2    1    2    0    0  0.00000000000E+00  0.00000000000E+00  0.12348115508E+04  0.18789285064E+04  0.14161965846E+04 0.  0.
        3    1    3    3  502    0  0.16394614995E+03  0.29246819976E+02 -0.29570697491E+03  0.33937640132E+03  0.10100000352E+00 0. -1.
       -3    1    3    3    0  502 -0.16394614995E+03 -0.29246819976E+02  0.15305185257E+04  0.15395521051E+04  0.10100000352E+00 0.  1.
</event>
<event>
 5   0  0.1578965E-03  0.1378546E+04  0.7818609E-02  0.8969496E-01
       -2   -1    0    0    0  501  0.00000000000E+00  0.00000000000E+00  0.89540836543E+03  0.89540836543E+03  0.25500000920E-02 0. -1.
        2   -1    0    0  501    0  0.00000000000E+00  0.00000000000E+00 -0.53059273092E+03  0.53059273093E+03  0.25500000920E-02 0.  1.
    10030    2    1    2    0    0  0.00000000000E+00  0.00000000000E+00  0.36481563451E+03  0.14260010964E+04  0.13785458569E+04 0.  0.
        2    1    3    3  502    0  0.55339131515E+03  0.40448366126E+03  0.25734604474E+03  0.73217208815E+03  0.25500000920E-02 0.  1.
       -2    1    3    3    0  502 -0.55339131515E+03 -0.40448366126E+03  0.10746958977E+03  0.69382900822E+03  0.25500000920E-02 0. -1.
</event>
<event>
 5   0  0.1648463E-03  0.1432643E+04  0.7818609E-02  0.8930523E-01
        2   -1    0    0  501    0  0.00000000000E+00  0.00000000000E+00  0.73386701264E+03  0.73386701264E+03  0.25500000920E-02 0.  1.
       -2   -1    0    0    0  501  0.00000000000E+00  0.00000000000E+00 -0.69919586158E+03  0.69919586159E+03  0.25500000920E-02 0. -1.
    10030    2    1    2    0    0  0.00000000000E+00  0.00000000000E+00  0.34671151052E+02  0.14330628742E+04  0.14326434004E+04 0.  0.
        1    1    3    3  502    0  0.16119265923E+03 -0.16410321904E+03  0.69591745741E+03  0.73294887096E+03  0.50400001928E-02 0.  1.
       -1    1    3    3    0  502 -0.16119265923E+03  0.16410321904E+03 -0.66124630635E+03  0.70011400327E+03  0.50400001928E-02 0. -1.
</event>
<event>
 5   0  0.8609148E-04  0.1405871E+04  0.7818609E-02  0.8949580E-01
        1   -1    0    0  501    0  0.00000000000E+00  0.00000000000E+00  0.11420870976E+04  0.11420870976E+04  0.50400001928E-02 0. -1.
       -1   -1    0    0    0  501  0.00000000000E+00  0.00000000000E+00 -0.43264510463E+03  0.43264510465E+03  0.50400001928E-02 0.  1.
    10030    2    1    2    0    0  0.00000000000E+00  0.00000000000E+00  0.70944199293E+03  0.15747322022E+04  0.14058711062E+04 0.  0.
        5    1    3    3  502    0 -0.73846259067E+02 -0.20817391291E+03  0.11021858827E+04  0.11241109634E+04  0.46999998093E+01 0. -1.
       -5    1    3    3    0  502  0.73846259067E+02  0.20817391291E+03 -0.39274388973E+03  0.45062123887E+03  0.46999998093E+01 0.  1.
</event>
<event>
 5   0  0.8609148E-04  0.1402512E+04  0.7818609E-02  0.8952002E-01
       -1   -1    0    0    0  501  0.00000000000E+00  0.00000000000E+00  0.66153565636E+03  0.66153565638E+03  0.50400001928E-02 0. -1.
        1   -1    0    0  501    0  0.00000000000E+00  0.00000000000E+00 -0.74336100025E+03  0.74336100027E+03  0.50400001928E-02 0.  1.
    10030    2    1    2    0    0  0.00000000000E+00  0.00000000000E+00 -0.81825343890E+02  0.14048966566E+04  0.14025117572E+04 0.  0.
        5    1    3    3  502    0  0.23277813440E+03 -0.63732361298E+03  0.13650617956E+03  0.69211492873E+03  0.46999998093E+01 0. -1.
       -5    1    3    3    0  502 -0.23277813440E+03  0.63732361298E+03 -0.21833152345E+03  0.71278172791E+03  0.46999998093E+01 0.  1.
</event>
<event>
 5   0  0.1578965E-03  0.1384534E+04  0.7818609E-02  0.8965091E-01
        2   -1    0    0  501    0  0.00000000000E+00  0.00000000000E+00  0.24710539377E+04  0.24710539377E+04  0.25500000920E-02 0. -1.
       -2   -1    0    0    0  501  0.00000000000E+00  0.00000000000E+00 -0.19393885856E+03  0.19393885858E+03  0.25500000920E-02 0.  1.
    10030    2    1    2    0    0  0.00000000000E+00  0.00000000000E+00  0.22771150792E+04  0.26649927963E+04  0.13845336834E+04 0.  0.
        2    1    3    3  502    0 -0.59163165196E+03 -0.10480474184E+03  0.18003783857E+04  0.18979921963E+04  0.25500000920E-02 0. -1.
       -2    1    3    3    0  502  0.59163165196E+03  0.10480474184E+03  0.47673669348E+03  0.76700060002E+03  0.25500000920E-02 0.  1.
</event>
<event>
 5   0  0.8673728E-04  0.1365569E+04  0.7818609E-02  0.8979125E-01
       -1   -1    0    0    0  501  0.00000000000E+00  0.00000000000E+00  0.25808495103E+03  0.25808495108E+03  0.50400001928E-02 0. -1.
        1   -1    0    0  501    0  0.00000000000E+00  0.00000000000E+00 -0.18063615410E+04  0.18063615410E+04  0.50400001928E-02 0.  1.
    10030    2    1    2    0    0  0.00000000000E+00  0.00000000000E+00 -0.15482765900E+04  0.20644464921E+04  0.13655690827E+04 0.  0.
        3    1    3    3  502    0  0.49825791465E+02  0.18602319899E+03  0.21617588537E+03  0.28951556724E+03  0.10100000352E+00 0. -1.
       -3    1    3    3    0  502 -0.49825791465E+02 -0.18602319899E+03 -0.17644524754E+04  0.17749309249E+04  0.10100000352E+00 0.  1.
</event>
<event>
 5   0  0.8609148E-04  0.1399317E+04  0.7818609E-02  0.8954313E-01
       -1   -1    0    0    0  501  0.00000000000E+00  0.00000000000E+00  0.13664359242E+04  0.13664359242E+04  0.50400001928E-02 0. -1.
        1   -1    0    0  501    0  0.00000000000E+00  0.00000000000E+00 -0.35824744725E+03  0.35824744728E+03  0.50400001928E-02 0.  1.
    10030    2    1    2    0    0  0.00000000000E+00  0.00000000000E+00  0.10081884769E+04  0.17246833715E+04  0.13993172359E+04 0.  0.
        5    1    3    3  502    0  0.39302600721E+03 -0.55692548313E+03  0.69844418105E+03  0.97595174068E+03  0.46999998093E+01 0. -1.
       -5    1    3    3    0  502 -0.39302600721E+03  0.55692548313E+03  0.30974429588E+03  0.74873163078E+03  0.46999998093E+01 0.  1.
</event>
<event>
 5   0  0.6048000E-04  0.1312439E+04  0.7818609E-02  0.9019759E-01
        4   -1    0    0  501    0  0.00000000000E+00  0.00000000000E+00  0.47321570125E+03  0.47321740544E+03  0.12699999809E+01 0. -1.
       -4   -1    0    0    0  501  0.00000000000E+00  0.00000000000E+00 -0.90999078816E+03  0.90999167438E+03  0.12699999809E+01 0.  1.
    10030    2    1    2    0    0  0.00000000000E+00  0.00000000000E+00 -0.43677508692E+03  0.13832090798E+04  0.13124385250E+04 0.  0.
        1    1    3    3  502    0 -0.12547402055E+02 -0.59843904835E+03 -0.50184577511E+03  0.78111197271E+03  0.50400001928E-02 0.  1.
       -1    1    3    3    0  502  0.12547402055E+02  0.59843904835E+03  0.65070688195E+02  0.60209710710E+03  0.50400001928E-02 0. -1.
</event>
<event>
 5   0  0.1706986E-03  0.1396458E+04  0.7818609E-02  0.8956387E-01
       -2   -1    0    0    0  501  0.00000000000E+00  0.00000000000E+00  0.61285442751E+03  0.61285442752E+03  0.25500000920E-02 0.  1.
        2   -1    0    0  501    0  0.00000000000E+00  0.00000000000E+00 -0.79549630874E+03  0.79549630874E+03  0.25500000920E-02 0. -1.
    10030    2    1    2    0    0  0.00000000000E+00  0.00000000000E+00 -0.18264188123E+03  0.14083507363E+04  0.13964575681E+04 0.  0.
        3    1    3    3  502    0  0.84356462225E+01 -0.39573623605E+03  0.48876913031E+03  0.62894642188E+03  0.10100000352E+00 0.  1.
       -3    1    3    3    0  502 -0.84356462225E+01  0.39573623605E+03 -0.67141101154E+03  0.77940431437E+03  0.10100000352E+00 0. -1.
</event>
<event>
 5   0  0.8609148E-04  0.1388842E+04  0.7818609E-02  0.8961935E-01
       -1   -1    0    0    0  501  0.00000000000E+00  0.00000000000E+00  0.81200314792E+03  0.81200314793E+03  0.50400001928E-02 0.  1.
        1   -1    0    0  501    0  0.00000000000E+00  0.00000000000E+00 -0.59386571205E+03  0.59386571207E+03  0.50400001928E-02 0. -1.
    10030    2    1    2    0    0  0.00000000000E+00  0.00000000000E+00  0.21813743587E+03  0.14058688600E+04  0.13888424355E+04 0.  0.
        5    1    3    3  502    0  0.33752575481E+03  0.40688736983E+03 -0.34669289622E+03  0.63221754260E+03  0.46999998093E+01 0. -1.
       -5    1    3    3    0  502 -0.33752575481E+03 -0.40688736983E+03  0.56483033208E+03  0.77365131741E+03  0.46999998093E+01 0.  1.
</event>
<event>
 5   0  0.1578965E-03  0.1327526E+04  0.7818609E-02  0.9008017E-01
       -2   -1    0    0    0  501  0.00000000000E+00  0.00000000000E+00  0.40313322125E+03  0.40313322126E+03  0.25500000920E-02 0.  1.
        2   -1    0    0  501    0  0.00000000000E+00  0.00000000000E+00 -0.10928923729E+04  0.10928923729E+04  0.25500000920E-02 0. -1.
    10030    2    1    2    0    0  0.00000000000E+00  0.00000000000E+00 -0.68975915162E+03  0.14960255941E+04  0.13275258532E+04 0.  0.
        2    1    3    3  502    0  0.35580823912E+03  0.55956630565E+03 -0.37806696017E+03  0.76331420780E+03  0.25500000920E-02 0. -1.
       -2    1    3    3    0  502 -0.35580823912E+03 -0.55956630565E+03 -0.31169219144E+03  0.73271138633E+03  0.25500000920E-02 0.  1.
</event>
<event>
 5   0  0.9639548E-04  0.1363615E+04  0.7818609E-02  0.8980586E-01
       -1   -1    0    0    0  501  0.00000000000E+00  0.00000000000E+00  0.36562218873E+03  0.36562218876E+03  0.50400001928E-02 0. -1.
        1   -1    0    0  501    0  0.00000000000E+00  0.00000000000E+00 -0.12714248853E+04  0.12714248854E+04  0.50400001928E-02 0.  1.
    10030    2    1    2    0    0  0.00000000000E+00  0.00000000000E+00 -0.90580269661E+03  0.16370470741E+04  0.13636145341E+04 0.  0.
        1    1    3    3  502    0  0.40408873394E+02  0.56187635417E+03 -0.91400627243E+03  0.10736598067E+04  0.50400001928E-02 0.  1.
       -1    1    3    3    0  502 -0.40408873394E+02 -0.56187635417E+03  0.82035758135E+01  0.56338726743E+03  0.50400001928E-02 0. -1.
</event>
<event>
 5   0  0.6048000E-04  0.1444544E+04  0.7818609E-02  0.8922192E-01
        3   -1    0    0  501    0  0.00000000000E+00  0.00000000000E+00  0.40303346332E+03  0.40303347597E+03  0.10100000352E+00 0. -1.
       -3   -1    0    0    0  501  0.00000000000E+00  0.00000000000E+00 -0.12943752268E+04  0.12943752308E+04  0.10100000352E+00 0.  1.
    10030    2    1    2    0    0  0.00000000000E+00  0.00000000000E+00 -0.89134176350E+03  0.16974087067E+04  0.14445435882E+04 0.  0.
        5    1    3    3  502    0  0.27360728291E+03 -0.50555028190E+03  0.68152455600E+02  0.57888589548E+03  0.46999998093E+01 0. -1.
       -5    1    3    3    0  502 -0.27360728291E+03  0.50555028190E+03 -0.95949421910E+03  0.11185228112E+04  0.46999998093E+01 0.  1.
</event>
<event>
 5   0  0.1706986E-03  0.1418738E+04  0.7818609E-02  0.8940366E-01
        2   -1    0    0  501    0  0.00000000000E+00  0.00000000000E+00  0.34922238092E+03  0.34922238093E+03  0.25500000920E-02 0.  1.
       -2   -1    0    0    0  501  0.00000000000E+00  0.00000000000E+00 -0.14409277131E+04  0.14409277131E+04  0.25500000920E-02 0. -1.
    10030    2    1    2    0    0  0.00000000000E+00  0.00000000000E+00 -0.10917053322E+04  0.17901500941E+04  0.14187377583E+04 0.  0.
        3    1    3    3  502    0  0.17719826149E+03  0.10991818882E+03  0.30967767783E+03  0.37333832706E+03  0.10100000352E+00 0.  1.
       -3    1    3    3    0  502 -0.17719826149E+03 -0.10991818882E+03 -0.14013830100E+04  0.14168117670E+04  0.10100000352E+00 0. -1.
</event>
<event>
 5   0  0.9007180E-04  0.1399640E+04  0.7818609E-02  0.8954079E-01
        1   -1    0    0  501    0  0.00000000000E+00  0.00000000000E+00  0.12039031100E+04  0.12039031100E+04  0.50400001928E-02 0. -1.
       -1   -1    0    0    0  501  0.00000000000E+00  0.00000000000E+00 -0.40680029544E+03  0.40680029547E+03  0.50400001928E-02 0.  1.
    10030    2    1    2    0    0  0.00000000000E+00  0.00000000000E+00  0.79710281458E+03  0.16107034055E+04  0.13996401550E+04 0.  0.
        2    1    3    3  502    0 -0.51819269886E+03  0.23029581655E+03 -0.73399776294E+02  0.57179311245E+03  0.25500000920E-02 0.  1.
       -2    1    3    3    0  502  0.51819269886E+03 -0.23029581655E+03  0.87050259087E+03  0.10389102930E+04  0.25500000920E-02 0. -1.
</event>
<event>
 5   0  0.8673728E-04  0.1398182E+04  0.7818609E-02  0.8955135E-01
       -1   -1    0    0    0  501  0.00000000000E+00  0.00000000000E+00  0.18334697920E+03  0.18334697927E+03  0.50400001928E-02 0.  1.
        1   -1    0    0  501    0  0.00000000000E+00  0.00000000000E+00 -0.26655924822E+04  0.26655924822E+04  0.50400001928E-02 0. -1.
    10030    2    1    2    0    0  0.00000000000E+00  0.00000000000E+00 -0.24822455030E+04  0.28489394615E+04  0.13981821476E+04 0.  0.
        3    1    3    3  502    0 -0.11718635994E+03 -0.38797757519E+03 -0.80459791332E+02  0.41319853585E+03  0.10100000352E+00 0.  1.
       -3    1    3    3    0  502  0.11718635994E+03  0.38797757519E+03 -0.24017857117E+04  0.24357409256E+04  0.10100000352E+00 0. -1.
</event>
<event>
 5   0  0.8609148E-04  0.1412241E+04  0.7818609E-02  0.8945005E-01
        1   -1    0    0  501    0  0.00000000000E+00  0.00000000000E+00  0.49326236819E+03  0.49326236821E+03  0.50400001928E-02 0.  1.
       -1   -1    0    0    0  501  0.00000000000E+00  0.00000000000E+00 -0.10108335419E+04  0.10108335419E+04  0.50400001928E-02 0. -1.
    10030    2    1    2    0    0  0.00000000000E+00  0.00000000000E+00 -0.51757117372E+03  0.15040959101E+04  0.14122409805E+04 0.  0.
        5    1    3    3  502    0 -0.57341750605E+03 -0.32769245023E+03 -0.52482036113E+03  0.84359260288E+03  0.46999998093E+01 0. -1.
       -5    1    3    3    0  502  0.57341750605E+03  0.32769245023E+03  0.72491874035E+01  0.66050330725E+03  0.46999998093E+01 0.  1.
</event>
<event>
 5   0  0.9007180E-04  0.1383956E+04  0.7818609E-02  0.8965515E-01
        1   -1    0    0  501    0  0.00000000000E+00  0.00000000000E+00  0.51347967136E+03  0.51347967138E+03  0.50400001928E-02 0. -1.
       -1   -1    0    0    0  501  0.00000000000E+00  0.00000000000E+00 -0.93252656563E+03  0.93252656565E+03  0.50400001928E-02 0.  1.
    10030    2    1    2    0    0  0.00000000000E+00  0.00000000000E+00 -0.41904689427E+03  0.14460062370E+04  0.13839558295E+04 0.  0.
        2    1    3    3  502    0  0.21370231578E+02 -0.12080221301E+03 -0.92107376647E+03  0.92920758970E+03  0.25500000920E-02 0.  1.
       -2    1    3    3    0  502 -0.21370231578E+02  0.12080221301E+03  0.50202687220E+03  0.51679864733E+03  0.25500000920E-02 0. -1.
</event>
<event>
 5   0  0.1648213E-03  0.1295311E+04  0.7818609E-02  0.9033292E-01
        2   -1    0    0  501    0  0.00000000000E+00  0.00000000000E+00  0.15280872920E+04  0.15280872920E+04  0.25500000920E-02 0. -1.
       -2   -1    0    0    0  501  0.00000000000E+00  0.00000000000E+00 -0.27449866107E+03  0.27449866108E+03  0.25500000920E-02 0.  1.
    10030    2    1    2    0    0  0.00000000000E+00  0.00000000000E+00  0.12535886309E+04  0.18025859531E+04  0.12953114153E+04 0.  0.
        4    1    3    3  502    0 -0.56124417103E+03 -0.30674551304E+03  0.48509126474E+03  0.80274714407E+03  0.12699999809E+01 0. -1.
       -4    1    3    3    0  502  0.56124417103E+03  0.30674551304E+03  0.76849736620E+03  0.99983880903E+03  0.12699999809E+01 0.  1.
</event>
<event>
 5   0  0.8502300E-04  0.1344628E+04  0.7818609E-02  0.8994905E-01
       -1   -1    0    0    0  501  0.00000000000E+00  0.00000000000E+00  0.39425765632E+03  0.39425765635E+03  0.50400001928E-02 0. -1.
        1   -1    0    0  501    0  0.00000000000E+00  0.00000000000E+00 -0.11464731453E+04  0.11464731453E+04  0.50400001928E-02 0.  1.
    10030    2    1    2    0    0  0.00000000000E+00  0.00000000000E+00 -0.75221548897E+03  0.15407308017E+04  0.13446275549E+04 0.  0.
        4    1    3    3  502    0  0.42272547242E+03  0.25047201273E+03  0.14969662491E+03  0.51365722675E+03  0.12699999809E+01 0. -1.
       -4    1    3    3    0  502 -0.42272547242E+03 -0.25047201273E+03 -0.90191211388E+03  0.10270735749E+04  0.12699999809E+01 0.  1.
</event>
<event>
 5   0  0.8609148E-04  0.1398164E+04  0.7818609E-02  0.8955149E-01
       -1   -1    0    0    0  501  0.00000000000E+00  0.00000000000E+00  0.33312134882E+03  0.33312134885E+03  0.50400001928E-02 0.  1.
        1   -1    0    0  501    0  0.00000000000E+00  0.00000000000E+00 -0.14670800110E+04  0.14670800110E+04  0.50400001928E-02 0. -1.
    10030    2    1    2    0    0  0.00000000000E+00  0.00000000000E+00 -0.11339586621E+04  0.18002013598E+04  0.13981640420E+04 0.  0.
        5    1    3    3  502    0  0.62939541504E+03  0.22226750313E+03 -0.83444261929E+03  0.10685775621E+04  0.46999998093E+01 0. -1.
       -5    1    3    3    0  502 -0.62939541504E+03 -0.22226750313E+03 -0.29951604285E+03  0.73162379768E+03  0.46999998093E+01 0.  1.
</event>
<event>
 5   0  0.9007180E-04  0.1054644E+04  0.7818609E-02  0.9250563E-01
       -1   -1    0    0    0  501  0.00000000000E+00  0.00000000000E+00  0.20686381871E+03  0.20686381877E+03  0.50400001928E-02 0.  1.
        1   -1    0    0  501    0  0.00000000000E+00  0.00000000000E+00 -0.13442101019E+04  0.13442101019E+04  0.50400001928E-02 0. -1.
    10030    2    1    2    0    0  0.00000000000E+00  0.00000000000E+00 -0.11373462832E+04  0.15510739206E+04  0.10546438923E+04 0.  0.
        2    1    3    3  502    0 -0.41427304539E+03  0.90386103534E+02 -0.10297271307E+04  0.11136111384E+04  0.25500000920E-02 0. -1.
       -2    1    3    3    0  502  0.41427304539E+03 -0.90386103534E+02 -0.10761915243E+03  0.43746278222E+03  0.25500000920E-02 0.  1.
</event>
<event>
 5   0  0.1648463E-03  0.1398267E+04  0.7818609E-02  0.8955074E-01
       -2   -1    0    0    0  501  0.00000000000E+00  0.00000000000E+00  0.41605940563E+03  0.41605940564E+03  0.25500000920E-02 0. -1.
        2   -1    0    0  501    0  0.00000000000E+00  0.00000000000E+00 -0.11748024023E+04  0.11748024023E+04  0.25500000920E-02 0.  1.
    10030    2    1    2    0    0  0.00000000000E+00  0.00000000000E+00 -0.75874299668E+03  0.15908618079E+04  0.13982669119E+04 0.  0.
        1    1    3    3  502    0  0.37255425810E+03 -0.78237912080E+02 -0.10465458728E+04  0.11136319455E+04  0.50400001928E-02 0.  1.
       -1    1    3    3    0  502 -0.37255425810E+03  0.78237912080E+02  0.28780287611E+03  0.47722986247E+03  0.50400001928E-02 0. -1.
</event>
<event>
 5   0  0.1706986E-03  0.1396002E+04  0.7818609E-02  0.8956717E-01
       -2   -1    0    0    0  501  0.00000000000E+00  0.00000000000E+00  0.15332069552E+04  0.15332069552E+04  0.25500000920E-02 0.  1.
        2   -1    0    0  501    0  0.00000000000E+00  0.00000000000E+00 -0.31776904315E+03  0.31776904316E+03  0.25500000920E-02 0. -1.
    10030    2    1    2    0    0  0.00000000000E+00  0.00000000000E+00  0.12154379121E+04  0.18509759984E+04  0.13960024457E+04 0.  0.
        3    1    3    3  502    0  0.18544627734E+03 -0.55631009020E+03  0.10573491145E+03  0.59586166174E+03  0.10100000352E+00 0. -1.
       -3    1    3    3    0  502 -0.18544627734E+03  0.55631009020E+03  0.11097030006E+04  0.12551143367E+04  0.10100000352E+00 0.  1.
</event>
<event>
 5   0  0.1706986E-03  0.1388193E+04  0.7818609E-02  0.8962410E-01
        2   -1    0    0  501    0  0.00000000000E+00  0.00000000000E+00  0.18053274324E+04  0.18053274324E+04  0.25500000920E-02 0. -1.
       -2   -1    0    0    0  501  0.00000000000E+00  0.00000000000E+00 -0.26685999643E+03  0.26685999645E+03  0.25500000920E-02 0.  1.
    10030    2    1    2    0    0  0.00000000000E+00  0.00000000000E+00  0.15384674360E+04  0.20721874289E+04  0.13881925979E+04 0.  0.
        3    1    3    3  502    0 -0.60627128140E+03 -0.11522518598E+03  0.12434593680E+04  0.13881761128E+04  0.10100000352E+00 0. -1.
       -3    1    3    3    0  502  0.60627128140E+03  0.11522518598E+03  0.29500806802E+03  0.68401131608E+03  0.10100000352E+00 0.  1.
</event>
<event>
 5   0  0.8502300E-04  0.1404198E+04  0.7818609E-02  0.8950785E-01
        1   -1    0    0  501    0  0.00000000000E+00  0.00000000000E+00  0.43497534126E+03  0.43497534129E+03  0.50400001928E-02 0.  1.
       -1   -1    0    0    0  501  0.00000000000E+00  0.00000000000E+00 -0.11332670531E+04  0.11332670531E+04  0.50400001928E-02 0. -1.
    10030    2    1    2    0    0  0.00000000000E+00  0.00000000000E+00 -0.69829171181E+03  0.15682423944E+04  0.14041983096E+04 0.  0.
        4    1    3    3  502    0  0.58859043403E+03 -0.24466864119E+03 -0.67787967493E+03  0.93049659300E+03  0.12699999809E+01 0. -1.
       -4    1    3    3    0  502 -0.58859043403E+03  0.24466864119E+03 -0.20412036881E+02  0.63774580137E+03  0.12699999809E+01 0.  1.
</event>
<event>
 5   0  0.1648463E-03  0.1394104E+04  0.7818609E-02  0.8958097E-01
        2   -1    0    0  501    0  0.00000000000E+00  0.00000000000E+00  0.12679753718E+04  0.12679753718E+04  0.25500000920E-02 0. -1.
       -2   -1    0    0    0  501  0.00000000000E+00  0.00000000000E+00 -0.38319479545E+03  0.38319479546E+03  0.25500000920E-02 0.  1.
    10030    2    1    2    0    0  0.00000000000E+00  0.00000000000E+00  0.88478057631E+03  0.16511701672E+04  0.13941041040E+04 0.  0.
        1    1    3    3  502    0 -0.55783544657E+03 -0.39134208033E+03  0.61626883326E+03  0.91875801176E+03  0.50400001928E-02 0.  1.
       -1    1    3    3    0  502  0.55783544657E+03  0.39134208033E+03  0.26851174305E+03  0.73241215547E+03  0.50400001928E-02 0. -1.
</event>
<event>
 5   0  0.9007180E-04  0.1439517E+04  0.7818609E-02  0.8925700E-01
       -1   -1    0    0    0  501  0.00000000000E+00  0.00000000000E+00  0.75256381834E+03  0.75256381836E+03  0.50400001928E-02 0. -1.
        1   -1    0    0  501    0  0.00000000000E+00  0.00000000000E+00 -0.68838339989E+03  0.68838339991E+03  0.50400001928E-02 0.  1.
    10030    2    1    2    0    0  0.00000000000E+00  0.00000000000E+00  0.64180418445E+02  0.14409472183E+04  0.14395171967E+04 0.  0.
        2    1    3    3  502    0 -0.78368265385E+02 -0.32051865027E+01  0.74827324071E+03  0.75237271415E+03  0.25500000920E-02 0. -1.
       -2    1    3    3    0  502  0.78368265385E+02  0.32051865027E+01 -0.68409282226E+03  0.68857450411E+03  0.25500000920E-02 0.  1.
</event>
<event>
 5   0  0.8673728E-04  0.1393731E+04  0.7818609E-02  0.8958369E-01
        1   -1    0    0  501    0  0.00000000000E+00  0.00000000000E+00  0.92169987034E+03  0.92169987036E+03  0.50400001928E-02 0.  1.
       -1   -1    0    0    0  501  0.00000000000E+00  0.00000000000E+00 -0.52687591131E+03  0.52687591133E+03  0.50400001928E-02 0. -1.
    10030    2    1    2    0    0  0.00000000000E+00  0.00000000000E+00  0.39482395904E+03  0.14485757817E+04  0.13937309054E+04 0.  0.
        3    1    3    3  502    0  0.26276090076E+03  0.60055668568E+03  0.44316923999E+03  0.79127151418E+03  0.10100000352E+00 0.  1.
       -3    1    3    3    0  502 -0.26276090076E+03 -0.60055668568E+03 -0.48345280949E+02  0.65730426750E+03  0.10100000352E+00 0. -1.
</event>
<event>
 5   0  0.8609148E-04  0.1426795E+04  0.7818609E-02  0.8934648E-01
        1   -1    0    0  501    0  0.00000000000E+00  0.00000000000E+00  0.11006754679E+04  0.11006754679E+04  0.50400001928E-02 0.  1.
       -1   -1    0    0    0  501  0.00000000000E+00  0.00000000000E+00 -0.46238522007E+03  0.46238522010E+03  0.50400001928E-02 0. -1.
    10030    2    1    2    0    0  0.00000000000E+00  0.00000000000E+00  0.63829024781E+03  0.15630606880E+04  0.14267951058E+04 0.  0.
        5    1    3    3  502    0 -0.28366011486E+03  0.28075676440E+03  0.96690856920E+03  0.10460505211E+04  0.46999998093E+01 0.  1.
       -5    1    3    3    0  502  0.28366011486E+03 -0.28075676440E+03 -0.32861832138E+03  0.51701016689E+03  0.46999998093E+01 0. -1.
</event>
<event>
 5   0  0.1578965E-03  0.1391174E+04  0.7818609E-02  0.8960232E-01
        2   -1    0    0  501    0  0.00000000000E+00  0.00000000000E+00  0.16515485446E+04  0.16515485446E+04  0.25500000920E-02 0. -1.
       -2   -1    0    0    0  501  0.00000000000E+00  0.00000000000E+00 -0.29296199392E+03  0.29296199393E+03  0.25500000920E-02 0.  1.
    10030    2    1    2    0    0  0.00000000000E+00  0.00000000000E+00  0.13585865507E+04  0.19445105385E+04  0.13911735401E+04 0.  0.
        2    1    3    3  502    0  0.38670123797E+03  0.12174943573E+03 -0.11075013315E+03  0.42026939521E+03  0.25500000920E-02 0.  1.
       -2    1    3    3    0  502 -0.38670123797E+03 -0.12174943573E+03  0.14693366838E+04  0.15242411433E+04  0.25500000920E-02 0. -1.
</event>
<event>
 5   0  0.1648463E-03  0.1390796E+04  0.7818609E-02  0.8960508E-01
        2   -1    0    0  501    0  0.00000000000E+00  0.00000000000E+00  0.13921294687E+04  0.13921294687E+04  0.25500000920E-02 0.  1.
       -2   -1    0    0    0  501  0.00000000000E+00  0.00000000000E+00 -0.34736574121E+03  0.34736574121E+03  0.25500000920E-02 0. -1.
    10030    2    1    2    0    0  0.00000000000E+00  0.00000000000E+00  0.10447637275E+04  0.17394952100E+04  0.13907955777E+04 0.  0.
        1    1    3    3  502    0 -0.19687142942E+03  0.42302120172E+02 -0.31010354305E+03  0.36974590807E+03  0.50400001928E-02 0. -1.
       -1    1    3    3    0  502  0.19687142942E+03 -0.42302120172E+02  0.13548672706E+04  0.13697493019E+04  0.50400001928E-02 0.  1.
</event>
<event>
 5   0  0.1605214E-03  0.1419588E+04  0.7818609E-02  0.8939760E-01
       -2   -1    0    0    0  501  0.00000000000E+00  0.00000000000E+00  0.41048393367E+03  0.41048393367E+03  0.25500000920E-02 0.  1.
        2   -1    0    0  501    0  0.00000000000E+00  0.00000000000E+00 -0.12273505471E+04  0.12273505471E+04  0.25500000920E-02 0. -1.
    10030    2    1    2    0    0  0.00000000000E+00  0.00000000000E+00 -0.81686661347E+03  0.16378344808E+04  0.14195882228E+04 0.  0.
        5    1    3    3  502    0 -0.32588962785E+02  0.44445195255E+03 -0.10458008356E+04  0.11368029981E+04  0.46999998093E+01 0. -1.
       -5    1    3    3    0  502  0.32588962785E+02 -0.44445195255E+03  0.22893422217E+03  0.50103148274E+03  0.46999998093E+01 0.  1.
</event>
<event>
 5   0  0.6048000E-04  0.1345284E+04  0.7818609E-02  0.8994406E-01
       -3   -1    0    0    0  501  0.00000000000E+00  0.00000000000E+00  0.53707571005E+03  0.53707571955E+03  0.10100000352E+00 0. -1.
        3   -1    0    0  501    0  0.00000000000E+00  0.00000000000E+00 -0.84242733305E+03  0.84242733911E+03  0.10100000352E+00 0.  1.
    10030    2    1    2    0    0  0.00000000000E+00  0.00000000000E+00 -0.30535162300E+03  0.13795030587E+04  0.13452840128E+04 0.  0.
        3    1    3    3  502    0 -0.44740956804E+03  0.96105690754E+02  0.35285038211E+03  0.57785381172E+03  0.10100000352E+00 0. -1.
       -3    1    3    3    0  502  0.44740956804E+03 -0.96105690754E+02 -0.65820200511E+03  0.80164924693E+03  0.10100000352E+00 0.  1.
</event>
<event>
 5   0  0.9007180E-04  0.1391154E+04  0.7818609E-02  0.8960247E-01
       -1   -1    0    0    0  501  0.00000000000E+00  0.00000000000E+00  0.53094615155E+03  0.53094615157E+03  0.50400001928E-02 0. -1.
        1   -1    0    0  501    0  0.00000000000E+00  0.00000000000E+00 -0.91125538131E+03  0.91125538132E+03  0.50400001928E-02 0.  1.
    10030    2    1    2    0    0  0.00000000000E+00  0.00000000000E+00 -0.38030922976E+03  0.14422015329E+04  0.13911542514E+04 0.  0.
        2    1    3    3  502    0 -0.60878500086E+03  0.17058794053E+03  0.11050120543E+03  0.64181768372E+03  0.25500000920E-02 0. -1.
       -2    1    3    3    0  502  0.60878500086E+03 -0.17058794053E+03 -0.49081043519E+03  0.80038384918E+03  0.25500000920E-02 0.  1.
</event>
<event>
 5   0  0.1648213E-03  0.1389411E+04  0.7818609E-02  0.8961519E-01
       -2   -1    0    0    0  501  0.00000000000E+00  0.00000000000E+00  0.24865876300E+03  0.24865876301E+03  0.25500000920E-02 0. -1.
        2   -1    0    0  501    0  0.00000000000E+00  0.00000000000E+00 -0.19408753977E+04  0.19408753977E+04  0.25500000920E-02 0.  1.
    10030    2    1    2    0    0  0.00000000000E+00  0.00000000000E+00 -0.16922166347E+04  0.21895341607E+04  0.13894109191E+04 0.  0.
        4    1    3    3  502    0 -0.13869112091E+03 -0.43856327693E+03 -0.16665327465E+04  0.17288452745E+04  0.12699999809E+01 0.  1.
       -4    1    3    3    0  502  0.13869112091E+03  0.43856327693E+03 -0.25683888153E+02  0.46068888623E+03  0.12699999809E+01 0. -1.
</event>
<event>
 5   0  0.1648463E-03  0.1403731E+04  0.7818609E-02  0.8951123E-01
        2   -1    0    0  501    0  0.00000000000E+00  0.00000000000E+00  0.94181864456E+03  0.94181864456E+03  0.25500000920E-02 0. -1.
       -2   -1    0    0    0  501  0.00000000000E+00  0.00000000000E+00 -0.52304650386E+03  0.52304650387E+03  0.25500000920E-02 0.  1.
    10030    2    1    2    0    0  0.00000000000E+00  0.00000000000E+00  0.41877214070E+03  0.14648651484E+04  0.14037306712E+04 0.  0.
        1    1    3    3  502    0  0.32711193270E+03  0.44539128396E+03 -0.24217074820E+03  0.60334259228E+03  0.50400001928E-02 0.  1.
       -1    1    3    3    0  502 -0.32711193270E+03 -0.44539128396E+03  0.66094288890E+03  0.86152255615E+03  0.50400001928E-02 0. -1.
</event>
<event>
 5   0  0.9639548E-04  0.1395960E+04  0.7818609E-02  0.8956748E-01
        1   -1    0    0  501    0  0.00000000000E+00  0.00000000000E+00  0.10061751198E+04  0.10061751198E+04  0.50400001928E-02 0. -1.
       -1   -1    0    0    0  501  0.00000000000E+00  0.00000000000E+00 -0.48418645668E+03  0.48418645670E+03  0.50400001928E-02 0.  1.
    10030    2    1    2    0    0  0.00000000000E+00  0.00000000000E+00  0.52198866308E+03  0.14903615765E+04  0.13959604093E+04 0.  0.
        1    1    3    3  502    0 -0.27571879104E+03  0.52826750589E+03  0.64901226519E+03  0.88108134125E+03  0.50400001928E-02 0. -1.
       -1    1    3    3    0  502  0.27571879104E+03 -0.52826750589E+03 -0.12702360211E+03  0.60928023522E+03  0.50400001928E-02 0.  1.
</event>
<event>
 5   0  0.8609148E-04  0.1527691E+04  0.7818609E-02  0.8866245E-01
        1   -1    0    0  501    0  0.00000000000E+00  0.00000000000E+00  0.78586651469E+03  0.78586651471E+03  0.50400001928E-02 0. -1.
       -1   -1    0    0    0  501  0.00000000000E+00  0.00000000000E+00 -0.74244159815E+03  0.74244159817E+03  0.50400001928E-02 0.  1.
    10030    2    1    2    0    0  0.00000000000E+00  0.00000000000E+00  0.43424916541E+02  0.15283081129E+04  0.15276910566E+04 0.  0.
        5    1    3    3  502    0 -0.53426147786E+03 -0.48222152866E+03 -0.23425212299E+03  0.75688115087E+03  0.46999998093E+01 0. -1.
       -5    1    3    3    0  502  0.53426147786E+03  0.48222152866E+03  0.27767703953E+03  0.77142696200E+03  0.46999998093E+01 0.  1.
</event>
<event>
 5   0  0.1605214E-03  0.1384612E+04  0.7818609E-02  0.8965033E-01
        2   -1    0    0  501    0  0.00000000000E+00  0.00000000000E+00  0.49654701212E+03  0.49654701213E+03  0.25500000920E-02 0.  1.
       -2   -1    0    0    0  501  0.00000000000E+00  0.00000000000E+00 -0.96524136741E+03  0.96524136741E+03  0.25500000920E-02 0. -1.
    10030    2    1    2    0    0  0.00000000000E+00  0.00000000000E+00 -0.46869435529E+03  0.14617883795E+04  0.13846121724E+04 0.  0.
        5    1    3    3  502    0 -0.64884297709E+03  0.19167711816E+03 -0.79443676966E+02  0.68122735878E+03  0.46999998093E+01 0.  1.
       -5    1    3    3    0  502  0.64884297709E+03 -0.19167711816E+03 -0.38925067833E+03  0.78056102076E+03  0.46999998093E+01 0. -1.
</event>
<event>
 5   0  0.1605214E-03  0.1401625E+04  0.7818609E-02  0.8952643E-01
       -2   -1    0    0    0  501  0.00000000000E+00  0.00000000000E+00  0.29696099356E+03  0.29696099357E+03  0.25500000920E-02 0. -1.
        2   -1    0    0  501    0  0.00000000000E+00  0.00000000000E+00 -0.16538799256E+04  0.16538799256E+04  0.25500000920E-02 0.  1.
    10030    2    1    2    0    0  0.00000000000E+00  0.00000000000E+00 -0.13569189320E+04  0.19508409192E+04  0.14016245231E+04 0.  0.
        5    1    3    3  502    0 -0.20698900343E+03  0.49327828885E+03 -0.48356072425E+02  0.53714831986E+03  0.46999998093E+01 0. -1.
       -5    1    3    3    0  502  0.20698900343E+03 -0.49327828885E+03 -0.13085628596E+04  0.14136925993E+04  0.46999998093E+01 0.  1.
</event>
<event>
 5   0  0.1605214E-03  0.1406834E+04  0.7818609E-02  0.8948886E-01
        2   -1    0    0  501    0  0.00000000000E+00  0.00000000000E+00  0.53679513747E+03  0.53679513747E+03  0.25500000920E-02 0.  1.
       -2   -1    0    0    0  501  0.00000000000E+00  0.00000000000E+00 -0.92175892393E+03  0.92175892393E+03  0.25500000920E-02 0. -1.
    10030    2    1    2    0    0  0.00000000000E+00  0.00000000000E+00 -0.38496378646E+03  0.14585540614E+04  0.14068343304E+04 0.  0.
        5    1    3    3  502    0 -0.56094714131E+03  0.95539643322E+02 -0.62118579479E+03  0.84242708910E+03  0.46999998093E+01 0. -1.
       -5    1    3    3    0  502  0.56094714131E+03 -0.95539643322E+02  0.23622200832E+03  0.61612697231E+03  0.46999998093E+01 0.  1.
</event>
<event>
 5   0  0.1648213E-03  0.1487836E+04  0.7818609E-02  0.8892583E-01
        2   -1    0    0  501    0  0.00000000000E+00  0.00000000000E+00  0.39285751426E+03  0.39285751427E+03  0.25500000920E-02 0.  1.
       -2   -1    0    0    0  501  0.00000000000E+00  0.00000000000E+00 -0.14086879162E+04  0.14086879162E+04  0.25500000920E-02 0. -1.
    10030    2    1    2    0    0  0.00000000000E+00  0.00000000000E+00 -0.10158304020E+04  0.18015454305E+04  0.14878355193E+04 0.  0.
        4    1    3    3  502    0  0.69844643766E+03 -0.20578459770E+03 -0.69249453130E+03  0.10048507430E+04  0.12699999809E+01 0. -1.
       -4    1    3    3    0  502 -0.69844643766E+03  0.20578459770E+03 -0.32333587068E+03  0.79669468751E+03  0.12699999809E+01 0.  1.
</event>
<event>
 5   0  0.1648213E-03  0.1420088E+04  0.7818609E-02  0.8939405E-01
       -2   -1    0    0    0  501  0.00000000000E+00  0.00000000000E+00  0.19336696390E+03  0.19336696391E+03  0.25500000920E-02 0.  1.
        2   -1    0    0  501    0  0.00000000000E+00  0.00000000000E+00 -0.26072830844E+04  0.26072830844E+04  0.25500000920E-02 0. -1.
    10030    2    1    2    0    0  0.00000000000E+00  0.00000000000E+00 -0.24139161205E+04  0.28006500484E+04  0.14200879044E+04 0.  0.
        4    1    3    3  502    0 -0.38484541330E+03 -0.16246051112E+03 -0.23393001767E+04  0.23763051865E+04  0.12699999809E+01 0. -1.
       -4    1    3    3    0  502  0.38484541330E+03  0.16246051112E+03 -0.74615943857E+02  0.42434486186E+03  0.12699999809E+01 0.  1.
</event>
<event>
 5   0  0.8609148E-04  0.1392212E+04  0.7818609E-02  0.8959475E-01
        1   -1    0    0  501    0  0.00000000000E+00  0.00000000000E+00  0.15861169288E+04  0.15861169288E+04  0.50400001928E-02 0.  1.
       -1   -1    0    0    0  501  0.00000000000E+00  0.00000000000E+00 -0.30550320394E+03  0.30550320398E+03  0.50400001928E-02 0. -1.
    10030    2    1    2    0    0  0.00000000000E+00  0.00000000000E+00  0.12806137249E+04  0.18916201328E+04  0.13922123453E+04 0.  0.
        5    1    3    3  502    0 -0.55733626795E+02  0.48550825914E+02 -0.30013443982E+03  0.30913782010E+03  0.46999998093E+01 0. -1.
       -5    1    3    3    0  502  0.55733626795E+02 -0.48550825914E+02  0.15807481647E+04  0.15824823127E+04  0.46999998093E+01 0.  1.
</event>
<event>
 5   0  0.1706986E-03  0.1405816E+04  0.7818609E-02  0.8949619E-01
        2   -1    0    0  501    0  0.00000000000E+00  0.00000000000E+00  0.20916069855E+04  0.20916069855E+04  0.25500000920E-02 0. -1.
       -2   -1    0    0    0  501  0.00000000000E+00  0.00000000000E+00 -0.23622023697E+03  0.23622023699E+03  0.25500000920E-02 0.  1.
    10030    2    1    2    0    0  0.00000000000E+00  0.00000000000E+00  0.18553867485E+04  0.23278272225E+04  0.14058163433E+04 0.  0.
        3    1    3    3  502    0  0.50285065192E+03 -0.46698593621E+03  0.11796078037E+04  0.13647011481E+04  0.10100000352E+00 0. -1.
       -3    1    3    3    0  502 -0.50285065192E+03  0.46698593621E+03  0.67577894475E+03  0.96312607436E+03  0.10100000352E+00 0.  1.
</event>
<event>
 5   0  0.1578965E-03  0.1377921E+04  0.7818609E-02  0.8969957E-01
        2   -1    0    0  501    0  0.00000000000E+00  0.00000000000E+00  0.70812401554E+03  0.70812401554E+03  0.25500000920E-02 0. -1.
       -2   -1    0    0    0  501  0.00000000000E+00  0.00000000000E+00 -0.67031584255E+03  0.67031584255E+03  0.25500000920E-02 0.  1.
    10030    2    1    2    0    0  0.00000000000E+00  0.00000000000E+00  0.37808172991E+02  0.13784398581E+04  0.13779212548E+04 0.  0.
        2    1    3    3  502    0  0.27454060108E+03  0.61788240931E+03 -0.11349198491E+03  0.68558853843E+03  0.25500000920E-02 0.  1.
       -2    1    3    3    0  502 -0.27454060108E+03 -0.61788240931E+03  0.15130015790E+03  0.69285131967E+03  0.25500000920E-02 0. -1.
</event>
<event>
 5   0  0.8673728E-04  0.1391111E+04  0.7818609E-02  0.8960278E-01
        1   -1    0    0  501    0  0.00000000000E+00  0.00000000000E+00  0.10395397279E+04  0.10395397279E+04  0.50400001928E-02 0. -1.
       -1   -1    0    0    0  501  0.00000000000E+00  0.00000000000E+00 -0.46539591373E+03  0.46539591376E+03  0.50400001928E-02 0.  1.
    10030    2    1    2    0    0  0.00000000000E+00  0.00000000000E+00  0.57414381414E+03  0.15049356416E+04  0.13911111265E+04 0.  0.
        3    1    3    3  502    0  0.17682762102E+03 -0.66270197708E+03  0.16204945212E+03  0.70477085149E+03  0.10100000352E+00 0.  1.
       -3    1    3    3    0  502 -0.17682762102E+03  0.66270197708E+03  0.41209436202E+03  0.80016479014E+03  0.10100000352E+00 0. -1.
</event>
<event>
 5   0  0.1605214E-03  0.1395361E+04  0.7818609E-02  0.8957183E-01
        2   -1    0    0  501    0  0.00000000000E+00  0.00000000000E+00  0.46100522561E+03  0.46100522562E+03  0.25500000920E-02 0. -1.
       -2   -1    0    0    0  501  0.00000000000E+00  0.00000000000E+00 -0.10558628130E+04  0.10558628130E+04  0.25500000920E-02 0.  1.
    10030    2    1    2    0    0  0.00000000000E+00  0.00000000000E+00 -0.59485758739E+03  0.15168680386E+04  0.13953612784E+04 0.  0.
        5    1    3    3  502    0  0.41645093304E+03  0.30296655277E+03  0.21421034008E+03  0.55778873377E+03  0.46999998093E+01 0. -1.
       -5    1    3    3    0  502 -0.41645093304E+03 -0.30296655277E+03 -0.80906792747E+03  0.95907930485E+03  0.46999998093E+01 0.  1.
</event>
<event>
 5   0  0.1578965E-03  0.1398959E+04  0.7818609E-02  0.8954573E-01
        2   -1    0    0  501    0  0.00000000000E+00  0.00000000000E+00  0.14959674454E+04  0.14959674454E+04  0.25500000920E-02 0.  1.
       -2   -1    0    0    0  501  0.00000000000E+00  0.00000000000E+00 -0.32706023084E+03  0.32706023085E+03  0.25500000920E-02 0. -1.
    10030    2    1    2    0    0  0.00000000000E+00  0.00000000000E+00  0.11689072146E+04  0.18230276763E+04  0.13989588386E+04 0.  0.
        2    1    3    3  502    0  0.57053122648E+03 -0.38383263992E+03  0.75152954180E+03  0.10186412656E+04  0.25500000920E-02 0.  1.
       -2    1    3    3    0  502 -0.57053122648E+03  0.38383263992E+03  0.41737767277E+03  0.80438641062E+03  0.25500000920E-02 0. -1.
</event>
<event>
 5   0  0.9639548E-04  0.1398423E+04  0.7818609E-02  0.8954961E-01
       -1   -1    0    0    0  501  0.00000000000E+00  0.00000000000E+00  0.40748704815E+03  0.40748704818E+03  0.50400001928E-02 0.  1.
        1   -1    0    0  501    0  0.00000000000E+00  0.00000000000E+00 -0.11997839020E+04  0.11997839020E+04  0.50400001928E-02 0. -1.
    10030    2    1    2    0    0  0.00000000000E+00  0.00000000000E+00 -0.79229685386E+03  0.16072709502E+04  0.13984225408E+04 0.  0.
        1    1    3    3  502    0  0.33386707051E+03  0.77652246248E+02 -0.10965888878E+04  0.11489143924E+04  0.50400001928E-02 0. -1.
       -1    1    3    3    0  502 -0.33386707051E+03 -0.77652246248E+02  0.30429203397E+03  0.45835655780E+03  0.50400001928E-02 0.  1.
</event>
<event>
 5   0  0.1605214E-03  0.1414364E+04  0.7818609E-02  0.8943486E-01
       -2   -1    0    0    0  501  0.00000000000E+00  0.00000000000E+00  0.21339329119E+03  0.21339329121E+03  0.25500000920E-02 0. -1.
        2   -1    0    0  501    0  0.00000000000E+00  0.00000000000E+00 -0.23435891849E+04  0.23435891849E+04  0.25500000920E-02 0.  1.
    10030    2    1    2    0    0  0.00000000000E+00  0.00000000000E+00 -0.21301958937E+04  0.25569824761E+04  0.14143637572E+04 0.  0.
        5    1    3    3  502    0 -0.62170037716E+03 -0.20103091893E+03 -0.15540896524E+04  0.16858652161E+04  0.46999998093E+01 0.  1.
       -5    1    3    3    0  502  0.62170037716E+03  0.20103091893E+03 -0.57610624130E+03  0.87111725995E+03  0.46999998093E+01 0. -1.
</event>
<event>
 5   0  0.6048000E-04  0.1406325E+04  0.7818609E-02  0.8949253E-01
       -4   -1    0    0    0  501  0.00000000000E+00  0.00000000000E+00  0.63761606657E+03  0.63761733136E+03  0.12699999809E+01 0. -1.
        4   -1    0    0  501    0  0.00000000000E+00  0.00000000000E+00 -0.77544484233E+03  0.77544588231E+03  0.12699999809E+01 0.  1.
    10030    2    1    2    0    0  0.00000000000E+00  0.00000000000E+00 -0.13782877576E+03  0.14130632137E+04  0.14063253089E+04 0.  0.
        1    1    3    3  502    0  0.55822570675E+02 -0.25778885629E+03 -0.72385515545E+03  0.77041387574E+03  0.50400001928E-02 0.  1.
       -1    1    3    3    0  502 -0.55822570675E+02  0.25778885629E+03  0.58602637969E+03  0.64264933793E+03  0.50400001928E-02 0. -1.
</event>
<event>
 5   0  0.1706986E-03  0.1402136E+04  0.7818609E-02  0.8952274E-01
       -2   -1    0    0    0  501  0.00000000000E+00  0.00000000000E+00  0.40391276380E+03  0.40391276381E+03  0.25500000920E-02 0. -1.
        2   -1    0    0  501    0  0.00000000000E+00  0.00000000000E+00 -0.12168381885E+04  0.12168381885E+04  0.25500000920E-02 0.  1.
    10030    2    1    2    0    0  0.00000000000E+00  0.00000000000E+00 -0.81292542470E+03  0.16207509523E+04  0.14021361929E+04 0.  0.
        3    1    3    3  502    0  0.38236433047E+03  0.31476058114E+03 -0.98003417894E+03  0.10980636169E+04  0.10100000352E+00 0.  1.
       -3    1    3    3    0  502 -0.38236433047E+03 -0.31476058114E+03  0.16710875424E+03  0.52268733542E+03  0.10100000352E+00 0. -1.
</event>
<event>
 5   0  0.9007180E-04  0.1390985E+04  0.7818609E-02  0.8960370E-01
        1   -1    0    0  501    0  0.00000000000E+00  0.00000000000E+00  0.12754021417E+04  0.12754021417E+04  0.50400001928E-02 0.  1.
       -1   -1    0    0    0  501  0.00000000000E+00  0.00000000000E+00 -0.37926040317E+03  0.37926040320E+03  0.50400001928E-02 0. -1.
    10030    2    1    2    0    0  0.00000000000E+00  0.00000000000E+00  0.89614173853E+03  0.16546625449E+04  0.13909845873E+04 0.  0.
        2    1    3    3  502    0 -0.62403678433E+02  0.20111386567E+03  0.12365706725E+04  0.12543715694E+04  0.25500000920E-02 0.  1.
       -2    1    3    3    0  502  0.62403678433E+02 -0.20111386567E+03 -0.34042893392E+03  0.40029097555E+03  0.25500000920E-02 0. -1.
</event>
<event>
 5   0  0.8609148E-04  0.1415865E+04  0.7818609E-02  0.8942414E-01
        1   -1    0    0  501    0  0.00000000000E+00  0.00000000000E+00  0.12311366650E+04  0.12311366650E+04  0.50400001928E-02 0. -1.
       -1   -1    0    0    0  501  0.00000000000E+00  0.00000000000E+00 -0.40707778472E+03  0.40707778475E+03  0.50400001928E-02 0.  1.
    10030    2    1    2    0    0  0.00000000000E+00  0.00000000000E+00  0.82405888028E+03  0.16382144498E+04  0.14158649460E+04 0.  0.
        5    1    3    3  502    0 -0.27922485525E+03  0.61758708444E+03  0.17556806713E+03  0.70016181190E+03  0.46999998093E+01 0.  1.
       -5    1    3    3    0  502  0.27922485525E+03 -0.61758708444E+03  0.64849081315E+03  0.93805263786E+03  0.46999998093E+01 0. -1.
</event>
<event>
 5   0  0.1578965E-03  0.1404965E+04  0.7818609E-02  0.8950233E-01
       -2   -1    0    0    0  501  0.00000000000E+00  0.00000000000E+00  0.62681283970E+03  0.62681283970E+03  0.25500000920E-02 0.  1.
        2   -1    0    0  501    0  0.00000000000E+00  0.00000000000E+00 -0.78728702291E+03  0.78728702292E+03  0.25500000920E-02 0. -1.
    10030    2    1    2    0    0  0.00000000000E+00  0.00000000000E+00 -0.16047418321E+03  0.14140998626E+04  0.14049649312E+04 0.  0.
        2    1    3    3  502    0  0.16814967940E+03  0.48386190624E+03 -0.56407560160E+03  0.76195665448E+03  0.25500000920E-02 0. -1.
       -2    1    3    3    0  502 -0.16814967940E+03 -0.48386190624E+03  0.40360141839E+03  0.65214320814E+03  0.25500000920E-02 0.  1.
</event>
<event>
 5   0  0.1648463E-03  0.1340365E+04  0.7818609E-02  0.8998154E-01
        2   -1    0    0  501    0  0.00000000000E+00  0.00000000000E+00  0.45676365350E+03  0.45676365351E+03  0.25500000920E-02 0.  1.
       -2   -1    0    0    0  501  0.00000000000E+00  0.00000000000E+00 -0.98331992351E+03  0.98331992351E+03  0.25500000920E-02 0. -1.
    10030    2    1    2    0    0  0.00000000000E+00  0.00000000000E+00 -0.52655627001E+03  0.14400835770E+04  0.13403653246E+04 0.  0.
        1    1    3    3  502    0  0.36959986216E+03  0.39675576866E+03 -0.68643973890E+03  0.87476780533E+03  0.50400001928E-02 0. -1.
       -1    1    3    3    0  502 -0.36959986216E+03 -0.39675576866E+03  0.15988346889E+03  0.56531577169E+03  0.50400001928E-02 0.  1.
</event>
<event>
 5   0  0.8502300E-04  0.1417631E+04  0.7818609E-02  0.8941155E-01
       -1   -1    0    0    0  501  0.00000000000E+00  0.00000000000E+00  0.50189087683E+03  0.50189087686E+03  0.50400001928E-02 0. -1.
        1   -1    0    0  501    0  0.00000000000E+00  0.00000000000E+00 -0.10010526359E+04  0.10010526359E+04  0.50400001928E-02 0.  1.
    10030    2    1    2    0    0  0.00000000000E+00  0.00000000000E+00 -0.49916175905E+03  0.15029435128E+04  0.14176306786E+04 0.  0.
        4    1    3    3  502    0  0.56658614572E+03  0.18518081572E+03 -0.65620620101E+03  0.88652128354E+03  0.12699999809E+01 0.  1.
       -4    1    3    3    0  502 -0.56658614572E+03 -0.18518081572E+03  0.15704444195E+03  0.61642222922E+03  0.12699999809E+01 0. -1.
</event>
<event>
 5   0  0.8673728E-04  0.1391055E+04  0.7818609E-02  0.8960319E-01
       -1   -1    0    0    0  501  0.00000000000E+00  0.00000000000E+00  0.84078287206E+03  0.84078287208E+03  0.50400001928E-02 0. -1.
        1   -1    0    0  501    0  0.00000000000E+00  0.00000000000E+00 -0.57536635390E+03  0.57536635392E+03  0.50400001928E-02 0.  1.
    10030    2    1    2    0    0  0.00000000000E+00  0.00000000000E+00  0.26541651817E+03  0.14161492260E+04  0.13910545288E+04 0.  0.
        3    1    3    3  502    0  0.11178926939E+03  0.45264246949E+03 -0.39271888936E+03  0.60959837778E+03  0.10100000352E+00 0.  1.
       -3    1    3    3    0  502 -0.11178926939E+03 -0.45264246949E+03  0.65813540752E+03  0.80655084822E+03  0.10100000352E+00 0. -1.
</event>
<event>
 5   0  0.1578965E-03  0.1382738E+04  0.7818609E-02  0.8966410E-01
       -2   -1    0    0    0  501  0.00000000000E+00  0.00000000000E+00  0.40689138143E+03  0.40689138144E+03  0.25500000920E-02 0.  1.
        2   -1    0    0  501    0  0.00000000000E+00  0.00000000000E+00 -0.11747382703E+04  0.11747382703E+04  0.25500000920E-02 0. -1.
    10030    2    1    2    0    0  0.00000000000E+00  0.00000000000E+00 -0.76784688887E+03  0.15816296517E+04  0.13827376868E+04 0.  0.
        2    1    3    3  502    0 -0.44065853459E+03 -0.52996241112E+03 -0.44605799243E+03  0.82097980117E+03  0.25500000920E-02 0. -1.
       -2    1    3    3    0  502  0.44065853459E+03  0.52996241112E+03 -0.32178889644E+03  0.76064985058E+03  0.25500000920E-02 0.  1.
</event>
<event>
 5   0  0.8673728E-04  0.1399569E+04  0.7818609E-02  0.8954130E-01
        1   -1    0    0  501    0  0.00000000000E+00  0.00000000000E+00  0.43753140657E+03  0.43753140660E+03  0.50400001928E-02 0. -1.
       -1   -1    0    0    0  501  0.00000000000E+00  0.00000000000E+00 -0.11192309250E+04  0.11192309251E+04  0.50400001928E-02 0.  1.
    10030    2    1    2    0    0  0.00000000000E+00  0.00000000000E+00 -0.68169951848E+03  0.15567623317E+04  0.13995694780E+04 0.  0.
        3    1    3    3  502    0  0.12164604001E+03  0.58884826908E+03  0.57350717858E+02  0.60401089236E+03  0.10100000352E+00 0. -1.
       -3    1    3    3    0  502 -0.12164604001E+03 -0.58884826908E+03 -0.73905023633E+03  0.95275143930E+03  0.10100000352E+00 0.  1.
</event>
<event>
 5   0  0.9639548E-04  0.1406880E+04  0.7818609E-02  0.8948854E-01
       -1   -1    0    0    0  501  0.00000000000E+00  0.00000000000E+00  0.48726404193E+03  0.48726404195E+03  0.50400001928E-02 0. -1.
        1   -1    0    0  501    0  0.00000000000E+00  0.00000000000E+00 -0.10155226435E+04  0.10155226435E+04  0.50400001928E-02 0.  1.
    10030    2    1    2    0    0  0.00000000000E+00  0.00000000000E+00 -0.52825860152E+03  0.15027866854E+04  0.14068797645E+04 0.  0.
        1    1    3    3  502    0  0.60200708921E+03 -0.24890302901E+03 -0.54767242230E+03  0.85106423700E+03  0.50400001928E-02 0. -1.
       -1    1    3    3    0  502 -0.60200708921E+03  0.24890302901E+03  0.19413820779E+02  0.65172244842E+03  0.50400001928E-02 0.  1.
</event>
<event>
 5   0  0.9007180E-04  0.1341270E+04  0.7818609E-02  0.8997463E-01
        1   -1    0    0  501    0  0.00000000000E+00  0.00000000000E+00  0.11985060376E+04  0.11985060376E+04  0.50400001928E-02 0. -1.
       -1   -1    0    0    0  501  0.00000000000E+00  0.00000000000E+00 -0.37526019064E+03  0.37526019067E+03  0.50400001928E-02 0.  1.
    10030    2    1    2    0    0  0.00000000000E+00  0.00000000000E+00  0.82324584694E+03  0.15737662283E+04  0.13412704488E+04 0.  0.
        2    1    3    3  502    0  0.23749389645E+03 -0.25315894736E+03  0.10848980361E+04  0.11390770616E+04  0.25500000920E-02 0. -1.
       -2    1    3    3    0  502 -0.23749389645E+03  0.25315894736E+03 -0.26165218920E+03  0.43468916664E+03  0.25500000920E-02 0.  1.
</event>
<event>
 5   0  0.1648213E-03  0.1408828E+04  0.7818609E-02  0.8947453E-01
        2   -1    0    0  501    0  0.00000000000E+00  0.00000000000E+00  0.24785648027E+04  0.24785648027E+04  0.25500000920E-02 0.  1.
       -2   -1    0    0    0  501  0.00000000000E+00  0.00000000000E+00 -0.20019606862E+03  0.20019606864E+03  0.25500000920E-02 0. -1.
    10030    2    1    2    0    0  0.00000000000E+00  0.00000000000E+00  0.22783687341E+04  0.26787608714E+04  0.14088277813E+04 0.  0.
        4    1    3    3  502    0 -0.15087994918E+03 -0.67600924684E+03  0.89535809007E+03  0.11319986675E+04  0.12699999809E+01 0.  1.
       -4    1    3    3    0  502  0.15087994918E+03  0.67600924684E+03  0.13830106440E+04  0.15467622038E+04  0.12699999809E+01 0. -1.
</event>
<event>
 5   0  0.6048000E-04  0.1404829E+04  0.7818609E-02  0.8950331E-01
        4   -1    0    0  501    0  0.00000000000E+00  0.00000000000E+00  0.18779728644E+04  0.18779732938E+04  0.12699999809E+01 0. -1.
       -4   -1    0    0    0  501  0.00000000000E+00  0.00000000000E+00 -0.26272067305E+03  0.26272374264E+03  0.12699999809E+01 0.  1.
    10030    2    1    2    0    0  0.00000000000E+00  0.00000000000E+00  0.16152521914E+04  0.21406970365E+04  0.14048288722E+04 0.  0.
        3    1    3    3  502    0 -0.37873373778E+03  0.59125047884E+03  0.77832854932E+03  0.10482422019E+04  0.10100000352E+00 0.  1.
       -3    1    3    3    0  502  0.37873373778E+03 -0.59125047884E+03  0.83692364204E+03  0.10924548346E+04  0.10100000352E+00 0. -1.
</event>
<event>
 5   0  0.1648213E-03  0.1418308E+04  0.7818609E-02  0.8940672E-01
       -2   -1    0    0    0  501  0.00000000000E+00  0.00000000000E+00  0.23748098920E+03  0.23748098921E+03  0.25500000920E-02 0. -1.
        2   -1    0    0  501    0  0.00000000000E+00  0.00000000000E+00 -0.21176400632E+04  0.21176400632E+04  0.25500000920E-02 0.  1.
    10030    2    1    2    0    0  0.00000000000E+00  0.00000000000E+00 -0.18801590740E+04  0.23551210524E+04  0.14183078044E+04 0.  0.
        4    1    3    3  502    0  0.66255275274E+03 -0.24310981326E+03 -0.82480688631E+03  0.10855351418E+04  0.12699999809E+01 0.  1.
       -4    1    3    3    0  502 -0.66255275274E+03  0.24310981326E+03 -0.10553521877E+04  0.12695859106E+04  0.12699999809E+01 0. -1.
</event>
<event>
 5   0  0.1648463E-03  0.1385955E+04  0.7818609E-02  0.8964049E-01
       -2   -1    0    0    0  501  0.00000000000E+00  0.00000000000E+00  0.70416091951E+03  0.70416091951E+03  0.25500000920E-02 0. -1.
        2   -1    0    0  501    0  0.00000000000E+00  0.00000000000E+00 -0.68197125692E+03  0.68197125692E+03  0.25500000920E-02 0.  1.
    10030    2    1    2    0    0  0.00000000000E+00  0.00000000000E+00  0.22189662594E+02  0.13861321764E+04  0.13859545553E+04 0.  0.
        1    1    3    3  502    0  0.16968051521E+03 -0.63215953548E+03  0.23872090603E+03  0.69671000175E+03  0.50400001928E-02 0.  1.
       -1    1    3    3    0  502 -0.16968051521E+03  0.63215953548E+03 -0.21653124343E+03  0.68942217468E+03  0.50400001928E-02 0. -1.
</event>
<event>
 5   0  0.6048000E-04  0.1406968E+04  0.7818609E-02  0.8948790E-01
        4   -1    0    0  501    0  0.00000000000E+00  0.00000000000E+00  0.37123759373E+03  0.37123976605E+03  0.12699999809E+01 0.  1.
       -4   -1    0    0    0  501  0.00000000000E+00  0.00000000000E+00 -0.13330741825E+04  0.13330747875E+04  0.12699999809E+01 0. -1.
    10030    2    1    2    0    0  0.00000000000E+00  0.00000000000E+00 -0.96183658877E+03  0.17043145535E+04  0.14069678297E+04 0.  0.
        4    1    3    3  502    0  0.29675918002E+03  0.34309188252E+03  0.17040574560E+03  0.48458000558E+03  0.12699999809E+01 0.  1.
       -4    1    3    3    0  502 -0.29675918002E+03 -0.34309188252E+03 -0.11322423344E+04  0.12197345479E+04  0.12699999809E+01 0. -1.
</event>
<event>
 5   0  0.1706986E-03  0.1422935E+04  0.7818609E-02  0.8937383E-01
       -2   -1    0    0    0  501  0.00000000000E+00  0.00000000000E+00  0.49161640923E+03  0.49161640923E+03  0.25500000920E-02 0.  1.
        2   -1    0    0  501    0  0.00000000000E+00  0.00000000000E+00 -0.10296356118E+04  0.10296356118E+04  0.25500000920E-02 0. -1.
    10030    2    1    2    0    0  0.00000000000E+00  0.00000000000E+00 -0.53801920260E+03  0.15212520211E+04  0.14229346609E+04 0.  0.
        3    1    3    3  502    0 -0.21312890710E+03  0.55476058937E+02  0.45425828615E+03  0.50482880751E+03  0.10100000352E+00 0.  1.
       -3    1    3    3    0  502  0.21312890710E+03 -0.55476058937E+02 -0.99227748876E+03  0.10164232136E+04  0.10100000352E+00 0. -1.
</event>
<event>
 5   0  0.1648213E-03  0.1412527E+04  0.7818609E-02  0.8944800E-01
        2   -1    0    0  501    0  0.00000000000E+00  0.00000000000E+00  0.16552744326E+04  0.16552744326E+04  0.25500000920E-02 0. -1.
       -2   -1    0    0    0  501  0.00000000000E+00  0.00000000000E+00 -0.30134486737E+03  0.30134486738E+03  0.25500000920E-02 0.  1.
    10030    2    1    2    0    0  0.00000000000E+00  0.00000000000E+00  0.13539295652E+04  0.19566192999E+04  0.14125274572E+04 0.  0.
        4    1    3    3  502    0  0.52373039944E+03 -0.35690283862E+03  0.24525256219E+03  0.67957604407E+03  0.12699999809E+01 0.  1.
       -4    1    3    3    0  502 -0.52373039944E+03  0.35690283862E+03  0.11086770030E+04  0.12770432559E+04  0.12699999809E+01 0. -1.
</event>
<event>
 5   0  0.8673728E-04  0.1360668E+04  0.7818609E-02  0.8982792E-01
       -1   -1    0    0    0  501  0.00000000000E+00  0.00000000000E+00  0.17770713194E+03  0.17770713201E+03  0.50400001928E-02 0. -1.
        1   -1    0    0  501    0  0.00000000000E+00  0.00000000000E+00 -0.26045903420E+04  0.26045903420E+04  0.50400001928E-02 0.  1.
    10030    2    1    2    0    0  0.00000000000E+00  0.00000000000E+00 -0.24268832100E+04  0.27822974740E+04  0.13606678943E+04 0.  0.
        3    1    3    3  502    0 -0.42328735270E+03 -0.27264291017E+03 -0.27785119943E+03  0.57507185520E+03  0.10100000352E+00 0. -1.
       -3    1    3    3    0  502  0.42328735270E+03  0.27264291017E+03 -0.21490320106E+04  0.22072256188E+04  0.10100000352E+00 0.  1.
</event>
<event>
 5   0  0.9007180E-04  0.1431823E+04  0.7818609E-02  0.8931100E-01
       -1   -1    0    0    0  501  0.00000000000E+00  0.00000000000E+00  0.23058580369E+03  0.23058580375E+03  0.50400001928E-02 0.  1.
        1   -1    0    0  501    0  0.00000000000E+00  0.00000000000E+00 -0.22227263181E+04  0.22227263181E+04  0.50400001928E-02 0. -1.
    10030    2    1    2    0    0  0.00000000000E+00  0.00000000000E+00 -0.19921405144E+04  0.24533121219E+04  0.14318228026E+04 0.  0.
        2    1    3    3  502    0  0.43298717987E+03  0.76042522363E+02 -0.19642182529E+04  0.20128123877E+04  0.25500000920E-02 0. -1.
       -2    1    3    3    0  502 -0.43298717987E+03 -0.76042522363E+02 -0.27922261593E+02  0.44049973421E+03  0.25500000920E-02 0.  1.
</event>
<event>
 5   0  0.8609148E-04  0.1388160E+04  0.7818609E-02  0.8962434E-01
       -1   -1    0    0    0  501  0.00000000000E+00  0.00000000000E+00  0.13464158099E+04  0.13464158099E+04  0.50400001928E-02 0. -1.
        1   -1    0    0  501    0  0.00000000000E+00  0.00000000000E+00 -0.35779961429E+03  0.35779961432E+03  0.50400001928E-02 0.  1.
    10030    2    1    2    0    0  0.00000000000E+00  0.00000000000E+00  0.98861619557E+03  0.17042154242E+04  0.13881600160E+04 0.  0.
        5    1    3    3  502    0  0.30318105792E+03  0.30071462110E+03 -0.17742094543E+03  0.46243736776E+03  0.46999998093E+01 0.  1.
       -5    1    3    3    0  502 -0.30318105792E+03 -0.30071462110E+03  0.11660371410E+04  0.12417780564E+04  0.46999998093E+01 0. -1.
</event>
<event>
 5   0  0.1648213E-03  0.1419420E+04  0.7818609E-02  0.8939880E-01
       -2   -1    0    0    0  501  0.00000000000E+00  0.00000000000E+00  0.32247684278E+03  0.32247684279E+03  0.25500000920E-02 0.  1.
        2   -1    0    0  501    0  0.00000000000E+00  0.00000000000E+00 -0.15619362369E+04  0.15619362369E+04  0.25500000920E-02 0. -1.
    10030    2    1    2    0    0  0.00000000000E+00  0.00000000000E+00 -0.12394593942E+04  0.18844130797E+04  0.14194199749E+04 0.  0.
        4    1    3    3  502    0 -0.55775629872E+03  0.42972888066E+03 -0.73793515645E+03  0.10199553459E+04  0.12699999809E+01 0. -1.
       -4    1    3    3    0  502  0.55775629872E+03 -0.42972888066E+03 -0.50152423770E+03  0.86445773381E+03  0.12699999809E+01 0.  1.
</event>
<event>
 5   0  0.9639548E-04  0.1408951E+04  0.7818609E-02  0.8947365E-01
        1   -1    0    0  501    0  0.00000000000E+00  0.00000000000E+00  0.20751541315E+04  0.20751541315E+04  0.50400001928E-02 0.  1.
       -1   -1    0    0    0  501  0.00000000000E+00  0.00000000000E+00 -0.23915610642E+03  0.23915610647E+03  0.50400001928E-02 0. -1.
    10030    2    1    2    0    0  0.00000000000E+00  0.00000000000E+00  0.18359980251E+04  0.23143102380E+04  0.14089510742E+04 0.  0.
        1    1    3    3  502    0 -0.51950138498E+02  0.40980323814E+02  0.20700386473E+04  0.20710958948E+04  0.50400001928E-02 0.  1.
       -1    1    3    3    0  502  0.51950138498E+02 -0.40980323814E+02 -0.23404062228E+03  0.24321434319E+03  0.50400001928E-02 0. -1.
</event>
<event>
 5   0  0.8609148E-04  0.1415914E+04  0.7818609E-02  0.8942379E-01
       -1   -1    0    0    0  501  0.00000000000E+00  0.00000000000E+00  0.29935424635E+03  0.29935424639E+03  0.50400001928E-02 0. -1.
        1   -1    0    0  501    0  0.00000000000E+00  0.00000000000E+00 -0.16742798451E+04  0.16742798451E+04  0.50400001928E-02 0.  1.
    10030    2    1    2    0    0  0.00000000000E+00  0.00000000000E+00 -0.13749255988E+04  0.19736340915E+04  0.14159135302E+04 0.  0.
        5    1    3    3  502    0 -0.60379589317E+01  0.43597102881E+03 -0.14648930076E+04  0.15284112040E+04  0.46999998093E+01 0.  1.
       -5    1    3    3    0  502  0.60379589317E+01 -0.43597102881E+03  0.89967408806E+02  0.44522288750E+03  0.46999998093E+01 0. -1.
</event>
<event>
 5   0  0.9639548E-04  0.1344951E+04  0.7818609E-02  0.8994659E-01
       -1   -1    0    0    0  501  0.00000000000E+00  0.00000000000E+00  0.62772988843E+03  0.62772988845E+03  0.50400001928E-02 0.  1.
        1   -1    0    0  501    0  0.00000000000E+00  0.00000000000E+00 -0.72041104483E+03  0.72041104484E+03  0.50400001928E-02 0. -1.
    10030    2    1    2    0    0  0.00000000000E+00  0.00000000000E+00 -0.92681156392E+02  0.13481409333E+04  0.13449513669E+04 0.  0.
        1    1    3    3  502    0  0.48158383882E+03 -0.41712280349E+03 -0.26204645054E+03  0.68889968012E+03  0.50400001928E-02 0.  1.
       -1    1    3    3    0  502 -0.48158383882E+03  0.41712280349E+03  0.16936529415E+03  0.65924125318E+03  0.50400001928E-02 0. -1.
</event>
<event>
 5   0  0.9007180E-04  0.1323360E+04  0.7818609E-02  0.9011243E-01
        1   -1    0    0  501    0  0.00000000000E+00  0.00000000000E+00  0.66171689907E+03  0.66171689909E+03  0.50400001928E-02 0. -1.
       -1   -1    0    0    0  501  0.00000000000E+00  0.00000000000E+00 -0.66164289752E+03  0.66164289754E+03  0.50400001928E-02 0.  1.
    10030    2    1    2    0    0  0.00000000000E+00  0.00000000000E+00  0.74001541932E-01  0.13233597966E+04  0.13233597946E+04 0.  0.
        2    1    3    3  502    0 -0.21572328609E+03 -0.61930577590E+03  0.88037604484E+02  0.66168481926E+03  0.25500000920E-02 0. -1.
       -2    1    3    3    0  502  0.21572328609E+03  0.61930577590E+03 -0.87963602942E+02  0.66167497737E+03  0.25500000920E-02 0.  1.
</event>
<event>
 5   0  0.1605214E-03  0.1380979E+04  0.7818609E-02  0.8967703E-01
        2   -1    0    0  501    0  0.00000000000E+00  0.00000000000E+00  0.15993164099E+04  0.15993164099E+04  0.25500000920E-02 0. -1.
       -2   -1    0    0    0  501  0.00000000000E+00  0.00000000000E+00 -0.29811235085E+03  0.29811235086E+03  0.25500000920E-02 0.  1.
    10030    2    1    2    0    0  0.00000000000E+00  0.00000000000E+00  0.13012040590E+04  0.18974287607E+04  0.13809793260E+04 0.  0.
        5    1    3    3  502    0 -0.19481316945E+03  0.54392663350E+03  0.11700757637E+04  0.13049550706E+04  0.46999998093E+01 0. -1.
       -5    1    3    3    0  502  0.19481316945E+03 -0.54392663350E+03  0.13112829534E+03  0.59247369010E+03  0.46999998093E+01 0.  1.
</event>
<event>
 5   0  0.1648213E-03  0.1380276E+04  0.7818609E-02  0.8968221E-01
        2   -1    0    0  501    0  0.00000000000E+00  0.00000000000E+00  0.18226092076E+04  0.18226092076E+04  0.25500000920E-02 0.  1.
       -2   -1    0    0    0  501  0.00000000000E+00  0.00000000000E+00 -0.26132353213E+03  0.26132353214E+03  0.25500000920E-02 0. -1.
    10030    2    1    2    0    0  0.00000000000E+00  0.00000000000E+00  0.15612856755E+04  0.20839327397E+04  0.13802763141E+04 0.  0.
        4    1    3    3  502    0 -0.53030163471E+03 -0.10511108787E+03  0.14283090416E+04  0.15271989051E+04  0.12699999809E+01 0. -1.
       -4    1    3    3    0  502  0.53030163471E+03  0.10511108787E+03  0.13297663387E+03  0.55673383463E+03  0.12699999809E+01 0.  1.
</event>
<event>
 5   0  0.8673728E-04  0.1385890E+04  0.7818609E-02  0.8964096E-01
       -1   -1    0    0    0  501  0.00000000000E+00  0.00000000000E+00  0.10005996606E+04  0.10005996606E+04  0.50400001928E-02 0.  1.
        1   -1    0    0  501    0  0.00000000000E+00  0.00000000000E+00 -0.47988513454E+03  0.47988513457E+03  0.50400001928E-02 0. -1.
    10030    2    1    2    0    0  0.00000000000E+00  0.00000000000E+00  0.52071452607E+03  0.14804847952E+04  0.13858901873E+04 0.  0.
        3    1    3    3  502    0  0.34155847618E+03  0.60096949259E+03  0.31210284557E+03  0.75844229845E+03  0.10100000352E+00 0.  1.
       -3    1    3    3    0  502 -0.34155847618E+03 -0.60096949259E+03  0.20861168050E+03  0.72204249674E+03  0.10100000352E+00 0. -1.
</event>
<event>
 5   0  0.9007180E-04  0.1397260E+04  0.7818609E-02  0.8955804E-01
       -1   -1    0    0    0  501  0.00000000000E+00  0.00000000000E+00  0.77036276952E+03  0.77036276954E+03  0.50400001928E-02 0.  1.
        1   -1    0    0  501    0  0.00000000000E+00  0.00000000000E+00 -0.63357640164E+03  0.63357640166E+03  0.50400001928E-02 0. -1.
    10030    2    1    2    0    0  0.00000000000E+00  0.00000000000E+00  0.13678636788E+03  0.14039391712E+04  0.13972597060E+04 0.  0.
        2    1    3    3  502    0  0.43635122147E+03  0.53255512805E+03  0.18756165881E+03  0.71358021887E+03  0.25500000920E-02 0.  1.
       -2    1    3    3    0  502 -0.43635122147E+03 -0.53255512805E+03 -0.50775290932E+02  0.69035895234E+03  0.25500000920E-02 0. -1.
</event>
<event>
 5   0  0.1648213E-03  0.1378633E+04  0.7818609E-02  0.8969432E-01
       -2   -1    0    0    0  501  0.00000000000E+00  0.00000000000E+00  0.57150749295E+03  0.57150749295E+03  0.25500000920E-02 0. -1.
        2   -1    0    0  501    0  0.00000000000E+00  0.00000000000E+00 -0.83141027783E+03  0.83141027783E+03  0.25500000920E-02 0.  1.
    10030    2    1    2    0    0  0.00000000000E+00  0.00000000000E+00 -0.25990278488E+03  0.14029177708E+04  0.13786329512E+04 0.  0.
        4    1    3    3  502    0  0.19202003479E+03 -0.25148238930E+03  0.49324172625E+03  0.58600691063E+03  0.12699999809E+01 0. -1.
       -4    1    3    3    0  502 -0.19202003479E+03  0.25148238930E+03 -0.75314451113E+03  0.81691086015E+03  0.12699999809E+01 0.  1.
</event>
<event>
 5   0  0.9639548E-04  0.1342461E+04  0.7818609E-02  0.8996555E-01
        1   -1    0    0  501    0  0.00000000000E+00  0.00000000000E+00  0.13667193942E+04  0.13667193942E+04  0.50400001928E-02 0. -1.
       -1   -1    0    0    0  501  0.00000000000E+00  0.00000000000E+00 -0.32965813616E+03  0.32965813620E+03  0.50400001928E-02 0.  1.
    10030    2    1    2    0    0  0.00000000000E+00  0.00000000000E+00  0.10370612581E+04  0.16963775304E+04  0.13424606783E+04 0.  0.
        1    1    3    3  502    0  0.32075269730E+03 -0.35065557183E+03 -0.80474762910E+02  0.48199357918E+03  0.50400001928E-02 0.  1.
       -1    1    3    3    0  502 -0.32075269730E+03  0.35065557183E+03  0.11175360210E+04  0.12143839513E+04  0.50400001928E-02 0. -1.
</event>
<event>
 5   0  0.1648463E-03  0.1009432E+04  0.7818609E-02  0.9298260E-01
        2   -1    0    0  501    0  0.00000000000E+00  0.00000000000E+00  0.42351850599E+03  0.42351850600E+03  0.25500000920E-02 0.  1.
       -2   -1    0    0    0  501  0.00000000000E+00  0.00000000000E+00 -0.60148042059E+03  0.60148042059E+03  0.25500000920E-02 0. -1.
    10030    2    1    2    0    0  0.00000000000E+00  0.00000000000E+00 -0.17796191459E+03  0.10249989266E+04  0.10094316998E+04 0.  0.
        1    1    3    3  502    0 -0.39246303005E+03 -0.26747439681E+02  0.23211627011E+03  0.45675006115E+03  0.50400001928E-02 0.  1.
       -1    1    3    3    0  502  0.39246303005E+03  0.26747439681E+02 -0.41007818470E+03  0.56824886544E+03  0.50400001928E-02 0. -1.
</event>
<event>
 5   0  0.9639548E-04  0.1418660E+04  0.7818609E-02  0.8940421E-01
       -1   -1    0    0    0  501  0.00000000000E+00  0.00000000000E+00  0.37493978697E+03  0.37493978700E+03  0.50400001928E-02 0.  1.
        1   -1    0    0  501    0  0.00000000000E+00  0.00000000000E+00 -0.13419471070E+04  0.13419471070E+04  0.50400001928E-02 0. -1.
    10030    2    1    2    0    0  0.00000000000E+00  0.00000000000E+00 -0.96700732006E+03  0.17168868940E+04  0.14186604421E+04 0.  0.
        1    1    3    3  502    0 -0.37619051891E+03  0.49721815740E+03 -0.89284361221E+03  0.10889972077E+04  0.50400001928E-02 0. -1.
       -1    1    3    3    0  502  0.37619051891E+03 -0.49721815740E+03 -0.74163707845E+02  0.62788968630E+03  0.50400001928E-02 0.  1.
</event>
<event>
 5   0  0.9639548E-04  0.1420649E+04  0.7818609E-02  0.8939006E-01
        1   -1    0    0  501    0  0.00000000000E+00  0.00000000000E+00  0.16031202166E+04  0.16031202166E+04  0.50400001928E-02 0.  1.
       -1   -1    0    0    0  501  0.00000000000E+00  0.00000000000E+00 -0.31473698799E+03  0.31473698803E+03  0.50400001928E-02 0. -1.
    10030    2    1    2    0    0  0.00000000000E+00  0.00000000000E+00  0.12883832286E+04  0.19178572046E+04  0.14206494689E+04 0.  0.
        1    1    3    3  502    0  0.59520648075E+03  0.61832607101E+02  0.11608452955E+04  0.13060075904E+04  0.50400001928E-02 0.  1.
       -1    1    3    3    0  502 -0.59520648075E+03 -0.61832607101E+02  0.12753793307E+03  0.61184961423E+03  0.50400001928E-02 0. -1.
</event>
<event>
 5   0  0.1605214E-03  0.1402028E+04  0.7818609E-02  0.8952352E-01
       -2   -1    0    0    0  501  0.00000000000E+00  0.00000000000E+00  0.29806554219E+03  0.29806554220E+03  0.25500000920E-02 0. -1.
        2   -1    0    0  501    0  0.00000000000E+00  0.00000000000E+00 -0.16486991727E+04  0.16486991727E+04  0.25500000920E-02 0.  1.
    10030    2    1    2    0    0  0.00000000000E+00  0.00000000000E+00 -0.13506336305E+04  0.19467647149E+04  0.14020276928E+04 0.  0.
        5    1    3    3  502    0 -0.54008110091E+03  0.36648217504E+03 -0.32021665334E+03  0.72701965260E+03  0.46999998093E+01 0. -1.
       -5    1    3    3    0  502  0.54008110091E+03 -0.36648217504E+03 -0.10304169772E+04  0.12197450623E+04  0.46999998093E+01 0.  1.
</event>
<event>
 5   0  0.8609148E-04  0.1386691E+04  0.7818609E-02  0.8963509E-01
        1   -1    0    0  501    0  0.00000000000E+00  0.00000000000E+00  0.16426519557E+04  0.16426519557E+04  0.50400001928E-02 0. -1.
       -1   -1    0    0    0  501  0.00000000000E+00  0.00000000000E+00 -0.29265347967E+03  0.29265347971E+03  0.50400001928E-02 0.  1.
    10030    2    1    2    0    0  0.00000000000E+00  0.00000000000E+00  0.13499984760E+04  0.19353054354E+04  0.13866907525E+04 0.  0.
        5    1    3    3  502    0  0.41745617189E+03  0.14450497981E+03 -0.70786900389E+02  0.44741951221E+03  0.46999998093E+01 0.  1.
       -5    1    3    3    0  502 -0.41745617189E+03 -0.14450497981E+03  0.14207853764E+04  0.14878859232E+04  0.46999998093E+01 0. -1.
</event>
<event>
 5   0  0.1706986E-03  0.1433200E+04  0.7818609E-02  0.8930132E-01
        2   -1    0    0  501    0  0.00000000000E+00  0.00000000000E+00  0.87372176174E+03  0.87372176174E+03  0.25500000920E-02 0. -1.
       -2   -1    0    0    0  501  0.00000000000E+00  0.00000000000E+00 -0.58773314425E+03  0.58773314425E+03  0.25500000920E-02 0.  1.
    10030    2    1    2    0    0  0.00000000000E+00  0.00000000000E+00  0.28598861749E+03  0.14614549060E+04  0.14331995510E+04 0.  0.
        3    1    3    3  502    0  0.35923926296E+03  0.52446362658E+03 -0.19428366610E+03  0.66472633224E+03  0.10100000352E+00 0.  1.
       -3    1    3    3    0  502 -0.35923926296E+03 -0.52446362658E+03  0.48027228359E+03  0.79672857376E+03  0.10100000352E+00 0. -1.
</event>
<event>
 5   0  0.1648213E-03  0.1399620E+04  0.7818609E-02  0.8954094E-01
       -2   -1    0    0    0  501  0.00000000000E+00  0.00000000000E+00  0.67200668026E+03  0.67200668026E+03  0.25500000920E-02 0.  1.
        2   -1    0    0  501    0  0.00000000000E+00  0.00000000000E+00 -0.72876350797E+03  0.72876350798E+03  0.25500000920E-02 0. -1.
    10030    2    1    2    0    0  0.00000000000E+00  0.00000000000E+00 -0.56756827717E+02  0.14007701882E+04  0.13996198708E+04 0.  0.
        4    1    3    3  502    0 -0.26049893387E+03 -0.64666999964E+03  0.32421410685E+02  0.69792158855E+03  0.12699999809E+01 0.  1.
       -4    1    3    3    0  502  0.26049893387E+03  0.64666999964E+03 -0.89178238402E+02  0.70284859969E+03  0.12699999809E+01 0. -1.
</event>
<event>
 5   0  0.1706986E-03  0.1354110E+04  0.7818609E-02  0.8987723E-01
       -2   -1    0    0    0  501  0.00000000000E+00  0.00000000000E+00  0.40962365712E+03  0.40962365712E+03  0.25500000920E-02 0.  1.
        2   -1    0    0  501    0  0.00000000000E+00  0.00000000000E+00 -0.11190848577E+04  0.11190848577E+04  0.25500000920E-02 0. -1.
    10030    2    1    2    0    0  0.00000000000E+00  0.00000000000E+00 -0.70946120062E+03  0.15287085149E+04  0.13541102349E+04 0.  0.
        3    1    3    3  502    0  0.22853180496E+03  0.37256453680E+03 -0.93848347718E+03  0.10352692245E+04  0.10100000352E+00 0. -1.
       -3    1    3    3    0  502 -0.22853180496E+03 -0.37256453680E+03  0.22902227656E+03  0.49343929041E+03  0.10100000352E+00 0.  1.
</event>
<event>
 5   0  0.1648463E-03  0.1449373E+04  0.7818609E-02  0.8918835E-01
       -2   -1    0    0    0  501  0.00000000000E+00  0.00000000000E+00  0.60916000488E+03  0.60916000489E+03  0.25500000920E-02 0. -1.
        2   -1    0    0  501    0  0.00000000000E+00  0.00000000000E+00 -0.86212229904E+03  0.86212229905E+03  0.25500000920E-02 0.  1.
    10030    2    1    2    0    0  0.00000000000E+00  0.00000000000E+00 -0.25296229416E+03  0.14712823039E+04  0.14493728629E+04 0.  0.
        1    1    3    3  502    0  0.17099629416E+03 -0.70420476257E+03 -0.13169133880E+03  0.73653695697E+03  0.50400001928E-02 0. -1.
       -1    1    3    3    0  502 -0.17099629416E+03  0.70420476257E+03 -0.12127095536E+03  0.73474534696E+03  0.50400001928E-02 0.  1.
</event>
<event>
 5   0  0.9007180E-04  0.1403840E+04  0.7818609E-02  0.8951044E-01
        1   -1    0    0  501    0  0.00000000000E+00  0.00000000000E+00  0.12925913531E+04  0.12925913531E+04  0.50400001928E-02 0.  1.
       -1   -1    0    0    0  501  0.00000000000E+00  0.00000000000E+00 -0.38116564830E+03  0.38116564833E+03  0.50400001928E-02 0. -1.
    10030    2    1    2    0    0  0.00000000000E+00  0.00000000000E+00  0.91142570480E+03  0.16737570014E+04  0.14038396221E+04 0.  0.
        2    1    3    3  502    0  0.30054564147E+03  0.22229730958E+03 -0.25260804510E+03  0.45117025712E+03  0.25500000920E-02 0. -1.
       -2    1    3    3    0  502 -0.30054564147E+03 -0.22229730958E+03  0.11640337499E+04  0.12225867443E+04  0.25500000920E-02 0.  1.
</event>
<event>
 5   0  0.8502300E-04  0.1413190E+04  0.7818609E-02  0.8944326E-01
       -1   -1    0    0    0  501  0.00000000000E+00  0.00000000000E+00  0.84596467094E+03  0.84596467095E+03  0.50400001928E-02 0. -1.
        1   -1    0    0  501    0  0.00000000000E+00  0.00000000000E+00 -0.59018565734E+03  0.59018565736E+03  0.50400001928E-02 0.  1.
    10030    2    1    2    0    0  0.00000000000E+00  0.00000000000E+00  0.25577901360E+03  0.14361503283E+04  0.14131896057E+04 0.  0.
        4    1    3    3  502    0 -0.69500460714E+02  0.49392336162E+03  0.63650485737E+03  0.80865978479E+03  0.12699999809E+01 0. -1.
       -4    1    3    3    0  502  0.69500460714E+02 -0.49392336162E+03 -0.38072584377E+03  0.62749054352E+03  0.12699999809E+01 0.  1.
</event>
<event>
 5   0  0.1605214E-03  0.1398568E+04  0.7818609E-02  0.8954856E-01
        2   -1    0    0  501    0  0.00000000000E+00  0.00000000000E+00  0.12460367044E+04  0.12460367044E+04  0.25500000920E-02 0.  1.
       -2   -1    0    0    0  501  0.00000000000E+00  0.00000000000E+00 -0.39244272581E+03  0.39244272582E+03  0.25500000920E-02 0. -1.
    10030    2    1    2    0    0  0.00000000000E+00  0.00000000000E+00  0.85359397864E+03  0.16384794303E+04  0.13985678972E+04 0.  0.
        5    1    3    3  502    0  0.46769716812E+03  0.51545671697E+03  0.50573209313E+03  0.86036231214E+03  0.46999998093E+01 0. -1.
       -5    1    3    3    0  502 -0.46769716812E+03 -0.51545671697E+03  0.34786188550E+03  0.77811711812E+03  0.46999998093E+01 0.  1.
</event>
<event>
 5   0  0.9639548E-04  0.1398387E+04  0.7818609E-02  0.8954987E-01
        1   -1    0    0  501    0  0.00000000000E+00  0.00000000000E+00  0.15625273593E+04  0.15625273594E+04  0.50400001928E-02 0.  1.
       -1   -1    0    0    0  501  0.00000000000E+00  0.00000000000E+00 -0.31287219956E+03  0.31287219960E+03  0.50400001928E-02 0. -1.
    10030    2    1    2    0    0  0.00000000000E+00  0.00000000000E+00  0.12496551598E+04  0.18753995590E+04  0.13983867445E+04 0.  0.
        1    1    3    3  502    0  0.44501233072E+03 -0.26598224450E+02  0.13472002088E+04  0.14190461031E+04  0.50400001928E-02 0.  1.
       -1    1    3    3    0  502 -0.44501233072E+03  0.26598224450E+02 -0.97545049047E+02  0.45635345584E+03  0.50400001928E-02 0. -1.
</event>
<event>
 5   0  0.8502300E-04  0.1340710E+04  0.7818609E-02  0.8997890E-01
       -1   -1    0    0    0  501  0.00000000000E+00  0.00000000000E+00  0.31709107556E+03  0.31709107561E+03  0.50400001928E-02 0.  1.
        1   -1    0    0  501    0  0.00000000000E+00  0.00000000000E+00 -0.14171824068E+04  0.14171824068E+04  0.50400001928E-02 0. -1.
    10030    2    1    2    0    0  0.00000000000E+00  0.00000000000E+00 -0.11000913312E+04  0.17342734824E+04  0.13407101009E+04 0.  0.
        4    1    3    3  502    0  0.32948504312E+02 -0.53226339220E+03 -0.24628704712E+02  0.53385214115E+03  0.12699999809E+01 0.  1.
       -4    1    3    3    0  502 -0.32948504312E+02  0.53226339220E+03 -0.10754626265E+04  0.12004213412E+04  0.12699999809E+01 0. -1.
</event>
<event>
 5   0  0.8609148E-04  0.1435801E+04  0.7818609E-02  0.8928304E-01
       -1   -1    0    0    0  501  0.00000000000E+00  0.00000000000E+00  0.50644323865E+03  0.50644323867E+03  0.50400001928E-02 0.  1.
        1   -1    0    0  501    0  0.00000000000E+00  0.00000000000E+00 -0.10176482221E+04  0.10176482221E+04  0.50400001928E-02 0. -1.
    10030    2    1    2    0    0  0.00000000000E+00  0.00000000000E+00 -0.51120498346E+03  0.15240914608E+04  0.14358009074E+04 0.  0.
        5    1    3    3  502    0  0.67138591320E+03  0.25372036507E+03 -0.23964817778E+03  0.75669439486E+03  0.46999998093E+01 0.  1.
       -5    1    3    3    0  502 -0.67138591320E+03 -0.25372036507E+03 -0.27155680568E+03  0.76739706594E+03  0.46999998093E+01 0. -1.
</event>
<event>
 5   0  0.1648213E-03  0.1410867E+04  0.7818609E-02  0.8945990E-01
        2   -1    0    0  501    0  0.00000000000E+00  0.00000000000E+00  0.80843603791E+03  0.80843603791E+03  0.25500000920E-02 0.  1.
       -2   -1    0    0    0  501  0.00000000000E+00  0.00000000000E+00 -0.61555406648E+03  0.61555406649E+03  0.25500000920E-02 0. -1.
    10030    2    1    2    0    0  0.00000000000E+00  0.00000000000E+00  0.19288197143E+03  0.14239901044E+04  0.14108665290E+04 0.  0.
        4    1    3    3  502    0 -0.27730570100E+03  0.50916718843E+03  0.50203063762E+03  0.76693288597E+03  0.12699999809E+01 0.  1.
       -4    1    3    3    0  502  0.27730570100E+03 -0.50916718843E+03 -0.30914866619E+03  0.65705721843E+03  0.12699999809E+01 0. -1.
</event>
<event>
 5   0  0.9639548E-04  0.1389303E+04  0.7818609E-02  0.8961599E-01
       -1   -1    0    0    0  501  0.00000000000E+00  0.00000000000E+00  0.25923497333E+03  0.25923497338E+03  0.50400001928E-02 0.  1.
        1   -1    0    0  501    0  0.00000000000E+00  0.00000000000E+00 -0.18614014945E+04  0.18614014945E+04  0.50400001928E-02 0. -1.
    10030    2    1    2    0    0  0.00000000000E+00  0.00000000000E+00 -0.16021665212E+04  0.21206364679E+04  0.13893025111E+04 0.  0.
        1    1    3    3  502    0 -0.24508200523E+03 -0.64690955420E+03 -0.89741863755E+03  0.11331007774E+04  0.50400001928E-02 0. -1.
       -1    1    3    3    0  502  0.24508200523E+03  0.64690955420E+03 -0.70474788364E+03  0.98753569056E+03  0.50400001928E-02 0.  1.
</event>
<event>
 5   0  0.1578965E-03  0.1422926E+04  0.7818609E-02  0.8937389E-01
       -2   -1    0    0    0  501  0.00000000000E+00  0.00000000000E+00  0.57556380413E+03  0.57556380414E+03  0.25500000920E-02 0.  1.
        2   -1    0    0  501    0  0.00000000000E+00  0.00000000000E+00 -0.87945030033E+03  0.87945030033E+03  0.25500000920E-02 0. -1.
    10030    2    1    2    0    0  0.00000000000E+00  0.00000000000E+00 -0.30388649619E+03  0.14550141045E+04  0.14229262249E+04 0.  0.
        2    1    3    3  502    0  0.86211997230E+02 -0.10023977799E+03 -0.86677798888E+03  0.87680362886E+03  0.25500000920E-02 0. -1.
       -2    1    3    3    0  502 -0.86211997230E+02  0.10023977799E+03  0.56289149269E+03  0.57821047561E+03  0.25500000920E-02 0.  1.
</event>
<event>
 5   0  0.1605214E-03  0.1478760E+04  0.7818609E-02  0.8898702E-01
        2   -1    0    0  501    0  0.00000000000E+00  0.00000000000E+00  0.83312698302E+03  0.83312698303E+03  0.25500000920E-02 0. -1.
       -2   -1    0    0    0  501  0.00000000000E+00  0.00000000000E+00 -0.65618160629E+03  0.65618160629E+03  0.25500000920E-02 0.  1.
    10030    2    1    2    0    0  0.00000000000E+00  0.00000000000E+00  0.17694537674E+03  0.14893085893E+04  0.14787597533E+04 0.  0.
        5    1    3    3  502    0  0.41210911293E+03  0.61335157209E+03  0.11368001698E+03  0.74764918792E+03  0.46999998093E+01 0. -1.
       -5    1    3    3    0  502 -0.41210911293E+03 -0.61335157209E+03  0.63265359757E+02  0.74165940140E+03  0.46999998093E+01 0.  1.
</event>
<event>
 5   0  0.8673728E-04  0.1389244E+04  0.7818609E-02  0.8961642E-01
        1   -1    0    0  501    0  0.00000000000E+00  0.00000000000E+00  0.22769817976E+04  0.22769817976E+04  0.50400001928E-02 0. -1.
       -1   -1    0    0    0  501  0.00000000000E+00  0.00000000000E+00 -0.21190309237E+03  0.21190309243E+03  0.50400001928E-02 0.  1.
    10030    2    1    2    0    0  0.00000000000E+00  0.00000000000E+00  0.20650787052E+04  0.24888848900E+04  0.13892436565E+04 0.  0.
        3    1    3    3  502    0  0.27714403062E+01  0.59413542763E+03  0.16772319728E+04  0.17793570997E+04  0.10100000352E+00 0. -1.
       -3    1    3    3    0  502 -0.27714403062E+01 -0.59413542763E+03  0.38784673239E+03  0.70952779035E+03  0.10100000352E+00 0.  1.
</event>
<event>
 5   0  0.8609148E-04  0.1434139E+04  0.7818609E-02  0.8929471E-01
        1   -1    0    0  501    0  0.00000000000E+00  0.00000000000E+00  0.56636482556E+03  0.56636482558E+03  0.50400001928E-02 0. -1.
       -1   -1    0    0    0  501  0.00000000000E+00  0.00000000000E+00 -0.90787547173E+03  0.90787547175E+03  0.50400001928E-02 0.  1.
    10030    2    1    2    0    0  0.00000000000E+00  0.00000000000E+00 -0.34151064618E+03  0.14742402973E+04  0.14341390912E+04 0.  0.
        5    1    3    3  502    0 -0.46065108410E+03  0.29079530281E+03  0.30854981191E+03  0.62608817737E+03  0.46999998093E+01 0. -1.
       -5    1    3    3    0  502  0.46065108410E+03 -0.29079530281E+03 -0.65006045808E+03  0.84815211995E+03  0.46999998093E+01 0.  1.
</event>
<event>
 5   0  0.1578965E-03  0.1409828E+04  0.7818609E-02  0.8946735E-01
       -2   -1    0    0    0  501  0.00000000000E+00  0.00000000000E+00  0.34498159837E+03  0.34498159838E+03  0.25500000920E-02 0. -1.
        2   -1    0    0  501    0  0.00000000000E+00  0.00000000000E+00 -0.14403767477E+04  0.14403767477E+04  0.25500000920E-02 0.  1.
    10030    2    1    2    0    0  0.00000000000E+00  0.00000000000E+00 -0.10953951493E+04  0.17853583461E+04  0.14098276103E+04 0.  0.
        2    1    3    3  502    0  0.64201241433E+03  0.87071477542E+02 -0.19597107674E+03  0.67687963870E+03  0.25500000920E-02 0. -1.
       -2    1    3    3    0  502 -0.64201241433E+03 -0.87071477542E+02 -0.89942407256E+03  0.11084787074E+04  0.25500000920E-02 0.  1.
</event>
<event>
 5   0  0.8502300E-04  0.1412536E+04  0.7818609E-02  0.8944794E-01
        1   -1    0    0  501    0  0.00000000000E+00  0.00000000000E+00  0.69782562687E+03  0.69782562689E+03  0.50400001928E-02 0. -1.
       -1   -1    0    0    0  501  0.00000000000E+00  0.00000000000E+00 -0.71481226724E+03  0.71481226726E+03  0.50400001928E-02 0.  1.
    10030    2    1    2    0    0  0.00000000000E+00  0.00000000000E+00 -0.16986640377E+02  0.14126378941E+04  0.14125357603E+04 0.  0.
        4    1    3    3  502    0  0.15722609114E+03  0.60480486540E+02 -0.69442539042E+03  0.71456711984E+03  0.12699999809E+01 0.  1.
       -4    1    3    3    0  502 -0.15722609114E+03 -0.60480486540E+02  0.67743875005E+03  0.69807077431E+03  0.12699999809E+01 0. -1.
</event>
<event>
 5   0  0.1706986E-03  0.1392854E+04  0.7818609E-02  0.8959008E-01
       -2   -1    0    0    0  501  0.00000000000E+00  0.00000000000E+00  0.38631700635E+03  0.38631700636E+03  0.25500000920E-02 0. -1.
        2   -1    0    0  501    0  0.00000000000E+00  0.00000000000E+00 -0.12554726958E+04  0.12554726958E+04  0.25500000920E-02 0.  1.
    10030    2    1    2    0    0  0.00000000000E+00  0.00000000000E+00 -0.86915568946E+03  0.16417897022E+04  0.13928538379E+04 0.  0.
        3    1    3    3  502    0 -0.79948012030E+01 -0.55429261681E+03  0.62315635356E+02  0.55784179703E+03  0.10100000352E+00 0. -1.
       -3    1    3    3    0  502  0.79948012030E+01  0.55429261681E+03 -0.93147132481E+03  0.10839479051E+04  0.10100000352E+00 0.  1.
</event>
<event>
 5   0  0.1605214E-03  0.1336303E+04  0.7818609E-02  0.9001262E-01
        2   -1    0    0  501    0  0.00000000000E+00  0.00000000000E+00  0.13461513074E+04  0.13461513074E+04  0.25500000920E-02 0.  1.
       -2   -1    0    0    0  501  0.00000000000E+00  0.00000000000E+00 -0.33163162034E+03  0.33163162035E+03  0.25500000920E-02 0. -1.
    10030    2    1    2    0    0  0.00000000000E+00  0.00000000000E+00  0.10145196870E+04  0.16777829277E+04  0.13363028688E+04 0.  0.
        5    1    3    3  502    0 -0.47041810039E+03  0.46954209944E+03  0.59279597684E+03  0.89061334622E+03  0.46999998093E+01 0. -1.
       -5    1    3    3    0  502  0.47041810039E+03 -0.46954209944E+03  0.42172371021E+03  0.78716958152E+03  0.46999998093E+01 0.  1.
</event>
<event>
 5   0  0.1648463E-03  0.1251497E+04  0.7818609E-02  0.9068938E-01
       -2   -1    0    0    0  501  0.00000000000E+00  0.00000000000E+00  0.45412051166E+03  0.45412051167E+03  0.25500000920E-02 0. -1.
        2   -1    0    0  501    0  0.00000000000E+00  0.00000000000E+00 -0.86224051121E+03  0.86224051121E+03  0.25500000920E-02 0.  1.
    10030    2    1    2    0    0  0.00000000000E+00  0.00000000000E+00 -0.40811999955E+03  0.13163610229E+04  0.12514968672E+04 0.  0.
        1    1    3    3  502    0 -0.39140844031E+03  0.46592812005E+03 -0.35746677101E+03  0.70574221398E+03  0.50400001928E-02 0.  1.
       -1    1    3    3    0  502  0.39140844031E+03 -0.46592812005E+03 -0.50653228537E+02  0.61061880890E+03  0.50400001928E-02 0. -1.
</event>
<event>
 5   0  0.8502300E-04  0.1407252E+04  0.7818609E-02  0.8948586E-01
        1   -1    0    0  501    0  0.00000000000E+00  0.00000000000E+00  0.95592417428E+03  0.95592417429E+03  0.50400001928E-02 0.  1.
       -1   -1    0    0    0  501  0.00000000000E+00  0.00000000000E+00 -0.51791707287E+03  0.51791707289E+03  0.50400001928E-02 0. -1.
    10030    2    1    2    0    0  0.00000000000E+00  0.00000000000E+00  0.43800710141E+03  0.14738412472E+04  0.14072518613E+04 0.  0.
        4    1    3    3  502    0 -0.20406722026E+03 -0.41356551375E+03  0.77557042125E+03  0.90232530485E+03  0.12699999809E+01 0.  1.
       -4    1    3    3    0  502  0.20406722026E+03  0.41356551375E+03 -0.33756331984E+03  0.57151594234E+03  0.12699999809E+01 0. -1.
</event>
<event>
 5   0  0.1648463E-03  0.1323926E+04  0.7818609E-02  0.9010804E-01
       -2   -1    0    0    0  501  0.00000000000E+00  0.00000000000E+00  0.38338308306E+03  0.38338308307E+03  0.25500000920E-02 0.  1.
        2   -1    0    0  501    0  0.00000000000E+00  0.00000000000E+00 -0.11429692737E+04  0.11429692737E+04  0.25500000920E-02 0. -1.
    10030    2    1    2    0    0  0.00000000000E+00  0.00000000000E+00 -0.75958619068E+03  0.15263523568E+04  0.13239261067E+04 0.  0.
        1    1    3    3  502    0 -0.20752449660E+03 -0.26572480164E+03  0.27697359459E+03  0.43633755170E+03  0.50400001928E-02 0.  1.
       -1    1    3    3    0  502  0.20752449660E+03  0.26572480164E+03 -0.10365597853E+04  0.10900148051E+04  0.50400001928E-02 0. -1.
</event>
<event>
 5   0  0.9639548E-04  0.1391767E+04  0.7818609E-02  0.8959800E-01
       -1   -1    0    0    0  501  0.00000000000E+00  0.00000000000E+00  0.59854380203E+03  0.59854380205E+03  0.50400001928E-02 0.  1.
        1   -1    0    0  501    0  0.00000000000E+00  0.00000000000E+00 -0.80905336961E+03  0.80905336963E+03  0.50400001928E-02 0. -1.
    10030    2    1    2    0    0  0.00000000000E+00  0.00000000000E+00 -0.21050956759E+03  0.14075971717E+04  0.13917670494E+04 0.  0.
        1    1    3    3  502    0 -0.17150712546E+03 -0.64716845936E+03  0.86672398424E+02  0.67509541070E+03  0.50400001928E-02 0. -1.
       -1    1    3    3    0  502  0.17150712546E+03  0.64716845936E+03 -0.29718196601E+03  0.73250176097E+03  0.50400001928E-02 0.  1.
</event>
<event>
 5   0  0.1648213E-03  0.1422953E+04  0.7818609E-02  0.8937370E-01
       -2   -1    0    0    0  501  0.00000000000E+00  0.00000000000E+00  0.46120798942E+03  0.46120798942E+03  0.25500000920E-02 0. -1.
        2   -1    0    0  501    0  0.00000000000E+00  0.00000000000E+00 -0.10975493572E+04  0.10975493572E+04  0.25500000920E-02 0.  1.
    10030    2    1    2    0    0  0.00000000000E+00  0.00000000000E+00 -0.63634136781E+03  0.15587573467E+04  0.14229526097E+04 0.  0.
        4    1    3    3  502    0 -0.39637001089E+01  0.34480691369E+03 -0.99989044427E+03  0.10576814417E+04  0.12699999809E+01 0.  1.
       -4    1    3    3    0  502  0.39637001089E+01 -0.34480691369E+03  0.36354907645E+03  0.50107590497E+03  0.12699999809E+01 0. -1.
</event>
<event>
 5   0  0.9639548E-04  0.1270775E+04  0.7818609E-02  0.9053068E-01
       -1   -1    0    0    0  501  0.00000000000E+00  0.00000000000E+00  0.58367887580E+03  0.58367887582E+03  0.50400001928E-02 0. -1.
        1   -1    0    0  501    0  0.00000000000E+00  0.00000000000E+00 -0.69167674706E+03  0.69167674707E+03  0.50400001928E-02 0.  1.
    10030    2    1    2    0    0  0.00000000000E+00  0.00000000000E+00 -0.10799787125E+03  0.12753556229E+04  0.12707747340E+04 0.  0.
        1    1    3    3  502    0  0.37004700155E+03 -0.23357936164E+03  0.40833839291E+03  0.59852681201E+03  0.50400001928E-02 0. -1.
       -1    1    3    3    0  502 -0.37004700155E+03  0.23357936164E+03 -0.51633626416E+03  0.67682881089E+03  0.50400001928E-02 0.  1.
</event>
<event>
 5   0  0.1605214E-03  0.1394175E+04  0.7818609E-02  0.8958046E-01
        2   -1    0    0  501    0  0.00000000000E+00  0.00000000000E+00  0.84551254316E+03  0.84551254316E+03  0.25500000920E-02 0.  1.
       -2   -1    0    0    0  501  0.00000000000E+00  0.00000000000E+00 -0.57471750933E+03  0.57471750933E+03  0.25500000920E-02 0. -1.
    10030    2    1    2    0    0  0.00000000000E+00  0.00000000000E+00  0.27079503383E+03  0.14202300525E+04  0.13941748282E+04 0.  0.
        5    1    3    3  502    0 -0.37552116852E+03 -0.15997000880E+03 -0.44023117203E+03  0.60035999746E+03  0.46999998093E+01 0. -1.
       -5    1    3    3    0  502  0.37552116852E+03  0.15997000880E+03  0.71102620586E+03  0.81987005504E+03  0.46999998093E+01 0.  1.
</event>
<event>
 5   0  0.1605214E-03  0.1381388E+04  0.7818609E-02  0.8967402E-01
        2   -1    0    0  501    0  0.00000000000E+00  0.00000000000E+00  0.17082647593E+04  0.17082647593E+04  0.25500000920E-02 0. -1.
       -2   -1    0    0    0  501  0.00000000000E+00  0.00000000000E+00 -0.27926491166E+03  0.27926491168E+03  0.25500000920E-02 0.  1.
    10030    2    1    2    0    0  0.00000000000E+00  0.00000000000E+00  0.14289998477E+04  0.19875296710E+04  0.13813882975E+04 0.  0.
        5    1    3    3  502    0  0.68891114619E+03 -0.14006849953E+02  0.78261964044E+03  0.10427417469E+04  0.46999998093E+01 0. -1.
       -5    1    3    3    0  502 -0.68891114619E+03  0.14006849953E+02  0.64638020724E+03  0.94478792409E+03  0.46999998093E+01 0.  1.
</event>
<event>
 5   0  0.1578965E-03  0.1404489E+04  0.7818609E-02  0.8950575E-01
        2   -1    0    0  501    0  0.00000000000E+00  0.00000000000E+00  0.13743628520E+04  0.13743628520E+04  0.25500000920E-02 0. -1.
       -2   -1    0    0    0  501  0.00000000000E+00  0.00000000000E+00 -0.35881909234E+03  0.35881909235E+03  0.25500000920E-02 0.  1.
    10030    2    1    2    0    0  0.00000000000E+00  0.00000000000E+00  0.10155437597E+04  0.17331819443E+04  0.14044894177E+04 0.  0.
        2    1    3    3  502    0 -0.57363081888E+03  0.23867426617E+03  0.91167857636E+03  0.11032567916E+04  0.25500000920E-02 0. -1.
       -2    1    3    3    0  502  0.57363081888E+03 -0.23867426617E+03  0.10386518330E+03  0.62992515270E+03  0.25500000920E-02 0.  1.
</event>
<event>
 5   0  0.1578965E-03  0.1433158E+04  0.7818609E-02  0.8930160E-01
       -2   -1    0    0    0  501  0.00000000000E+00  0.00000000000E+00  0.74274630616E+03  0.74274630616E+03  0.25500000920E-02 0. -1.
        2   -1    0    0  501    0  0.00000000000E+00  0.00000000000E+00 -0.69133396219E+03  0.69133396220E+03  0.25500000920E-02 0.  1.
    10030    2    1    2    0    0  0.00000000000E+00  0.00000000000E+00  0.51412343965E+02  0.14340802684E+04  0.14331583956E+04 0.  0.
        2    1    3    3  502    0  0.57616738706E+03  0.28328430885E+03  0.34413545775E+03  0.72845594983E+03  0.25500000920E-02 0. -1.
       -2    1    3    3    0  502 -0.57616738706E+03 -0.28328430885E+03 -0.29272311378E+03  0.70562431853E+03  0.25500000920E-02 0.  1.
</event>
<event>
 5   0  0.1648463E-03  0.1322435E+04  0.7818609E-02  0.9011961E-01
       -2   -1    0    0    0  501  0.00000000000E+00  0.00000000000E+00  0.21838406492E+03  0.21838406494E+03  0.25500000920E-02 0.  1.
        2   -1    0    0  501    0  0.00000000000E+00  0.00000000000E+00 -0.20020180191E+04  0.20020180191E+04  0.25500000920E-02 0. -1.
    10030    2    1    2    0    0  0.00000000000E+00  0.00000000000E+00 -0.17836339541E+04  0.22204020840E+04  0.13224353792E+04 0.  0.
        1    1    3    3  502    0  0.31379779538E+02  0.10911813001E+03  0.20189401090E+03  0.23163041364E+03  0.50400001928E-02 0.  1.
       -1    1    3    3    0  502 -0.31379779538E+02 -0.10911813001E+03 -0.19855279650E+04  0.19887716704E+04  0.50400001928E-02 0. -1.
</event>
<event>
 5   0  0.8609148E-04  0.1416076E+04  0.7818609E-02  0.8942264E-01
       -1   -1    0    0    0  501  0.00000000000E+00  0.00000000000E+00  0.36910950553E+03  0.36910950557E+03  0.50400001928E-02 0.  1.
        1   -1    0    0  501    0  0.00000000000E+00  0.00000000000E+00 -0.13581811124E+04  0.13581811124E+04  0.50400001928E-02 0. -1.
    10030    2    1    2    0    0  0.00000000000E+00  0.00000000000E+00 -0.98907160690E+03  0.17272906180E+04  0.14160756461E+04 0.  0.
        5    1    3    3  502    0 -0.34104882966E+03  0.34152616596E+03  0.13732659513E+03  0.50183175465E+03  0.46999998093E+01 0.  1.
       -5    1    3    3    0  502  0.34104882966E+03 -0.34152616596E+03 -0.11263982020E+04  0.12254588634E+04  0.46999998093E+01 0. -1.
</event>
<event>
 5   0  0.8673728E-04  0.1293549E+04  0.7818609E-02  0.9034697E-01
       -1   -1    0    0    0  501  0.00000000000E+00  0.00000000000E+00  0.15734128895E+04  0.15734128895E+04  0.50400001928E-02 0. -1.
        1   -1    0    0  501    0  0.00000000000E+00  0.00000000000E+00 -0.26586596887E+03  0.26586596892E+03  0.50400001928E-02 0.  1.
    10030    2    1    2    0    0  0.00000000000E+00  0.00000000000E+00  0.13075469206E+04  0.18392788584E+04  0.12935485184E+04 0.  0.
        3    1    3    3  502    0 -0.40485381107E+03 -0.11793628775E+03 -0.43532890401E+02  0.42392298718E+03  0.10100000352E+00 0.  1.
       -3    1    3    3    0  502  0.40485381107E+03  0.11793628775E+03  0.13510798110E+04  0.14153558713E+04  0.10100000352E+00 0. -1.
</event>
<event>
 5   0  0.6048000E-04  0.1383796E+04  0.7818609E-02  0.8965632E-01
       -3   -1    0    0    0  501  0.00000000000E+00  0.00000000000E+00  0.16394527728E+04  0.16394527759E+04  0.10100000352E+00 0.  1.
        3   -1    0    0  501    0  0.00000000000E+00  0.00000000000E+00 -0.29200152622E+03  0.29200154369E+03  0.10100000352E+00 0. -1.
    10030    2    1    2    0    0  0.00000000000E+00  0.00000000000E+00  0.13474512466E+04  0.19314543196E+04  0.13837958400E+04 0.  0.
        5    1    3    3  502    0  0.37979005732E+03  0.57008202122E+03  0.53792229196E+03  0.87098592454E+03  0.46999998093E+01 0. -1.
       -5    1    3    3    0  502 -0.37979005732E+03 -0.57008202122E+03  0.80952895460E+03  0.10604683950E+04  0.46999998093E+01 0.  1.
</event>
<event>
 5   0  0.1706986E-03  0.1399666E+04  0.7818609E-02  0.8954060E-01
        2   -1    0    0  501    0  0.00000000000E+00  0.00000000000E+00  0.16791034095E+04  0.16791034095E+04  0.25500000920E-02 0. -1.
       -2   -1    0    0    0  501  0.00000000000E+00  0.00000000000E+00 -0.29168322691E+03  0.29168322692E+03  0.25500000920E-02 0.  1.
    10030    2    1    2    0    0  0.00000000000E+00  0.00000000000E+00  0.13874201826E+04  0.19707866365E+04  0.13996661042E+04 0.  0.
        3    1    3    3  502    0 -0.41082580540E+03 -0.29208055745E+03  0.10154045199E+02  0.50417458212E+03  0.10100000352E+00 0.  1.
       -3    1    3    3    0  502  0.41082580540E+03  0.29208055745E+03  0.13772661374E+04  0.14666120543E+04  0.10100000352E+00 0. -1.
</event>
<event>
 5   0  0.9639548E-04  0.1394154E+04  0.7818609E-02  0.8958061E-01
        1   -1    0    0  501    0  0.00000000000E+00  0.00000000000E+00  0.17207124673E+04  0.17207124673E+04  0.50400001928E-02 0.  1.
       -1   -1    0    0    0  501  0.00000000000E+00  0.00000000000E+00 -0.28239239094E+03  0.28239239098E+03  0.50400001928E-02 0. -1.
    10030    2    1    2    0    0  0.00000000000E+00  0.00000000000E+00  0.14383200763E+04  0.20031048582E+04  0.13941536613E+04 0.  0.
        1    1    3    3  502    0  0.77419334795E+02 -0.23544874309E+03  0.16552656548E+04  0.16737186896E+04  0.50400001928E-02 0.  1.
       -1    1    3    3    0  502 -0.77419334795E+02  0.23544874309E+03 -0.21694557848E+03  0.32938616861E+03  0.50400001928E-02 0. -1.
</event>
<event>
 5   0  0.1578965E-03  0.1393706E+04  0.7818609E-02  0.8958387E-01
        2   -1    0    0  501    0  0.00000000000E+00  0.00000000000E+00  0.14046611814E+04  0.14046611814E+04  0.25500000920E-02 0. -1.
       -2   -1    0    0    0  501  0.00000000000E+00  0.00000000000E+00 -0.34570906124E+03  0.34570906125E+03  0.25500000920E-02 0.  1.
    10030    2    1    2    0    0  0.00000000000E+00  0.00000000000E+00  0.10589521202E+04  0.17503702427E+04  0.13937059925E+04 0.  0.
        2    1    3    3  502    0  0.37811553833E+03  0.88312641510E+02 -0.19725426053E+03  0.43552236025E+03  0.25500000920E-02 0.  1.
       -2    1    3    3    0  502 -0.37811553833E+03 -0.88312641510E+02  0.12562063807E+04  0.13148478824E+04  0.25500000920E-02 0. -1.
</event>
<event>
 5   0  0.8502300E-04  0.1106914E+04  0.7818609E-02  0.9198479E-01
        1   -1    0    0  501    0  0.00000000000E+00  0.00000000000E+00  0.76507443753E+03  0.76507443755E+03  0.50400001928E-02 0.  1.
       -1   -1    0    0    0  501  0.00000000000E+00  0.00000000000E+00 -0.40037216531E+03  0.40037216534E+03  0.50400001928E-02 0. -1.
    10030    2    1    2    0    0  0.00000000000E+00  0.00000000000E+00  0.36470227222E+03  0.11654466029E+04  0.11069137441E+04 0.  0.
        4    1    3    3  502    0 -0.49145276593E+03 -0.18613074766E+03 -0.44527227604E+00  0.52552096774E+03  0.12699999809E+01 0. -1.
       -4    1    3    3    0  502  0.49145276593E+03  0.18613074766E+03  0.36514754450E+03  0.63992563515E+03  0.12699999809E+01 0.  1.
</event>
<event>
 5   0  0.9639548E-04  0.1404654E+04  0.7818609E-02  0.8950457E-01
        1   -1    0    0  501    0  0.00000000000E+00  0.00000000000E+00  0.11228406823E+04  0.11228406823E+04  0.50400001928E-02 0.  1.
       -1   -1    0    0    0  501  0.00000000000E+00  0.00000000000E+00 -0.43929945210E+03  0.43929945213E+03  0.50400001928E-02 0. -1.
    10030    2    1    2    0    0  0.00000000000E+00  0.00000000000E+00  0.68354123016E+03  0.15621401344E+04  0.14046541162E+04 0.  0.
        1    1    3    3  502    0  0.50147393549E+03 -0.32157305606E+03 -0.71927986866E+02  0.60004914272E+03  0.50400001928E-02 0. -1.
       -1    1    3    3    0  502 -0.50147393549E+03  0.32157305606E+03  0.75546921703E+03  0.96209099168E+03  0.50400001928E-02 0.  1.
</event>
<event>
 5   0  0.9007180E-04  0.1349210E+04  0.7818609E-02  0.8991426E-01
        1   -1    0    0  501    0  0.00000000000E+00  0.00000000000E+00  0.10027694746E+04  0.10027694747E+04  0.50400001928E-02 0. -1.
       -1   -1    0    0    0  501  0.00000000000E+00  0.00000000000E+00 -0.45383534546E+03  0.45383534548E+03  0.50400001928E-02 0.  1.
    10030    2    1    2    0    0  0.00000000000E+00  0.00000000000E+00  0.54893412919E+03  0.14566048201E+04  0.13492104817E+04 0.  0.
        2    1    3    3  502    0 -0.10203929626E+03  0.65959208619E+03  0.16858667058E+03  0.68840046750E+03  0.25500000920E-02 0.  1.
       -2    1    3    3    0  502  0.10203929626E+03 -0.65959208619E+03  0.38034745861E+03  0.76820435264E+03  0.25500000920E-02 0. -1.
</event>
<event>
 5   0  0.8609148E-04  0.1377968E+04  0.7818609E-02  0.8969923E-01
       -1   -1    0    0    0  501  0.00000000000E+00  0.00000000000E+00  0.42495797372E+03  0.42495797375E+03  0.50400001928E-02 0. -1.
        1   -1    0    0  501    0  0.00000000000E+00  0.00000000000E+00 -0.11170488235E+04  0.11170488235E+04  0.50400001928E-02 0.  1.
    10030    2    1    2    0    0  0.00000000000E+00  0.00000000000E+00 -0.69209084977E+03  0.15420067973E+04  0.13779677857E+04 0.  0.
        5    1    3    3  502    0  0.20667602263E+03  0.48313042484E+03 -0.84467563998E+03  0.99480099141E+03  0.46999998093E+01 0.  1.
       -5    1    3    3    0  502 -0.20667602263E+03 -0.48313042484E+03  0.15258479022E+03  0.54720580584E+03  0.46999998093E+01 0. -1.
</event>
<event>
 5   0  0.1648213E-03  0.1379958E+04  0.7818609E-02  0.8968455E-01
       -2   -1    0    0    0  501  0.00000000000E+00  0.00000000000E+00  0.13673426494E+04  0.13673426494E+04  0.25500000920E-02 0.  1.
        2   -1    0    0  501    0  0.00000000000E+00  0.00000000000E+00 -0.34817247299E+03  0.34817247300E+03  0.25500000920E-02 0. -1.
    10030    2    1    2    0    0  0.00000000000E+00  0.00000000000E+00  0.10191701764E+04  0.17155151224E+04  0.13799580742E+04 0.  0.
        4    1    3    3  502    0 -0.44907891795E+03 -0.34888693175E+02  0.11593457253E+04  0.12437737813E+04  0.12699999809E+01 0.  1.
       -4    1    3    3    0  502  0.44907891795E+03  0.34888693175E+02 -0.14017554889E+03  0.47174134106E+03  0.12699999809E+01 0. -1.
</event>
<event>
 5   0  0.1648213E-03  0.1402815E+04  0.7818609E-02  0.8951783E-01
        2   -1    0    0  501    0  0.00000000000E+00  0.00000000000E+00  0.93225139018E+03  0.93225139018E+03  0.25500000920E-02 0. -1.
       -2   -1    0    0    0  501  0.00000000000E+00  0.00000000000E+00 -0.52772533212E+03  0.52772533213E+03  0.25500000920E-02 0.  1.
    10030    2    1    2    0    0  0.00000000000E+00  0.00000000000E+00  0.40452605806E+03  0.14599767223E+04  0.14028152758E+04 0.  0.
        4    1    3    3  502    0  0.46396309640E+03 -0.29228463284E+03  0.65743875296E+03  0.85610711258E+03  0.12699999809E+01 0. -1.
       -4    1    3    3    0  502 -0.46396309640E+03  0.29228463284E+03 -0.25291269490E+03  0.60386960973E+03  0.12699999809E+01 0.  1.
</event>
<event>
 5   0  0.9007180E-04  0.1338886E+04  0.7818609E-02  0.8999284E-01
       -1   -1    0    0    0  501  0.00000000000E+00  0.00000000000E+00  0.10304102276E+04  0.10304102276E+04  0.50400001928E-02 0. -1.
        1   -1    0    0  501    0  0.00000000000E+00  0.00000000000E+00 -0.43492780016E+03  0.43492780019E+03  0.50400001928E-02 0.  1.
    10030    2    1    2    0    0  0.00000000000E+00  0.00000000000E+00  0.59548242741E+03  0.14653380278E+04  0.13388861842E+04 0.  0.
        2    1    3    3  502    0 -0.21377257892E+02  0.20436854280E+03 -0.39955938308E+03  0.44930077793E+03  0.25500000920E-02 0.  1.
       -2    1    3    3    0  502  0.21377257892E+02 -0.20436854280E+03  0.99504181049E+03  0.10160372498E+04  0.25500000920E-02 0. -1.
</event>
<event>
 5   0  0.1648213E-03  0.1419651E+04  0.7818609E-02  0.8939716E-01
       -2   -1    0    0    0  501  0.00000000000E+00  0.00000000000E+00  0.11298627193E+04  0.11298627194E+04  0.25500000920E-02 0. -1.
        2   -1    0    0  501    0  0.00000000000E+00  0.00000000000E+00 -0.44594117979E+03  0.44594117980E+03  0.25500000920E-02 0.  1.
    10030    2    1    2    0    0  0.00000000000E+00  0.00000000000E+00  0.68392153955E+03  0.15758038992E+04  0.14196511037E+04 0.  0.
        4    1    3    3  502    0  0.17128374965E+02 -0.18671918647E+03  0.11018755699E+04  0.11177158943E+04  0.12699999809E+01 0. -1.
       -4    1    3    3    0  502 -0.17128374965E+02  0.18671918647E+03 -0.41795403036E+03  0.45808800488E+03  0.12699999809E+01 0.  1.
</event>
<event>
 5   0  0.1648463E-03  0.1439398E+04  0.7818609E-02  0.8925784E-01
       -2   -1    0    0    0  501  0.00000000000E+00  0.00000000000E+00  0.49340911091E+03  0.49340911092E+03  0.25500000920E-02 0. -1.
        2   -1    0    0  501    0  0.00000000000E+00  0.00000000000E+00 -0.10497708687E+04  0.10497708687E+04  0.25500000920E-02 0.  1.
    10030    2    1    2    0    0  0.00000000000E+00  0.00000000000E+00 -0.55636175779E+03  0.15431799796E+04  0.14393978060E+04 0.  0.
        1    1    3    3  502    0 -0.35071522262E+03  0.59208660408E+03 -0.50408353889E+03  0.85303454110E+03  0.50400001928E-02 0.  1.
       -1    1    3    3    0  502  0.35071522262E+03 -0.59208660408E+03 -0.52278218897E+02  0.69014543852E+03  0.50400001928E-02 0. -1.
</event>
<event>
 5   0  0.1648213E-03  0.1391362E+04  0.7818609E-02  0.8960095E-01
       -2   -1    0    0    0  501  0.00000000000E+00  0.00000000000E+00  0.23003046884E+03  0.23003046886E+03  0.25500000920E-02 0.  1.
        2   -1    0    0  501    0  0.00000000000E+00  0.00000000000E+00 -0.21039464766E+04  0.21039464766E+04  0.25500000920E-02 0. -1.
    10030    2    1    2    0    0  0.00000000000E+00  0.00000000000E+00 -0.18739160077E+04  0.23339769454E+04  0.13913616272E+04 0.  0.
        4    1    3    3  502    0  0.21609746698E+03  0.23313605729E+02 -0.20455259785E+04  0.20570415118E+04  0.12699999809E+01 0. -1.
       -4    1    3    3    0  502 -0.21609746698E+03 -0.23313605729E+02  0.17160997078E+03  0.27693543367E+03  0.12699999809E+01 0.  1.
</event>
<event>
 5   0  0.8609148E-04  0.1414705E+04  0.7818609E-02  0.8943242E-01
        1   -1    0    0  501    0  0.00000000000E+00  0.00000000000E+00  0.12028259912E+04  0.12028259912E+04  0.50400001928E-02 0.  1.
       -1   -1    0    0    0  501  0.00000000000E+00  0.00000000000E+00 -0.41597684866E+03  0.41597684869E+03  0.50400001928E-02 0. -1.
    10030    2    1    2    0    0  0.00000000000E+00  0.00000000000E+00  0.78684914252E+03  0.16188028399E+04  0.14147052913E+04 0.  0.
        5    1    3    3  502    0  0.47326505412E+03  0.24919018406E+03 -0.13622486287E+03  0.55195548964E+03  0.46999998093E+01 0. -1.
       -5    1    3    3    0  502 -0.47326505412E+03 -0.24919018406E+03  0.92307400539E+03  0.10668473502E+04  0.46999998093E+01 0.  1.
</event>
<event>
 5   0  0.1605214E-03  0.1393418E+04  0.7818609E-02  0.8958597E-01
        2   -1    0    0  501    0  0.00000000000E+00  0.00000000000E+00  0.23774798913E+04  0.23774798913E+04  0.25500000920E-02 0.  1.
       -2   -1    0    0    0  501  0.00000000000E+00  0.00000000000E+00 -0.20416706472E+03  0.20416706474E+03  0.25500000920E-02 0. -1.
    10030    2    1    2    0    0  0.00000000000E+00  0.00000000000E+00  0.21733128266E+04  0.25816469561E+04  0.13934175123E+04 0.  0.
        5    1    3    3  502    0  0.14831605662E+03 -0.63927989638E+03  0.65331782817E+03  0.92602522275E+03  0.46999998093E+01 0. -1.
       -5    1    3    3    0  502 -0.14831605662E+03  0.63927989638E+03  0.15199949984E+04  0.16556217333E+04  0.46999998093E+01 0.  1.
</event>
<event>
 5   0  0.8609148E-04  0.1388844E+04  0.7818609E-02  0.8961934E-01
        1   -1    0    0  501    0  0.00000000000E+00  0.00000000000E+00  0.83256407645E+03  0.83256407646E+03  0.50400001928E-02 0. -1.
       -1   -1    0    0    0  501  0.00000000000E+00  0.00000000000E+00 -0.57920082023E+03  0.57920082025E+03  0.50400001928E-02 0.  1.
    10030    2    1    2    0    0  0.00000000000E+00  0.00000000000E+00  0.25336325622E+03  0.14117648967E+04  0.13888438299E+04 0.  0.
        5    1    3    3  502    0 -0.57592408917E+03  0.32813137269E+03 -0.83714876569E+02  0.66812351013E+03  0.46999998093E+01 0.  1.
       -5    1    3    3    0  502  0.57592408917E+03 -0.32813137269E+03  0.33707813279E+03  0.74364138658E+03  0.46999998093E+01 0. -1.
</event>
<event>
 5   0  0.8673728E-04  0.1411697E+04  0.7818609E-02  0.8945395E-01
        1   -1    0    0  501    0  0.00000000000E+00  0.00000000000E+00  0.89594999889E+03  0.89594999890E+03  0.50400001928E-02 0.  1.
       -1   -1    0    0    0  501  0.00000000000E+00  0.00000000000E+00 -0.55608229260E+03  0.55608229262E+03  0.50400001928E-02 0. -1.
    10030    2    1    2    0    0  0.00000000000E+00  0.00000000000E+00  0.33986770629E+03  0.14520322915E+04  0.14116967514E+04 0.  0.
        3    1    3    3  502    0 -0.33400327275E+02  0.68530091721E+03  0.34040708992E+03  0.76591770188E+03  0.10100000352E+00 0. -1.
       -3    1    3    3    0  502  0.33400327275E+02 -0.68530091721E+03 -0.53938363487E+00  0.68611458964E+03  0.10100000352E+00 0.  1.
</event>
<event>
 5   0  0.1605214E-03  0.1407554E+04  0.7818609E-02  0.8948369E-01
       -2   -1    0    0    0  501  0.00000000000E+00  0.00000000000E+00  0.24837484727E+03  0.24837484728E+03  0.25500000920E-02 0.  1.
        2   -1    0    0  501    0  0.00000000000E+00  0.00000000000E+00 -0.19941717868E+04  0.19941717868E+04  0.25500000920E-02 0. -1.
    10030    2    1    2    0    0  0.00000000000E+00  0.00000000000E+00 -0.17457969396E+04  0.22425466341E+04  0.14075540672E+04 0.  0.
        5    1    3    3  502    0 -0.29839693137E+03 -0.11101420036E+03  0.12705026327E+03  0.34282465012E+03  0.46999998093E+01 0.  1.
       -5    1    3    3    0  502  0.29839693137E+03  0.11101420036E+03 -0.18728472028E+04  0.18997219840E+04  0.46999998093E+01 0. -1.
</event>
<event>
 5   0  0.9639548E-04  0.1437542E+04  0.7818609E-02  0.8927083E-01
       -1   -1    0    0    0  501  0.00000000000E+00  0.00000000000E+00  0.48154981270E+03  0.48154981273E+03  0.50400001928E-02 0.  1.
        1   -1    0    0  501    0  0.00000000000E+00  0.00000000000E+00 -0.10728525349E+04  0.10728525349E+04  0.50400001928E-02 0. -1.
    10030    2    1    2    0    0  0.00000000000E+00  0.00000000000E+00 -0.59130272216E+03  0.15544023476E+04  0.14375422599E+04 0.  0.
        1    1    3    3  502    0  0.49936698939E+03  0.50827695430E+03 -0.19353320343E+03  0.73835489652E+03  0.50400001928E-02 0. -1.
       -1    1    3    3    0  502 -0.49936698939E+03 -0.50827695430E+03 -0.39776951873E+03  0.81604745108E+03  0.50400001928E-02 0.  1.
</event>
<event>
 5   0  0.8502300E-04  0.1405866E+04  0.7818609E-02  0.8949583E-01
       -1   -1    0    0    0  501  0.00000000000E+00  0.00000000000E+00  0.48810852606E+03  0.48810852609E+03  0.50400001928E-02 0.  1.
        1   -1    0    0  501    0  0.00000000000E+00  0.00000000000E+00 -0.10123055427E+04  0.10123055427E+04  0.50400001928E-02 0. -1.
    10030    2    1    2    0    0  0.00000000000E+00  0.00000000000E+00 -0.52419701666E+03  0.15004140688E+04  0.14058662332E+04 0.  0.
        4    1    3    3  502    0  0.34005371473E+03 -0.60959233505E+03 -0.17361299050E+03  0.71929300513E+03  0.12699999809E+01 0.  1.
       -4    1    3    3    0  502 -0.34005371473E+03  0.60959233505E+03 -0.35058402616E+03  0.78112106370E+03  0.12699999809E+01 0. -1.
</event>
<event>
 5   0  0.8609148E-04  0.1397507E+04  0.7818609E-02  0.8955625E-01
        1   -1    0    0  501    0  0.00000000000E+00  0.00000000000E+00  0.66141274963E+03  0.66141274965E+03  0.50400001928E-02 0.  1.
       -1   -1    0    0    0  501  0.00000000000E+00  0.00000000000E+00 -0.73820274386E+03  0.73820274388E+03  0.50400001928E-02 0. -1.
    10030    2    1    2    0    0  0.00000000000E+00  0.00000000000E+00 -0.76789994226E+02  0.13996154935E+04  0.13975073619E+04 0.  0.
        5    1    3    3  502    0 -0.32465806997E+02 -0.69173778750E+02 -0.73398974684E+03  0.73797159752E+03  0.46999998093E+01 0. -1.
       -5    1    3    3    0  502  0.32465806997E+02  0.69173778750E+02  0.65719975261E+03  0.66164389601E+03  0.46999998093E+01 0.  1.
</event>
<event>
 5   0  0.9639548E-04  0.1400446E+04  0.7818609E-02  0.8953496E-01
       -1   -1    0    0    0  501  0.00000000000E+00  0.00000000000E+00  0.73328526731E+03  0.73328526733E+03  0.50400001928E-02 0.  1.
        1   -1    0    0  501    0  0.00000000000E+00  0.00000000000E+00 -0.66865171515E+03  0.66865171517E+03  0.50400001928E-02 0. -1.
    10030    2    1    2    0    0  0.00000000000E+00  0.00000000000E+00  0.64633552163E+02  0.14019369825E+04  0.14004462884E+04 0.  0.
        1    1    3    3  502    0  0.38523187401E+02  0.63000774783E+03 -0.27118683462E+03  0.68697605314E+03  0.50400001928E-02 0. -1.
       -1    1    3    3    0  502 -0.38523187401E+02 -0.63000774783E+03  0.33582038678E+03  0.71496092935E+03  0.50400001928E-02 0.  1.
</event>
<event>
 5   0  0.9639548E-04  0.1377032E+04  0.7818609E-02  0.8970613E-01
        1   -1    0    0  501    0  0.00000000000E+00  0.00000000000E+00  0.14409542280E+04  0.14409542280E+04  0.50400001928E-02 0.  1.
       -1   -1    0    0    0  501  0.00000000000E+00  0.00000000000E+00 -0.32898657128E+03  0.32898657132E+03  0.50400001928E-02 0. -1.
    10030    2    1    2    0    0  0.00000000000E+00  0.00000000000E+00  0.11119676567E+04  0.17699407993E+04  0.13770324482E+04 0.  0.
        1    1    3    3  502    0  0.53905165857E+02  0.48892004207E+03 -0.63254408365E+02  0.49593315542E+03  0.50400001928E-02 0. -1.
       -1    1    3    3    0  502 -0.53905165857E+02 -0.48892004207E+03  0.11752220650E+04  0.12740076439E+04  0.50400001928E-02 0.  1.
</event>
<event>
 5   0  0.1648213E-03  0.1381040E+04  0.7818609E-02  0.8967659E-01
       -2   -1    0    0    0  501  0.00000000000E+00  0.00000000000E+00  0.31736238579E+03  0.31736238580E+03  0.25500000920E-02 0.  1.
        2   -1    0    0  501    0  0.00000000000E+00  0.00000000000E+00 -0.15024388577E+04  0.15024388577E+04  0.25500000920E-02 0. -1.
    10030    2    1    2    0    0  0.00000000000E+00  0.00000000000E+00 -0.11850764719E+04  0.18198012435E+04  0.13810395800E+04 0.  0.
        4    1    3    3  502    0  0.59320485857E+03 -0.12057615856E+03 -0.10303360188E+04  0.11949998071E+04  0.12699999809E+01 0. -1.
       -4    1    3    3    0  502 -0.59320485857E+03  0.12057615856E+03 -0.15474045305E+03  0.62480143643E+03  0.12699999809E+01 0.  1.
</event>
<event>
 5   0  0.8502300E-04  0.1382220E+04  0.7818609E-02  0.8966790E-01
        1   -1    0    0  501    0  0.00000000000E+00  0.00000000000E+00  0.37868440604E+03  0.37868440607E+03  0.50400001928E-02 0.  1.
       -1   -1    0    0    0  501  0.00000000000E+00  0.00000000000E+00 -0.12612959284E+04  0.12612959284E+04  0.50400001928E-02 0. -1.
    10030    2    1    2    0    0  0.00000000000E+00  0.00000000000E+00 -0.88261152240E+03  0.16399803345E+04  0.13822200976E+04 0.  0.
        4    1    3    3  502    0 -0.38436509672E+03  0.25323225306E+03  0.17035848558E+03  0.49080212721E+03  0.12699999809E+01 0.  1.
       -4    1    3    3    0  502  0.38436509672E+03 -0.25323225306E+03 -0.10529700080E+04  0.11491782073E+04  0.12699999809E+01 0. -1.
</event>
<event>
 5   0  0.9639548E-04  0.1386383E+04  0.7818609E-02  0.8963735E-01
       -1   -1    0    0    0  501  0.00000000000E+00  0.00000000000E+00  0.13148247630E+04  0.13148247630E+04  0.50400001928E-02 0. -1.
        1   -1    0    0  501    0  0.00000000000E+00  0.00000000000E+00 -0.36545879622E+03  0.36545879625E+03  0.50400001928E-02 0.  1.
    10030    2    1    2    0    0  0.00000000000E+00  0.00000000000E+00  0.94936596677E+03  0.16802835592E+04  0.13863827396E+04 0.  0.
        1    1    3    3  502    0  0.14876376512E+03 -0.62525348670E+03  0.15993448078E+03  0.66230779748E+03  0.50400001928E-02 0. -1.
       -1    1    3    3    0  502 -0.14876376512E+03  0.62525348670E+03  0.78943148599E+03  0.10179757618E+04  0.50400001928E-02 0.  1.
</event>
<event>
 5   0  0.8673728E-04  0.1390469E+04  0.7818609E-02  0.8960746E-01
       -1   -1    0    0    0  501  0.00000000000E+00  0.00000000000E+00  0.22175939109E+03  0.22175939115E+03  0.50400001928E-02 0.  1.
        1   -1    0    0  501    0  0.00000000000E+00  0.00000000000E+00 -0.21796202952E+04  0.21796202952E+04  0.50400001928E-02 0. -1.
    10030    2    1    2    0    0  0.00000000000E+00  0.00000000000E+00 -0.19578609041E+04  0.24013796863E+04  0.13904693733E+04 0.  0.
        3    1    3    3  502    0 -0.14553224885E+03 -0.59862865533E+03 -0.15353856527E+04  0.16543714865E+04  0.10100000352E+00 0. -1.
       -3    1    3    3    0  502  0.14553224885E+03  0.59862865533E+03 -0.42247525134E+03  0.74700819985E+03  0.10100000352E+00 0.  1.
</event>
<event>
 5   0  0.8609148E-04  0.1377967E+04  0.7818609E-02  0.8969923E-01
        1   -1    0    0  501    0  0.00000000000E+00  0.00000000000E+00  0.12742351995E+04  0.12742351995E+04  0.50400001928E-02 0. -1.
       -1   -1    0    0    0  501  0.00000000000E+00  0.00000000000E+00 -0.37253607295E+03  0.37253607298E+03  0.50400001928E-02 0.  1.
    10030    2    1    2    0    0  0.00000000000E+00  0.00000000000E+00  0.90169912658E+03  0.16467712725E+04  0.13779674558E+04 0.  0.
        5    1    3    3  502    0  0.41148073484E+03 -0.43487204027E+03  0.85830871718E+03  0.10464922506E+04  0.46999998093E+01 0. -1.
       -5    1    3    3    0  502 -0.41148073484E+03  0.43487204027E+03  0.43390409399E+02  0.60027902193E+03  0.46999998093E+01 0.  1.
</event>
<event>
 5   0  0.1648213E-03  0.1408395E+04  0.7818609E-02  0.8947764E-01
       -2   -1    0    0    0  501  0.00000000000E+00  0.00000000000E+00  0.40432962796E+03  0.40432962797E+03  0.25500000920E-02 0. -1.
        2   -1    0    0  501    0  0.00000000000E+00  0.00000000000E+00 -0.12264594873E+04  0.12264594873E+04  0.25500000920E-02 0.  1.
    10030    2    1    2    0    0  0.00000000000E+00  0.00000000000E+00 -0.82212985931E+03  0.16307891152E+04  0.14083947007E+04 0.  0.
        4    1    3    3  502    0 -0.22836901012E+03  0.62354880732E+03 -0.13969265583E+03  0.67858762949E+03  0.12699999809E+01 0. -1.
       -4    1    3    3    0  502  0.22836901012E+03 -0.62354880732E+03 -0.68243720348E+03  0.95220148576E+03  0.12699999809E+01 0.  1.
</event>
<event>
 5   0  0.9007180E-04  0.1387859E+04  0.7818609E-02  0.8962654E-01
       -1   -1    0    0    0  501  0.00000000000E+00  0.00000000000E+00  0.91681286923E+03  0.91681286924E+03  0.50400001928E-02 0. -1.
        1   -1    0    0  501    0  0.00000000000E+00  0.00000000000E+00 -0.52523052207E+03  0.52523052209E+03  0.50400001928E-02 0.  1.
    10030    2    1    2    0    0  0.00000000000E+00  0.00000000000E+00  0.39158234716E+03  0.14420433913E+04  0.13878589294E+04 0.  0.
        2    1    3    3  502    0  0.57479143678E+02 -0.61400074640E+03  0.52639155731E+03  0.81079519001E+03  0.25500000920E-02 0. -1.
       -2    1    3    3    0  502 -0.57479143678E+02  0.61400074640E+03 -0.13480921015E+03  0.63124820133E+03  0.25500000920E-02 0.  1.
</event>
<event>
 5   0  0.8502300E-04  0.1445244E+04  0.7818609E-02  0.8921705E-01
        1   -1    0    0  501    0  0.00000000000E+00  0.00000000000E+00  0.81942069703E+03  0.81942069705E+03  0.50400001928E-02 0. -1.
       -1   -1    0    0    0  501  0.00000000000E+00  0.00000000000E+00 -0.63725783753E+03  0.63725783755E+03  0.50400001928E-02 0.  1.
    10030    2    1    2    0    0  0.00000000000E+00  0.00000000000E+00  0.18216285950E+03  0.14566785346E+04  0.14452435939E+04 0.  0.
        4    1    3    3  502    0  0.35049180874E+03  0.19115030840E+03 -0.51601115769E+03  0.65242016841E+03  0.12699999809E+01 0.  1.
       -4    1    3    3    0  502 -0.35049180874E+03 -0.19115030840E+03  0.69817401719E+03  0.80425836618E+03  0.12699999809E+01 0. -1.
</event>
<event>
 5   0  0.1648213E-03  0.1382624E+04  0.7818609E-02  0.8966493E-01
       -2   -1    0    0    0  501  0.00000000000E+00  0.00000000000E+00  0.18424153414E+03  0.18424153416E+03  0.25500000920E-02 0.  1.
        2   -1    0    0  501    0  0.00000000000E+00  0.00000000000E+00 -0.25939456530E+04  0.25939456530E+04  0.25500000920E-02 0. -1.
    10030    2    1    2    0    0  0.00000000000E+00  0.00000000000E+00 -0.24097041189E+04  0.27781871872E+04  0.13826243548E+04 0.  0.
        4    1    3    3  502    0 -0.25923771683E+03  0.63274763906E+03 -0.10005571201E+04  0.12118951820E+04  0.12699999809E+01 0. -1.
       -4    1    3    3    0  502  0.25923771683E+03 -0.63274763906E+03 -0.14091469988E+04  0.15662920052E+04  0.12699999809E+01 0.  1.
</event>
<event>
 5   0  0.1605214E-03  0.1416559E+04  0.7818609E-02  0.8941919E-01
        2   -1    0    0  501    0  0.00000000000E+00  0.00000000000E+00  0.11608116563E+04  0.11608116563E+04  0.25500000920E-02 0.  1.
       -2   -1    0    0    0  501  0.00000000000E+00  0.00000000000E+00 -0.43216303459E+03  0.43216303460E+03  0.25500000920E-02 0. -1.
    10030    2    1    2    0    0  0.00000000000E+00  0.00000000000E+00  0.72864862172E+03  0.15929746909E+04  0.14165590535E+04 0.  0.
        5    1    3    3  502    0  0.79719853761E+01  0.47468454063E+03 -0.22672595527E+03  0.52613279165E+03  0.46999998093E+01 0. -1.
       -5    1    3    3    0  502 -0.79719853761E+01 -0.47468454063E+03  0.95537457699E+03  0.10668418993E+04  0.46999998093E+01 0.  1.
</event>
<event>
 5   0  0.8502300E-04  0.1385951E+04  0.7818609E-02  0.8964051E-01
        1   -1    0    0  501    0  0.00000000000E+00  0.00000000000E+00  0.68977272494E+03  0.68977272496E+03  0.50400001928E-02 0. -1.
       -1   -1    0    0    0  501  0.00000000000E+00  0.00000000000E+00 -0.69619358737E+03  0.69619358739E+03  0.50400001928E-02 0.  1.
    10030    2    1    2    0    0  0.00000000000E+00  0.00000000000E+00 -0.64208624294E+01  0.13859663123E+04  0.13859514391E+04 0.  0.
        4    1    3    3  502    0  0.36707358712E+03 -0.24155163791E+03  0.53263440209E+03  0.69050071059E+03  0.12699999809E+01 0. -1.
       -4    1    3    3    0  502 -0.36707358712E+03  0.24155163791E+03 -0.53905526452E+03  0.69546560176E+03  0.12699999809E+01 0.  1.
</event>
<event>
 5   0  0.1648213E-03  0.1409323E+04  0.7818609E-02  0.8947097E-01
        2   -1    0    0  501    0  0.00000000000E+00  0.00000000000E+00  0.71374052147E+03  0.71374052147E+03  0.25500000920E-02 0.  1.
       -2   -1    0    0    0  501  0.00000000000E+00  0.00000000000E+00 -0.69569821632E+03  0.69569821632E+03  0.25500000920E-02 0. -1.
    10030    2    1    2    0    0  0.00000000000E+00  0.00000000000E+00  0.18042305148E+02  0.14094387378E+04  0.14093232528E+04 0.  0.
        4    1    3    3  502    0 -0.31851508408E+03 -0.32278213575E+03 -0.53038028107E+03  0.69781446058E+03  0.12699999809E+01 0. -1.
       -4    1    3    3    0  502  0.31851508408E+03  0.32278213575E+03  0.54842258622E+03  0.71162427722E+03  0.12699999809E+01 0.  1.
</event>
<event>
 5   0  0.1706986E-03  0.1387706E+04  0.7818609E-02  0.8962766E-01
       -2   -1    0    0    0  501  0.00000000000E+00  0.00000000000E+00  0.61533497969E+03  0.61533497970E+03  0.25500000920E-02 0.  1.
        2   -1    0    0  501    0  0.00000000000E+00  0.00000000000E+00 -0.78238965430E+03  0.78238965431E+03  0.25500000920E-02 0. -1.
    10030    2    1    2    0    0  0.00000000000E+00  0.00000000000E+00 -0.16705467461E+03  0.13977246340E+04  0.13877056202E+04 0.  0.
        3    1    3    3  502    0 -0.33970365975E+03 -0.56607320969E+03 -0.29859709317E+03  0.72456724286E+03  0.10100000352E+00 0. -1.
       -3    1    3    3    0  502  0.33970365975E+03  0.56607320969E+03  0.13154241856E+03  0.67315739115E+03  0.10100000352E+00 0.  1.
</event>
<event>
 5   0  0.8609148E-04  0.1404047E+04  0.7818609E-02  0.8950894E-01
        1   -1    0    0  501    0  0.00000000000E+00  0.00000000000E+00  0.10963926781E+04  0.10963926781E+04  0.50400001928E-02 0.  1.
       -1   -1    0    0    0  501  0.00000000000E+00  0.00000000000E+00 -0.44950779490E+03  0.44950779492E+03  0.50400001928E-02 0. -1.
    10030    2    1    2    0    0  0.00000000000E+00  0.00000000000E+00  0.64688488319E+03  0.15459004730E+04  0.14040470862E+04 0.  0.
        5    1    3    3  502    0 -0.60926334420E+03 -0.25235701899E+03  0.58844383877E+03  0.88384055633E+03  0.46999998093E+01 0.  1.
       -5    1    3    3    0  502  0.60926334420E+03  0.25235701899E+03  0.58441044417E+02  0.66205991669E+03  0.46999998093E+01 0. -1.
</event>
<event>
 5   0  0.1578965E-03  0.1427609E+04  0.7818609E-02  0.8934073E-01
       -2   -1    0    0    0  501  0.00000000000E+00  0.00000000000E+00  0.64048936906E+03  0.64048936907E+03  0.25500000920E-02 0.  1.
        2   -1    0    0  501    0  0.00000000000E+00  0.00000000000E+00 -0.79551141469E+03  0.79551141469E+03  0.25500000920E-02 0. -1.
    10030    2    1    2    0    0  0.00000000000E+00  0.00000000000E+00 -0.15502204563E+03  0.14360007838E+04  0.14276086356E+04 0.  0.
        2    1    3    3  502    0 -0.33210439652E+03  0.41538759541E+02  0.55666946864E+03  0.64953806359E+03  0.25500000920E-02 0.  1.
       -2    1    3    3    0  502  0.33210439652E+03 -0.41538759541E+02 -0.71169151426E+03  0.78646272017E+03  0.25500000920E-02 0. -1.
</event>
<event>
 5   0  0.6048000E-04  0.1410290E+04  0.7818609E-02  0.8946404E-01
        3   -1    0    0  501    0  0.00000000000E+00  0.00000000000E+00  0.59008943577E+03  0.59008944442E+03  0.10100000352E+00 0. -1.
       -3   -1    0    0    0  501  0.00000000000E+00  0.00000000000E+00 -0.84263423067E+03  0.84263423673E+03  0.10100000352E+00 0.  1.
    10030    2    1    2    0    0  0.00000000000E+00  0.00000000000E+00 -0.25254479490E+03  0.14327236811E+04  0.14102901379E+04 0.  0.
        4    1    3    3  502    0  0.56205624909E+03  0.36860960498E+03 -0.34284816622E+03  0.75453743844E+03  0.12699999809E+01 0. -1.
       -4    1    3    3    0  502 -0.56205624909E+03 -0.36860960498E+03  0.90303371321E+02  0.67818624271E+03  0.12699999809E+01 0.  1.
</event>
<event>
 5   0  0.1578965E-03  0.1395805E+04  0.7818609E-02  0.8956861E-01
       -2   -1    0    0    0  501  0.00000000000E+00  0.00000000000E+00  0.31766044619E+03  0.31766044620E+03  0.25500000920E-02 0. -1.
        2   -1    0    0  501    0  0.00000000000E+00  0.00000000000E+00 -0.15332977948E+04  0.15332977948E+04  0.25500000920E-02 0.  1.
    10030    2    1    2    0    0  0.00000000000E+00  0.00000000000E+00 -0.12156373487E+04  0.18509582410E+04  0.13958052323E+04 0.  0.
        2    1    3    3  502    0 -0.26798162792E+03  0.57387197488E+03 -0.21910373806E+03  0.67018627596E+03  0.25500000920E-02 0.  1.
       -2    1    3    3    0  502  0.26798162792E+03 -0.57387197488E+03 -0.99653361060E+03  0.11807719651E+04  0.25500000920E-02 0. -1.
</event>
<event>
 5   0  0.8673728E-04  0.1399535E+04  0.7818609E-02  0.8954155E-01
       -1   -1    0    0    0  501  0.00000000000E+00  0.00000000000E+00  0.45083611706E+03  0.45083611709E+03  0.50400001928E-02 0.  1.
        1   -1    0    0  501    0  0.00000000000E+00  0.00000000000E+00 -0.10861474706E+04  0.10861474707E+04  0.50400001928E-02 0. -1.
    10030    2    1    2    0    0  0.00000000000E+00  0.00000000000E+00 -0.63531135359E+03  0.15369835878E+04  0.13995349345E+04 0.  0.
        3    1    3    3  502    0 -0.35378351157E+03 -0.47281931783E+03  0.94654068517E+02  0.59806377859E+03  0.10100000352E+00 0.  1.
       -3    1    3    3    0  502  0.35378351157E+03  0.47281931783E+03 -0.72996542210E+03  0.93891980916E+03  0.10100000352E+00 0. -1.
</event>
<event>
 5   0  0.1706986E-03  0.1420637E+04  0.7818609E-02  0.8939015E-01
       -2   -1    0    0    0  501  0.00000000000E+00  0.00000000000E+00  0.22437929410E+03  0.22437929412E+03  0.25500000920E-02 0.  1.
        2   -1    0    0  501    0  0.00000000000E+00  0.00000000000E+00 -0.22486573073E+04  0.22486573073E+04  0.25500000920E-02 0. -1.
    10030    2    1    2    0    0  0.00000000000E+00  0.00000000000E+00 -0.20242780132E+04  0.24730366014E+04  0.14206366732E+04 0.  0.
        3    1    3    3  502    0  0.70225262173E+03  0.88029110717E+02 -0.90705123044E+03  0.11504998105E+04  0.10100000352E+00 0.  1.
       -3    1    3    3    0  502 -0.70225262173E+03 -0.88029110717E+02 -0.11172267827E+04  0.13225367909E+04  0.10100000352E+00 0. -1.
</event>
<event>
 5   0  0.8502300E-04  0.1564849E+04  0.7818609E-02  0.8842438E-01
       -1   -1    0    0    0  501  0.00000000000E+00  0.00000000000E+00  0.49732057211E+03  0.49732057214E+03  0.50400001928E-02 0. -1.
        1   -1    0    0  501    0  0.00000000000E+00  0.00000000000E+00 -0.12309730042E+04  0.12309730042E+04  0.50400001928E-02 0.  1.
    10030    2    1    2    0    0  0.00000000000E+00  0.00000000000E+00 -0.73365243213E+03  0.17282935764E+04  0.15648491285E+04 0.  0.
        4    1    3    3  502    0 -0.36564946409E+02 -0.30886874632E+03 -0.11597623044E+04  0.12007443996E+04  0.12699999809E+01 0.  1.
       -4    1    3    3    0  502  0.36564946409E+02  0.30886874632E+03  0.42610987224E+03  0.52754917674E+03  0.12699999809E+01 0. -1.
</event>
<event>
 5   0  0.9639548E-04  0.1411872E+04  0.7818609E-02  0.8945270E-01
        1   -1    0    0  501    0  0.00000000000E+00  0.00000000000E+00  0.41589456804E+03  0.41589456807E+03  0.50400001928E-02 0.  1.
       -1   -1    0    0    0  501  0.00000000000E+00  0.00000000000E+00 -0.11982491858E+04  0.11982491858E+04  0.50400001928E-02 0. -1.
    10030    2    1    2    0    0  0.00000000000E+00  0.00000000000E+00 -0.78235461778E+03  0.16141437539E+04  0.14118715630E+04 0.  0.
        1    1    3    3  502    0 -0.47143919893E+03  0.43156485935E+03 -0.73385605023E+03  0.97316383441E+03  0.50400001928E-02 0.  1.
       -1    1    3    3    0  502  0.47143919893E+03 -0.43156485935E+03 -0.48498567554E+02  0.64097991949E+03  0.50400001928E-02 0. -1.
</event>
<event>
 5   0  0.1578965E-03  0.1366736E+04  0.7818609E-02  0.8978255E-01
        2   -1    0    0  501    0  0.00000000000E+00  0.00000000000E+00  0.20932490162E+04  0.20932490162E+04  0.25500000920E-02 0.  1.
       -2   -1    0    0    0  501  0.00000000000E+00  0.00000000000E+00 -0.22309423658E+03  0.22309423659E+03  0.25500000920E-02 0. -1.
    10030    2    1    2    0    0  0.00000000000E+00  0.00000000000E+00  0.18701547796E+04  0.23163432528E+04  0.13667359529E+04 0.  0.
        2    1    3    3  502    0 -0.35058327354E+03 -0.43357389616E+02  0.19265035909E+04  0.19586231339E+04  0.25500000920E-02 0.  1.
       -2    1    3    3    0  502  0.35058327354E+03  0.43357389616E+02 -0.56348811274E+02  0.35772011889E+03  0.25500000920E-02 0. -1.
</event>
<event>
 5   0  0.8609148E-04  0.1373002E+04  0.7818609E-02  0.8973596E-01
        1   -1    0    0  501    0  0.00000000000E+00  0.00000000000E+00  0.92621325782E+03  0.92621325784E+03  0.50400001928E-02 0. -1.
       -1   -1    0    0    0  501  0.00000000000E+00  0.00000000000E+00 -0.50882849353E+03  0.50882849355E+03  0.50400001928E-02 0.  1.
    10030    2    1    2    0    0  0.00000000000E+00  0.00000000000E+00  0.41738476430E+03  0.14350417514E+04  0.13730021073E+04 0.  0.
        5    1    3    3  502    0  0.29794700201E+03 -0.81477876627E+02  0.84946054576E+03  0.90388957799E+03  0.46999998093E+01 0. -1.
       -5    1    3    3    0  502 -0.29794700201E+03  0.81477876627E+02 -0.43207578147E+03  0.53115217341E+03  0.46999998093E+01 0.  1.
</event>
<event>
 5   0  0.1648213E-03  0.1386388E+04  0.7818609E-02  0.8963731E-01
        2   -1    0    0  501    0  0.00000000000E+00  0.00000000000E+00  0.69561259792E+03  0.69561259792E+03  0.25500000920E-02 0. -1.
       -2   -1    0    0    0  501  0.00000000000E+00  0.00000000000E+00 -0.69078390097E+03  0.69078390097E+03  0.25500000920E-02 0.  1.
    10030    2    1    2    0    0  0.00000000000E+00  0.00000000000E+00  0.48286969493E+01  0.13863964989E+04  0.13863880899E+04 0.  0.
        4    1    3    3  502    0  0.37632595272E+03  0.44257857551E+03 -0.37576694114E+03  0.69188107731E+03  0.12699999809E+01 0.  1.
       -4    1    3    3    0  502 -0.37632595272E+03 -0.44257857551E+03  0.38059563809E+03  0.69451542159E+03  0.12699999809E+01 0. -1.
</event>
<event>
 5   0  0.1706986E-03  0.1403571E+04  0.7818609E-02  0.8951238E-01
       -2   -1    0    0    0  501  0.00000000000E+00  0.00000000000E+00  0.90485822935E+03  0.90485822936E+03  0.25500000920E-02 0. -1.
        2   -1    0    0  501    0  0.00000000000E+00  0.00000000000E+00 -0.54428758891E+03  0.54428758891E+03  0.25500000920E-02 0.  1.
    10030    2    1    2    0    0  0.00000000000E+00  0.00000000000E+00  0.36057064044E+03  0.14491458183E+04  0.14035713077E+04 0.  0.
        3    1    3    3  502    0 -0.16127733466E+03  0.35959927405E+03  0.77981295060E+03  0.87374496548E+03  0.10100000352E+00 0. -1.
       -3    1    3    3    0  502  0.16127733466E+03 -0.35959927405E+03 -0.41924231016E+03  0.57540085279E+03  0.10100000352E+00 0.  1.
</event>
<event>
 5   0  0.6048000E-04  0.1400835E+04  0.7818609E-02  0.8953214E-01
       -4   -1    0    0    0  501  0.00000000000E+00  0.00000000000E+00  0.72442462967E+03  0.72442574290E+03  0.12699999809E+01 0. -1.
        4   -1    0    0  501    0  0.00000000000E+00  0.00000000000E+00 -0.67720394295E+03  0.67720513380E+03  0.12699999809E+01 0.  1.
    10030    2    1    2    0    0  0.00000000000E+00  0.00000000000E+00  0.47220686721E+02  0.14016308767E+04  0.14008352227E+04 0.  0.
        4    1    3    3  502    0 -0.13431874197E+03 -0.68255391967E+03 -0.58056109473E+02  0.69806411056E+03  0.12699999809E+01 0.  1.
       -4    1    3    3    0  502  0.13431874197E+03  0.68255391967E+03  0.10527679619E+03  0.70356676614E+03  0.12699999809E+01 0. -1.
</event>
<event>
 5   0  0.8502300E-04  0.1506467E+04  0.7818609E-02  0.8880164E-01
       -1   -1    0    0    0  501  0.00000000000E+00  0.00000000000E+00  0.80257272454E+03  0.80257272455E+03  0.50400001928E-02 0. -1.
        1   -1    0    0  501    0  0.00000000000E+00  0.00000000000E+00 -0.70692789167E+03  0.70692789169E+03  0.50400001928E-02 0.  1.
    10030    2    1    2    0    0  0.00000000000E+00  0.00000000000E+00  0.95644832865E+02  0.15095006162E+04  0.15064674495E+04 0.  0.
        4    1    3    3  502    0  0.23072622030E+03 -0.94711339314E+01 -0.67058357705E+03  0.70923073666E+03  0.12699999809E+01 0.  1.
       -4    1    3    3    0  502 -0.23072622030E+03  0.94711339314E+01  0.76622840991E+03  0.80026987958E+03  0.12699999809E+01 0. -1.
</event>
<event>
 5   0  0.8673728E-04  0.1392002E+04  0.7818609E-02  0.8959628E-01
       -1   -1    0    0    0  501  0.00000000000E+00  0.00000000000E+00  0.14543190148E+04  0.14543190148E+04  0.50400001928E-02 0.  1.
        1   -1    0    0  501    0  0.00000000000E+00  0.00000000000E+00 -0.33308889092E+03  0.33308889095E+03  0.50400001928E-02 0. -1.
    10030    2    1    2    0    0  0.00000000000E+00  0.00000000000E+00  0.11212301238E+04  0.17874079057E+04  0.13920021662E+04 0.  0.
        3    1    3    3  502    0 -0.25310782157E+03  0.18453809044E+03  0.13586941011E+04  0.13943340872E+04  0.10100000352E+00 0.  1.
       -3    1    3    3    0  502  0.25310782157E+03 -0.18453809044E+03 -0.23746397721E+03  0.39307381856E+03  0.10100000352E+00 0. -1.
</event>
<event>
 5   0  0.8609148E-04  0.1480340E+04  0.7818609E-02  0.8897633E-01
       -1   -1    0    0    0  501  0.00000000000E+00  0.00000000000E+00  0.58054007683E+03  0.58054007685E+03  0.50400001928E-02 0. -1.
        1   -1    0    0  501    0  0.00000000000E+00  0.00000000000E+00 -0.94369349922E+03  0.94369349923E+03  0.50400001928E-02 0.  1.
    10030    2    1    2    0    0  0.00000000000E+00  0.00000000000E+00 -0.36315342239E+03  0.15242335761E+04  0.14803403616E+04 0.  0.
        5    1    3    3  502    0  0.40146644350E+03  0.51874631096E+03  0.17145503358E+03  0.67800586939E+03  0.46999998093E+01 0. -1.
       -5    1    3    3    0  502 -0.40146644350E+03 -0.51874631096E+03 -0.53460845597E+03  0.84622770669E+03  0.46999998093E+01 0.  1.
</event>
<event>
 5   0  0.1648213E-03  0.1373817E+04  0.7818609E-02  0.8972992E-01
       -2   -1    0    0    0  501  0.00000000000E+00  0.00000000000E+00  0.23225697582E+03  0.23225697583E+03  0.25500000920E-02 0. -1.
        2   -1    0    0  501    0  0.00000000000E+00  0.00000000000E+00 -0.20315574642E+04  0.20315574642E+04  0.25500000920E-02 0.  1.
    10030    2    1    2    0    0  0.00000000000E+00  0.00000000000E+00 -0.17993004884E+04  0.22638144401E+04  0.13738171536E+04 0.  0.
        4    1    3    3  502    0  0.29587638485E+03 -0.59709655712E+03 -0.11742727717E+04  0.13501797247E+04  0.12699999809E+01 0.  1.
       -4    1    3    3    0  502 -0.29587638485E+03  0.59709655712E+03 -0.62502771673E+03  0.91363471542E+03  0.12699999809E+01 0. -1.
</event>
<event>
 5   0  0.1648463E-03  0.1396882E+04  0.7818609E-02  0.8956079E-01
       -2   -1    0    0    0  501  0.00000000000E+00  0.00000000000E+00  0.41957594941E+03  0.41957594941E+03  0.25500000920E-02 0.  1.
        2   -1    0    0  501    0  0.00000000000E+00  0.00000000000E+00 -0.11626494936E+04  0.11626494936E+04  0.25500000920E-02 0. -1.
    10030    2    1    2    0    0  0.00000000000E+00  0.00000000000E+00 -0.74307354415E+03  0.15822254430E+04  0.13968819064E+04 0.  0.
        1    1    3    3  502    0  0.40724041377E+03  0.46652300311E+03 -0.73739765423E+03  0.96293497575E+03  0.50400001928E-02 0. -1.
       -1    1    3    3    0  502 -0.40724041377E+03 -0.46652300311E+03 -0.56758899205E+01  0.61929046722E+03  0.50400001928E-02 0.  1.
</event>
<event>
 5   0  0.1605214E-03  0.1392013E+04  0.7818609E-02  0.8959621E-01
       -2   -1    0    0    0  501  0.00000000000E+00  0.00000000000E+00  0.39608905702E+03  0.39608905702E+03  0.25500000920E-02 0. -1.
        2   -1    0    0  501    0  0.00000000000E+00  0.00000000000E+00 -0.12230199204E+04  0.12230199204E+04  0.25500000920E-02 0.  1.
    10030    2    1    2    0    0  0.00000000000E+00  0.00000000000E+00 -0.82693086343E+03  0.16191089775E+04  0.13920126537E+04 0.  0.
        5    1    3    3  502    0  0.47810173271E+02 -0.34455829627E+03  0.28770445922E+03  0.45144454593E+03  0.46999998093E+01 0. -1.
       -5    1    3    3    0  502 -0.47810173271E+02  0.34455829627E+03 -0.11146353226E+04  0.11676644315E+04  0.46999998093E+01 0.  1.
</event>
<event>
 5   0  0.1648213E-03  0.1351603E+04  0.7818609E-02  0.8989615E-01
        2   -1    0    0  501    0  0.00000000000E+00  0.00000000000E+00  0.18163102373E+04  0.18163102373E+04  0.25500000920E-02 0. -1.
       -2   -1    0    0    0  501  0.00000000000E+00  0.00000000000E+00 -0.25144818077E+03  0.25144818078E+03  0.25500000920E-02 0.  1.
    10030    2    1    2    0    0  0.00000000000E+00  0.00000000000E+00  0.15648620565E+04  0.20677584181E+04  0.13516033514E+04 0.  0.
        4    1    3    3  502    0 -0.16097413978E+03  0.49103439361E+03  0.11614610968E+03  0.52964042621E+03  0.12699999809E+01 0.  1.
       -4    1    3    3    0  502  0.16097413978E+03 -0.49103439361E+03  0.14487159468E+04  0.15381179919E+04  0.12699999809E+01 0. -1.
</event>
<event>
 5   0  0.1578965E-03  0.1411066E+04  0.7818609E-02  0.8945847E-01
        2   -1    0    0  501    0  0.00000000000E+00  0.00000000000E+00  0.80915243491E+03  0.80915243491E+03  0.25500000920E-02 0. -1.
       -2   -1    0    0    0  501  0.00000000000E+00  0.00000000000E+00 -0.61518310300E+03  0.61518310300E+03  0.25500000920E-02 0.  1.
    10030    2    1    2    0    0  0.00000000000E+00  0.00000000000E+00  0.19396933191E+03  0.14243355379E+04  0.14110661299E+04 0.  0.
        2    1    3    3  502    0  0.98595497902E+02  0.64383014198E+03  0.37071477336E+03  0.74944497271E+03  0.25500000920E-02 0. -1.
       -2    1    3    3    0  502 -0.98595497902E+02 -0.64383014198E+03 -0.17674544145E+03  0.67489056521E+03  0.25500000920E-02 0.  1.
</event>
<event>
 5   0  0.1605214E-03  0.1402130E+04  0.7818609E-02  0.8952278E-01
       -2   -1    0    0    0  501  0.00000000000E+00  0.00000000000E+00  0.14419831326E+04  0.14419831326E+04  0.25500000920E-02 0.  1.
        2   -1    0    0  501    0  0.00000000000E+00  0.00000000000E+00 -0.34084461492E+03  0.34084461493E+03  0.25500000920E-02 0. -1.
    10030    2    1    2    0    0  0.00000000000E+00  0.00000000000E+00  0.11011385177E+04  0.17828277476E+04  0.14021300733E+04 0.  0.
        5    1    3    3  502    0  0.20720494584E+03 -0.32504521697E+03 -0.19397977677E+03  0.43155361944E+03  0.46999998093E+01 0. -1.
       -5    1    3    3    0  502 -0.20720494584E+03  0.32504521697E+03  0.12951182945E+04  0.13512741281E+04  0.46999998093E+01 0.  1.
</event>
<event>
 5   0  0.1605214E-03  0.1415608E+04  0.7818609E-02  0.8942598E-01
        2   -1    0    0  501    0  0.00000000000E+00  0.00000000000E+00  0.82344640445E+03  0.82344640445E+03  0.25500000920E-02 0.  1.
       -2   -1    0    0    0  501  0.00000000000E+00  0.00000000000E+00 -0.60840202694E+03  0.60840202695E+03  0.25500000920E-02 0. -1.
    10030    2    1    2    0    0  0.00000000000E+00  0.00000000000E+00  0.21504437750E+03  0.14318484314E+04  0.14156079423E+04 0.  0.
        5    1    3    3  502    0  0.37216058744E+03  0.32052327923E+03  0.62300182931E+03  0.79334232504E+03  0.46999998093E+01 0.  1.
       -5    1    3    3    0  502 -0.37216058744E+03 -0.32052327923E+03 -0.40795745181E+03  0.63850610636E+03  0.46999998093E+01 0. -1.
</event>
<event>
 5   0  0.9007180E-04  0.1399502E+04  0.7818609E-02  0.8954179E-01
       -1   -1    0    0    0  501  0.00000000000E+00  0.00000000000E+00  0.23374335880E+03  0.23374335886E+03  0.50400001928E-02 0. -1.
        1   -1    0    0  501    0  0.00000000000E+00  0.00000000000E+00 -0.20948260244E+04  0.20948260244E+04  0.50400001928E-02 0.  1.
    10030    2    1    2    0    0  0.00000000000E+00  0.00000000000E+00 -0.18610826656E+04  0.23285693833E+04  0.13995022989E+04 0.  0.
        2    1    3    3  502    0  0.31601592534E+02  0.29149508604E+03  0.12660749708E+03  0.31937048104E+03  0.25500000920E-02 0. -1.
       -2    1    3    3    0  502 -0.31601592534E+02 -0.29149508604E+03 -0.19876901627E+04  0.20091989023E+04  0.25500000920E-02 0.  1.
</event>
<event>
 5   0  0.9007180E-04  0.1405090E+04  0.7818609E-02  0.8950143E-01
       -1   -1    0    0    0  501  0.00000000000E+00  0.00000000000E+00  0.73304689155E+03  0.73304689157E+03  0.50400001928E-02 0. -1.
        1   -1    0    0  501    0  0.00000000000E+00  0.00000000000E+00 -0.67331207888E+03  0.67331207890E+03  0.50400001928E-02 0.  1.
    10030    2    1    2    0    0  0.00000000000E+00  0.00000000000E+00  0.59734812670E+02  0.14063589705E+04  0.14050897857E+04 0.  0.
        2    1    3    3  502    0  0.17288049474E+03 -0.13433347201E+03 -0.63829545435E+03  0.67479940294E+03  0.25500000920E-02 0.  1.
       -2    1    3    3    0  502 -0.17288049474E+03  0.13433347201E+03  0.69803026702E+03  0.73155956753E+03  0.25500000920E-02 0. -1.
</event>
<event>
 5   0  0.9007180E-04  0.1495099E+04  0.7818609E-02  0.8887719E-01
        1   -1    0    0  501    0  0.00000000000E+00  0.00000000000E+00  0.74370973220E+03  0.74370973222E+03  0.50400001928E-02 0. -1.
       -1   -1    0    0    0  501  0.00000000000E+00  0.00000000000E+00 -0.75140875957E+03  0.75140875958E+03  0.50400001928E-02 0.  1.
    10030    2    1    2    0    0  0.00000000000E+00  0.00000000000E+00 -0.76990273652E+01  0.14951184918E+04  0.14950986688E+04 0.  0.
        2    1    3    3  502    0 -0.37904724445E+03  0.26448617343E+03 -0.59139475598E+03  0.75058477660E+03  0.25500000920E-02 0.  1.
       -2    1    3    3    0  502  0.37904724445E+03 -0.26448617343E+03  0.58369572861E+03  0.74453371520E+03  0.25500000920E-02 0. -1.
</event>
<event>
 5   0  0.8609148E-04  0.1394525E+04  0.7818609E-02  0.8957791E-01
        1   -1    0    0  501    0  0.00000000000E+00  0.00000000000E+00  0.92384989149E+03  0.92384989150E+03  0.50400001928E-02 0.  1.
       -1   -1    0    0    0  501  0.00000000000E+00  0.00000000000E+00 -0.52624903616E+03  0.52624903619E+03  0.50400001928E-02 0. -1.
    10030    2    1    2    0    0  0.00000000000E+00  0.00000000000E+00  0.39760085533E+03  0.14500989277E+04  0.13945251736E+04 0.  0.
        5    1    3    3  502    0 -0.17800986969E+02  0.22082929183E+03  0.88625983131E+03  0.91354311878E+03  0.46999998093E+01 0.  1.
       -5    1    3    3    0  502  0.17800986969E+02 -0.22082929183E+03 -0.48865897599E+03  0.53655580891E+03  0.46999998093E+01 0. -1.
</event>
<event>
 5   0  0.1605214E-03  0.1400779E+04  0.7818609E-02  0.8953255E-01
        2   -1    0    0  501    0  0.00000000000E+00  0.00000000000E+00  0.73733141530E+03  0.73733141531E+03  0.25500000920E-02 0.  1.
       -2   -1    0    0    0  501  0.00000000000E+00  0.00000000000E+00 -0.66529866833E+03  0.66529866834E+03  0.25500000920E-02 0. -1.
    10030    2    1    2    0    0  0.00000000000E+00  0.00000000000E+00  0.72032746970E+02  0.14026300836E+04  0.14007792242E+04 0.  0.
        5    1    3    3  502    0  0.36030676117E+03  0.17736484279E+03  0.61057264530E+03  0.73082165731E+03  0.46999998093E+01 0.  1.
       -5    1    3    3    0  502 -0.36030676117E+03 -0.17736484279E+03 -0.53853989833E+03  0.67180842634E+03  0.46999998093E+01 0. -1.
</event>
<event>
 5   0  0.8673728E-04  0.1405339E+04  0.7818609E-02  0.8949963E-01
       -1   -1    0    0    0  501  0.00000000000E+00  0.00000000000E+00  0.47606115100E+03  0.47606115103E+03  0.50400001928E-02 0.  1.
        1   -1    0    0  501    0  0.00000000000E+00  0.00000000000E+00 -0.10371452932E+04  0.10371452932E+04  0.50400001928E-02 0. -1.
    10030    2    1    2    0    0  0.00000000000E+00  0.00000000000E+00 -0.56108414221E+03  0.15132064443E+04  0.14053392218E+04 0.  0.
        3    1    3    3  502    0 -0.15155745333E+03 -0.19662622643E+03 -0.98835045052E+03  0.10190525785E+04  0.10100000352E+00 0. -1.
       -3    1    3    3    0  502  0.15155745333E+03  0.19662622643E+03  0.42726630831E+03  0.49415386572E+03  0.10100000352E+00 0.  1.
</event>
<event>
 5   0  0.9007180E-04  0.1431109E+04  0.7818609E-02  0.8931603E-01
       -1   -1    0    0    0  501  0.00000000000E+00  0.00000000000E+00  0.59815761671E+03  0.59815761673E+03  0.50400001928E-02 0.  1.
        1   -1    0    0  501    0  0.00000000000E+00  0.00000000000E+00 -0.85599185110E+03  0.85599185112E+03  0.50400001928E-02 0. -1.
    10030    2    1    2    0    0  0.00000000000E+00  0.00000000000E+00 -0.25783423439E+03  0.14541494679E+04  0.14311087249E+04 0.  0.
        2    1    3    3  502    0 -0.46787684546E+03  0.26784866933E+03  0.34915373308E+03  0.64230832278E+03  0.25500000920E-02 0.  1.
       -2    1    3    3    0  502  0.46787684546E+03 -0.26784866933E+03 -0.60698796747E+03  0.81184114507E+03  0.25500000920E-02 0. -1.
</event>
<event>
 5   0  0.8609148E-04  0.1402126E+04  0.7818609E-02  0.8952281E-01
        1   -1    0    0  501    0  0.00000000000E+00  0.00000000000E+00  0.90581090188E+03  0.90581090190E+03  0.50400001928E-02 0. -1.
       -1   -1    0    0    0  501  0.00000000000E+00  0.00000000000E+00 -0.54259596954E+03  0.54259596957E+03  0.50400001928E-02 0.  1.
    10030    2    1    2    0    0  0.00000000000E+00  0.00000000000E+00  0.36321493234E+03  0.14484068715E+04  0.14021260208E+04 0.  0.
        5    1    3    3  502    0 -0.64085038187E+03  0.28009775868E+03  0.23139895016E+03  0.73668957540E+03  0.46999998093E+01 0. -1.
       -5    1    3    3    0  502  0.64085038187E+03 -0.28009775868E+03  0.13181598218E+03  0.71171729607E+03  0.46999998093E+01 0.  1.
</event>
<event>
 5   0  0.1578965E-03  0.1120027E+04  0.7818609E-02  0.9185889E-01
       -2   -1    0    0    0  501  0.00000000000E+00  0.00000000000E+00  0.19108087076E+03  0.19108087078E+03  0.25500000920E-02 0. -1.
        2   -1    0    0  501    0  0.00000000000E+00  0.00000000000E+00 -0.16412693611E+04  0.16412693611E+04  0.25500000920E-02 0.  1.
    10030    2    1    2    0    0  0.00000000000E+00  0.00000000000E+00 -0.14501884904E+04  0.18323502319E+04  0.11200271045E+04 0.  0.
        2    1    3    3  502    0 -0.48552975640E+03 -0.27799042293E+03 -0.76507930036E+03  0.94782074014E+03  0.25500000920E-02 0.  1.
       -2    1    3    3    0  502  0.48552975640E+03  0.27799042293E+03 -0.68510919001E+03  0.88452949179E+03  0.25500000920E-02 0. -1.
</event>
<event>
 5   0  0.1648213E-03  0.1421413E+04  0.7818609E-02  0.8938463E-01
        2   -1    0    0  501    0  0.00000000000E+00  0.00000000000E+00  0.16191018033E+04  0.16191018033E+04  0.25500000920E-02 0. -1.
       -2   -1    0    0    0  501  0.00000000000E+00  0.00000000000E+00 -0.31196554705E+03  0.31196554706E+03  0.25500000920E-02 0.  1.
    10030    2    1    2    0    0  0.00000000000E+00  0.00000000000E+00  0.13071362562E+04  0.19310673504E+04  0.14214133527E+04 0.  0.
        4    1    3    3  502    0 -0.41706312226E+03 -0.91060000908E+02 -0.11838346306E+03  0.44300093560E+03  0.12699999809E+01 0.  1.
       -4    1    3    3    0  502  0.41706312226E+03  0.91060000908E+02  0.14255197193E+04  0.14880664148E+04  0.12699999809E+01 0. -1.
</event>
<event>
 5   0  0.8673728E-04  0.1413241E+04  0.7818609E-02  0.8944290E-01
       -1   -1    0    0    0  501  0.00000000000E+00  0.00000000000E+00  0.85561719615E+03  0.85561719617E+03  0.50400001928E-02 0.  1.
        1   -1    0    0  501    0  0.00000000000E+00  0.00000000000E+00 -0.58356961758E+03  0.58356961760E+03  0.50400001928E-02 0. -1.
    10030    2    1    2    0    0  0.00000000000E+00  0.00000000000E+00  0.27204757857E+03  0.14391868138E+04  0.14132405315E+04 0.  0.
        3    1    3    3  502    0  0.26617860041E+03  0.21256333972E+03  0.76648448238E+03  0.83876855725E+03  0.10100000352E+00 0.  1.
       -3    1    3    3    0  502 -0.26617860041E+03 -0.21256333972E+03 -0.49443690381E+03  0.60041825651E+03  0.10100000352E+00 0. -1.
</event>
<event>
 5   0  0.1578965E-03  0.1379040E+04  0.7818609E-02  0.8969131E-01
        2   -1    0    0  501    0  0.00000000000E+00  0.00000000000E+00  0.67872763940E+03  0.67872763941E+03  0.25500000920E-02 0. -1.
       -2   -1    0    0    0  501  0.00000000000E+00  0.00000000000E+00 -0.70048431293E+03  0.70048431294E+03  0.25500000920E-02 0.  1.
    10030    2    1    2    0    0  0.00000000000E+00  0.00000000000E+00 -0.21756673528E+02  0.13792119523E+04  0.13790403390E+04 0.  0.
        2    1    3    3  502    0 -0.15324946422E+03 -0.36398783216E+03 -0.57616148706E+03  0.69852315597E+03  0.25500000920E-02 0.  1.
       -2    1    3    3    0  502  0.15324946422E+03  0.36398783216E+03  0.55440481353E+03  0.68068879638E+03  0.25500000920E-02 0. -1.
</event>
<event>
 5   0  0.8609148E-04  0.1400540E+04  0.7818609E-02  0.8953428E-01
        1   -1    0    0  501    0  0.00000000000E+00  0.00000000000E+00  0.81144558731E+03  0.81144558732E+03  0.50400001928E-02 0. -1.
       -1   -1    0    0    0  501  0.00000000000E+00  0.00000000000E+00 -0.60432650212E+03  0.60432650214E+03  0.50400001928E-02 0.  1.
    10030    2    1    2    0    0  0.00000000000E+00  0.00000000000E+00  0.20711908519E+03  0.14157720895E+04  0.14005400008E+04 0.  0.
        5    1    3    3  502    0  0.26638795598E+03  0.59330531668E+03 -0.15884452107E+03  0.66949788182E+03  0.46999998093E+01 0. -1.
       -5    1    3    3    0  502 -0.26638795598E+03 -0.59330531668E+03  0.36596360626E+03  0.74627420764E+03  0.46999998093E+01 0.  1.
</event>
<event>
 5   0  0.8502300E-04  0.1392294E+04  0.7818609E-02  0.8959415E-01
       -1   -1    0    0    0  501  0.00000000000E+00  0.00000000000E+00  0.12730148136E+04  0.12730148136E+04  0.50400001928E-02 0.  1.
        1   -1    0    0  501    0  0.00000000000E+00  0.00000000000E+00 -0.38068749061E+03  0.38068749064E+03  0.50400001928E-02 0. -1.
    10030    2    1    2    0    0  0.00000000000E+00  0.00000000000E+00  0.89232732295E+03  0.16537023042E+04  0.13922942432E+04 0.  0.
        4    1    3    3  502    0  0.66396195607E+03 -0.12576033106E+03  0.24756339074E+03  0.71968769984E+03  0.12699999809E+01 0. -1.
       -4    1    3    3    0  502 -0.66396195607E+03  0.12576033106E+03  0.64476393221E+03  0.93401460436E+03  0.12699999809E+01 0.  1.
</event>
<event>
 5   0  0.9007180E-04  0.1563396E+04  0.7818609E-02  0.8843356E-01
        1   -1    0    0  501    0  0.00000000000E+00  0.00000000000E+00  0.71830486132E+03  0.71830486134E+03  0.50400001928E-02 0.  1.
       -1   -1    0    0    0  501  0.00000000000E+00  0.00000000000E+00 -0.85068595595E+03  0.85068595597E+03  0.50400001928E-02 0. -1.
    10030    2    1    2    0    0  0.00000000000E+00  0.00000000000E+00 -0.13238109463E+03  0.15689908173E+04  0.15633961208E+04 0.  0.
        2    1    3    3  502    0 -0.70623260276E+03  0.23607131465E+03 -0.30486022833E+03  0.80463278185E+03  0.25500000920E-02 0.  1.
       -2    1    3    3    0  502  0.70623260276E+03 -0.23607131465E+03  0.17247913370E+03  0.76435803546E+03  0.25500000920E-02 0. -1.
</event>
<event>
 5   0  0.8609148E-04  0.1384873E+04  0.7818609E-02  0.8964841E-01
        1   -1    0    0  501    0  0.00000000000E+00  0.00000000000E+00  0.60601447918E+03  0.60601447920E+03  0.50400001928E-02 0.  1.
       -1   -1    0    0    0  501  0.00000000000E+00  0.00000000000E+00 -0.79118349141E+03  0.79118349143E+03  0.50400001928E-02 0. -1.
    10030    2    1    2    0    0  0.00000000000E+00  0.00000000000E+00 -0.18516901223E+03  0.13971979706E+04  0.13848734982E+04 0.  0.
        5    1    3    3  502    0 -0.37239228176E+03 -0.20861220719E+03 -0.64264425597E+03  0.77149776036E+03  0.46999998093E+01 0. -1.
       -5    1    3    3    0  502  0.37239228176E+03  0.20861220719E+03  0.45747524374E+03  0.62570021027E+03  0.46999998093E+01 0.  1.
</event>
<event>
 5   0  0.9639548E-04  0.1351973E+04  0.7818609E-02  0.8989336E-01
        1   -1    0    0  501    0  0.00000000000E+00  0.00000000000E+00  0.98865571876E+03  0.98865571877E+03  0.50400001928E-02 0. -1.
       -1   -1    0    0    0  501  0.00000000000E+00  0.00000000000E+00 -0.46220106252E+03  0.46220106255E+03  0.50400001928E-02 0.  1.
    10030    2    1    2    0    0  0.00000000000E+00  0.00000000000E+00  0.52645465624E+03  0.14508567813E+04  0.13519729638E+04 0.  0.
        1    1    3    3  502    0 -0.39761372111E+03  0.54660294847E+03  0.27319478574E+03  0.72904516010E+03  0.50400001928E-02 0.  1.
       -1    1    3    3    0  502  0.39761372111E+03 -0.54660294847E+03  0.25325987050E+03  0.72181162122E+03  0.50400001928E-02 0. -1.
</event>
<event>
 5   0  0.1706986E-03  0.1322421E+04  0.7818609E-02  0.9011972E-01
        2   -1    0    0  501    0  0.00000000000E+00  0.00000000000E+00  0.44704655014E+03  0.44704655015E+03  0.25500000920E-02 0. -1.
       -2   -1    0    0    0  501  0.00000000000E+00  0.00000000000E+00 -0.97797203656E+03  0.97797203656E+03  0.25500000920E-02 0.  1.
    10030    2    1    2    0    0  0.00000000000E+00  0.00000000000E+00 -0.53092548642E+03  0.14250185867E+04  0.13224205459E+04 0.  0.
        3    1    3    3  502    0  0.19591402292E+03 -0.26237768977E+03  0.35353809176E+03  0.48188541064E+03  0.10100000352E+00 0. -1.
       -3    1    3    3    0  502 -0.19591402292E+03  0.26237768977E+03 -0.88446357818E+03  0.94313317606E+03  0.10100000352E+00 0.  1.
</event>
<event>
 5   0  0.1706986E-03  0.1371199E+04  0.7818609E-02  0.8974934E-01
        2   -1    0    0  501    0  0.00000000000E+00  0.00000000000E+00  0.15331538383E+04  0.15331538383E+04  0.25500000920E-02 0. -1.
       -2   -1    0    0    0  501  0.00000000000E+00  0.00000000000E+00 -0.30658819409E+03  0.30658819410E+03  0.25500000920E-02 0.  1.
    10030    2    1    2    0    0  0.00000000000E+00  0.00000000000E+00  0.12265656442E+04  0.18397420324E+04  0.13711992803E+04 0.  0.
        3    1    3    3  502    0  0.58550018828E+03 -0.35529122774E+03  0.57075847328E+03  0.89151981021E+03  0.10100000352E+00 0. -1.
       -3    1    3    3    0  502 -0.58550018828E+03  0.35529122774E+03  0.65580717090E+03  0.94822222216E+03  0.10100000352E+00 0.  1.
</event>
<event>
 5   0  0.8609148E-04  0.1402521E+04  0.7818609E-02  0.8951996E-01
       -1   -1    0    0    0  501  0.00000000000E+00  0.00000000000E+00  0.67126274590E+03  0.67126274592E+03  0.50400001928E-02 0. -1.
        1   -1    0    0  501    0  0.00000000000E+00  0.00000000000E+00 -0.73259882215E+03  0.73259882217E+03  0.50400001928E-02 0.  1.
    10030    2    1    2    0    0  0.00000000000E+00  0.00000000000E+00 -0.61336076248E+02  0.14038615681E+04  0.14025210116E+04 0.  0.
        5    1    3    3  502    0 -0.57853806220E+02 -0.46885075158E+03 -0.54940668392E+03  0.72459497961E+03  0.46999998093E+01 0.  1.
       -5    1    3    3    0  502  0.57853806220E+02  0.46885075158E+03  0.48807060767E+03  0.67926658848E+03  0.46999998093E+01 0. -1.
</event>
<event>
 5   0  0.8673728E-04  0.1404612E+04  0.7818609E-02  0.8950487E-01
        1   -1    0    0  501    0  0.00000000000E+00  0.00000000000E+00  0.97483347853E+03  0.97483347854E+03  0.50400001928E-02 0. -1.
       -1   -1    0    0    0  501  0.00000000000E+00  0.00000000000E+00 -0.50596701573E+03  0.50596701575E+03  0.50400001928E-02 0.  1.
    10030    2    1    2    0    0  0.00000000000E+00  0.00000000000E+00  0.46886646280E+03  0.14808004943E+04  0.14046118126E+04 0.  0.
        3    1    3    3  502    0  0.62410940333E+03  0.25589657922E+03  0.28281188061E+02  0.67512624182E+03  0.10100000352E+00 0.  1.
       -3    1    3    3    0  502 -0.62410940333E+03 -0.25589657922E+03  0.44058527474E+03  0.80567425248E+03  0.10100000352E+00 0. -1.
</event>
<event>
 5   0  0.8673728E-04  0.1331698E+04  0.7818609E-02  0.9004799E-01
       -1   -1    0    0    0  501  0.00000000000E+00  0.00000000000E+00  0.58129998317E+03  0.58129998319E+03  0.50400001928E-02 0.  1.
        1   -1    0    0  501    0  0.00000000000E+00  0.00000000000E+00 -0.76269592069E+03  0.76269592070E+03  0.50400001928E-02 0. -1.
    10030    2    1    2    0    0  0.00000000000E+00  0.00000000000E+00 -0.18139593752E+03  0.13439959039E+04  0.13316983531E+04 0.  0.
        3    1    3    3  502    0  0.44820419993E+03 -0.45626090076E+03 -0.27759473863E+03  0.69722296542E+03  0.10100000352E+00 0.  1.
       -3    1    3    3    0  502 -0.44820419993E+03  0.45626090076E+03  0.96198801114E+02  0.64677293847E+03  0.10100000352E+00 0. -1.
</event>
<event>
 5   0  0.1578965E-03  0.1398184E+04  0.7818609E-02  0.8955134E-01
       -2   -1    0    0    0  501  0.00000000000E+00  0.00000000000E+00  0.39982354928E+03  0.39982354929E+03  0.25500000920E-02 0.  1.
        2   -1    0    0  501    0  0.00000000000E+00  0.00000000000E+00 -0.12223637194E+04  0.12223637194E+04  0.25500000920E-02 0. -1.
    10030    2    1    2    0    0  0.00000000000E+00  0.00000000000E+00 -0.82254017011E+03  0.16221872687E+04  0.13981842523E+04 0.  0.
        2    1    3    3  502    0 -0.16767278890E+03  0.29613822612E+03  0.29723526142E+03  0.45184158037E+03  0.25500000920E-02 0.  1.
       -2    1    3    3    0  502  0.16767278890E+03 -0.29613822612E+03 -0.11197754315E+04  0.11703456883E+04  0.25500000920E-02 0. -1.
</event>
<event>
 5   0  0.1578965E-03  0.1401897E+04  0.7818609E-02  0.8952447E-01
        2   -1    0    0  501    0  0.00000000000E+00  0.00000000000E+00  0.67188042529E+03  0.67188042530E+03  0.25500000920E-02 0.  1.
       -2   -1    0    0    0  501  0.00000000000E+00  0.00000000000E+00 -0.73127365512E+03  0.73127365512E+03  0.25500000920E-02 0. -1.
    10030    2    1    2    0    0  0.00000000000E+00  0.00000000000E+00 -0.59393229826E+02  0.14031540804E+04  0.14018965075E+04 0.  0.
        2    1    3    3  502    0  0.10379193223E+03  0.19400811190E+03 -0.69581337328E+03  0.72977267907E+03  0.25500000920E-02 0. -1.
       -2    1    3    3    0  502 -0.10379193223E+03 -0.19400811190E+03  0.63642014346E+03  0.67338140135E+03  0.25500000920E-02 0.  1.
</event>
<event>
 5   0  0.8502300E-04  0.1383680E+04  0.7818609E-02  0.8965717E-01
       -1   -1    0    0    0  501  0.00000000000E+00  0.00000000000E+00  0.44936420710E+03  0.44936420712E+03  0.50400001928E-02 0.  1.
        1   -1    0    0  501    0  0.00000000000E+00  0.00000000000E+00 -0.10651555328E+04  0.10651555328E+04  0.50400001928E-02 0. -1.
    10030    2    1    2    0    0  0.00000000000E+00  0.00000000000E+00 -0.61579132573E+03  0.15145197400E+04  0.13836802687E+04 0.  0.
        4    1    3    3  502    0  0.47162074254E+03 -0.50595519058E+03 -0.29149995411E+03  0.75059350905E+03  0.12699999809E+01 0. -1.
       -4    1    3    3    0  502 -0.47162074254E+03  0.50595519058E+03 -0.32429137162E+03  0.76392623092E+03  0.12699999809E+01 0.  1.
</event>
<event>
 5   0  0.1648463E-03  0.1387626E+04  0.7818609E-02  0.8962825E-01
        2   -1    0    0  501    0  0.00000000000E+00  0.00000000000E+00  0.11865367871E+04  0.11865367871E+04  0.25500000920E-02 0. -1.
       -2   -1    0    0    0  501  0.00000000000E+00  0.00000000000E+00 -0.40569864600E+03  0.40569864601E+03  0.25500000920E-02 0.  1.
    10030    2    1    2    0    0  0.00000000000E+00  0.00000000000E+00  0.78083814107E+03  0.15922354331E+04  0.13876258400E+04 0.  0.
        1    1    3    3  502    0 -0.30939699991E+03  0.44416550455E+03 -0.10758989949E+03  0.55189227707E+03  0.50400001928E-02 0. -1.
       -1    1    3    3    0  502  0.30939699991E+03 -0.44416550455E+03  0.88842804056E+03  0.10403431560E+04  0.50400001928E-02 0.  1.
</event>
<event>
 5   0  0.6048000E-04  0.1363333E+04  0.7818609E-02  0.8980796E-01
        3   -1    0    0  501    0  0.00000000000E+00  0.00000000000E+00  0.58532998444E+03  0.58532999315E+03  0.10100000352E+00 0.  1.
       -3   -1    0    0    0  501  0.00000000000E+00  0.00000000000E+00 -0.79385851285E+03  0.79385851928E+03  0.10100000352E+00 0. -1.
    10030    2    1    2    0    0  0.00000000000E+00  0.00000000000E+00 -0.20852852842E+03  0.13791885124E+04  0.13633329768E+04 0.  0.
        5    1    3    3  502    0 -0.29885484641E+03 -0.44292351510E+03 -0.53244990588E+03  0.75433444288E+03  0.46999998093E+01 0. -1.
       -5    1    3    3    0  502  0.29885484641E+03  0.44292351510E+03  0.32392137747E+03  0.62485406954E+03  0.46999998093E+01 0.  1.
</event>
<event>
 5   0  0.6048000E-04  0.1397422E+04  0.7818609E-02  0.8955687E-01
        4   -1    0    0  501    0  0.00000000000E+00  0.00000000000E+00  0.56224063320E+03  0.56224206755E+03  0.12699999809E+01 0.  1.
       -4   -1    0    0    0  501  0.00000000000E+00  0.00000000000E+00 -0.86830360745E+03  0.86830453622E+03  0.12699999809E+01 0. -1.
    10030    2    1    2    0    0  0.00000000000E+00  0.00000000000E+00 -0.30606297425E+03  0.14305466038E+04  0.13974222845E+04 0.  0.
        4    1    3    3  502    0 -0.47773942551E+03 -0.25910234068E+02  0.36824325760E+03  0.60374747088E+03  0.12699999809E+01 0.  1.
       -4    1    3    3    0  502  0.47773942551E+03  0.25910234068E+02 -0.67430623186E+03  0.82679913289E+03  0.12699999809E+01 0. -1.
</event>
<event>
 5   0  0.6048000E-04  0.1392836E+04  0.7818609E-02  0.8959021E-01
        4   -1    0    0  501    0  0.00000000000E+00  0.00000000000E+00  0.13438720617E+04  0.13438726618E+04  0.12699999809E+01 0. -1.
       -4   -1    0    0    0  501  0.00000000000E+00  0.00000000000E+00 -0.36089424489E+03  0.36089647947E+03  0.12699999809E+01 0.  1.
    10030    2    1    2    0    0  0.00000000000E+00  0.00000000000E+00  0.98297781685E+03  0.17047691413E+04  0.13928361126E+04 0.  0.
        2    1    3    3  502    0  0.15475598511E+03  0.64702301513E+03  0.74354618726E+03  0.99772197011E+03  0.25500000920E-02 0. -1.
       -2    1    3    3    0  502 -0.15475598511E+03 -0.64702301513E+03  0.23943162959E+03  0.70704717119E+03  0.25500000920E-02 0.  1.
</event>
<event>
 5   0  0.1578965E-03  0.1392249E+04  0.7818609E-02  0.8959449E-01
        2   -1    0    0  501    0  0.00000000000E+00  0.00000000000E+00  0.10603822052E+04  0.10603822052E+04  0.25500000920E-02 0. -1.
       -2   -1    0    0    0  501  0.00000000000E+00  0.00000000000E+00 -0.45699463924E+03  0.45699463925E+03  0.25500000920E-02 0.  1.
    10030    2    1    2    0    0  0.00000000000E+00  0.00000000000E+00  0.60338756597E+03  0.15173768445E+04  0.13922485171E+04 0.  0.
        2    1    3    3  502    0  0.65938302689E+03 -0.41148099163E+02  0.62641084953E+02  0.66362869720E+03  0.25500000920E-02 0.  1.
       -2    1    3    3    0  502 -0.65938302689E+03  0.41148099163E+02  0.54074648102E+03  0.85374814726E+03  0.25500000920E-02 0. -1.
</event>
<event>
 5   0  0.8609148E-04  0.1432850E+04  0.7818609E-02  0.8930377E-01
        1   -1    0    0  501    0  0.00000000000E+00  0.00000000000E+00  0.70091242637E+03  0.70091242639E+03  0.50400001928E-02 0.  1.
       -1   -1    0    0    0  501  0.00000000000E+00  0.00000000000E+00 -0.73228125397E+03  0.73228125399E+03  0.50400001928E-02 0. -1.
    10030    2    1    2    0    0  0.00000000000E+00  0.00000000000E+00 -0.31368827605E+02  0.14331936804E+04  0.14328503488E+04 0.  0.
        5    1    3    3  502    0 -0.30558923890E+02 -0.16607293955E+03  0.68070713935E+03  0.70135466680E+03  0.46999998093E+01 0.  1.
       -5    1    3    3    0  502  0.30558923890E+02  0.16607293955E+03 -0.71207596696E+03  0.73183901358E+03  0.46999998093E+01 0. -1.
</event>
<event>
 5   0  0.1605214E-03  0.1413771E+04  0.7818609E-02  0.8943910E-01
        2   -1    0    0  501    0  0.00000000000E+00  0.00000000000E+00  0.81940033792E+03  0.81940033792E+03  0.25500000920E-02 0.  1.
       -2   -1    0    0    0  501  0.00000000000E+00  0.00000000000E+00 -0.60982036455E+03  0.60982036455E+03  0.25500000920E-02 0. -1.
    10030    2    1    2    0    0  0.00000000000E+00  0.00000000000E+00  0.20957997337E+03  0.14292207025E+04  0.14137708623E+04 0.  0.
        5    1    3    3  502    0 -0.40552950067E+02 -0.14326434698E+03  0.80335206776E+03  0.81704703026E+03  0.46999998093E+01 0.  1.
       -5    1    3    3    0  502  0.40552950067E+02  0.14326434698E+03 -0.59377209440E+03  0.61217367222E+03  0.46999998093E+01 0. -1.
</event>
<event>
 5   0  0.8673728E-04  0.1403598E+04  0.7818609E-02  0.8951218E-01
        1   -1    0    0  501    0  0.00000000000E+00  0.00000000000E+00  0.12883965501E+04  0.12883965501E+04  0.50400001928E-02 0.  1.
       -1   -1    0    0    0  501  0.00000000000E+00  0.00000000000E+00 -0.38227518259E+03  0.38227518263E+03  0.50400001928E-02 0. -1.
    10030    2    1    2    0    0  0.00000000000E+00  0.00000000000E+00  0.90612136749E+03  0.16706717327E+04  0.14035982708E+04 0.  0.
        3    1    3    3  502    0 -0.56155166384E+03 -0.51853213725E+02 -0.44146381687E+02  0.56566592628E+03  0.10100000352E+00 0. -1.
       -3    1    3    3    0  502  0.56155166384E+03  0.51853213725E+02  0.95026774918E+03  0.11050058064E+04  0.10100000352E+00 0.  1.
</event>
<event>
 5   0  0.1648213E-03  0.1428631E+04  0.7818609E-02  0.8933351E-01
       -2   -1    0    0    0  501  0.00000000000E+00  0.00000000000E+00  0.30658896080E+03  0.30658896081E+03  0.25500000920E-02 0. -1.
        2   -1    0    0  501    0  0.00000000000E+00  0.00000000000E+00 -0.16642696389E+04  0.16642696389E+04  0.25500000920E-02 0.  1.
    10030    2    1    2    0    0  0.00000000000E+00  0.00000000000E+00 -0.13576806781E+04  0.19708585997E+04  0.14286310918E+04 0.  0.
        4    1    3    3  502    0 -0.62140951093E+03 -0.32230372862E+02 -0.11627760425E+04  0.13188018483E+04  0.12699999809E+01 0.  1.
       -4    1    3    3    0  502  0.62140951093E+03  0.32230372862E+02 -0.19490463566E+03  0.65205675144E+03  0.12699999809E+01 0. -1.
</event>
<event>
 5   0  0.9007180E-04  0.1392312E+04  0.7818609E-02  0.8959402E-01
        1   -1    0    0  501    0  0.00000000000E+00  0.00000000000E+00  0.69252105159E+03  0.69252105161E+03  0.50400001928E-02 0. -1.
       -1   -1    0    0    0  501  0.00000000000E+00  0.00000000000E+00 -0.69981047739E+03  0.69981047740E+03  0.50400001928E-02 0.  1.
    10030    2    1    2    0    0  0.00000000000E+00  0.00000000000E+00 -0.72894257942E+01  0.13923315290E+04  0.13923124473E+04 0.  0.
        2    1    3    3  502    0  0.25083909405E+02 -0.46723984417E+03 -0.51910421268E+03  0.69886440610E+03  0.25500000920E-02 0.  1.
       -2    1    3    3    0  502 -0.25083909405E+02  0.46723984417E+03  0.51181478688E+03  0.69346712292E+03  0.25500000920E-02 0. -1.
</event>
<event>
 5   0  0.9639548E-04  0.1314795E+04  0.7818609E-02  0.9017914E-01
       -1   -1    0    0    0  501  0.00000000000E+00  0.00000000000E+00  0.77507936684E+03  0.77507936686E+03  0.50400001928E-02 0.  1.
        1   -1    0    0  501    0  0.00000000000E+00  0.00000000000E+00 -0.55758372966E+03  0.55758372969E+03  0.50400001928E-02 0. -1.
    10030    2    1    2    0    0  0.00000000000E+00  0.00000000000E+00  0.21749563718E+03  0.13326630965E+04  0.13147952604E+04 0.  0.
        1    1    3    3  502    0  0.90745023872E+02  0.61519302041E+03  0.32489340055E+03  0.70160732142E+03  0.50400001928E-02 0.  1.
       -1    1    3    3    0  502 -0.90745023872E+02 -0.61519302041E+03 -0.10739776337E+03  0.63105577513E+03  0.50400001928E-02 0. -1.
</event>
<event>
 5   0  0.1605214E-03  0.1406195E+04  0.7818609E-02  0.8949346E-01
       -2   -1    0    0    0  501  0.00000000000E+00  0.00000000000E+00  0.25366992474E+03  0.25366992475E+03  0.25500000920E-02 0. -1.
        2   -1    0    0  501    0  0.00000000000E+00  0.00000000000E+00 -0.19487777911E+04  0.19487777911E+04  0.25500000920E-02 0.  1.
    10030    2    1    2    0    0  0.00000000000E+00  0.00000000000E+00 -0.16951078663E+04  0.22024477158E+04  0.14061953145E+04 0.  0.
        5    1    3    3  502    0  0.10724099347E+03 -0.54038989879E+03 -0.15317047080E+04  0.16277786323E+04  0.46999998093E+01 0.  1.
       -5    1    3    3    0  502 -0.10724099347E+03  0.54038989879E+03 -0.16340315837E+03  0.57466908352E+03  0.46999998093E+01 0. -1.
</event>
<event>
 5   0  0.8609148E-04  0.1372496E+04  0.7818609E-02  0.8973972E-01
        1   -1    0    0  501    0  0.00000000000E+00  0.00000000000E+00  0.20738296342E+04  0.20738296342E+04  0.50400001928E-02 0. -1.
       -1   -1    0    0    0  501  0.00000000000E+00  0.00000000000E+00 -0.22708519099E+03  0.22708519105E+03  0.50400001928E-02 0.  1.
    10030    2    1    2    0    0  0.00000000000E+00  0.00000000000E+00  0.18467444432E+04  0.23009148252E+04  0.13724955353E+04 0.  0.
        5    1    3    3  502    0 -0.54224934235E+03 -0.14891674263E+03  0.26398658988E+03  0.62122584875E+03  0.46999998093E+01 0.  1.
       -5    1    3    3    0  502  0.54224934235E+03  0.14891674263E+03  0.15827578533E+04  0.16796889765E+04  0.46999998093E+01 0. -1.
</event>
<event>
 5   0  0.1706986E-03  0.1398148E+04  0.7818609E-02  0.8955160E-01
       -2   -1    0    0    0  501  0.00000000000E+00  0.00000000000E+00  0.43966691935E+03  0.43966691936E+03  0.25500000920E-02 0. -1.
        2   -1    0    0  501    0  0.00000000000E+00  0.00000000000E+00 -0.11115335283E+04  0.11115335283E+04  0.25500000920E-02 0.  1.
    10030    2    1    2    0    0  0.00000000000E+00  0.00000000000E+00 -0.67186660895E+03  0.15512004477E+04  0.13981480925E+04 0.  0.
        3    1    3    3  502    0 -0.61688555609E+03  0.15784300777E+03 -0.15832473039E+02  0.63695594967E+03  0.10100000352E+00 0. -1.
       -3    1    3    3    0  502  0.61688555609E+03 -0.15784300777E+03 -0.65603413591E+03  0.91424449798E+03  0.10100000352E+00 0.  1.
</event>
<event>
 5   0  0.1648463E-03  0.1393727E+04  0.7818609E-02  0.8958372E-01
       -2   -1    0    0    0  501  0.00000000000E+00  0.00000000000E+00  0.28889131422E+03  0.28889131423E+03  0.25500000920E-02 0. -1.
        2   -1    0    0  501    0  0.00000000000E+00  0.00000000000E+00 -0.16809744677E+04  0.16809744677E+04  0.25500000920E-02 0.  1.
    10030    2    1    2    0    0  0.00000000000E+00  0.00000000000E+00 -0.13920831535E+04  0.19698657820E+04  0.13937272662E+04 0.  0.
        1    1    3    3  502    0  0.54086220556E+03  0.40509690591E+03 -0.93666295692E+03  0.11549774558E+04  0.50400001928E-02 0.  1.
       -1    1    3    3    0  502 -0.54086220556E+03 -0.40509690591E+03 -0.45542019660E+03  0.81488832614E+03  0.50400001928E-02 0. -1.
</event>
<event>
 5   0  0.9007180E-04  0.1092747E+04  0.7818609E-02  0.9212290E-01
        1   -1    0    0  501    0  0.00000000000E+00  0.00000000000E+00  0.73885959543E+03  0.73885959545E+03  0.50400001928E-02 0.  1.
       -1   -1    0    0    0  501  0.00000000000E+00  0.00000000000E+00 -0.40403356055E+03  0.40403356058E+03  0.50400001928E-02 0. -1.
    10030    2    1    2    0    0  0.00000000000E+00  0.00000000000E+00  0.33482603488E+03  0.11428931560E+04  0.10927471311E+04 0.  0.
        2    1    3    3  502    0  0.38054499199E+03  0.23326783785E+03  0.49698567471E+03  0.66799935327E+03  0.25500000920E-02 0.  1.
       -2    1    3    3    0  502 -0.38054499199E+03 -0.23326783785E+03 -0.16215963982E+03  0.47489380276E+03  0.25500000920E-02 0. -1.
</event>
<event>
 5   0  0.9007180E-04  0.1229640E+04  0.7818609E-02  0.9087301E-01
       -1   -1    0    0    0  501  0.00000000000E+00  0.00000000000E+00  0.11165329555E+04  0.11165329555E+04  0.50400001928E-02 0.  1.
        1   -1    0    0  501    0  0.00000000000E+00  0.00000000000E+00 -0.33855123353E+03  0.33855123357E+03  0.50400001928E-02 0. -1.
    10030    2    1    2    0    0  0.00000000000E+00  0.00000000000E+00  0.77798172199E+03  0.14550841891E+04  0.12296399626E+04 0.  0.
        2    1    3    3  502    0  0.26403815971E+02 -0.47333102768E+03 -0.74275210150E+02  0.47985021633E+03  0.25500000920E-02 0. -1.
       -2    1    3    3    0  502 -0.26403815971E+02  0.47333102768E+03  0.85225693214E+03  0.97523397278E+03  0.25500000920E-02 0.  1.
</event>
<event>
 5   0  0.1706986E-03  0.1404326E+04  0.7818609E-02  0.8950693E-01
        2   -1    0    0  501    0  0.00000000000E+00  0.00000000000E+00  0.12769983398E+04  0.12769983398E+04  0.25500000920E-02 0. -1.
       -2   -1    0    0    0  501  0.00000000000E+00  0.00000000000E+00 -0.38608760159E+03  0.38608760160E+03  0.25500000920E-02 0.  1.
    10030    2    1    2    0    0  0.00000000000E+00  0.00000000000E+00  0.89091073820E+03  0.16630859414E+04  0.14043264952E+04 0.  0.
        3    1    3    3  502    0  0.16237816842E+03  0.31941183148E+03  0.11605776703E+04  0.12146320952E+04  0.10100000352E+00 0. -1.
       -3    1    3    3    0  502 -0.16237816842E+03 -0.31941183148E+03 -0.26966693213E+03  0.44845384618E+03  0.10100000352E+00 0.  1.
</event>
<event>
 5   0  0.1605214E-03  0.1363090E+04  0.7818609E-02  0.8980978E-01
       -2   -1    0    0    0  501  0.00000000000E+00  0.00000000000E+00  0.40819598436E+03  0.40819598437E+03  0.25500000920E-02 0.  1.
        2   -1    0    0  501    0  0.00000000000E+00  0.00000000000E+00 -0.11379431871E+04  0.11379431871E+04  0.25500000920E-02 0. -1.
    10030    2    1    2    0    0  0.00000000000E+00  0.00000000000E+00 -0.72974720278E+03  0.15461391715E+04  0.13630903703E+04 0.  0.
        5    1    3    3  502    0 -0.90192993840E+02 -0.29175908480E+02  0.40066323507E+03  0.41175129351E+03  0.46999998093E+01 0.  1.
       -5    1    3    3    0  502  0.90192993840E+02  0.29175908480E+02 -0.11304104378E+04  0.11343878780E+04  0.46999998093E+01 0. -1.
</event>
<event>
 5   0  0.8502300E-04  0.1392360E+04  0.7818609E-02  0.8959367E-01
        1   -1    0    0  501    0  0.00000000000E+00  0.00000000000E+00  0.47809289664E+03  0.47809289666E+03  0.50400001928E-02 0. -1.
       -1   -1    0    0    0  501  0.00000000000E+00  0.00000000000E+00 -0.10137500127E+04  0.10137500127E+04  0.50400001928E-02 0.  1.
    10030    2    1    2    0    0  0.00000000000E+00  0.00000000000E+00 -0.53565711607E+03  0.14918429094E+04  0.13923601259E+04 0.  0.
        4    1    3    3  502    0 -0.49251742361E+02 -0.19526548581E+03  0.44620257233E+03  0.48954335102E+03  0.12699999809E+01 0. -1.
       -4    1    3    3    0  502  0.49251742361E+02  0.19526548581E+03 -0.98185968841E+03  0.10022995584E+04  0.12699999809E+01 0.  1.
</event>
<event>
 5   0  0.8502300E-04  0.1384829E+04  0.7818609E-02  0.8964874E-01
        1   -1    0    0  501    0  0.00000000000E+00  0.00000000000E+00  0.66051530220E+03  0.66051530222E+03  0.50400001928E-02 0. -1.
       -1   -1    0    0    0  501  0.00000000000E+00  0.00000000000E+00 -0.72585405731E+03  0.72585405733E+03  0.50400001928E-02 0.  1.
    10030    2    1    2    0    0  0.00000000000E+00  0.00000000000E+00 -0.65338755119E+02  0.13863693595E+04  0.13848288155E+04 0.  0.
        4    1    3    3  502    0 -0.31287551693E+03  0.60676623842E+03  0.83130134267E+02  0.68772711834E+03  0.12699999809E+01 0. -1.
       -4    1    3    3    0  502  0.31287551693E+03 -0.60676623842E+03 -0.14846888939E+03  0.69864224120E+03  0.12699999809E+01 0.  1.
</event>
<event>
 5   0  0.9639548E-04  0.1442303E+04  0.7818609E-02  0.8923754E-01
        1   -1    0    0  501    0  0.00000000000E+00  0.00000000000E+00  0.90520844174E+03  0.90520844176E+03  0.50400001928E-02 0.  1.
       -1   -1    0    0    0  501  0.00000000000E+00  0.00000000000E+00 -0.57451893427E+03  0.57451893429E+03  0.50400001928E-02 0. -1.
    10030    2    1    2    0    0  0.00000000000E+00  0.00000000000E+00  0.33068950747E+03  0.14797273760E+04  0.14423028659E+04 0.  0.
        1    1    3    3  502    0  0.48839565187E+03  0.36212562029E+03  0.56321426321E+03  0.82877957500E+03  0.50400001928E-02 0.  1.
       -1    1    3    3    0  502 -0.48839565187E+03 -0.36212562029E+03 -0.23252475574E+03  0.65094780105E+03  0.50400001928E-02 0. -1.
</event>
<event>
 5   0  0.9639548E-04  0.1398221E+04  0.7818609E-02  0.8955108E-01
        1   -1    0    0  501    0  0.00000000000E+00  0.00000000000E+00  0.10473768448E+04  0.10473768448E+04  0.50400001928E-02 0.  1.
       -1   -1    0    0    0  501  0.00000000000E+00  0.00000000000E+00 -0.46664701204E+03  0.46664701207E+03  0.50400001928E-02 0. -1.
    10030    2    1    2    0    0  0.00000000000E+00  0.00000000000E+00  0.58072983279E+03  0.15140238569E+04  0.13982206910E+04 0.  0.
        1    1    3    3  502    0 -0.15928845653E+03  0.67934947332E+03  0.33714928305E+03  0.77495687516E+03  0.50400001928E-02 0.  1.
       -1    1    3    3    0  502  0.15928845653E+03 -0.67934947332E+03  0.24358054974E+03  0.73906698175E+03  0.50400001928E-02 0. -1.
</event>
<event>
 5   0  0.9007180E-04  0.1401796E+04  0.7818609E-02  0.8952520E-01
        1   -1    0    0  501    0  0.00000000000E+00  0.00000000000E+00  0.29672946017E+03  0.29672946021E+03  0.50400001928E-02 0.  1.
       -1   -1    0    0    0  501  0.00000000000E+00  0.00000000000E+00 -0.16555745070E+04  0.16555745070E+04  0.50400001928E-02 0. -1.
    10030    2    1    2    0    0  0.00000000000E+00  0.00000000000E+00 -0.13588450469E+04  0.19523039673E+04  0.14017956053E+04 0.  0.
        2    1    3    3  502    0 -0.99168102980E+02  0.61655661692E+03 -0.23619421063E+03  0.66765565949E+03  0.25500000920E-02 0.  1.
       -2    1    3    3    0  502  0.99168102980E+02 -0.61655661692E+03 -0.11226508362E+04  0.12846483078E+04  0.25500000920E-02 0. -1.
</event>
<event>
 5   0  0.8609148E-04  0.1413054E+04  0.7818609E-02  0.8944423E-01
        1   -1    0    0  501    0  0.00000000000E+00  0.00000000000E+00  0.21947369583E+04  0.21947369583E+04  0.50400001928E-02 0.  1.
       -1   -1    0    0    0  501  0.00000000000E+00  0.00000000000E+00 -0.22744435555E+03  0.22744435561E+03  0.50400001928E-02 0. -1.
    10030    2    1    2    0    0  0.00000000000E+00  0.00000000000E+00  0.19672926028E+04  0.24221813139E+04  0.14130541860E+04 0.  0.
        5    1    3    3  502    0 -0.63975109385E+03  0.29740582619E+03  0.10483937456E+04  0.12636784494E+04  0.46999998093E+01 0. -1.
       -5    1    3    3    0  502  0.63975109385E+03 -0.29740582619E+03  0.91889885710E+03  0.11585028645E+04  0.46999998093E+01 0.  1.
</event>
<event>
 5   0  0.9007180E-04  0.1377738E+04  0.7818609E-02  0.8970092E-01
        1   -1    0    0  501    0  0.00000000000E+00  0.00000000000E+00  0.86290158706E+03  0.86290158708E+03  0.50400001928E-02 0.  1.
       -1   -1    0    0    0  501  0.00000000000E+00  0.00000000000E+00 -0.54993592275E+03  0.54993592277E+03  0.50400001928E-02 0. -1.
    10030    2    1    2    0    0  0.00000000000E+00  0.00000000000E+00  0.31296566431E+03  0.14128375099E+04  0.13777381182E+04 0.  0.
        2    1    3    3  502    0  0.25203562855E+03  0.26845553860E+03 -0.44054354520E+03  0.57416804987E+03  0.25500000920E-02 0. -1.
       -2    1    3    3    0  502 -0.25203562855E+03 -0.26845553860E+03  0.75350920952E+03  0.83866945998E+03  0.25500000920E-02 0.  1.
</event>
<event>
 5   0  0.1648463E-03  0.1377089E+04  0.7818609E-02  0.8970572E-01
        2   -1    0    0  501    0  0.00000000000E+00  0.00000000000E+00  0.72628885412E+03  0.72628885413E+03  0.25500000920E-02 0.  1.
       -2   -1    0    0    0  501  0.00000000000E+00  0.00000000000E+00 -0.65276148426E+03  0.65276148427E+03  0.25500000920E-02 0. -1.
    10030    2    1    2    0    0  0.00000000000E+00  0.00000000000E+00  0.73527369859E+02  0.13790503384E+04  0.13770887995E+04 0.  0.
        1    1    3    3  502    0 -0.87860590754E+02  0.62664044592E+03  0.30861981178E+03  0.70401982935E+03  0.50400001928E-02 0.  1.
       -1    1    3    3    0  502  0.87860590754E+02 -0.62664044592E+03 -0.23509244192E+03  0.67503050904E+03  0.50400001928E-02 0. -1.
</event>
<event>
 5   0  0.1648463E-03  0.1402200E+04  0.7818609E-02  0.8952228E-01
       -2   -1    0    0    0  501  0.00000000000E+00  0.00000000000E+00  0.46226898003E+03  0.46226898003E+03  0.25500000920E-02 0. -1.
        2   -1    0    0  501    0  0.00000000000E+00  0.00000000000E+00 -0.10633230820E+04  0.10633230820E+04  0.25500000920E-02 0.  1.
    10030    2    1    2    0    0  0.00000000000E+00  0.00000000000E+00 -0.60105410197E+03  0.15255920620E+04  0.14022000949E+04 0.  0.
        1    1    3    3  502    0  0.61365756884E+03  0.10441163759E+03 -0.65150386249E+03  0.90107418381E+03  0.50400001928E-02 0.  1.
       -1    1    3    3    0  502 -0.61365756884E+03 -0.10441163759E+03  0.50449760514E+02  0.62451787823E+03  0.50400001928E-02 0. -1.
</event>
<event>
 5   0  0.1578965E-03  0.1379733E+04  0.7818609E-02  0.8968621E-01
        2   -1    0    0  501    0  0.00000000000E+00  0.00000000000E+00  0.53224270237E+03  0.53224270238E+03  0.25500000920E-02 0.  1.
       -2   -1    0    0    0  501  0.00000000000E+00  0.00000000000E+00 -0.89417017995E+03  0.89417017995E+03  0.25500000920E-02 0. -1.
    10030    2    1    2    0    0  0.00000000000E+00  0.00000000000E+00 -0.36192747758E+03  0.14264128823E+04  0.13797326596E+04 0.  0.
        2    1    3    3  502    0 -0.65681016535E+03 -0.18170234573E+03 -0.70096475007E+02  0.68507579987E+03  0.25500000920E-02 0. -1.
       -2    1    3    3    0  502  0.65681016535E+03  0.18170234573E+03 -0.29183100257E+03  0.74133708246E+03  0.25500000920E-02 0.  1.
</event>
<event>
 5   0  0.8502300E-04  0.1409982E+04  0.7818609E-02  0.8946624E-01
        1   -1    0    0  501    0  0.00000000000E+00  0.00000000000E+00  0.92933885841E+03  0.92933885842E+03  0.50400001928E-02 0.  1.
       -1   -1    0    0    0  501  0.00000000000E+00  0.00000000000E+00 -0.53480218416E+03  0.53480218419E+03  0.50400001928E-02 0. -1.
    10030    2    1    2    0    0  0.00000000000E+00  0.00000000000E+00  0.39453667424E+03  0.14641410426E+04  0.14099822004E+04 0.  0.
        4    1    3    3  502    0  0.44216387017E+03 -0.48302751139E+02  0.76524099655E+03  0.88512001421E+03  0.12699999809E+01 0.  1.
       -4    1    3    3    0  502 -0.44216387017E+03  0.48302751139E+02 -0.37070432231E+03  0.57902102840E+03  0.12699999809E+01 0. -1.
</event>
<event>
 5   0  0.8502300E-04  0.1408409E+04  0.7818609E-02  0.8947754E-01
       -1   -1    0    0    0  501  0.00000000000E+00  0.00000000000E+00  0.33461215322E+04  0.33461215322E+04  0.50400001928E-02 0.  1.
        1   -1    0    0  501    0  0.00000000000E+00  0.00000000000E+00 -0.14820256985E+03  0.14820256993E+03  0.50400001928E-02 0. -1.
    10030    2    1    2    0    0  0.00000000000E+00  0.00000000000E+00  0.31979189623E+04  0.34943241021E+04  0.14084087620E+04 0.  0.
        4    1    3    3  502    0 -0.39178963650E+03 -0.24739506963E+03  0.29146118872E+04  0.29512145814E+04  0.12699999809E+01 0.  1.
       -4    1    3    3    0  502  0.39178963650E+03  0.24739506963E+03  0.28330707515E+03  0.54310952070E+03  0.12699999809E+01 0. -1.
</event>
<event>
 5   0  0.9639548E-04  0.1402477E+04  0.7818609E-02  0.8952028E-01
       -1   -1    0    0    0  501  0.00000000000E+00  0.00000000000E+00  0.13918666831E+04  0.13918666831E+04  0.50400001928E-02 0. -1.
        1   -1    0    0  501    0  0.00000000000E+00  0.00000000000E+00 -0.35329185215E+03  0.35329185218E+03  0.50400001928E-02 0.  1.
    10030    2    1    2    0    0  0.00000000000E+00  0.00000000000E+00  0.10385748310E+04  0.17451585353E+04  0.14024766072E+04 0.  0.
        1    1    3    3  502    0 -0.27456745852E+02  0.65853322375E+03  0.81719013237E+03  0.10498664640E+04  0.50400001928E-02 0. -1.
       -1    1    3    3    0  502  0.27456745852E+02 -0.65853322375E+03  0.22138469859E+03  0.69529207134E+03  0.50400001928E-02 0.  1.
</event>
<event>
 5   0  0.9007180E-04  0.1406333E+04  0.7818609E-02  0.8949247E-01
       -1   -1    0    0    0  501  0.00000000000E+00  0.00000000000E+00  0.31051779325E+03  0.31051779330E+03  0.50400001928E-02 0.  1.
        1   -1    0    0  501    0  0.00000000000E+00  0.00000000000E+00 -0.15923187017E+04  0.15923187017E+04  0.50400001928E-02 0. -1.
    10030    2    1    2    0    0  0.00000000000E+00  0.00000000000E+00 -0.12818009084E+04  0.19028364950E+04  0.14063332314E+04 0.  0.
        2    1    3    3  502    0  0.40717350993E+02  0.33837014256E+03  0.19129675830E+03  0.39082823054E+03  0.25500000920E-02 0.  1.
       -2    1    3    3    0  502 -0.40717350993E+02 -0.33837014256E+03 -0.14730976667E+04  0.15120082644E+04  0.25500000920E-02 0. -1.
</event>
<event>
 5   0  0.9007180E-04  0.1409293E+04  0.7818609E-02  0.8947119E-01
       -1   -1    0    0    0  501  0.00000000000E+00  0.00000000000E+00  0.28305270825E+03  0.28305270830E+03  0.50400001928E-02 0. -1.
        1   -1    0    0  501    0  0.00000000000E+00  0.00000000000E+00 -0.17541836024E+04  0.17541836024E+04  0.50400001928E-02 0.  1.
    10030    2    1    2    0    0  0.00000000000E+00  0.00000000000E+00 -0.14711308942E+04  0.20372363107E+04  0.14092926162E+04 0.  0.
        2    1    3    3  502    0  0.20013904489E+03  0.38165182886E+01 -0.17122173369E+04  0.17238788855E+04  0.25500000920E-02 0.  1.
       -2    1    3    3    0  502 -0.20013904489E+03 -0.38165182886E+01  0.24108644270E+03  0.31335742525E+03  0.25500000920E-02 0. -1.
</event>
<event>
 5   0  0.1706986E-03  0.1399173E+04  0.7818609E-02  0.8954417E-01
        2   -1    0    0  501    0  0.00000000000E+00  0.00000000000E+00  0.29531384190E+04  0.29531384190E+04  0.25500000920E-02 0. -1.
       -2   -1    0    0    0  501  0.00000000000E+00  0.00000000000E+00 -0.16572916676E+03  0.16572916677E+03  0.25500000920E-02 0.  1.
    10030    2    1    2    0    0  0.00000000000E+00  0.00000000000E+00  0.27874092522E+04  0.31188675857E+04  0.13991728550E+04 0.  0.
        3    1    3    3  502    0 -0.12084721750E+03 -0.68814757083E+03  0.14731434076E+04  0.16304302005E+04  0.10100000352E+00 0. -1.
       -3    1    3    3    0  502  0.12084721750E+03  0.68814757083E+03  0.13142658446E+04  0.14884373852E+04  0.10100000352E+00 0.  1.
</event>
<event>
 5   0  0.1648463E-03  0.1369902E+04  0.7818609E-02  0.8975898E-01
       -2   -1    0    0    0  501  0.00000000000E+00  0.00000000000E+00  0.36786964079E+03  0.36786964080E+03  0.25500000920E-02 0. -1.
        2   -1    0    0  501    0  0.00000000000E+00  0.00000000000E+00 -0.12753369854E+04  0.12753369854E+04  0.25500000920E-02 0.  1.
    10030    2    1    2    0    0  0.00000000000E+00  0.00000000000E+00 -0.90746734461E+03  0.16432066262E+04  0.13699018340E+04 0.  0.
        1    1    3    3  502    0  0.32159582740E+03 -0.38552534035E+03 -0.10126370541E+04  0.11302599115E+04  0.50400001928E-02 0.  1.
       -1    1    3    3    0  502 -0.32159582740E+03  0.38552534035E+03  0.10516970950E+03  0.51294671466E+03  0.50400001928E-02 0. -1.
</event>
<event>
 5   0  0.1706986E-03  0.1348245E+04  0.7818609E-02  0.8992158E-01
        2   -1    0    0  501    0  0.00000000000E+00  0.00000000000E+00  0.12871345453E+04  0.12871345453E+04  0.25500000920E-02 0. -1.
       -2   -1    0    0    0  501  0.00000000000E+00  0.00000000000E+00 -0.35306422072E+03  0.35306422073E+03  0.25500000920E-02 0.  1.
    10030    2    1    2    0    0  0.00000000000E+00  0.00000000000E+00  0.93407032459E+03  0.16401987660E+04  0.13482450151E+04 0.  0.
        3    1    3    3  502    0  0.26252489690E+03  0.57935717035E+03  0.19536954148E+03  0.66538960036E+03  0.10100000352E+00 0.  1.
       -3    1    3    3    0  502 -0.26252489690E+03 -0.57935717035E+03  0.73870078311E+03  0.97480916568E+03  0.10100000352E+00 0. -1.
</event>
<event>
 5   0  0.9639548E-04  0.1390430E+04  0.7818609E-02  0.8960775E-01
        1   -1    0    0  501    0  0.00000000000E+00  0.00000000000E+00  0.27560270582E+03  0.27560270587E+03  0.50400001928E-02 0. -1.
       -1   -1    0    0    0  501  0.00000000000E+00  0.00000000000E+00 -0.17536968680E+04  0.17536968680E+04  0.50400001928E-02 0.  1.
    10030    2    1    2    0    0  0.00000000000E+00  0.00000000000E+00 -0.14780941621E+04  0.20292995738E+04  0.13904295769E+04 0.  0.
        1    1    3    3  502    0 -0.26579996657E+03 -0.53889796129E+03 -0.22872468018E+03  0.64294293235E+03  0.50400001928E-02 0. -1.
       -1    1    3    3    0  502  0.26579996657E+03  0.53889796129E+03 -0.12493694820E+04  0.13863566415E+04  0.50400001928E-02 0.  1.
</event>
<event>
 5   0  0.1578965E-03  0.1427281E+04  0.7818609E-02  0.8934305E-01
        2   -1    0    0  501    0  0.00000000000E+00  0.00000000000E+00  0.14338479075E+04  0.14338479075E+04  0.25500000920E-02 0.  1.
       -2   -1    0    0    0  501  0.00000000000E+00  0.00000000000E+00 -0.35518589923E+03  0.35518589924E+03  0.25500000920E-02 0. -1.
    10030    2    1    2    0    0  0.00000000000E+00  0.00000000000E+00  0.10786620082E+04  0.17890338067E+04  0.14272807129E+04 0.  0.
        2    1    3    3  502    0  0.93716006108E+02 -0.46918212281E+03 -0.12437137629E+03  0.49435088087E+03  0.25500000920E-02 0. -1.
       -2    1    3    3    0  502 -0.93716006108E+02  0.46918212281E+03  0.12030333845E+04  0.12946829258E+04  0.25500000920E-02 0.  1.
</event>
<event>
 5   0  0.1578965E-03  0.1341424E+04  0.7818609E-02  0.8997345E-01
        2   -1    0    0  501    0  0.00000000000E+00  0.00000000000E+00  0.55576894656E+03  0.55576894657E+03  0.25500000920E-02 0. -1.
       -2   -1    0    0    0  501  0.00000000000E+00  0.00000000000E+00 -0.80942776431E+03  0.80942776431E+03  0.25500000920E-02 0.  1.
    10030    2    1    2    0    0  0.00000000000E+00  0.00000000000E+00 -0.25365881775E+03  0.13651967109E+04  0.13414243414E+04 0.  0.
        2    1    3    3  502    0 -0.41692767904E+03 -0.50425226028E+03  0.23282940861E+02  0.65470690151E+03  0.25500000920E-02 0. -1.
       -2    1    3    3    0  502  0.41692767904E+03  0.50425226028E+03 -0.27694175861E+03  0.71048980937E+03  0.25500000920E-02 0.  1.
</event>
<event>
 5   0  0.9639548E-04  0.1460370E+04  0.7818609E-02  0.8911243E-01
       -1   -1    0    0    0  501  0.00000000000E+00  0.00000000000E+00  0.36290410676E+03  0.36290410680E+03  0.50400001928E-02 0. -1.
        1   -1    0    0  501    0  0.00000000000E+00  0.00000000000E+00 -0.14691765000E+04  0.14691765000E+04  0.50400001928E-02 0.  1.
    10030    2    1    2    0    0  0.00000000000E+00  0.00000000000E+00 -0.11062723932E+04  0.18320806068E+04  0.14603700701E+04 0.  0.
        1    1    3    3  502    0  0.72643328749E+03  0.30738351556E+01 -0.64579689769E+03  0.97199197668E+03  0.50400001928E-02 0. -1.
       -1    1    3    3    0  502 -0.72643328749E+03 -0.30738351556E+01 -0.46047549554E+03  0.86008863011E+03  0.50400001928E-02 0.  1.
</event>
<event>
 5   0  0.8502300E-04  0.1406809E+04  0.7818609E-02  0.8948905E-01
        1   -1    0    0  501    0  0.00000000000E+00  0.00000000000E+00  0.89225327205E+03  0.89225327206E+03  0.50400001928E-02 0.  1.
       -1   -1    0    0    0  501  0.00000000000E+00  0.00000000000E+00 -0.55452618516E+03  0.55452618518E+03  0.50400001928E-02 0. -1.
    10030    2    1    2    0    0  0.00000000000E+00  0.00000000000E+00  0.33772708689E+03  0.14467794572E+04  0.14068088757E+04 0.  0.
        4    1    3    3  502    0  0.61005744675E+03  0.34848313561E+03  0.20397453926E+03  0.73158581841E+03  0.12699999809E+01 0.  1.
       -4    1    3    3    0  502 -0.61005744675E+03 -0.34848313561E+03  0.13375254763E+03  0.71519363884E+03  0.12699999809E+01 0. -1.
</event>
<event>
 5   0  0.8609148E-04  0.1406407E+04  0.7818609E-02  0.8949194E-01
        1   -1    0    0  501    0  0.00000000000E+00  0.00000000000E+00  0.12144724511E+04  0.12144724512E+04  0.50400001928E-02 0. -1.
       -1   -1    0    0    0  501  0.00000000000E+00  0.00000000000E+00 -0.40716864955E+03  0.40716864958E+03  0.50400001928E-02 0.  1.
    10030    2    1    2    0    0  0.00000000000E+00  0.00000000000E+00  0.80730380159E+03  0.16216411007E+04  0.14064069225E+04 0.  0.
        5    1    3    3  502    0 -0.10433692913E+03  0.17662334430E+03 -0.37188190608E+03  0.42473549723E+03  0.46999998093E+01 0.  1.
       -5    1    3    3    0  502  0.10433692913E+03 -0.17662334430E+03  0.11791857077E+04  0.11969056035E+04  0.46999998093E+01 0. -1.
</event>
<event>
 5   0  0.1648213E-03  0.1398316E+04  0.7818609E-02  0.8955038E-01
       -2   -1    0    0    0  501  0.00000000000E+00  0.00000000000E+00  0.45269647902E+03  0.45269647903E+03  0.25500000920E-02 0.  1.
        2   -1    0    0  501    0  0.00000000000E+00  0.00000000000E+00 -0.10798011792E+04  0.10798011792E+04  0.25500000920E-02 0. -1.
    10030    2    1    2    0    0  0.00000000000E+00  0.00000000000E+00 -0.62710470019E+03  0.15324976583E+04  0.13983164047E+04 0.  0.
        4    1    3    3  502    0  0.22393481757E+03 -0.56825521590E+03 -0.68643590011E+03  0.91883439791E+03  0.12699999809E+01 0. -1.
       -4    1    3    3    0  502 -0.22393481757E+03  0.56825521590E+03  0.59331199912E+02  0.61366326035E+03  0.12699999809E+01 0.  1.
</event>
<event>
 5   0  0.8609148E-04  0.1394077E+04  0.7818609E-02  0.8958117E-01
       -1   -1    0    0    0  501  0.00000000000E+00  0.00000000000E+00  0.47978471815E+03  0.47978471817E+03  0.50400001928E-02 0.  1.
        1   -1    0    0  501    0  0.00000000000E+00  0.00000000000E+00 -0.10126682139E+04  0.10126682140E+04  0.50400001928E-02 0. -1.
    10030    2    1    2    0    0  0.00000000000E+00  0.00000000000E+00 -0.53288349580E+03  0.14924529321E+04  0.13940770906E+04 0.  0.
        5    1    3    3  502    0  0.35181278490E+02  0.65861129646E+03 -0.25067272180E+02  0.66004319579E+03  0.46999998093E+01 0.  1.
       -5    1    3    3    0  502 -0.35181278490E+02 -0.65861129646E+03 -0.50781622362E+03  0.83240973634E+03  0.46999998093E+01 0. -1.
</event>
<event>
 5   0  0.1706986E-03  0.1460786E+04  0.7818609E-02  0.8910957E-01
        2   -1    0    0  501    0  0.00000000000E+00  0.00000000000E+00  0.17503286926E+04  0.17503286926E+04  0.25500000920E-02 0.  1.
       -2   -1    0    0    0  501  0.00000000000E+00  0.00000000000E+00 -0.30478513012E+03  0.30478513013E+03  0.25500000920E-02 0. -1.
    10030    2    1    2    0    0  0.00000000000E+00  0.00000000000E+00  0.14455435625E+04  0.20551138227E+04  0.14607863065E+04 0.  0.
        3    1    3    3  502    0  0.44862672695E+03  0.36487371221E+02  0.15320212109E+04  0.15967737064E+04  0.10100000352E+00 0.  1.
       -3    1    3    3    0  502 -0.44862672695E+03 -0.36487371221E+02 -0.86477648453E+02  0.45834011637E+03  0.10100000352E+00 0. -1.
</event>
<event>
 5   0  0.8609148E-04  0.1377701E+04  0.7818609E-02  0.8970120E-01
       -1   -1    0    0    0  501  0.00000000000E+00  0.00000000000E+00  0.77875850097E+03  0.77875850098E+03  0.50400001928E-02 0. -1.
        1   -1    0    0  501    0  0.00000000000E+00  0.00000000000E+00 -0.60932237686E+03  0.60932237688E+03  0.50400001928E-02 0.  1.
    10030    2    1    2    0    0  0.00000000000E+00  0.00000000000E+00  0.16943612411E+03  0.13880808779E+04  0.13777009557E+04 0.  0.
        5    1    3    3  502    0  0.68688699488E+03  0.51561135131E+02  0.89290584800E+02  0.69459858402E+03  0.46999998093E+01 0.  1.
       -5    1    3    3    0  502 -0.68688699488E+03 -0.51561135131E+02  0.80145539312E+02  0.69348229384E+03  0.46999998093E+01 0. -1.
</event>
<event>
 5   0  0.8673728E-04  0.1397059E+04  0.7818609E-02  0.8955950E-01
       -1   -1    0    0    0  501  0.00000000000E+00  0.00000000000E+00  0.37396248102E+03  0.37396248105E+03  0.50400001928E-02 0. -1.
        1   -1    0    0  501    0  0.00000000000E+00  0.00000000000E+00 -0.13047928852E+04  0.13047928852E+04  0.50400001928E-02 0.  1.
    10030    2    1    2    0    0  0.00000000000E+00  0.00000000000E+00 -0.93083040420E+03  0.16787553663E+04  0.13970591750E+04 0.  0.
        3    1    3    3  502    0  0.20143982151E+02 -0.45971372863E+03 -0.10969325714E+04  0.11895392254E+04  0.10100000352E+00 0.  1.
       -3    1    3    3    0  502 -0.20143982151E+02  0.45971372863E+03  0.16610216725E+03  0.48921614086E+03  0.10100000352E+00 0. -1.
</event>
<event>
 5   0  0.8673728E-04  0.1394570E+04  0.7818609E-02  0.8957759E-01
        1   -1    0    0  501    0  0.00000000000E+00  0.00000000000E+00  0.52784043190E+03  0.52784043193E+03  0.50400001928E-02 0. -1.
       -1   -1    0    0    0  501  0.00000000000E+00  0.00000000000E+00 -0.92112334662E+03  0.92112334664E+03  0.50400001928E-02 0.  1.
    10030    2    1    2    0    0  0.00000000000E+00  0.00000000000E+00 -0.39328291472E+03  0.14489637786E+04  0.13945696758E+04 0.  0.
        3    1    3    3  502    0 -0.69002333255E+03  0.33483606936E+02 -0.29495115356E+03  0.75116545752E+03  0.10100000352E+00 0.  1.
       -3    1    3    3    0  502  0.69002333255E+03 -0.33483606936E+02 -0.98331761164E+02  0.69779832104E+03  0.10100000352E+00 0. -1.
</event>
<event>
 5   0  0.8609148E-04  0.1410101E+04  0.7818609E-02  0.8946540E-01
        1   -1    0    0  501    0  0.00000000000E+00  0.00000000000E+00  0.23577573103E+04  0.23577573103E+04  0.50400001928E-02 0.  1.
       -1   -1    0    0    0  501  0.00000000000E+00  0.00000000000E+00 -0.21083420629E+03  0.21083420635E+03  0.50400001928E-02 0. -1.
    10030    2    1    2    0    0  0.00000000000E+00  0.00000000000E+00  0.21469231040E+04  0.25685915167E+04  0.14101005513E+04 0.  0.
        5    1    3    3  502    0 -0.27452823425E+03 -0.28367660163E+03  0.21375363340E+04  0.21736885322E+04  0.46999998093E+01 0.  1.
       -5    1    3    3    0  502  0.27452823425E+03  0.28367660163E+03  0.93867700298E+01  0.39490298450E+03  0.46999998093E+01 0. -1.
</event>
<event>
 5   0  0.1648213E-03  0.1412675E+04  0.7818609E-02  0.8944695E-01
        2   -1    0    0  501    0  0.00000000000E+00  0.00000000000E+00  0.94683168484E+03  0.94683168484E+03  0.25500000920E-02 0. -1.
       -2   -1    0    0    0  501  0.00000000000E+00  0.00000000000E+00 -0.52692856946E+03  0.52692856947E+03  0.25500000920E-02 0.  1.
    10030    2    1    2    0    0  0.00000000000E+00  0.00000000000E+00  0.41990311538E+03  0.14737602543E+04  0.14126750019E+04 0.  0.
        4    1    3    3  502    0  0.28394288634E+03 -0.25753851016E+03 -0.40896499996E+03  0.56053869716E+03  0.12699999809E+01 0.  1.
       -4    1    3    3    0  502 -0.28394288634E+03  0.25753851016E+03  0.82886811534E+03  0.91322155715E+03  0.12699999809E+01 0. -1.
</event>
<event>
 5   0  0.1706986E-03  0.1345574E+04  0.7818609E-02  0.8994185E-01
       -2   -1    0    0    0  501  0.00000000000E+00  0.00000000000E+00  0.12605003772E+04  0.12605003772E+04  0.25500000920E-02 0. -1.
        2   -1    0    0  501    0  0.00000000000E+00  0.00000000000E+00 -0.35909731018E+03  0.35909731019E+03  0.25500000920E-02 0.  1.
    10030    2    1    2    0    0  0.00000000000E+00  0.00000000000E+00  0.90140306705E+03  0.16195976874E+04  0.13455739221E+04 0.  0.
        3    1    3    3  502    0 -0.19923081730E+03  0.48508994464E+03 -0.56600307006E+02  0.52745500084E+03  0.10100000352E+00 0.  1.
       -3    1    3    3    0  502  0.19923081730E+03 -0.48508994464E+03  0.95800337406E+03  0.10921426866E+04  0.10100000352E+00 0. -1.
</event>
<event>
 5   0  0.1578965E-03  0.1401573E+04  0.7818609E-02  0.8952681E-01
        2   -1    0    0  501    0  0.00000000000E+00  0.00000000000E+00  0.48728904073E+03  0.48728904073E+03  0.25500000920E-02 0. -1.
       -2   -1    0    0    0  501  0.00000000000E+00  0.00000000000E+00 -0.10078235936E+04  0.10078235936E+04  0.25500000920E-02 0.  1.
    10030    2    1    2    0    0  0.00000000000E+00  0.00000000000E+00 -0.52053455286E+03  0.14951126343E+04  0.14015725342E+04 0.  0.
        2    1    3    3  502    0 -0.41971784253E+02 -0.83231380476E+02  0.48064624202E+03  0.48960178037E+03  0.25500000920E-02 0. -1.
       -2    1    3    3    0  502  0.41971784253E+02  0.83231380476E+02 -0.10011807949E+04  0.10055108539E+04  0.25500000920E-02 0.  1.
</event>
<event>
 5   0  0.1648463E-03  0.1088634E+04  0.7818609E-02  0.9216341E-01
        2   -1    0    0  501    0  0.00000000000E+00  0.00000000000E+00  0.15882805666E+04  0.15882805666E+04  0.25500000920E-02 0. -1.
       -2   -1    0    0    0  501  0.00000000000E+00  0.00000000000E+00 -0.18654211184E+03  0.18654211186E+03  0.25500000920E-02 0.  1.
    10030    2    1    2    0    0  0.00000000000E+00  0.00000000000E+00  0.14017384548E+04  0.17748226785E+04  0.10886343943E+04 0.  0.
        1    1    3    3  502    0 -0.40686810280E+03  0.25179451671E+03  0.27780480445E+03  0.55327899031E+03  0.50400001928E-02 0.  1.
       -1    1    3    3    0  502  0.40686810280E+03 -0.25179451671E+03  0.11239336503E+04  0.12215436882E+04  0.50400001928E-02 0. -1.
</event>
<event>
 5   0  0.1605214E-03  0.1408766E+04  0.7818609E-02  0.8947497E-01
        2   -1    0    0  501    0  0.00000000000E+00  0.00000000000E+00  0.58502323680E+03  0.58502323681E+03  0.25500000920E-02 0. -1.
       -2   -1    0    0    0  501  0.00000000000E+00  0.00000000000E+00 -0.84809564217E+03  0.84809564218E+03  0.25500000920E-02 0.  1.
    10030    2    1    2    0    0  0.00000000000E+00  0.00000000000E+00 -0.26307240537E+03  0.14331188790E+04  0.14087663507E+04 0.  0.
        5    1    3    3  502    0  0.13136134595E+03 -0.31159574410E+03 -0.76010550220E+03  0.83194361312E+03  0.46999998093E+01 0.  1.
       -5    1    3    3    0  502 -0.13136134595E+03  0.31159574410E+03  0.49703309682E+03  0.60117526586E+03  0.46999998093E+01 0. -1.
</event>
<event>
 5   0  0.1706986E-03  0.1066219E+04  0.7818609E-02  0.9238758E-01
       -2   -1    0    0    0  501  0.00000000000E+00  0.00000000000E+00  0.45143047103E+03  0.45143047104E+03  0.25500000920E-02 0. -1.
        2   -1    0    0  501    0  0.00000000000E+00  0.00000000000E+00 -0.62956658589E+03  0.62956658589E+03  0.25500000920E-02 0.  1.
    10030    2    1    2    0    0  0.00000000000E+00  0.00000000000E+00 -0.17813611485E+03  0.10809970569E+04  0.10662186275E+04 0.  0.
        3    1    3    3  502    0 -0.22095984470E+03  0.39289334948E+03 -0.37764828691E+03  0.58805329337E+03  0.10100000352E+00 0.  1.
       -3    1    3    3    0  502  0.22095984470E+03 -0.39289334948E+03  0.19951217206E+03  0.49294376356E+03  0.10100000352E+00 0. -1.
</event>
<event>
 5   0  0.8673728E-04  0.1400512E+04  0.7818609E-02  0.8953448E-01
       -1   -1    0    0    0  501  0.00000000000E+00  0.00000000000E+00  0.12231594192E+04  0.12231594193E+04  0.50400001928E-02 0. -1.
        1   -1    0    0  501    0  0.00000000000E+00  0.00000000000E+00 -0.40089495403E+03  0.40089495406E+03  0.50400001928E-02 0.  1.
    10030    2    1    2    0    0  0.00000000000E+00  0.00000000000E+00  0.82226446521E+03  0.16240543733E+04  0.14005119624E+04 0.  0.
        3    1    3    3  502    0 -0.53613090003E+03  0.26437275661E+03 -0.11815910194E+02  0.59788704814E+03  0.10100000352E+00 0.  1.
       -3    1    3    3    0  502  0.53613090003E+03 -0.26437275661E+03  0.83408037540E+03  0.10261673252E+04  0.10100000352E+00 0. -1.
</event>
<event>
 5   0  0.8673728E-04  0.1410168E+04  0.7818609E-02  0.8946491E-01
       -1   -1    0    0    0  501  0.00000000000E+00  0.00000000000E+00  0.35245035619E+03  0.35245035623E+03  0.50400001928E-02 0. -1.
        1   -1    0    0  501    0  0.00000000000E+00  0.00000000000E+00 -0.14105347113E+04  0.14105347113E+04  0.50400001928E-02 0.  1.
    10030    2    1    2    0    0  0.00000000000E+00  0.00000000000E+00 -0.10580843551E+04  0.17629850675E+04  0.14101680204E+04 0.  0.
        3    1    3    3  502    0 -0.50889757284E+03  0.39066662725E+03 -0.16338139674E+03  0.66203522889E+03  0.10100000352E+00 0. -1.
       -3    1    3    3    0  502  0.50889757284E+03 -0.39066662725E+03 -0.89470295835E+03  0.11009498386E+04  0.10100000352E+00 0.  1.
</event>
<event>
 5   0  0.8609148E-04  0.1401857E+04  0.7818609E-02  0.8952475E-01
        1   -1    0    0  501    0  0.00000000000E+00  0.00000000000E+00  0.74842301866E+03  0.74842301867E+03  0.50400001928E-02 0. -1.
       -1   -1    0    0    0  501  0.00000000000E+00  0.00000000000E+00 -0.65644839282E+03  0.65644839284E+03  0.50400001928E-02 0.  1.
    10030    2    1    2    0    0  0.00000000000E+00  0.00000000000E+00  0.91974625832E+02  0.14048714115E+04  0.14018574646E+04 0.  0.
        5    1    3    3  502    0 -0.20493043292E+03  0.61543047020E+03 -0.22015445920E+03  0.68501184069E+03  0.46999998093E+01 0. -1.
       -5    1    3    3    0  502  0.20493043292E+03 -0.61543047020E+03  0.31212908504E+03  0.71985957082E+03  0.46999998093E+01 0.  1.
</event>
<event>
 5   0  0.8673728E-04  0.1409675E+04  0.7818609E-02  0.8946845E-01
        1   -1    0    0  501    0  0.00000000000E+00  0.00000000000E+00  0.22964520430E+04  0.22964520430E+04  0.50400001928E-02 0.  1.
       -1   -1    0    0    0  501  0.00000000000E+00  0.00000000000E+00 -0.21633198860E+03  0.21633198866E+03  0.50400001928E-02 0. -1.
    10030    2    1    2    0    0  0.00000000000E+00  0.00000000000E+00  0.20801200544E+04  0.25127840317E+04  0.14096751928E+04 0.  0.
        3    1    3    3  502    0 -0.54397817468E+03  0.19322422939E+03  0.31918671020E+03  0.65964234515E+03  0.10100000352E+00 0. -1.
       -3    1    3    3    0  502  0.54397817468E+03 -0.19322422939E+03  0.17609333442E+04  0.18531416865E+04  0.10100000352E+00 0.  1.
</event>
<event>
 5   0  0.1578965E-03  0.1367965E+04  0.7818609E-02  0.8977339E-01
       -2   -1    0    0    0  501  0.00000000000E+00  0.00000000000E+00  0.31422029671E+03  0.31422029672E+03  0.25500000920E-02 0. -1.
        2   -1    0    0  501    0  0.00000000000E+00  0.00000000000E+00 -0.14888672016E+04  0.14888672016E+04  0.25500000920E-02 0.  1.
    10030    2    1    2    0    0  0.00000000000E+00  0.00000000000E+00 -0.11746469049E+04  0.18030874983E+04  0.13679653414E+04 0.  0.
        2    1    3    3  502    0 -0.40654852019E+03  0.25920674328E+03 -0.12267789186E+04  0.13181260752E+04  0.25500000920E-02 0.  1.
       -2    1    3    3    0  502  0.40654852019E+03 -0.25920674328E+03  0.52132013718E+02  0.48496142309E+03  0.25500000920E-02 0. -1.
</event>
<event>
 5   0  0.1706986E-03  0.1361402E+04  0.7818609E-02  0.8982241E-01
        2   -1    0    0  501    0  0.00000000000E+00  0.00000000000E+00  0.14675227183E+04  0.14675227183E+04  0.25500000920E-02 0. -1.
       -2   -1    0    0    0  501  0.00000000000E+00  0.00000000000E+00 -0.31573892483E+03  0.31573892484E+03  0.25500000920E-02 0.  1.
    10030    2    1    2    0    0  0.00000000000E+00  0.00000000000E+00  0.11517837935E+04  0.17832616432E+04  0.13614022848E+04 0.  0.
        3    1    3    3  502    0  0.53605868032E+03 -0.66737080504E+02  0.33375427142E+02  0.54122700967E+03  0.10100000352E+00 0.  1.
       -3    1    3    3    0  502 -0.53605868032E+03  0.66737080504E+02  0.11184083664E+04  0.12420346335E+04  0.10100000352E+00 0. -1.
</event>
<event>
 5   0  0.8673728E-04  0.1389927E+04  0.7818609E-02  0.8961142E-01
        1   -1    0    0  501    0  0.00000000000E+00  0.00000000000E+00  0.14655105689E+04  0.14655105689E+04  0.50400001928E-02 0.  1.
       -1   -1    0    0    0  501  0.00000000000E+00  0.00000000000E+00 -0.32956058782E+03  0.32956058786E+03  0.50400001928E-02 0. -1.
    10030    2    1    2    0    0  0.00000000000E+00  0.00000000000E+00  0.11359499811E+04  0.17950711568E+04  0.13899273716E+04 0.  0.
        3    1    3    3  502    0 -0.16114091900E+03 -0.17231557571E+03 -0.27626100379E+03  0.36328942432E+03  0.10100000352E+00 0. -1.
       -3    1    3    3    0  502  0.16114091900E+03  0.17231557571E+03  0.14122109849E+04  0.14317817325E+04  0.10100000352E+00 0.  1.
</event>
<event>
 5   0  0.9007180E-04  0.1354277E+04  0.7818609E-02  0.8987597E-01
       -1   -1    0    0    0  501  0.00000000000E+00  0.00000000000E+00  0.21587258637E+04  0.21587258637E+04  0.50400001928E-02 0.  1.
        1   -1    0    0  501    0  0.00000000000E+00  0.00000000000E+00 -0.21240142370E+03  0.21240142376E+03  0.50400001928E-02 0. -1.
    10030    2    1    2    0    0  0.00000000000E+00  0.00000000000E+00  0.19463244400E+04  0.23711272875E+04  0.13542768504E+04 0.  0.
        2    1    3    3  502    0 -0.21127793162E+03 -0.41435575731E+03  0.18347969111E+04  0.18928308860E+04  0.25500000920E-02 0.  1.
       -2    1    3    3    0  502  0.21127793162E+03  0.41435575731E+03  0.11152752898E+03  0.47829640154E+03  0.25500000920E-02 0. -1.
</event>
<event>
 5   0  0.1578965E-03  0.1194125E+04  0.7818609E-02  0.9118015E-01
        2   -1    0    0  501    0  0.00000000000E+00  0.00000000000E+00  0.47793423207E+03  0.47793423207E+03  0.25500000920E-02 0. -1.
       -2   -1    0    0    0  501  0.00000000000E+00  0.00000000000E+00 -0.74588402406E+03  0.74588402406E+03  0.25500000920E-02 0.  1.
    10030    2    1    2    0    0  0.00000000000E+00  0.00000000000E+00 -0.26794979199E+03  0.12238182561E+04  0.11941247979E+04 0.  0.
        2    1    3    3  502    0 -0.28863118848E+03 -0.40177981784E+03 -0.47657548599E+03  0.68692006729E+03  0.25500000920E-02 0.  1.
       -2    1    3    3    0  502  0.28863118848E+03  0.40177981784E+03  0.20862569400E+03  0.53689818885E+03  0.25500000920E-02 0. -1.
</event>
<event>
 5   0  0.8502300E-04  0.1381548E+04  0.7818609E-02  0.8967284E-01
       -1   -1    0    0    0  501  0.00000000000E+00  0.00000000000E+00  0.41469013326E+03  0.41469013329E+03  0.50400001928E-02 0.  1.
        1   -1    0    0  501    0  0.00000000000E+00  0.00000000000E+00 -0.11506640695E+04  0.11506640695E+04  0.50400001928E-02 0. -1.
    10030    2    1    2    0    0  0.00000000000E+00  0.00000000000E+00 -0.73597393626E+03  0.15653542028E+04  0.13815484593E+04 0.  0.
        4    1    3    3  502    0  0.42158745895E+03  0.31854189031E+03 -0.87211165802E+03  0.10196986213E+04  0.12699999809E+01 0. -1.
       -4    1    3    3    0  502 -0.42158745895E+03 -0.31854189031E+03  0.13613772175E+03  0.54565558148E+03  0.12699999809E+01 0.  1.
</event>
<event>
 5   0  0.1648463E-03  0.1403122E+04  0.7818609E-02  0.8951562E-01
        2   -1    0    0  501    0  0.00000000000E+00  0.00000000000E+00  0.54233937888E+03  0.54233937889E+03  0.25500000920E-02 0. -1.
       -2   -1    0    0    0  501  0.00000000000E+00  0.00000000000E+00 -0.90752719604E+03  0.90752719604E+03  0.25500000920E-02 0.  1.
    10030    2    1    2    0    0  0.00000000000E+00  0.00000000000E+00 -0.36518781716E+03  0.14498665749E+04  0.14031218562E+04 0.  0.
        1    1    3    3  502    0 -0.28692969533E+03  0.60550508241E+03  0.32232910793E+02  0.67082338619E+03  0.50400001928E-02 0.  1.
       -1    1    3    3    0  502  0.28692969533E+03 -0.60550508241E+03 -0.39742072795E+03  0.77904318874E+03  0.50400001928E-02 0. -1.
</event>
<event>
 5   0  0.8502300E-04  0.1337550E+04  0.7818609E-02  0.9000307E-01
       -1   -1    0    0    0  501  0.00000000000E+00  0.00000000000E+00  0.10614825287E+04  0.10614825287E+04  0.50400001928E-02 0. -1.
        1   -1    0    0  501    0  0.00000000000E+00  0.00000000000E+00 -0.42135389027E+03  0.42135389030E+03  0.50400001928E-02 0.  1.
    10030    2    1    2    0    0  0.00000000000E+00  0.00000000000E+00  0.64012863840E+03  0.14828364190E+04  0.13375496895E+04 0.  0.
        4    1    3    3  502    0  0.44724022223E+03 -0.38173458103E+03  0.67328352293E+03  0.89390011852E+03  0.12699999809E+01 0. -1.
       -4    1    3    3    0  502 -0.44724022223E+03  0.38173458103E+03 -0.33154884527E+02  0.58893630047E+03  0.12699999809E+01 0.  1.
</event>
<event>
 5   0  0.8673728E-04  0.1438204E+04  0.7818609E-02  0.8926619E-01
       -1   -1    0    0    0  501  0.00000000000E+00  0.00000000000E+00  0.85026240413E+03  0.85026240415E+03  0.50400001928E-02 0.  1.
        1   -1    0    0  501    0  0.00000000000E+00  0.00000000000E+00 -0.60817435780E+03  0.60817435782E+03  0.50400001928E-02 0. -1.
    10030    2    1    2    0    0  0.00000000000E+00  0.00000000000E+00  0.24208804633E+03  0.14584367620E+04  0.14382041463E+04 0.  0.
        3    1    3    3  502    0  0.39308460648E+03  0.87666259612E+02  0.72516551759E+03  0.82949738940E+03  0.10100000352E+00 0.  1.
       -3    1    3    3    0  502 -0.39308460648E+03 -0.87666259612E+02 -0.48307747126E+03  0.62893937257E+03  0.10100000352E+00 0. -1.
</event>
<event>
 5   0  0.9007180E-04  0.1370871E+04  0.7818609E-02  0.8975178E-01
        1   -1    0    0  501    0  0.00000000000E+00  0.00000000000E+00  0.46380415400E+03  0.46380415403E+03  0.50400001928E-02 0.  1.
       -1   -1    0    0    0  501  0.00000000000E+00  0.00000000000E+00 -0.10129741111E+04  0.10129741111E+04  0.50400001928E-02 0. -1.
    10030    2    1    2    0    0  0.00000000000E+00  0.00000000000E+00 -0.54916995713E+03  0.14767782652E+04  0.13708706732E+04 0.  0.
        2    1    3    3  502    0  0.48137144711E+03  0.11762344883E+03  0.23557022483E+03  0.54867757075E+03  0.25500000920E-02 0.  1.
       -2    1    3    3    0  502 -0.48137144711E+03 -0.11762344883E+03 -0.78474018197E+03  0.92810069443E+03  0.25500000920E-02 0. -1.
</event>
<event>
 5   0  0.1648463E-03  0.1394947E+04  0.7818609E-02  0.8957484E-01
       -2   -1    0    0    0  501  0.00000000000E+00  0.00000000000E+00  0.33715166718E+03  0.33715166719E+03  0.25500000920E-02 0. -1.
        2   -1    0    0  501    0  0.00000000000E+00  0.00000000000E+00 -0.14428795332E+04  0.14428795332E+04  0.25500000920E-02 0.  1.
    10030    2    1    2    0    0  0.00000000000E+00  0.00000000000E+00 -0.11057278661E+04  0.17800312004E+04  0.13949469383E+04 0.  0.
        1    1    3    3  502    0 -0.38995776438E+01 -0.51916809175E+03 -0.11471810642E+04  0.12591962152E+04  0.50400001928E-02 0.  1.
       -1    1    3    3    0  502  0.38995776438E+01  0.51916809175E+03  0.41453198157E+02  0.52083498525E+03  0.50400001928E-02 0. -1.
</event>
<event>
 5   0  0.1605214E-03  0.1381552E+04  0.7818609E-02  0.8967281E-01
       -2   -1    0    0    0  501  0.00000000000E+00  0.00000000000E+00  0.21518658215E+03  0.21518658217E+03  0.25500000920E-02 0. -1.
        2   -1    0    0  501    0  0.00000000000E+00  0.00000000000E+00 -0.22174787674E+04  0.22174787674E+04  0.25500000920E-02 0.  1.
    10030    2    1    2    0    0  0.00000000000E+00  0.00000000000E+00 -0.20022921852E+04  0.24326653496E+04  0.13815522820E+04 0.  0.
        5    1    3    3  502    0  0.25821880238E+03 -0.35297702114E+03 -0.19426168274E+04  0.19912438212E+04  0.46999998093E+01 0.  1.
       -5    1    3    3    0  502 -0.25821880238E+03  0.35297702114E+03 -0.59675357818E+02  0.44142152835E+03  0.46999998093E+01 0. -1.
</event>
<event>
 5   0  0.8609148E-04  0.1323918E+04  0.7818609E-02  0.9010810E-01
       -1   -1    0    0    0  501  0.00000000000E+00  0.00000000000E+00  0.41581529385E+03  0.41581529388E+03  0.50400001928E-02 0.  1.
        1   -1    0    0  501    0  0.00000000000E+00  0.00000000000E+00 -0.10538088931E+04  0.10538088931E+04  0.50400001928E-02 0. -1.
    10030    2    1    2    0    0  0.00000000000E+00  0.00000000000E+00 -0.63799359926E+03  0.14696241870E+04  0.13239182068E+04 0.  0.
        5    1    3    3  502    0 -0.91204187774E+02 -0.65308365605E+03 -0.25492721058E+03  0.70699818837E+03  0.46999998093E+01 0.  1.
       -5    1    3    3    0  502  0.91204187774E+02  0.65308365605E+03 -0.38306638868E+03  0.76262599864E+03  0.46999998093E+01 0. -1.
</event>
<event>
 5   0  0.1648213E-03  0.1445696E+04  0.7818609E-02  0.8921390E-01
       -2   -1    0    0    0  501  0.00000000000E+00  0.00000000000E+00  0.13070998394E+04  0.13070998394E+04  0.25500000920E-02 0.  1.
        2   -1    0    0  501    0  0.00000000000E+00  0.00000000000E+00 -0.39974719354E+03  0.39974719354E+03  0.25500000920E-02 0. -1.
    10030    2    1    2    0    0  0.00000000000E+00  0.00000000000E+00  0.90735264587E+03  0.17068470329E+04  0.14456963616E+04 0.  0.
        4    1    3    3  502    0 -0.42236201174E+03 -0.65274309407E+02  0.11419575540E+04  0.12193109007E+04  0.12699999809E+01 0.  1.
       -4    1    3    3    0  502  0.42236201174E+03  0.65274309407E+02 -0.23460490816E+03  0.48753613226E+03  0.12699999809E+01 0. -1.
</event>
<event>
 5   0  0.9639548E-04  0.1396071E+04  0.7818609E-02  0.8956667E-01
       -1   -1    0    0    0  501  0.00000000000E+00  0.00000000000E+00  0.50408554601E+03  0.50408554604E+03  0.50400001928E-02 0. -1.
        1   -1    0    0  501    0  0.00000000000E+00  0.00000000000E+00 -0.96660905202E+03  0.96660905203E+03  0.50400001928E-02 0.  1.
    10030    2    1    2    0    0  0.00000000000E+00  0.00000000000E+00 -0.46252350601E+03  0.14706945981E+04  0.13960711326E+04 0.  0.
        1    1    3    3  502    0 -0.16760840566E+03 -0.16494043425E+03  0.46110239087E+03  0.51760345767E+03  0.50400001928E-02 0. -1.
       -1    1    3    3    0  502  0.16760840566E+03  0.16494043425E+03 -0.92362589688E+03  0.95309114040E+03  0.50400001928E-02 0.  1.
</event>
<event>
 5   0  0.8609148E-04  0.1422862E+04  0.7818609E-02  0.8937434E-01
        1   -1    0    0  501    0  0.00000000000E+00  0.00000000000E+00  0.79877273116E+03  0.79877273117E+03  0.50400001928E-02 0.  1.
       -1   -1    0    0    0  501  0.00000000000E+00  0.00000000000E+00 -0.63363939572E+03  0.63363939574E+03  0.50400001928E-02 0. -1.
    10030    2    1    2    0    0  0.00000000000E+00  0.00000000000E+00  0.16513333544E+03  0.14324121269E+04  0.14228617230E+04 0.  0.
        5    1    3    3  502    0  0.65777531207E+03 -0.24877237051E+03  0.19078577158E+03  0.72868192934E+03  0.46999998093E+01 0.  1.
       -5    1    3    3    0  502 -0.65777531207E+03  0.24877237051E+03 -0.25652436141E+02  0.70373019758E+03  0.46999998093E+01 0. -1.
</event>
<event>
 5   0  0.9007180E-04  0.1428825E+04  0.7818609E-02  0.8933214E-01
        1   -1    0    0  501    0  0.00000000000E+00  0.00000000000E+00  0.13532764019E+04  0.13532764019E+04  0.50400001928E-02 0. -1.
       -1   -1    0    0    0  501  0.00000000000E+00  0.00000000000E+00 -0.37714793574E+03  0.37714793577E+03  0.50400001928E-02 0.  1.
    10030    2    1    2    0    0  0.00000000000E+00  0.00000000000E+00  0.97612846612E+03  0.17304243376E+04  0.14288252538E+04 0.  0.
        2    1    3    3  502    0 -0.48004250782E+03 -0.37098247924E+03  0.31185160973E+02  0.60748771469E+03  0.25500000920E-02 0.  1.
       -2    1    3    3    0  502  0.48004250782E+03  0.37098247924E+03  0.94494330515E+03  0.11229366230E+04  0.25500000920E-02 0. -1.
</event>
<event>
 5   0  0.9007180E-04  0.1412528E+04  0.7818609E-02  0.8944800E-01
        1   -1    0    0  501    0  0.00000000000E+00  0.00000000000E+00  0.90835234817E+03  0.90835234818E+03  0.50400001928E-02 0.  1.
       -1   -1    0    0    0  501  0.00000000000E+00  0.00000000000E+00 -0.54913573661E+03  0.54913573663E+03  0.50400001928E-02 0. -1.
    10030    2    1    2    0    0  0.00000000000E+00  0.00000000000E+00  0.35921661156E+03  0.14574880848E+04  0.14125278558E+04 0.  0.
        2    1    3    3  502    0 -0.26039933077E+03 -0.59498769432E+03  0.46591186938E+03  0.79930722372E+03  0.25500000920E-02 0.  1.
       -2    1    3    3    0  502  0.26039933077E+03  0.59498769432E+03 -0.10669525783E+03  0.65818086109E+03  0.25500000920E-02 0. -1.
</event>
<event>
 5   0  0.8609148E-04  0.1303705E+04  0.7818609E-02  0.9026632E-01
        1   -1    0    0  501    0  0.00000000000E+00  0.00000000000E+00  0.12853921535E+04  0.12853921535E+04  0.50400001928E-02 0. -1.
       -1   -1    0    0    0  501  0.00000000000E+00  0.00000000000E+00 -0.33056975761E+03  0.33056975765E+03  0.50400001928E-02 0.  1.
    10030    2    1    2    0    0  0.00000000000E+00  0.00000000000E+00  0.95482239591E+03  0.16159619112E+04  0.13037051395E+04 0.  0.
        5    1    3    3  502    0  0.55682964542E+02 -0.43502673245E+03  0.10751361057E+04  0.11611582951E+04  0.46999998093E+01 0. -1.
       -5    1    3    3    0  502 -0.55682964542E+02  0.43502673245E+03 -0.12031370975E+03  0.45480361613E+03  0.46999998093E+01 0.  1.
</event>
<event>
 5   0  0.8609148E-04  0.1436654E+04  0.7818609E-02  0.8927706E-01
        1   -1    0    0  501    0  0.00000000000E+00  0.00000000000E+00  0.13811466504E+04  0.13811466504E+04  0.50400001928E-02 0.  1.
       -1   -1    0    0    0  501  0.00000000000E+00  0.00000000000E+00 -0.37359789937E+03  0.37359789940E+03  0.50400001928E-02 0. -1.
    10030    2    1    2    0    0  0.00000000000E+00  0.00000000000E+00  0.10075487511E+04  0.17547445498E+04  0.14366537333E+04 0.  0.
        5    1    3    3  502    0 -0.25344144858E+03 -0.79709969689E+02  0.13189096041E+04  0.13454110453E+04  0.46999998093E+01 0.  1.
       -5    1    3    3    0  502  0.25344144858E+03  0.79709969689E+02 -0.31136085302E+03  0.40933350452E+03  0.46999998093E+01 0. -1.
</event>
<event>
 5   0  0.9007180E-04  0.1427079E+04  0.7818609E-02  0.8934447E-01
       -1   -1    0    0    0  501  0.00000000000E+00  0.00000000000E+00  0.43895332587E+03  0.43895332590E+03  0.50400001928E-02 0.  1.
        1   -1    0    0  501    0  0.00000000000E+00  0.00000000000E+00 -0.11598927397E+04  0.11598927397E+04  0.50400001928E-02 0. -1.
    10030    2    1    2    0    0  0.00000000000E+00  0.00000000000E+00 -0.72093941378E+03  0.15988460656E+04  0.14270792210E+04 0.  0.
        2    1    3    3  502    0  0.82811668541E+02 -0.55556446990E+03 -0.85346628997E+03  0.10217212735E+04  0.25500000920E-02 0. -1.
       -2    1    3    3    0  502 -0.82811668541E+02  0.55556446990E+03  0.13252687619E+03  0.57712479203E+03  0.25500000920E-02 0.  1.
</event>
<event>
 5   0  0.9007180E-04  0.1074240E+04  0.7818609E-02  0.9230669E-01
        1   -1    0    0  501    0  0.00000000000E+00  0.00000000000E+00  0.74291710338E+03  0.74291710339E+03  0.50400001928E-02 0.  1.
       -1   -1    0    0    0  501  0.00000000000E+00  0.00000000000E+00 -0.38833120128E+03  0.38833120131E+03  0.50400001928E-02 0. -1.
    10030    2    1    2    0    0  0.00000000000E+00  0.00000000000E+00  0.35458590210E+03  0.11312483047E+04  0.10742399941E+04 0.  0.
        2    1    3    3  502    0  0.51289877692E+03  0.61696586171E+02  0.22430044676E+02  0.51708290537E+03  0.25500000920E-02 0. -1.
       -2    1    3    3    0  502 -0.51289877692E+03 -0.61696586171E+02  0.33215585742E+03  0.61416539933E+03  0.25500000920E-02 0.  1.
</event>
<event>
 5   0  0.9007180E-04  0.1319885E+04  0.7818609E-02  0.9013943E-01
       -1   -1    0    0    0  501  0.00000000000E+00  0.00000000000E+00  0.13168271625E+04  0.13168271626E+04  0.50400001928E-02 0.  1.
        1   -1    0    0  501    0  0.00000000000E+00  0.00000000000E+00 -0.33073738361E+03  0.33073738365E+03  0.50400001928E-02 0. -1.
    10030    2    1    2    0    0  0.00000000000E+00  0.00000000000E+00  0.98608977893E+03  0.16475645462E+04  0.13198847987E+04 0.  0.
        2    1    3    3  502    0  0.76374669505E+02  0.64721109363E+03  0.36326937710E+03  0.74610986470E+03  0.25500000920E-02 0. -1.
       -2    1    3    3    0  502 -0.76374669505E+02 -0.64721109363E+03  0.62282040183E+03  0.90145468150E+03  0.25500000920E-02 0.  1.
</event>
<event>
 5   0  0.1648463E-03  0.1426826E+04  0.7818609E-02  0.8934626E-01
       -2   -1    0    0    0  501  0.00000000000E+00  0.00000000000E+00  0.73678569411E+03  0.73678569411E+03  0.25500000920E-02 0.  1.
        2   -1    0    0  501    0  0.00000000000E+00  0.00000000000E+00 -0.69078170520E+03  0.69078170520E+03  0.25500000920E-02 0. -1.
    10030    2    1    2    0    0  0.00000000000E+00  0.00000000000E+00  0.46003988909E+02  0.14275673993E+04  0.14268259574E+04 0.  0.
        1    1    3    3  502    0 -0.10071275987E+03  0.56736257162E+03 -0.39782890232E+03  0.70022223845E+03  0.50400001928E-02 0. -1.
       -1    1    3    3    0  502  0.10071275987E+03 -0.56736257162E+03  0.44383289123E+03  0.72734516087E+03  0.50400001928E-02 0.  1.
</event>
<event>
 5   0  0.8609148E-04  0.1247326E+04  0.7818609E-02  0.9072412E-01
        1   -1    0    0  501    0  0.00000000000E+00  0.00000000000E+00  0.96697835154E+03  0.96697835155E+03  0.50400001928E-02 0.  1.
       -1   -1    0    0    0  501  0.00000000000E+00  0.00000000000E+00 -0.40223783307E+03  0.40223783310E+03  0.50400001928E-02 0. -1.
    10030    2    1    2    0    0  0.00000000000E+00  0.00000000000E+00  0.56474051848E+03  0.13692161847E+04  0.12473255818E+04 0.  0.
        5    1    3    3  502    0  0.20653653978E+03  0.17057080504E+03 -0.33585405448E+03  0.42961817665E+03  0.46999998093E+01 0. -1.
       -5    1    3    3    0  502 -0.20653653978E+03 -0.17057080504E+03  0.90059457296E+03  0.93959800800E+03  0.46999998093E+01 0.  1.
</event>
<event>
 5   0  0.9007180E-04  0.1470410E+04  0.7818609E-02  0.8904372E-01
        1   -1    0    0  501    0  0.00000000000E+00  0.00000000000E+00  0.18421650373E+04  0.18421650374E+04  0.50400001928E-02 0.  1.
       -1   -1    0    0    0  501  0.00000000000E+00  0.00000000000E+00 -0.29341907888E+03  0.29341907892E+03  0.50400001928E-02 0. -1.
    10030    2    1    2    0    0  0.00000000000E+00  0.00000000000E+00  0.15487459585E+04  0.21355841163E+04  0.14704099679E+04 0.  0.
        2    1    3    3  502    0  0.39609010711E+03 -0.91733789456E+02 -0.11528585321E+03  0.42260299222E+03  0.25500000920E-02 0. -1.
       -2    1    3    3    0  502 -0.39609010711E+03  0.91733789456E+02  0.16640318117E+04  0.17129811241E+04  0.25500000920E-02 0.  1.
</event>
<event>
 5   0  0.9639548E-04  0.1273187E+04  0.7818609E-02  0.9051103E-01
        1   -1    0    0  501    0  0.00000000000E+00  0.00000000000E+00  0.23169877920E+03  0.23169877925E+03  0.50400001928E-02 0.  1.
       -1   -1    0    0    0  501  0.00000000000E+00  0.00000000000E+00 -0.17490423939E+04  0.17490423939E+04  0.50400001928E-02 0. -1.
    10030    2    1    2    0    0  0.00000000000E+00  0.00000000000E+00 -0.15173436147E+04  0.19807411732E+04  0.12731865339E+04 0.  0.
        1    1    3    3  502    0 -0.39210424471E+02  0.57225017146E+03 -0.32909932466E+03  0.66129727176E+03  0.50400001928E-02 0.  1.
       -1    1    3    3    0  502  0.39210424471E+02 -0.57225017146E+03 -0.11882442901E+04  0.13194439014E+04  0.50400001928E-02 0. -1.
</event>
<event>
 5   0  0.1605214E-03  0.1395213E+04  0.7818609E-02  0.8957291E-01
       -2   -1    0    0    0  501  0.00000000000E+00  0.00000000000E+00  0.66093592818E+03  0.66093592819E+03  0.25500000920E-02 0.  1.
        2   -1    0    0  501    0  0.00000000000E+00  0.00000000000E+00 -0.73631183894E+03  0.73631183894E+03  0.25500000920E-02 0. -1.
    10030    2    1    2    0    0  0.00000000000E+00  0.00000000000E+00 -0.75375910759E+02  0.13972477671E+04  0.13952131718E+04 0.  0.
        5    1    3    3  502    0 -0.23570448663E+01  0.34056676673E+03 -0.64737915464E+03  0.73151427746E+03  0.46999998093E+01 0. -1.
       -5    1    3    3    0  502  0.23570448663E+01 -0.34056676673E+03  0.57200324388E+03  0.66573348967E+03  0.46999998093E+01 0.  1.
</event>
<event>
 5   0  0.1605214E-03  0.1391401E+04  0.7818609E-02  0.8960066E-01
       -2   -1    0    0    0  501  0.00000000000E+00  0.00000000000E+00  0.34786350452E+03  0.34786350453E+03  0.25500000920E-02 0. -1.
        2   -1    0    0  501    0  0.00000000000E+00  0.00000000000E+00 -0.13913485042E+04  0.13913485042E+04  0.25500000920E-02 0.  1.
    10030    2    1    2    0    0  0.00000000000E+00  0.00000000000E+00 -0.10434849997E+04  0.17392120087E+04  0.13914012602E+04 0.  0.
        5    1    3    3  502    0 -0.62674274749E+03 -0.76105986021E+01 -0.14443969845E+03  0.64323347956E+03  0.46999998093E+01 0.  1.
       -5    1    3    3    0  502  0.62674274749E+03  0.76105986021E+01 -0.89904530123E+03  0.10959785292E+04  0.46999998093E+01 0. -1.
</event>
<event>
 5   0  0.1648213E-03  0.1460701E+04  0.7818609E-02  0.8911015E-01
        2   -1    0    0  501    0  0.00000000000E+00  0.00000000000E+00  0.16636086079E+04  0.16636086079E+04  0.25500000920E-02 0.  1.
       -2   -1    0    0    0  501  0.00000000000E+00  0.00000000000E+00 -0.32063544326E+03  0.32063544327E+03  0.25500000920E-02 0. -1.
    10030    2    1    2    0    0  0.00000000000E+00  0.00000000000E+00  0.13429731647E+04  0.19842440512E+04  0.14607010419E+04 0.  0.
        4    1    3    3  502    0  0.10735993768E+03  0.68442192424E+03  0.35742802964E+03  0.77956137402E+03  0.12699999809E+01 0. -1.
       -4    1    3    3    0  502 -0.10735993768E+03 -0.68442192424E+03  0.98554513502E+03  0.12046826772E+04  0.12699999809E+01 0.  1.
</event>
<event>
 5   0  0.8609148E-04  0.1425454E+04  0.7818609E-02  0.8935597E-01
       -1   -1    0    0    0  501  0.00000000000E+00  0.00000000000E+00  0.23328468190E+03  0.23328468196E+03  0.50400001928E-02 0. -1.
        1   -1    0    0  501    0  0.00000000000E+00  0.00000000000E+00 -0.21775101410E+04  0.21775101410E+04  0.50400001928E-02 0.  1.
    10030    2    1    2    0    0  0.00000000000E+00  0.00000000000E+00 -0.19442254591E+04  0.24107948229E+04  0.14254539777E+04 0.  0.
        5    1    3    3  502    0  0.21107965471E+02 -0.30199813728E+03  0.11911421244E+03  0.32535935015E+03  0.46999998093E+01 0. -1.
       -5    1    3    3    0  502 -0.21107965471E+02  0.30199813728E+03 -0.20633396715E+04  0.20854354728E+04  0.46999998093E+01 0.  1.
</event>
<event>
 5   0  0.1578965E-03  0.1407062E+04  0.7818609E-02  0.8948722E-01
       -2   -1    0    0    0  501  0.00000000000E+00  0.00000000000E+00  0.82891772025E+03  0.82891772025E+03  0.25500000920E-02 0. -1.
        2   -1    0    0  501    0  0.00000000000E+00  0.00000000000E+00 -0.59711107863E+03  0.59711107864E+03  0.25500000920E-02 0.  1.
    10030    2    1    2    0    0  0.00000000000E+00  0.00000000000E+00  0.23180664161E+03  0.14260287989E+04  0.14070621224E+04 0.  0.
        2    1    3    3  502    0 -0.46100179527E+03 -0.53057516337E+03  0.14669867625E+03  0.71802030671E+03  0.25500000920E-02 0.  1.
       -2    1    3    3    0  502  0.46100179527E+03  0.53057516337E+03  0.85107965361E+02  0.70800849218E+03  0.25500000920E-02 0. -1.
</event>
<event>
 5   0  0.9007180E-04  0.1394533E+04  0.7818609E-02  0.8957785E-01
        1   -1    0    0  501    0  0.00000000000E+00  0.00000000000E+00  0.14344993617E+04  0.14344993617E+04  0.50400001928E-02 0. -1.
       -1   -1    0    0    0  501  0.00000000000E+00  0.00000000000E+00 -0.33891997555E+03  0.33891997559E+03  0.50400001928E-02 0.  1.
    10030    2    1    2    0    0  0.00000000000E+00  0.00000000000E+00  0.10955793861E+04  0.17734193373E+04  0.13945328804E+04 0.  0.
        2    1    3    3  502    0 -0.45076331603E+03  0.52777436946E+03  0.46298440954E+03  0.83431883331E+03  0.25500000920E-02 0. -1.
       -2    1    3    3    0  502  0.45076331603E+03 -0.52777436946E+03  0.63259497660E+03  0.93910050397E+03  0.25500000920E-02 0.  1.
</event>
<event>
 5   0  0.1578965E-03  0.1411542E+04  0.7818609E-02  0.8945506E-01
        2   -1    0    0  501    0  0.00000000000E+00  0.00000000000E+00  0.73493947596E+03  0.73493947596E+03  0.25500000920E-02 0. -1.
       -2   -1    0    0    0  501  0.00000000000E+00  0.00000000000E+00 -0.67775974039E+03  0.67775974039E+03  0.25500000920E-02 0.  1.
    10030    2    1    2    0    0  0.00000000000E+00  0.00000000000E+00  0.57179735569E+02  0.14126992164E+04  0.14115415522E+04 0.  0.
        2    1    3    3  502    0  0.60557900489E+03 -0.35349706490E+03 -0.51639974655E+02  0.70310226357E+03  0.25500000920E-02 0.  1.
       -2    1    3    3    0  502 -0.60557900489E+03  0.35349706490E+03  0.10881971022E+03  0.70959695278E+03  0.25500000920E-02 0. -1.
</event>
<event>
 5   0  0.8609148E-04  0.1429399E+04  0.7818609E-02  0.8932809E-01
       -1   -1    0    0    0  501  0.00000000000E+00  0.00000000000E+00  0.71334155031E+03  0.71334155033E+03  0.50400001928E-02 0. -1.
        1   -1    0    0  501    0  0.00000000000E+00  0.00000000000E+00 -0.71605965991E+03  0.71605965993E+03  0.50400001928E-02 0.  1.
    10030    2    1    2    0    0  0.00000000000E+00  0.00000000000E+00 -0.27181095999E+01  0.14294012103E+04  0.14293986259E+04 0.  0.
        5    1    3    3  502    0 -0.17366374519E+03 -0.43516562115E+02 -0.69325641816E+03  0.71601629792E+03  0.46999998093E+01 0.  1.
       -5    1    3    3    0  502  0.17366374519E+03  0.43516562115E+02  0.69053830856E+03  0.71338491234E+03  0.46999998093E+01 0. -1.
</event>
<event>
 5   0  0.1648213E-03  0.1420700E+04  0.7818609E-02  0.8938970E-01
       -2   -1    0    0    0  501  0.00000000000E+00  0.00000000000E+00  0.12067882707E+04  0.12067882707E+04  0.25500000920E-02 0.  1.
        2   -1    0    0  501    0  0.00000000000E+00  0.00000000000E+00 -0.41813206875E+03  0.41813206876E+03  0.25500000920E-02 0. -1.
    10030    2    1    2    0    0  0.00000000000E+00  0.00000000000E+00  0.78865620193E+03  0.16249203394E+04  0.14206996532E+04 0.  0.
        4    1    3    3  502    0  0.23084457594E+03 -0.79752823546E+02 -0.36859932182E+03  0.44217282147E+03  0.12699999809E+01 0. -1.
       -4    1    3    3    0  502 -0.23084457594E+03  0.79752823546E+02  0.11572555237E+04  0.11827475180E+04  0.12699999809E+01 0.  1.
</event>
<event>
 5   0  0.9639548E-04  0.1478004E+04  0.7818609E-02  0.8899213E-01
        1   -1    0    0  501    0  0.00000000000E+00  0.00000000000E+00  0.54696483457E+03  0.54696483459E+03  0.50400001928E-02 0. -1.
       -1   -1    0    0    0  501  0.00000000000E+00  0.00000000000E+00 -0.99846232262E+03  0.99846232263E+03  0.50400001928E-02 0.  1.
    10030    2    1    2    0    0  0.00000000000E+00  0.00000000000E+00 -0.45149748805E+03  0.15454271572E+04  0.14780037607E+04 0.  0.
        1    1    3    3  502    0 -0.62347235328E+03  0.38131969433E+03 -0.11120086617E+03  0.73924834612E+03  0.50400001928E-02 0. -1.
       -1    1    3    3    0  502  0.62347235328E+03 -0.38131969433E+03 -0.34029662189E+03  0.80617881111E+03  0.50400001928E-02 0.  1.
</event>
<event>
 5   0  0.8609148E-04  0.1413384E+04  0.7818609E-02  0.8944187E-01
        1   -1    0    0  501    0  0.00000000000E+00  0.00000000000E+00  0.43677717465E+03  0.43677717468E+03  0.50400001928E-02 0.  1.
       -1   -1    0    0    0  501  0.00000000000E+00  0.00000000000E+00 -0.11434066630E+04  0.11434066630E+04  0.50400001928E-02 0. -1.
    10030    2    1    2    0    0  0.00000000000E+00  0.00000000000E+00 -0.70662948832E+03  0.15801838377E+04  0.14133844937E+04 0.  0.
        5    1    3    3  502    0  0.40358299752E+03  0.26767723156E+03 -0.92869733152E+03  0.10473925528E+04  0.46999998093E+01 0. -1.
       -5    1    3    3    0  502 -0.40358299752E+03 -0.26767723156E+03  0.22206784321E+03  0.53279128481E+03  0.46999998093E+01 0.  1.
</event>
<event>
 5   0  0.9639548E-04  0.1406609E+04  0.7818609E-02  0.8949049E-01
       -1   -1    0    0    0  501  0.00000000000E+00  0.00000000000E+00  0.45848873727E+03  0.45848873729E+03  0.50400001928E-02 0.  1.
        1   -1    0    0  501    0  0.00000000000E+00  0.00000000000E+00 -0.10788423764E+04  0.10788423764E+04  0.50400001928E-02 0. -1.
    10030    2    1    2    0    0  0.00000000000E+00  0.00000000000E+00 -0.62035363910E+03  0.15373311137E+04  0.14066087997E+04 0.  0.
        1    1    3    3  502    0  0.15268203100E+02 -0.25641826381E+03 -0.10257389397E+04  0.10574137395E+04  0.50400001928E-02 0. -1.
       -1    1    3    3    0  502 -0.15268203100E+02  0.25641826381E+03  0.40538530061E+03  0.47991737416E+03  0.50400001928E-02 0.  1.
</event>
<event>
 5   0  0.1578965E-03  0.1395322E+04  0.7818609E-02  0.8957212E-01
       -2   -1    0    0    0  501  0.00000000000E+00  0.00000000000E+00  0.28936623168E+03  0.28936623169E+03  0.25500000920E-02 0.  1.
        2   -1    0    0  501    0  0.00000000000E+00  0.00000000000E+00 -0.16820579701E+04  0.16820579701E+04  0.25500000920E-02 0. -1.
    10030    2    1    2    0    0  0.00000000000E+00  0.00000000000E+00 -0.13926917384E+04  0.19714242017E+04  0.13953218643E+04 0.  0.
        2    1    3    3  502    0 -0.20051185240E+02  0.29334223757E+02  0.28808696630E+03  0.29026995517E+03  0.25500000920E-02 0.  1.
       -2    1    3    3    0  502  0.20051185240E+02 -0.29334223757E+02 -0.16807787047E+04  0.16811542466E+04  0.25500000920E-02 0. -1.
</event>
<event>
 5   0  0.1706986E-03  0.1380340E+04  0.7818609E-02  0.8968174E-01
       -2   -1    0    0    0  501  0.00000000000E+00  0.00000000000E+00  0.29652606373E+03  0.29652606375E+03  0.25500000920E-02 0.  1.
        2   -1    0    0  501    0  0.00000000000E+00  0.00000000000E+00 -0.16063827612E+04  0.16063827612E+04  0.25500000920E-02 0. -1.
    10030    2    1    2    0    0  0.00000000000E+00  0.00000000000E+00 -0.13098566975E+04  0.19029088250E+04  0.13803396061E+04 0.  0.
        3    1    3    3  502    0 -0.18841785597E+02  0.60906850771E+03 -0.20818564810E+03  0.64394156121E+03  0.10100000352E+00 0. -1.
       -3    1    3    3    0  502  0.18841785597E+02 -0.60906850771E+03 -0.11016710494E+04  0.12589672638E+04  0.10100000352E+00 0.  1.
</event>
<event>
 5   0  0.8609148E-04  0.1406062E+04  0.7818609E-02  0.8949442E-01
        1   -1    0    0  501    0  0.00000000000E+00  0.00000000000E+00  0.93025087181E+03  0.93025087183E+03  0.50400001928E-02 0. -1.
       -1   -1    0    0    0  501  0.00000000000E+00  0.00000000000E+00 -0.53131129882E+03  0.53131129885E+03  0.50400001928E-02 0.  1.
    10030    2    1    2    0    0  0.00000000000E+00  0.00000000000E+00  0.39893957299E+03  0.14615621707E+04  0.14060623016E+04 0.  0.
        5    1    3    3  502    0 -0.51188890773E+03  0.27318040377E+03 -0.21315330042E+03  0.61815386947E+03  0.46999998093E+01 0.  1.
       -5    1    3    3    0  502  0.51188890773E+03 -0.27318040377E+03  0.61209287342E+03  0.84340830121E+03  0.46999998093E+01 0. -1.
</event>
<event>
 5   0  0.6048000E-04  0.1394162E+04  0.7818609E-02  0.8958055E-01
       -4   -1    0    0    0  501  0.00000000000E+00  0.00000000000E+00  0.18003789942E+04  0.18003794422E+04  0.12699999809E+01 0. -1.
        4   -1    0    0  501    0  0.00000000000E+00  0.00000000000E+00 -0.26989776401E+03  0.26990075198E+03  0.12699999809E+01 0.  1.
    10030    2    1    2    0    0  0.00000000000E+00  0.00000000000E+00  0.15304812302E+04  0.20702801941E+04  0.13941618580E+04 0.  0.
        2    1    3    3  502    0 -0.45828529395E+03 -0.47688241840E+01  0.15451983260E+04  0.16117338549E+04  0.25500000920E-02 0. -1.
       -2    1    3    3    0  502  0.45828529395E+03  0.47688241840E+01 -0.14717095771E+02  0.45854633926E+03  0.25500000920E-02 0.  1.
</event>
<event>
 5   0  0.1605214E-03  0.1397618E+04  0.7818609E-02  0.8955544E-01
       -2   -1    0    0    0  501  0.00000000000E+00  0.00000000000E+00  0.43945523934E+03  0.43945523935E+03  0.25500000920E-02 0.  1.
        2   -1    0    0  501    0  0.00000000000E+00  0.00000000000E+00 -0.11112264359E+04  0.11112264359E+04  0.25500000920E-02 0. -1.
    10030    2    1    2    0    0  0.00000000000E+00  0.00000000000E+00 -0.67177119658E+03  0.15506816753E+04  0.13976183733E+04 0.  0.
        5    1    3    3  502    0 -0.14381467844E+01  0.33231655713E+03  0.34615245910E+03  0.47987496012E+03  0.46999998093E+01 0.  1.
       -5    1    3    3    0  502  0.14381467844E+01 -0.33231655713E+03 -0.10179236557E+04  0.10708067151E+04  0.46999998093E+01 0. -1.
</event>
<event>
 5   0  0.1605214E-03  0.1396436E+04  0.7818609E-02  0.8956402E-01
        2   -1    0    0  501    0  0.00000000000E+00  0.00000000000E+00  0.11449309960E+04  0.11449309960E+04  0.25500000920E-02 0.  1.
       -2   -1    0    0    0  501  0.00000000000E+00  0.00000000000E+00 -0.42579736004E+03  0.42579736004E+03  0.25500000920E-02 0. -1.
    10030    2    1    2    0    0  0.00000000000E+00  0.00000000000E+00  0.71913363594E+03  0.15707283560E+04  0.13964363151E+04 0.  0.
        5    1    3    3  502    0 -0.46510206966E+03 -0.52072654744E+03  0.36319999589E+03  0.78702757222E+03  0.46999998093E+01 0.  1.
       -5    1    3    3    0  502  0.46510206966E+03  0.52072654744E+03  0.35593364005E+03  0.78370078380E+03  0.46999998093E+01 0. -1.
</event>
<event>
 5   0  0.9639548E-04  0.1395148E+04  0.7818609E-02  0.8957338E-01
        1   -1    0    0  501    0  0.00000000000E+00  0.00000000000E+00  0.50480108522E+03  0.50480108525E+03  0.50400001928E-02 0.  1.
       -1   -1    0    0    0  501  0.00000000000E+00  0.00000000000E+00 -0.96396306937E+03  0.96396306938E+03  0.50400001928E-02 0. -1.
    10030    2    1    2    0    0  0.00000000000E+00  0.00000000000E+00 -0.45916198415E+03  0.14687641546E+04  0.13951481693E+04 0.  0.
        1    1    3    3  502    0 -0.28698602716E+03 -0.49766448640E+03 -0.64616064036E+03  0.86461233740E+03  0.50400001928E-02 0. -1.
       -1    1    3    3    0  502  0.28698602716E+03  0.49766448640E+03  0.18699865622E+03  0.60415181723E+03  0.50400001928E-02 0.  1.
</event>
<event>
 5   0  0.1648213E-03  0.1377500E+04  0.7818609E-02  0.8970268E-01
       -2   -1    0    0    0  501  0.00000000000E+00  0.00000000000E+00  0.39829344463E+03  0.39829344464E+03  0.25500000920E-02 0. -1.
        2   -1    0    0  501    0  0.00000000000E+00  0.00000000000E+00 -0.11910227757E+04  0.11910227757E+04  0.25500000920E-02 0.  1.
    10030    2    1    2    0    0  0.00000000000E+00  0.00000000000E+00 -0.79272933107E+03  0.15893162203E+04  0.13775000021E+04 0.  0.
        4    1    3    3  502    0  0.21331415846E+03  0.27512322474E+03 -0.10820364626E+04  0.11366618839E+04  0.12699999809E+01 0.  1.
       -4    1    3    3    0  502 -0.21331415846E+03 -0.27512322474E+03  0.28930713157E+03  0.45265433641E+03  0.12699999809E+01 0. -1.
</event>
<event>
 5   0  0.9639548E-04  0.1386131E+04  0.7818609E-02  0.8963920E-01
       -1   -1    0    0    0  501  0.00000000000E+00  0.00000000000E+00  0.57739264359E+03  0.57739264361E+03  0.50400001928E-02 0.  1.
        1   -1    0    0  501    0  0.00000000000E+00  0.00000000000E+00 -0.83191128261E+03  0.83191128262E+03  0.50400001928E-02 0. -1.
    10030    2    1    2    0    0  0.00000000000E+00  0.00000000000E+00 -0.25451863902E+03  0.14093039262E+04  0.13861305201E+04 0.  0.
        1    1    3    3  502    0  0.61869964688E+03 -0.17074998938E+03  0.13863654245E+03  0.65663148177E+03  0.50400001928E-02 0. -1.
       -1    1    3    3    0  502 -0.61869964688E+03  0.17074998938E+03 -0.39315518147E+03  0.75267244447E+03  0.50400001928E-02 0.  1.
</event>
<event>
 5   0  0.8673728E-04  0.1414700E+04  0.7818609E-02  0.8943246E-01
        1   -1    0    0  501    0  0.00000000000E+00  0.00000000000E+00  0.15085607770E+04  0.15085607771E+04  0.50400001928E-02 0. -1.
       -1   -1    0    0    0  501  0.00000000000E+00  0.00000000000E+00 -0.33166957844E+03  0.33166957847E+03  0.50400001928E-02 0.  1.
    10030    2    1    2    0    0  0.00000000000E+00  0.00000000000E+00  0.11768911986E+04  0.18402303555E+04  0.14146995681E+04 0.  0.
        3    1    3    3  502    0  0.86134817807E+02  0.70103080764E+03  0.63849326460E+03  0.95212239719E+03  0.10100000352E+00 0. -1.
       -3    1    3    3    0  502 -0.86134817807E+02 -0.70103080764E+03  0.53839793401E+03  0.88810795833E+03  0.10100000352E+00 0.  1.
</event>
<event>
 5   0  0.9007180E-04  0.1406826E+04  0.7818609E-02  0.8948892E-01
       -1   -1    0    0    0  501  0.00000000000E+00  0.00000000000E+00  0.31672193725E+03  0.31672193729E+03  0.50400001928E-02 0. -1.
        1   -1    0    0  501    0  0.00000000000E+00  0.00000000000E+00 -0.15622224079E+04  0.15622224079E+04  0.50400001928E-02 0.  1.
    10030    2    1    2    0    0  0.00000000000E+00  0.00000000000E+00 -0.12455004707E+04  0.18789443452E+04  0.14068263681E+04 0.  0.
        2    1    3    3  502    0 -0.65233773531E+03 -0.23819214853E+03 -0.77213406220E+03  0.10384945982E+04  0.25500000920E-02 0.  1.
       -2    1    3    3    0  502  0.65233773531E+03  0.23819214853E+03 -0.47336640845E+03  0.84044974697E+03  0.25500000920E-02 0. -1.
</event>
<event>
 5   0  0.1648213E-03  0.1332416E+04  0.7818609E-02  0.9004246E-01
       -2   -1    0    0    0  501  0.00000000000E+00  0.00000000000E+00  0.33410697354E+03  0.33410697355E+03  0.25500000920E-02 0. -1.
        2   -1    0    0  501    0  0.00000000000E+00  0.00000000000E+00 -0.13284169704E+04  0.13284169704E+04  0.25500000920E-02 0.  1.
    10030    2    1    2    0    0  0.00000000000E+00  0.00000000000E+00 -0.99430999686E+03  0.16625239439E+04  0.13324164118E+04 0.  0.
        4    1    3    3  502    0 -0.35197579416E+03  0.16673597306E+03 -0.11715686595E+04  0.12346102952E+04  0.12699999809E+01 0.  1.
       -4    1    3    3    0  502  0.35197579416E+03 -0.16673597306E+03  0.17725866260E+03  0.42791364871E+03  0.12699999809E+01 0. -1.
</event>
<event>
 5   0  0.8502300E-04  0.1403383E+04  0.7818609E-02  0.8951373E-01
       -1   -1    0    0    0  501  0.00000000000E+00  0.00000000000E+00  0.50904698250E+03  0.50904698253E+03  0.50400001928E-02 0. -1.
        1   -1    0    0  501    0  0.00000000000E+00  0.00000000000E+00 -0.96724077375E+03  0.96724077377E+03  0.50400001928E-02 0.  1.
    10030    2    1    2    0    0  0.00000000000E+00  0.00000000000E+00 -0.45819379125E+03  0.14762877563E+04  0.14033830514E+04 0.  0.
        4    1    3    3  502    0  0.16613480310E+03  0.43189836125E+03 -0.78397636348E+03  0.91036120230E+03  0.12699999809E+01 0.  1.
       -4    1    3    3    0  502 -0.16613480310E+03 -0.43189836125E+03  0.32578257223E+03  0.56592655400E+03  0.12699999809E+01 0. -1.
</event>
<event>
 5   0  0.8673728E-04  0.1389088E+04  0.7818609E-02  0.8961755E-01
       -1   -1    0    0    0  501  0.00000000000E+00  0.00000000000E+00  0.79201375865E+03  0.79201375866E+03  0.50400001928E-02 0. -1.
        1   -1    0    0  501    0  0.00000000000E+00  0.00000000000E+00 -0.60906960567E+03  0.60906960569E+03  0.50400001928E-02 0.  1.
    10030    2    1    2    0    0  0.00000000000E+00  0.00000000000E+00  0.18294415297E+03  0.14010833644E+04  0.13890882012E+04 0.  0.
        3    1    3    3  502    0  0.56131277100E+03 -0.30412550126E+03  0.36737973553E+03  0.73656787039E+03  0.10100000352E+00 0. -1.
       -3    1    3    3    0  502 -0.56131277100E+03  0.30412550126E+03 -0.18443558256E+03  0.66451549397E+03  0.10100000352E+00 0.  1.
</event>
<event>
 5   0  0.1648463E-03  0.1417105E+04  0.7818609E-02  0.8941529E-01
       -2   -1    0    0    0  501  0.00000000000E+00  0.00000000000E+00  0.70358637101E+03  0.70358637101E+03  0.25500000920E-02 0.  1.
        2   -1    0    0  501    0  0.00000000000E+00  0.00000000000E+00 -0.71355352526E+03  0.71355352527E+03  0.25500000920E-02 0. -1.
    10030    2    1    2    0    0  0.00000000000E+00  0.00000000000E+00 -0.99671542595E+01  0.14171398963E+04  0.14171048449E+04 0.  0.
        1    1    3    3  502    0 -0.34357901551E+03 -0.60954159534E+03  0.10663924909E+03  0.70778487256E+03  0.50400001928E-02 0.  1.
       -1    1    3    3    0  502  0.34357901551E+03  0.60954159534E+03 -0.11660640335E+03  0.70935502372E+03  0.50400001928E-02 0. -1.
</event>
<event>
 5   0  0.1605214E-03  0.1330931E+04  0.7818609E-02  0.9005390E-01
       -2   -1    0    0    0  501  0.00000000000E+00  0.00000000000E+00  0.18432170943E+03  0.18432170945E+03  0.25500000920E-02 0.  1.
        2   -1    0    0  501    0  0.00000000000E+00  0.00000000000E+00 -0.24025623740E+04  0.24025623740E+04  0.25500000920E-02 0. -1.
    10030    2    1    2    0    0  0.00000000000E+00  0.00000000000E+00 -0.22182406645E+04  0.25868840834E+04  0.13309311084E+04 0.  0.
        5    1    3    3  502    0 -0.51171643626E+03  0.36945333068E+03 -0.15190117454E+04  0.16449219578E+04  0.46999998093E+01 0. -1.
       -5    1    3    3    0  502  0.51171643626E+03 -0.36945333068E+03 -0.69922891911E+03  0.94196212557E+03  0.46999998093E+01 0.  1.
</event>
<event>
 5   0  0.8502300E-04  0.1385480E+04  0.7818609E-02  0.8964396E-01
       -1   -1    0    0    0  501  0.00000000000E+00  0.00000000000E+00  0.11866475939E+04  0.11866475939E+04  0.50400001928E-02 0. -1.
        1   -1    0    0  501    0  0.00000000000E+00  0.00000000000E+00 -0.40440711063E+03  0.40440711066E+03  0.50400001928E-02 0.  1.
    10030    2    1    2    0    0  0.00000000000E+00  0.00000000000E+00  0.78224048323E+03  0.15910547045E+04  0.13854800248E+04 0.  0.
        4    1    3    3  502    0  0.25508087913E+03  0.64219194356E+03  0.44750039014E+03  0.82324659692E+03  0.12699999809E+01 0. -1.
       -4    1    3    3    0  502 -0.25508087913E+03 -0.64219194356E+03  0.33474009309E+03  0.76780810760E+03  0.12699999809E+01 0.  1.
</event>
<event>
 5   0  0.1648213E-03  0.1353848E+04  0.7818609E-02  0.8987920E-01
        2   -1    0    0  501    0  0.00000000000E+00  0.00000000000E+00  0.91990082398E+03  0.91990082399E+03  0.25500000920E-02 0.  1.
       -2   -1    0    0    0  501  0.00000000000E+00  0.00000000000E+00 -0.49812548852E+03  0.49812548853E+03  0.25500000920E-02 0. -1.
    10030    2    1    2    0    0  0.00000000000E+00  0.00000000000E+00  0.42177533546E+03  0.14180263125E+04  0.13538479196E+04 0.  0.
        4    1    3    3  502    0 -0.65378373307E+03  0.17057115816E+03  0.16774344248E+03  0.69618041125E+03  0.12699999809E+01 0. -1.
       -4    1    3    3    0  502  0.65378373307E+03 -0.17057115816E+03  0.25403189298E+03  0.72184590126E+03  0.12699999809E+01 0.  1.
</event>
<event>
 5   0  0.1578965E-03  0.1423938E+04  0.7818609E-02  0.8936671E-01
        2   -1    0    0  501    0  0.00000000000E+00  0.00000000000E+00  0.18006816747E+04  0.18006816747E+04  0.25500000920E-02 0.  1.
       -2   -1    0    0    0  501  0.00000000000E+00  0.00000000000E+00 -0.28150455648E+03  0.28150455649E+03  0.25500000920E-02 0. -1.
    10030    2    1    2    0    0  0.00000000000E+00  0.00000000000E+00  0.15191771182E+04  0.20821862312E+04  0.14239383360E+04 0.  0.
        2    1    3    3  502    0  0.53478466707E+03 -0.46587442490E+03  0.66866298245E+03  0.97475320159E+03  0.25500000920E-02 0. -1.
       -2    1    3    3    0  502 -0.53478466707E+03  0.46587442490E+03  0.85051413574E+03  0.11074330296E+04  0.25500000920E-02 0.  1.
</event>
<event>
 5   0  0.9639548E-04  0.1372104E+04  0.7818609E-02  0.8974263E-01
       -1   -1    0    0    0  501  0.00000000000E+00  0.00000000000E+00  0.65686914277E+03  0.65686914279E+03  0.50400001928E-02 0. -1.
        1   -1    0    0  501    0  0.00000000000E+00  0.00000000000E+00 -0.71653101886E+03  0.71653101888E+03  0.50400001928E-02 0.  1.
    10030    2    1    2    0    0  0.00000000000E+00  0.00000000000E+00 -0.59661876091E+02  0.13734001617E+04  0.13721036639E+04 0.  0.
        1    1    3    3  502    0 -0.43556681325E+03  0.56189494883E+02 -0.55738816242E+03  0.70961769409E+03  0.50400001928E-02 0.  1.
       -1    1    3    3    0  502  0.43556681325E+03 -0.56189494883E+02  0.49772628633E+03  0.66378246758E+03  0.50400001928E-02 0. -1.
</event>
<event>
 5   0  0.1578965E-03  0.1407067E+04  0.7818609E-02  0.8948719E-01
       -2   -1    0    0    0  501  0.00000000000E+00  0.00000000000E+00  0.30127253719E+03  0.30127253721E+03  0.25500000920E-02 0.  1.
        2   -1    0    0  501    0  0.00000000000E+00  0.00000000000E+00 -0.16428952789E+04  0.16428952789E+04  0.25500000920E-02 0. -1.
    10030    2    1    2    0    0  0.00000000000E+00  0.00000000000E+00 -0.13416227417E+04  0.19441678161E+04  0.14070667774E+04 0.  0.
        2    1    3    3  502    0  0.52452557133E+03  0.21575394149E+03 -0.95641330594E+02  0.57517310644E+03  0.25500000920E-02 0.  1.
       -2    1    3    3    0  502 -0.52452557133E+03 -0.21575394149E+03 -0.12459814111E+04  0.13689947096E+04  0.25500000920E-02 0. -1.
</event>
<event>
 5   0  0.9007180E-04  0.1402217E+04  0.7818609E-02  0.8952215E-01
        1   -1    0    0  501    0  0.00000000000E+00  0.00000000000E+00  0.48577083231E+03  0.48577083234E+03  0.50400001928E-02 0. -1.
       -1   -1    0    0    0  501  0.00000000000E+00  0.00000000000E+00 -0.10119030799E+04  0.10119030799E+04  0.50400001928E-02 0.  1.
    10030    2    1    2    0    0  0.00000000000E+00  0.00000000000E+00 -0.52613224760E+03  0.14976739123E+04  0.14022168183E+04 0.  0.
        2    1    3    3  502    0  0.99587783659E+02 -0.59493872294E+03 -0.64471936635E+03  0.88291158791E+03  0.25500000920E-02 0.  1.
       -2    1    3    3    0  502 -0.99587783659E+02  0.59493872294E+03  0.11858711875E+03  0.61476232436E+03  0.25500000920E-02 0. -1.
</event>
<event>
 5   0  0.8502300E-04  0.1102612E+04  0.7818609E-02  0.9202649E-01
       -1   -1    0    0    0  501  0.00000000000E+00  0.00000000000E+00  0.44274728771E+03  0.44274728774E+03  0.50400001928E-02 0. -1.
        1   -1    0    0  501    0  0.00000000000E+00  0.00000000000E+00 -0.68648304268E+03  0.68648304270E+03  0.50400001928E-02 0.  1.
    10030    2    1    2    0    0  0.00000000000E+00  0.00000000000E+00 -0.24373575498E+03  0.11292303304E+04  0.11026123620E+04 0.  0.
        4    1    3    3  502    0 -0.32996772319E+03 -0.33851521265E+02  0.32911735457E+03  0.46727344223E+03  0.12699999809E+01 0. -1.
       -4    1    3    3    0  502  0.32996772319E+03  0.33851521265E+02 -0.57285310954E+03  0.66195688821E+03  0.12699999809E+01 0.  1.
</event>
<event>
 5   0  0.1648463E-03  0.1381362E+04  0.7818609E-02  0.8967421E-01
       -2   -1    0    0    0  501  0.00000000000E+00  0.00000000000E+00  0.27141702873E+03  0.27141702874E+03  0.25500000920E-02 0.  1.
        2   -1    0    0  501    0  0.00000000000E+00  0.00000000000E+00 -0.17575925289E+04  0.17575925289E+04  0.25500000920E-02 0. -1.
    10030    2    1    2    0    0  0.00000000000E+00  0.00000000000E+00 -0.14861755002E+04  0.20290095576E+04  0.13813624317E+04 0.  0.
        1    1    3    3  502    0 -0.65008157835E+03 -0.20096725225E+03 -0.56900217556E+03  0.88699344462E+03  0.50400001928E-02 0. -1.
       -1    1    3    3    0  502  0.65008157835E+03  0.20096725225E+03 -0.91717332462E+03  0.11420161130E+04  0.50400001928E-02 0.  1.
</event>
<event>
 5   0  0.1578965E-03  0.1381867E+04  0.7818609E-02  0.8967050E-01
        2   -1    0    0  501    0  0.00000000000E+00  0.00000000000E+00  0.17770612799E+04  0.17770612799E+04  0.25500000920E-02 0. -1.
       -2   -1    0    0    0  501  0.00000000000E+00  0.00000000000E+00 -0.26863958481E+03  0.26863958482E+03  0.25500000920E-02 0.  1.
    10030    2    1    2    0    0  0.00000000000E+00  0.00000000000E+00  0.15084216951E+04  0.20457008648E+04  0.13818668596E+04 0.  0.
        2    1    3    3  502    0  0.27442858913E+03 -0.62577232323E+02 -0.17991600324E+03  0.33406096564E+03  0.25500000920E-02 0.  1.
       -2    1    3    3    0  502 -0.27442858913E+03  0.62577232323E+02  0.16883376984E+04  0.17116398991E+04  0.25500000920E-02 0. -1.
</event>
<event>
 5   0  0.9639548E-04  0.1391203E+04  0.7818609E-02  0.8960211E-01
        1   -1    0    0  501    0  0.00000000000E+00  0.00000000000E+00  0.80603842973E+03  0.80603842975E+03  0.50400001928E-02 0. -1.
       -1   -1    0    0    0  501  0.00000000000E+00  0.00000000000E+00 -0.60029555750E+03  0.60029555752E+03  0.50400001928E-02 0.  1.
    10030    2    1    2    0    0  0.00000000000E+00  0.00000000000E+00  0.20574287223E+03  0.14063339873E+04  0.13912027725E+04 0.  0.
        1    1    3    3  502    0  0.13905581803E+02  0.60054878397E+03  0.45741256711E+03  0.75503540560E+03  0.50400001928E-02 0. -1.
       -1    1    3    3    0  502 -0.13905581803E+02 -0.60054878397E+03 -0.25166969488E+03  0.65129858167E+03  0.50400001928E-02 0.  1.
</event>
<event>
 5   0  0.9007180E-04  0.1495474E+04  0.7818609E-02  0.8887469E-01
        1   -1    0    0  501    0  0.00000000000E+00  0.00000000000E+00  0.51131544656E+03  0.51131544658E+03  0.50400001928E-02 0. -1.
       -1   -1    0    0    0  501  0.00000000000E+00  0.00000000000E+00 -0.10934743472E+04  0.10934743472E+04  0.50400001928E-02 0.  1.
    10030    2    1    2    0    0  0.00000000000E+00  0.00000000000E+00 -0.58215890059E+03  0.16047897937E+04  0.14954736028E+04 0.  0.
        2    1    3    3  502    0 -0.35118030104E+03 -0.20139877223E+03  0.38354107194E+03  0.55766730509E+03  0.25500000920E-02 0. -1.
       -2    1    3    3    0  502  0.35118030104E+03  0.20139877223E+03 -0.96569997253E+03  0.10471224887E+04  0.25500000920E-02 0.  1.
</event>
<event>
 5   0  0.1648463E-03  0.1452541E+04  0.7818609E-02  0.8916640E-01
        2   -1    0    0  501    0  0.00000000000E+00  0.00000000000E+00  0.51705193502E+03  0.51705193502E+03  0.25500000920E-02 0. -1.
       -2   -1    0    0    0  501  0.00000000000E+00  0.00000000000E+00 -0.10201474076E+04  0.10201474076E+04  0.25500000920E-02 0.  1.
    10030    2    1    2    0    0  0.00000000000E+00  0.00000000000E+00 -0.50309547261E+03  0.15371993427E+04  0.14525414846E+04 0.  0.
        1    1    3    3  502    0 -0.34454429349E+03  0.94876502576E+02  0.41756548825E+03  0.54961191574E+03  0.50400001928E-02 0. -1.
       -1    1    3    3    0  502  0.34454429349E+03 -0.94876502576E+02 -0.92066096086E+03  0.98758742691E+03  0.50400001928E-02 0.  1.
</event>
<event>
 5   0  0.9007180E-04  0.1401139E+04  0.7818609E-02  0.8952994E-01
        1   -1    0    0  501    0  0.00000000000E+00  0.00000000000E+00  0.97644301454E+03  0.97644301455E+03  0.50400001928E-02 0. -1.
       -1   -1    0    0    0  501  0.00000000000E+00  0.00000000000E+00 -0.50263832163E+03  0.50263832166E+03  0.50400001928E-02 0.  1.
    10030    2    1    2    0    0  0.00000000000E+00  0.00000000000E+00  0.47380469291E+03  0.14790813362E+04  0.14011390766E+04 0.  0.
        2    1    3    3  502    0 -0.50993221870E+02 -0.69698683217E+03  0.28868974048E+03  0.75613009407E+03  0.25500000920E-02 0. -1.
       -2    1    3    3    0  502  0.50993221870E+02  0.69698683217E+03  0.18511495243E+03  0.72295124214E+03  0.25500000920E-02 0.  1.
</event>
<event>
 5   0  0.8673728E-04  0.1394394E+04  0.7818609E-02  0.8957886E-01
        1   -1    0    0  501    0  0.00000000000E+00  0.00000000000E+00  0.68469170337E+03  0.68469170339E+03  0.50400001928E-02 0. -1.
       -1   -1    0    0    0  501  0.00000000000E+00  0.00000000000E+00 -0.70993112260E+03  0.70993112262E+03  0.50400001928E-02 0.  1.
    10030    2    1    2    0    0  0.00000000000E+00  0.00000000000E+00 -0.25239419228E+02  0.13946228260E+04  0.13943944200E+04 0.  0.
        3    1    3    3  502    0 -0.63463341854E+03 -0.10490408234E+03  0.25634718661E+03  0.69244373974E+03  0.10100000352E+00 0. -1.
       -3    1    3    3    0  502  0.63463341854E+03  0.10490408234E+03 -0.28158660584E+03  0.70217908628E+03  0.10100000352E+00 0.  1.
</event>
<event>
 5   0  0.1648213E-03  0.1394252E+04  0.7818609E-02  0.8957990E-01
        2   -1    0    0  501    0  0.00000000000E+00  0.00000000000E+00  0.23441104812E+04  0.23441104812E+04  0.25500000920E-02 0.  1.
       -2   -1    0    0    0  501  0.00000000000E+00  0.00000000000E+00 -0.20732153060E+03  0.20732153062E+03  0.25500000920E-02 0. -1.
    10030    2    1    2    0    0  0.00000000000E+00  0.00000000000E+00  0.21367889506E+04  0.25514320118E+04  0.13942518752E+04 0.  0.
        4    1    3    3  502    0  0.40480045258E+03 -0.50062086486E+03  0.15577118429E+04  0.16855125200E+04  0.12699999809E+01 0.  1.
       -4    1    3    3    0  502 -0.40480045258E+03  0.50062086486E+03  0.57907710776E+03  0.86591949185E+03  0.12699999809E+01 0. -1.
</event>
<event>
 5   0  0.1648213E-03  0.1370924E+04  0.7818609E-02  0.8975138E-01
        2   -1    0    0  501    0  0.00000000000E+00  0.00000000000E+00  0.23233600801E+04  0.23233600801E+04  0.25500000920E-02 0.  1.
       -2   -1    0    0    0  501  0.00000000000E+00  0.00000000000E+00 -0.20223221219E+03  0.20223221220E+03  0.25500000920E-02 0. -1.
    10030    2    1    2    0    0  0.00000000000E+00  0.00000000000E+00  0.21211278679E+04  0.25255922923E+04  0.13709241390E+04 0.  0.
        4    1    3    3  502    0  0.20014477486E+03  0.32259595893E+03  0.21119907948E+04  0.21458408175E+04  0.12699999809E+01 0.  1.
       -4    1    3    3    0  502 -0.20014477486E+03 -0.32259595893E+03  0.91370730811E+01  0.37975147482E+03  0.12699999809E+01 0. -1.
</event>
<event>
 5   0  0.1648213E-03  0.1451216E+04  0.7818609E-02  0.8917558E-01
        2   -1    0    0  501    0  0.00000000000E+00  0.00000000000E+00  0.11769662586E+04  0.11769662586E+04  0.25500000920E-02 0.  1.
       -2   -1    0    0    0  501  0.00000000000E+00  0.00000000000E+00 -0.44734223365E+03  0.44734223366E+03  0.25500000920E-02 0. -1.
    10030    2    1    2    0    0  0.00000000000E+00  0.00000000000E+00  0.72962402497E+03  0.16243084923E+04  0.14512156491E+04 0.  0.
        4    1    3    3  502    0  0.67797371234E+03  0.11149351951E+03  0.62593165463E+03  0.92944672180E+03  0.12699999809E+01 0.  1.
       -4    1    3    3    0  502 -0.67797371234E+03 -0.11149351951E+03  0.10369237034E+03  0.69486177048E+03  0.12699999809E+01 0. -1.
</event>
<event>
 5   0  0.1706986E-03  0.1455723E+04  0.7818609E-02  0.8914442E-01
        2   -1    0    0  501    0  0.00000000000E+00  0.00000000000E+00  0.14181659302E+04  0.14181659302E+04  0.25500000920E-02 0. -1.
       -2   -1    0    0    0  501  0.00000000000E+00  0.00000000000E+00 -0.37356884280E+03  0.37356884281E+03  0.25500000920E-02 0.  1.
    10030    2    1    2    0    0  0.00000000000E+00  0.00000000000E+00  0.10445970874E+04  0.17917347730E+04  0.14557233328E+04 0.  0.
        3    1    3    3  502    0  0.50853284608E+02 -0.71071502463E+03  0.70519328713E+03  0.10024966260E+04  0.10100000352E+00 0. -1.
       -3    1    3    3    0  502 -0.50853284608E+02  0.71071502463E+03  0.33940380025E+03  0.78923814696E+03  0.10100000352E+00 0.  1.
</event>
<event>
 5   0  0.9639548E-04  0.1376292E+04  0.7818609E-02  0.8971161E-01
       -1   -1    0    0    0  501  0.00000000000E+00  0.00000000000E+00  0.32910204322E+03  0.32910204326E+03  0.50400001928E-02 0.  1.
        1   -1    0    0  501    0  0.00000000000E+00  0.00000000000E+00 -0.14389001504E+04  0.14389001504E+04  0.50400001928E-02 0. -1.
    10030    2    1    2    0    0  0.00000000000E+00  0.00000000000E+00 -0.11097981072E+04  0.17680021937E+04  0.13762920904E+04 0.  0.
        1    1    3    3  502    0 -0.78194885967E+02  0.24747270897E+03  0.26382136528E+03  0.37007957884E+03  0.50400001928E-02 0.  1.
       -1    1    3    3    0  502  0.78194885967E+02 -0.24747270897E+03 -0.13736194725E+04  0.13979226148E+04  0.50400001928E-02 0. -1.
</event>
<event>
 5   0  0.1578965E-03  0.1422669E+04  0.7818609E-02  0.8937571E-01
       -2   -1    0    0    0  501  0.00000000000E+00  0.00000000000E+00  0.31235959278E+03  0.31235959279E+03  0.25500000920E-02 0.  1.
        2   -1    0    0  501    0  0.00000000000E+00  0.00000000000E+00 -0.16199167657E+04  0.16199167657E+04  0.25500000920E-02 0. -1.
    10030    2    1    2    0    0  0.00000000000E+00  0.00000000000E+00 -0.13075571729E+04  0.19322763584E+04  0.14226686772E+04 0.  0.
        2    1    3    3  502    0 -0.49891305365E+03 -0.15530157082E+03 -0.13093343266E+04  0.14097479178E+04  0.25500000920E-02 0. -1.
       -2    1    3    3    0  502  0.49891305365E+03  0.15530157082E+03  0.17771536948E+01  0.52252844064E+03  0.25500000920E-02 0.  1.
</event>
<event>
 5   0  0.1648463E-03  0.1442901E+04  0.7818609E-02  0.8923337E-01
       -2   -1    0    0    0  501  0.00000000000E+00  0.00000000000E+00  0.36932958486E+03  0.36932958487E+03  0.25500000920E-02 0. -1.
        2   -1    0    0  501    0  0.00000000000E+00  0.00000000000E+00 -0.14092851014E+04  0.14092851014E+04  0.25500000920E-02 0.  1.
    10030    2    1    2    0    0  0.00000000000E+00  0.00000000000E+00 -0.10399555166E+04  0.17786146863E+04  0.14429008025E+04 0.  0.
        1    1    3    3  502    0 -0.51603416300E+03  0.43980266553E+03 -0.21609862592E+03  0.71162929826E+03  0.50400001928E-02 0. -1.
       -1    1    3    3    0  502  0.51603416300E+03 -0.43980266553E+03 -0.82385689066E+03  0.10669853881E+04  0.50400001928E-02 0.  1.
</event>
<event>
 5   0  0.9007180E-04  0.1396448E+04  0.7818609E-02  0.8956394E-01
       -1   -1    0    0    0  501  0.00000000000E+00  0.00000000000E+00  0.29034112284E+03  0.29034112288E+03  0.50400001928E-02 0.  1.
        1   -1    0    0  501    0  0.00000000000E+00  0.00000000000E+00 -0.16791167488E+04  0.16791167488E+04  0.50400001928E-02 0. -1.
    10030    2    1    2    0    0  0.00000000000E+00  0.00000000000E+00 -0.13887756259E+04  0.19694578717E+04  0.13964478397E+04 0.  0.
        2    1    3    3  502    0  0.61319719571E+03  0.10011605548E+02 -0.22365387997E+03  0.65278793732E+03  0.25500000920E-02 0.  1.
       -2    1    3    3    0  502 -0.61319719571E+03 -0.10011605548E+02 -0.11651217460E+04  0.13166699344E+04  0.25500000920E-02 0. -1.
</event>
<event>
 5   0  0.9007180E-04  0.1180095E+04  0.7818609E-02  0.9130460E-01
        1   -1    0    0  501    0  0.00000000000E+00  0.00000000000E+00  0.90306736140E+03  0.90306736141E+03  0.50400001928E-02 0. -1.
       -1   -1    0    0    0  501  0.00000000000E+00  0.00000000000E+00 -0.38552605248E+03  0.38552605252E+03  0.50400001928E-02 0.  1.
    10030    2    1    2    0    0  0.00000000000E+00  0.00000000000E+00  0.51754130892E+03  0.12885934139E+04  0.11800949030E+04 0.  0.
        2    1    3    3  502    0  0.12123988420E+03 -0.52927918496E+03  0.66283059401E+01  0.54302808362E+03  0.25500000920E-02 0.  1.
       -2    1    3    3    0  502 -0.12123988420E+03  0.52927918496E+03  0.51091300298E+03  0.74556533031E+03  0.25500000920E-02 0. -1.
</event>
<event>
 5   0  0.1648463E-03  0.1410240E+04  0.7818609E-02  0.8946440E-01
        2   -1    0    0  501    0  0.00000000000E+00  0.00000000000E+00  0.29423849568E+04  0.29423849568E+04  0.25500000920E-02 0. -1.
       -2   -1    0    0    0  501  0.00000000000E+00  0.00000000000E+00 -0.16897659824E+03  0.16897659826E+03  0.25500000920E-02 0.  1.
    10030    2    1    2    0    0  0.00000000000E+00  0.00000000000E+00  0.27734083586E+04  0.31113615551E+04  0.14102399806E+04 0.  0.
        1    1    3    3  502    0 -0.37006280470E+02 -0.12812012141E+03  0.29143088910E+04  0.29173584871E+04  0.50400001928E-02 0. -1.
       -1    1    3    3    0  502  0.37006280470E+02  0.12812012141E+03 -0.14090053243E+03  0.19400306793E+03  0.50400001928E-02 0.  1.
</event>
<event>
 5   0  0.1648213E-03  0.1250926E+04  0.7818609E-02  0.9069413E-01
       -2   -1    0    0    0  501  0.00000000000E+00  0.00000000000E+00  0.40216668131E+03  0.40216668132E+03  0.25500000920E-02 0.  1.
        2   -1    0    0  501    0  0.00000000000E+00  0.00000000000E+00 -0.97274150490E+03  0.97274150490E+03  0.25500000920E-02 0. -1.
    10030    2    1    2    0    0  0.00000000000E+00  0.00000000000E+00 -0.57057482359E+03  0.13749081862E+04  0.12509264132E+04 0.  0.
        4    1    3    3  502    0  0.44366055030E+03 -0.39891491558E+03 -0.49160105107E+03  0.77307244167E+03  0.12699999809E+01 0. -1.
       -4    1    3    3    0  502 -0.44366055030E+03  0.39891491558E+03 -0.78973772515E+02  0.60183574454E+03  0.12699999809E+01 0.  1.
</event>
<event>
 5   0  0.1648213E-03  0.1389617E+04  0.7818609E-02  0.8961369E-01
        2   -1    0    0  501    0  0.00000000000E+00  0.00000000000E+00  0.10453348034E+04  0.10453348034E+04  0.25500000920E-02 0. -1.
       -2   -1    0    0    0  501  0.00000000000E+00  0.00000000000E+00 -0.46182194137E+03  0.46182194137E+03  0.25500000920E-02 0.  1.
    10030    2    1    2    0    0  0.00000000000E+00  0.00000000000E+00  0.58351286208E+03  0.15071567448E+04  0.13896165634E+04 0.  0.
        4    1    3    3  502    0 -0.50081638432E+03 -0.17811293188E+03  0.77705886536E+03  0.94146872515E+03  0.12699999809E+01 0. -1.
       -4    1    3    3    0  502  0.50081638432E+03  0.17811293188E+03 -0.19354600329E+03  0.56568801967E+03  0.12699999809E+01 0.  1.
</event>
<event>
 5   0  0.8673728E-04  0.1386240E+04  0.7818609E-02  0.8963839E-01
        1   -1    0    0  501    0  0.00000000000E+00  0.00000000000E+00  0.11575118808E+04  0.11575118809E+04  0.50400001928E-02 0.  1.
       -1   -1    0    0    0  501  0.00000000000E+00  0.00000000000E+00 -0.41504152943E+03  0.41504152946E+03  0.50400001928E-02 0. -1.
    10030    2    1    2    0    0  0.00000000000E+00  0.00000000000E+00  0.74247035141E+03  0.15725534103E+04  0.13862402409E+04 0.  0.
        3    1    3    3  502    0  0.43748407833E+03  0.88459300851E+02  0.97278708961E+03  0.10702953324E+04  0.10100000352E+00 0.  1.
       -3    1    3    3    0  502 -0.43748407833E+03 -0.88459300851E+02 -0.23031673820E+03  0.50225807788E+03  0.10100000352E+00 0. -1.
</event>
<event>
 5   0  0.8609148E-04  0.1407874E+04  0.7818609E-02  0.8948139E-01
        1   -1    0    0  501    0  0.00000000000E+00  0.00000000000E+00  0.14908282511E+04  0.14908282511E+04  0.50400001928E-02 0.  1.
       -1   -1    0    0    0  501  0.00000000000E+00  0.00000000000E+00 -0.33238395320E+03  0.33238395323E+03  0.50400001928E-02 0. -1.
    10030    2    1    2    0    0  0.00000000000E+00  0.00000000000E+00  0.11584442979E+04  0.18232122043E+04  0.14078741246E+04 0.  0.
        5    1    3    3  502    0 -0.35264181996E+03  0.57186419923E+03  0.85123725630E+03  0.10844408108E+04  0.46999998093E+01 0.  1.
       -5    1    3    3    0  502  0.35264181996E+03 -0.57186419923E+03  0.30720704159E+03  0.73877139356E+03  0.46999998093E+01 0. -1.
</event>
<event>
 5   0  0.1578965E-03  0.1350896E+04  0.7818609E-02  0.8990150E-01
        2   -1    0    0  501    0  0.00000000000E+00  0.00000000000E+00  0.20921396550E+04  0.20921396550E+04  0.25500000920E-02 0. -1.
       -2   -1    0    0    0  501  0.00000000000E+00  0.00000000000E+00 -0.21806872845E+03  0.21806872846E+03  0.25500000920E-02 0.  1.
    10030    2    1    2    0    0  0.00000000000E+00  0.00000000000E+00  0.18740709266E+04  0.23102083835E+04  0.13508963459E+04 0.  0.
        2    1    3    3  502    0  0.65584874056E+03  0.11599657068E+03  0.74478870941E+03  0.99915113800E+03  0.25500000920E-02 0.  1.
       -2    1    3    3    0  502 -0.65584874056E+03 -0.11599657068E+03  0.11292822172E+04  0.13110572455E+04  0.25500000920E-02 0. -1.
</event>
<event>
 5   0  0.9007180E-04  0.1382100E+04  0.7818609E-02  0.8966879E-01
        1   -1    0    0  501    0  0.00000000000E+00  0.00000000000E+00  0.63223968170E+03  0.63223968172E+03  0.50400001928E-02 0. -1.
       -1   -1    0    0    0  501  0.00000000000E+00  0.00000000000E+00 -0.75533049164E+03  0.75533049166E+03  0.50400001928E-02 0.  1.
    10030    2    1    2    0    0  0.00000000000E+00  0.00000000000E+00 -0.12309080994E+03  0.13875701734E+04  0.13820997209E+04 0.  0.
        2    1    3    3  502    0 -0.49471931682E+03  0.48192939685E+03 -0.38069875802E+02  0.69170258163E+03  0.25500000920E-02 0.  1.
       -2    1    3    3    0  502  0.49471931682E+03 -0.48192939685E+03 -0.85020934135E+02  0.69586759174E+03  0.25500000920E-02 0. -1.
</event>
<event>
 5   0  0.9007180E-04  0.1377907E+04  0.7818609E-02  0.8969968E-01
       -1   -1    0    0    0  501  0.00000000000E+00  0.00000000000E+00  0.38284732098E+03  0.38284732101E+03  0.50400001928E-02 0. -1.
        1   -1    0    0  501    0  0.00000000000E+00  0.00000000000E+00 -0.12398065098E+04  0.12398065099E+04  0.50400001928E-02 0.  1.
    10030    2    1    2    0    0  0.00000000000E+00  0.00000000000E+00 -0.85695918887E+03  0.16226538309E+04  0.13779065293E+04 0.  0.
        2    1    3    3  502    0  0.29833908026E+03  0.47884374489E+03 -0.89413821746E+03  0.10572514794E+04  0.25500000920E-02 0.  1.
       -2    1    3    3    0  502 -0.29833908026E+03 -0.47884374489E+03  0.37179028588E+02  0.56540235144E+03  0.25500000920E-02 0. -1.
</event>
<event>
 5   0  0.9639548E-04  0.1421551E+04  0.7818609E-02  0.8938365E-01
       -1   -1    0    0    0  501  0.00000000000E+00  0.00000000000E+00  0.84301438784E+03  0.84301438785E+03  0.50400001928E-02 0. -1.
        1   -1    0    0  501    0  0.00000000000E+00  0.00000000000E+00 -0.59928046415E+03  0.59928046417E+03  0.50400001928E-02 0.  1.
    10030    2    1    2    0    0  0.00000000000E+00  0.00000000000E+00  0.24373392369E+03  0.14422948520E+04  0.14215513408E+04 0.  0.
        1    1    3    3  502    0  0.49496973714E+03 -0.37867498744E+03  0.46863233998E+03  0.77974743148E+03  0.50400001928E-02 0. -1.
       -1    1    3    3    0  502 -0.49496973714E+03  0.37867498744E+03 -0.22489841629E+03  0.66254742055E+03  0.50400001928E-02 0.  1.
</event>
<event>
 5   0  0.1578965E-03  0.1386690E+04  0.7818609E-02  0.8963509E-01
        2   -1    0    0  501    0  0.00000000000E+00  0.00000000000E+00  0.73790543689E+03  0.73790543689E+03  0.25500000920E-02 0.  1.
       -2   -1    0    0    0  501  0.00000000000E+00  0.00000000000E+00 -0.65147585465E+03  0.65147585465E+03  0.25500000920E-02 0. -1.
    10030    2    1    2    0    0  0.00000000000E+00  0.00000000000E+00  0.86429582239E+02  0.13893812915E+04  0.13866904127E+04 0.  0.
        2    1    3    3  502    0  0.73719270189E+02  0.47841771903E+03 -0.45414501415E+03  0.66375126257E+03  0.25500000920E-02 0. -1.
       -2    1    3    3    0  502 -0.73719270189E+02 -0.47841771903E+03  0.54057459639E+03  0.72563002898E+03  0.25500000920E-02 0.  1.
</event>
<event>
 5   0  0.1648213E-03  0.1416084E+04  0.7818609E-02  0.8942258E-01
        2   -1    0    0  501    0  0.00000000000E+00  0.00000000000E+00  0.10406939420E+04  0.10406939420E+04  0.25500000920E-02 0. -1.
       -2   -1    0    0    0  501  0.00000000000E+00  0.00000000000E+00 -0.48172022016E+03  0.48172022017E+03  0.25500000920E-02 0.  1.
    10030    2    1    2    0    0  0.00000000000E+00  0.00000000000E+00  0.55897372184E+03  0.15224141622E+04  0.14160837756E+04 0.  0.
        4    1    3    3  502    0 -0.17469583989E+03  0.32061708329E+03  0.93167418183E+03  0.10006659505E+04  0.12699999809E+01 0. -1.
       -4    1    3    3    0  502  0.17469583989E+03 -0.32061708329E+03 -0.37270045999E+03  0.52174821164E+03  0.12699999809E+01 0.  1.
</event>
<event>
 5   0  0.8673728E-04  0.1377588E+04  0.7818609E-02  0.8970203E-01
       -1   -1    0    0    0  501  0.00000000000E+00  0.00000000000E+00  0.48043738455E+03  0.48043738457E+03  0.50400001928E-02 0. -1.
        1   -1    0    0  501    0  0.00000000000E+00  0.00000000000E+00 -0.98751088388E+03  0.98751088389E+03  0.50400001928E-02 0.  1.
    10030    2    1    2    0    0  0.00000000000E+00  0.00000000000E+00 -0.50707349933E+03  0.14679482685E+04  0.13775879591E+04 0.  0.
        3    1    3    3  502    0  0.14889404158E+03 -0.67196435333E+03 -0.28235918901E+03  0.74393027199E+03  0.10100000352E+00 0.  1.
       -3    1    3    3    0  502 -0.14889404158E+03  0.67196435333E+03 -0.22471431032E+03  0.72401799648E+03  0.10100000352E+00 0. -1.
</event>
<event>
 5   0  0.1648463E-03  0.1437459E+04  0.7818609E-02  0.8927141E-01
        2   -1    0    0  501    0  0.00000000000E+00  0.00000000000E+00  0.25522048995E+04  0.25522048995E+04  0.25500000920E-02 0. -1.
       -2   -1    0    0    0  501  0.00000000000E+00  0.00000000000E+00 -0.20240226189E+03  0.20240226190E+03  0.25500000920E-02 0.  1.
    10030    2    1    2    0    0  0.00000000000E+00  0.00000000000E+00  0.23498026377E+04  0.27546071615E+04  0.14374589309E+04 0.  0.
        1    1    3    3  502    0  0.65186700793E+03 -0.30143233753E+03  0.11213820775E+04  0.13316492833E+04  0.50400001928E-02 0. -1.
       -1    1    3    3    0  502 -0.65186700793E+03  0.30143233753E+03  0.12284205602E+04  0.14229578781E+04  0.50400001928E-02 0.  1.
</event>
<event>
 5   0  0.9007180E-04  0.1400037E+04  0.7818609E-02  0.8953792E-01
       -1   -1    0    0    0  501  0.00000000000E+00  0.00000000000E+00  0.63167975754E+03  0.63167975756E+03  0.50400001928E-02 0.  1.
        1   -1    0    0  501    0  0.00000000000E+00  0.00000000000E+00 -0.77575039590E+03  0.77575039591E+03  0.50400001928E-02 0. -1.
    10030    2    1    2    0    0  0.00000000000E+00  0.00000000000E+00 -0.14407063835E+03  0.14074301535E+04  0.14000368881E+04 0.  0.
        2    1    3    3  502    0 -0.24008837665E+03  0.33012416646E+03 -0.64372234924E+03  0.76223543397E+03  0.25500000920E-02 0. -1.
       -2    1    3    3    0  502  0.24008837665E+03 -0.33012416646E+03  0.49965171088E+03  0.64519471951E+03  0.25500000920E-02 0.  1.
</event>
<event>
 5   0  0.9639548E-04  0.1388166E+04  0.7818609E-02  0.8962429E-01
       -1   -1    0    0    0  501  0.00000000000E+00  0.00000000000E+00  0.36962146896E+03  0.36962146900E+03  0.50400001928E-02 0.  1.
        1   -1    0    0  501    0  0.00000000000E+00  0.00000000000E+00 -0.13033642645E+04  0.13033642645E+04  0.50400001928E-02 0. -1.
    10030    2    1    2    0    0  0.00000000000E+00  0.00000000000E+00 -0.93374279551E+03  0.16729857335E+04  0.13881662927E+04 0.  0.
        1    1    3    3  502    0 -0.33287993916E+03 -0.52866753136E+03 -0.10241152061E+03  0.63307703496E+03  0.50400001928E-02 0.  1.
       -1    1    3    3    0  502  0.33287993916E+03  0.52866753136E+03 -0.83133127489E+03  0.10399086985E+04  0.50400001928E-02 0. -1.
</event>
<event>
 5   0  0.8673728E-04  0.1407040E+04  0.7818609E-02  0.8948739E-01
        1   -1    0    0  501    0  0.00000000000E+00  0.00000000000E+00  0.49150425463E+03  0.49150425465E+03  0.50400001928E-02 0. -1.
       -1   -1    0    0    0  501  0.00000000000E+00  0.00000000000E+00 -0.10069903595E+04  0.10069903595E+04  0.50400001928E-02 0.  1.
    10030    2    1    2    0    0  0.00000000000E+00  0.00000000000E+00 -0.51548610485E+03  0.14984946141E+04  0.14070395106E+04 0.  0.
        3    1    3    3  502    0 -0.55513679476E+03  0.16451279470E+03 -0.68334107828E+03  0.89565415199E+03  0.10100000352E+00 0.  1.
       -3    1    3    3    0  502  0.55513679476E+03 -0.16451279470E+03  0.16785497342E+03  0.60284046216E+03  0.10100000352E+00 0. -1.
</event>
<event>
 5   0  0.9639548E-04  0.1398650E+04  0.7818609E-02  0.8954797E-01
        1   -1    0    0  501    0  0.00000000000E+00  0.00000000000E+00  0.51546097720E+03  0.51546097723E+03  0.50400001928E-02 0. -1.
       -1   -1    0    0    0  501  0.00000000000E+00  0.00000000000E+00 -0.94877243600E+03  0.94877243602E+03  0.50400001928E-02 0.  1.
    10030    2    1    2    0    0  0.00000000000E+00  0.00000000000E+00 -0.43331145880E+03  0.14642334132E+04  0.13986495873E+04 0.  0.
        1    1    3    3  502    0  0.35405645528E+03  0.97422780087E+02 -0.83971673486E+03  0.91649951797E+03  0.50400001928E-02 0.  1.
       -1    1    3    3    0  502 -0.35405645528E+03 -0.97422780087E+02  0.40640527606E+03  0.54773389528E+03  0.50400001928E-02 0. -1.
</event>
<event>
 5   0  0.9639548E-04  0.1414307E+04  0.7818609E-02  0.8943527E-01
        1   -1    0    0  501    0  0.00000000000E+00  0.00000000000E+00  0.76010375692E+03  0.76010375694E+03  0.50400001928E-02 0. -1.
       -1   -1    0    0    0  501  0.00000000000E+00  0.00000000000E+00 -0.65789188696E+03  0.65789188697E+03  0.50400001928E-02 0.  1.
    10030    2    1    2    0    0  0.00000000000E+00  0.00000000000E+00  0.10221186997E+03  0.14179956439E+04  0.14143070317E+04 0.  0.
        1    1    3    3  502    0  0.59262877522E+03 -0.31436698858E+03  0.27536456535E+03  0.72516281800E+03  0.50400001928E-02 0. -1.
       -1    1    3    3    0  502 -0.59262877522E+03  0.31436698858E+03 -0.17315269538E+03  0.69283282592E+03  0.50400001928E-02 0.  1.
</event>
<event>
 5   0  0.9007180E-04  0.1197498E+04  0.7818609E-02  0.9115050E-01
        1   -1    0    0  501    0  0.00000000000E+00  0.00000000000E+00  0.10300769166E+04  0.10300769166E+04  0.50400001928E-02 0. -1.
       -1   -1    0    0    0  501  0.00000000000E+00  0.00000000000E+00 -0.34803246270E+03  0.34803246274E+03  0.50400001928E-02 0.  1.
    10030    2    1    2    0    0  0.00000000000E+00  0.00000000000E+00  0.68204445389E+03  0.13781093793E+04  0.11974977346E+04 0.  0.
        2    1    3    3  502    0 -0.41658874259E+03  0.33847981101E+03  0.64633882363E+03  0.84015988827E+03  0.25500000920E-02 0. -1.
       -2    1    3    3    0  502  0.41658874259E+03 -0.33847981101E+03  0.35705630261E+02  0.53794949108E+03  0.25500000920E-02 0.  1.
</event>
<event>
 5   0  0.9639548E-04  0.1405481E+04  0.7818609E-02  0.8949861E-01
       -1   -1    0    0    0  501  0.00000000000E+00  0.00000000000E+00  0.51543751348E+03  0.51543751351E+03  0.50400001928E-02 0. -1.
        1   -1    0    0  501    0  0.00000000000E+00  0.00000000000E+00 -0.95810641427E+03  0.95810641429E+03  0.50400001928E-02 0.  1.
    10030    2    1    2    0    0  0.00000000000E+00  0.00000000000E+00 -0.44266890079E+03  0.14735439278E+04  0.14054806834E+04 0.  0.
        1    1    3    3  502    0 -0.24757497025E+03  0.25611076880E+03  0.41377170884E+03  0.54597904616E+03  0.50400001928E-02 0. -1.
       -1    1    3    3    0  502  0.24757497025E+03 -0.25611076880E+03 -0.85644060963E+03  0.92756488163E+03  0.50400001928E-02 0.  1.
</event>
<event>
 5   0  0.1578965E-03  0.1404262E+04  0.7818609E-02  0.8950739E-01
        2   -1    0    0  501    0  0.00000000000E+00  0.00000000000E+00  0.53068686174E+03  0.53068686174E+03  0.25500000920E-02 0. -1.
       -2   -1    0    0    0  501  0.00000000000E+00  0.00000000000E+00 -0.92896200491E+03  0.92896200491E+03  0.25500000920E-02 0.  1.
    10030    2    1    2    0    0  0.00000000000E+00  0.00000000000E+00 -0.39827514317E+03  0.14596488667E+04  0.14042619856E+04 0.  0.
        2    1    3    3  502    0  0.15889954402E+03 -0.68979328305E+02 -0.90640182292E+03  0.92280630547E+03  0.25500000920E-02 0.  1.
       -2    1    3    3    0  502 -0.15889954402E+03  0.68979328305E+02  0.50812667975E+03  0.53684256119E+03  0.25500000920E-02 0. -1.
</event>
<event>
 5   0  0.9007180E-04  0.1688682E+04  0.7818609E-02  0.8767846E-01
       -1   -1    0    0    0  501  0.00000000000E+00  0.00000000000E+00  0.10875234896E+04  0.10875234896E+04  0.50400001928E-02 0.  1.
        1   -1    0    0  501    0  0.00000000000E+00  0.00000000000E+00 -0.65553688980E+03  0.65553688982E+03  0.50400001928E-02 0. -1.
    10030    2    1    2    0    0  0.00000000000E+00  0.00000000000E+00  0.43198659977E+03  0.17430603794E+04  0.16886820494E+04 0.  0.
        2    1    3    3  502    0  0.55285204486E+03 -0.40573889260E+03 -0.29245620805E+03  0.74551999712E+03  0.25500000920E-02 0. -1.
       -2    1    3    3    0  502 -0.55285204486E+03  0.40573889260E+03  0.72444280782E+03  0.99754038228E+03  0.25500000920E-02 0.  1.
</event>
<event>
 5   0  0.8609148E-04  0.1396721E+04  0.7818609E-02  0.8956195E-01
        1   -1    0    0  501    0  0.00000000000E+00  0.00000000000E+00  0.44493343383E+03  0.44493343386E+03  0.50400001928E-02 0. -1.
       -1   -1    0    0    0  501  0.00000000000E+00  0.00000000000E+00 -0.10961360794E+04  0.10961360794E+04  0.50400001928E-02 0.  1.
    10030    2    1    2    0    0  0.00000000000E+00  0.00000000000E+00 -0.65120264553E+03  0.15410695132E+04  0.13967212890E+04 0.  0.
        5    1    3    3  502    0  0.61441063847E+03  0.20004409967E+03 -0.61786863561E+03  0.89403680872E+03  0.46999998093E+01 0.  1.
       -5    1    3    3    0  502 -0.61441063847E+03 -0.20004409967E+03 -0.33334009923E+02  0.64703270451E+03  0.46999998093E+01 0. -1.
</event>
<event>
 5   0  0.1648463E-03  0.1427403E+04  0.7818609E-02  0.8934218E-01
       -2   -1    0    0    0  501  0.00000000000E+00  0.00000000000E+00  0.89164103707E+03  0.89164103707E+03  0.25500000920E-02 0.  1.
        2   -1    0    0  501    0  0.00000000000E+00  0.00000000000E+00 -0.57127250986E+03  0.57127250986E+03  0.25500000920E-02 0. -1.
    10030    2    1    2    0    0  0.00000000000E+00  0.00000000000E+00  0.32036852721E+03  0.14629135469E+04  0.14274032551E+04 0.  0.
        1    1    3    3  502    0 -0.45611616603E+03 -0.42233442784E+03 -0.19919820351E+03  0.65275435668E+03  0.50400001928E-02 0. -1.
       -1    1    3    3    0  502  0.45611616603E+03  0.42233442784E+03  0.51956673072E+03  0.81015919026E+03  0.50400001928E-02 0.  1.
</event>
<event>
 5   0  0.1648463E-03  0.1400984E+04  0.7818609E-02  0.8953106E-01
        2   -1    0    0  501    0  0.00000000000E+00  0.00000000000E+00  0.21567816180E+04  0.21567816180E+04  0.25500000920E-02 0. -1.
       -2   -1    0    0    0  501  0.00000000000E+00  0.00000000000E+00 -0.22750992888E+03  0.22750992890E+03  0.25500000920E-02 0.  1.
    10030    2    1    2    0    0  0.00000000000E+00  0.00000000000E+00  0.19292716891E+04  0.23842915469E+04  0.14009842719E+04 0.  0.
        1    1    3    3  502    0  0.55969597725E+03 -0.22789244416E+03  0.15675267827E+04  0.16799805855E+04  0.50400001928E-02 0. -1.
       -1    1    3    3    0  502 -0.55969597725E+03  0.22789244416E+03  0.36174490642E+03  0.70431096143E+03  0.50400001928E-02 0.  1.
</event>
<event>
 5   0  0.1578965E-03  0.1386960E+04  0.7818609E-02  0.8963312E-01
       -2   -1    0    0    0  501  0.00000000000E+00  0.00000000000E+00  0.30447016018E+03  0.30447016019E+03  0.25500000920E-02 0. -1.
        2   -1    0    0  501    0  0.00000000000E+00  0.00000000000E+00 -0.15795117040E+04  0.15795117040E+04  0.25500000920E-02 0.  1.
    10030    2    1    2    0    0  0.00000000000E+00  0.00000000000E+00 -0.12750415438E+04  0.18839818642E+04  0.13869595258E+04 0.  0.
        2    1    3    3  502    0 -0.44005565430E+03 -0.51931767512E+03 -0.45744610214E+03  0.82011996863E+03  0.25500000920E-02 0. -1.
       -2    1    3    3    0  502  0.44005565430E+03  0.51931767512E+03 -0.81759544169E+03  0.10638618956E+04  0.25500000920E-02 0.  1.
</event>
<event>
 5   0  0.1605214E-03  0.1425502E+04  0.7818609E-02  0.8935563E-01
        2   -1    0    0  501    0  0.00000000000E+00  0.00000000000E+00  0.24341924053E+04  0.24341924053E+04  0.25500000920E-02 0.  1.
       -2   -1    0    0    0  501  0.00000000000E+00  0.00000000000E+00 -0.20869905042E+03  0.20869905043E+03  0.25500000920E-02 0. -1.
    10030    2    1    2    0    0  0.00000000000E+00  0.00000000000E+00  0.22254933549E+04  0.26428914557E+04  0.14255015167E+04 0.  0.
        5    1    3    3  502    0 -0.26487189371E+03 -0.21169340607E+03  0.22750491297E+04  0.23001830037E+04  0.46999998093E+01 0.  1.
       -5    1    3    3    0  502  0.26487189371E+03  0.21169340607E+03 -0.49555774804E+02  0.34270845199E+03  0.46999998093E+01 0. -1.
</event>
<event>
 5   0  0.8502300E-04  0.1533597E+04  0.7818609E-02  0.8862414E-01
       -1   -1    0    0    0  501  0.00000000000E+00  0.00000000000E+00  0.64497714149E+03  0.64497714151E+03  0.50400001928E-02 0.  1.
        1   -1    0    0  501    0  0.00000000000E+00  0.00000000000E+00 -0.91162870220E+03  0.91162870221E+03  0.50400001928E-02 0. -1.
    10030    2    1    2    0    0  0.00000000000E+00  0.00000000000E+00 -0.26665156071E+03  0.15566058437E+04  0.15335966542E+04 0.  0.
        4    1    3    3  502    0 -0.14396853223E+03  0.48311264537E+03 -0.71979515427E+03  0.87876700177E+03  0.12699999809E+01 0. -1.
       -4    1    3    3    0  502  0.14396853223E+03 -0.48311264537E+03  0.45314359356E+03  0.67783884196E+03  0.12699999809E+01 0.  1.
</event>
<event>
 5   0  0.1648463E-03  0.1376385E+04  0.7818609E-02  0.8971092E-01
        2   -1    0    0  501    0  0.00000000000E+00  0.00000000000E+00  0.93531293332E+03  0.93531293332E+03  0.25500000920E-02 0.  1.
       -2   -1    0    0    0  501  0.00000000000E+00  0.00000000000E+00 -0.50636426866E+03  0.50636426866E+03  0.25500000920E-02 0. -1.
    10030    2    1    2    0    0  0.00000000000E+00  0.00000000000E+00  0.42894866466E+03  0.14416772020E+04  0.13763851924E+04 0.  0.
        1    1    3    3  502    0  0.76524159036E+02  0.11957336088E+03 -0.49086042736E+03  0.51097719589E+03  0.50400001928E-02 0. -1.
       -1    1    3    3    0  502 -0.76524159036E+02 -0.11957336088E+03  0.91980909202E+03  0.93070000609E+03  0.50400001928E-02 0.  1.
</event>
<event>
 5   0  0.9639548E-04  0.1462811E+04  0.7818609E-02  0.8909567E-01
        1   -1    0    0  501    0  0.00000000000E+00  0.00000000000E+00  0.98574538899E+03  0.98574538900E+03  0.50400001928E-02 0.  1.
       -1   -1    0    0    0  501  0.00000000000E+00  0.00000000000E+00 -0.54268951557E+03  0.54268951559E+03  0.50400001928E-02 0. -1.
    10030    2    1    2    0    0  0.00000000000E+00  0.00000000000E+00  0.44305587342E+03  0.15284349046E+04  0.14628105655E+04 0.  0.
        1    1    3    3  502    0  0.43496333374E+03  0.20236623711E+02 -0.39250159409E+03  0.58622531847E+03  0.50400001928E-02 0. -1.
       -1    1    3    3    0  502 -0.43496333374E+03 -0.20236623711E+02  0.83555746751E+03  0.94220958612E+03  0.50400001928E-02 0.  1.
</event>
<event>
 5   0  0.9007180E-04  0.1432602E+04  0.7818609E-02  0.8930552E-01
       -1   -1    0    0    0  501  0.00000000000E+00  0.00000000000E+00  0.41517600630E+03  0.41517600633E+03  0.50400001928E-02 0.  1.
        1   -1    0    0  501    0  0.00000000000E+00  0.00000000000E+00 -0.12358309618E+04  0.12358309618E+04  0.50400001928E-02 0. -1.
    10030    2    1    2    0    0  0.00000000000E+00  0.00000000000E+00 -0.82065495551E+03  0.16510069682E+04  0.14326023359E+04 0.  0.
        2    1    3    3  502    0  0.46120287637E+03  0.60620919208E+02 -0.10380753159E+04  0.11375338899E+04  0.25500000920E-02 0. -1.
       -2    1    3    3    0  502 -0.46120287637E+03 -0.60620919208E+02  0.21742036042E+03  0.51347307831E+03  0.25500000920E-02 0.  1.
</event>
<event>
 5   0  0.8673728E-04  0.1407151E+04  0.7818609E-02  0.8948658E-01
       -1   -1    0    0    0  501  0.00000000000E+00  0.00000000000E+00  0.74684939224E+03  0.74684939226E+03  0.50400001928E-02 0.  1.
        1   -1    0    0  501    0  0.00000000000E+00  0.00000000000E+00 -0.66280902746E+03  0.66280902748E+03  0.50400001928E-02 0. -1.
    10030    2    1    2    0    0  0.00000000000E+00  0.00000000000E+00  0.84040364784E+02  0.14096584197E+04  0.14071510500E+04 0.  0.
        3    1    3    3  502    0 -0.21728922803E+03  0.50503364436E+03 -0.39778935135E+03  0.67860884816E+03  0.10100000352E+00 0. -1.
       -3    1    3    3    0  502  0.21728922803E+03 -0.50503364436E+03  0.48182971613E+03  0.73104957158E+03  0.10100000352E+00 0.  1.
</event>
<event>
 5   0  0.8609148E-04  0.1383640E+04  0.7818609E-02  0.8965747E-01
        1   -1    0    0  501    0  0.00000000000E+00  0.00000000000E+00  0.11798929809E+04  0.11798929809E+04  0.50400001928E-02 0.  1.
       -1   -1    0    0    0  501  0.00000000000E+00  0.00000000000E+00 -0.40564253918E+03  0.40564253922E+03  0.50400001928E-02 0. -1.
    10030    2    1    2    0    0  0.00000000000E+00  0.00000000000E+00  0.77425044171E+03  0.15855355201E+04  0.13836398155E+04 0.  0.
        5    1    3    3  502    0 -0.37745431306E+03 -0.54742584815E+03  0.60588986186E+03  0.89959514915E+03  0.46999998093E+01 0. -1.
       -5    1    3    3    0  502  0.37745431306E+03  0.54742584815E+03  0.16836057985E+03  0.68594037097E+03  0.46999998093E+01 0.  1.
</event>
<event>
 5   0  0.9007180E-04  0.1387600E+04  0.7818609E-02  0.8962844E-01
       -1   -1    0    0    0  501  0.00000000000E+00  0.00000000000E+00  0.45311383648E+03  0.45311383651E+03  0.50400001928E-02 0.  1.
        1   -1    0    0  501    0  0.00000000000E+00  0.00000000000E+00 -0.10623344005E+04  0.10623344005E+04  0.50400001928E-02 0. -1.
    10030    2    1    2    0    0  0.00000000000E+00  0.00000000000E+00 -0.60922056401E+03  0.15154482370E+04  0.13875999652E+04 0.  0.
        2    1    3    3  502    0  0.69280317714E+03 -0.36834998030E+02 -0.31010976206E+03  0.75993494713E+03  0.25500000920E-02 0. -1.
       -2    1    3    3    0  502 -0.69280317714E+03  0.36834998030E+02 -0.29911080195E+03  0.75551328988E+03  0.25500000920E-02 0.  1.
</event>
<event>
 5   0  0.1648463E-03  0.1404735E+04  0.7818609E-02  0.8950398E-01
       -2   -1    0    0    0  501  0.00000000000E+00  0.00000000000E+00  0.27079775561E+03  0.27079775563E+03  0.25500000920E-02 0.  1.
        2   -1    0    0  501    0  0.00000000000E+00  0.00000000000E+00 -0.18217296240E+04  0.18217296240E+04  0.25500000920E-02 0. -1.
    10030    2    1    2    0    0  0.00000000000E+00  0.00000000000E+00 -0.15509318684E+04  0.20925273796E+04  0.14047352683E+04 0.  0.
        1    1    3    3  502    0  0.51239788360E+03  0.48030822084E+03 -0.78816845143E+03  0.10556784956E+04  0.50400001928E-02 0.  1.
       -1    1    3    3    0  502 -0.51239788360E+03 -0.48030822084E+03 -0.76276341694E+03  0.10368488841E+04  0.50400001928E-02 0. -1.
</event>
<event>
 5   0  0.1706986E-03  0.1406234E+04  0.7818609E-02  0.8949318E-01
       -2   -1    0    0    0  501  0.00000000000E+00  0.00000000000E+00  0.68590714529E+03  0.68590714530E+03  0.25500000920E-02 0.  1.
        2   -1    0    0  501    0  0.00000000000E+00  0.00000000000E+00 -0.72075910070E+03  0.72075910070E+03  0.25500000920E-02 0. -1.
    10030    2    1    2    0    0  0.00000000000E+00  0.00000000000E+00 -0.34851955402E+02  0.14066662460E+04  0.14062344288E+04 0.  0.
        3    1    3    3  502    0 -0.35973473635E+03  0.45401632415E+03  0.38123611754E+03  0.69345575969E+03  0.10100000352E+00 0.  1.
       -3    1    3    3    0  502  0.35973473635E+03 -0.45401632415E+03 -0.41608807295E+03  0.71321048631E+03  0.10100000352E+00 0. -1.
</event>
<event>
 5   0  0.9639548E-04  0.1392448E+04  0.7818609E-02  0.8959304E-01
        1   -1    0    0  501    0  0.00000000000E+00  0.00000000000E+00  0.33061606245E+03  0.33061606249E+03  0.50400001928E-02 0. -1.
       -1   -1    0    0    0  501  0.00000000000E+00  0.00000000000E+00 -0.14661341923E+04  0.14661341924E+04  0.50400001928E-02 0.  1.
    10030    2    1    2    0    0  0.00000000000E+00  0.00000000000E+00 -0.11355181299E+04  0.17967502548E+04  0.13924475053E+04 0.  0.
        1    1    3    3  502    0  0.32336014957E+02 -0.48305294903E+03  0.77858772304E+02  0.49035472658E+03  0.50400001928E-02 0. -1.
       -1    1    3    3    0  502 -0.32336014957E+02  0.48305294903E+03 -0.12133769022E+04  0.13063955283E+04  0.50400001928E-02 0.  1.
</event>
<event>
 5   0  0.9007180E-04  0.1418949E+04  0.7818609E-02  0.8940215E-01
       -1   -1    0    0    0  501  0.00000000000E+00  0.00000000000E+00  0.96039165440E+03  0.96039165442E+03  0.50400001928E-02 0. -1.
        1   -1    0    0  501    0  0.00000000000E+00  0.00000000000E+00 -0.52411356540E+03  0.52411356542E+03  0.50400001928E-02 0.  1.
    10030    2    1    2    0    0  0.00000000000E+00  0.00000000000E+00  0.43627808901E+03  0.14845052198E+04  0.14189493214E+04 0.  0.
        2    1    3    3  502    0  0.55824599920E+03  0.47426346305E+02  0.67352642567E+03  0.87608544106E+03  0.25500000920E-02 0. -1.
       -2    1    3    3    0  502 -0.55824599920E+03 -0.47426346305E+02 -0.23724833667E+03  0.60841977878E+03  0.25500000920E-02 0.  1.
</event>
<event>
 5   0  0.9639548E-04  0.1389803E+04  0.7818609E-02  0.8961233E-01
        1   -1    0    0  501    0  0.00000000000E+00  0.00000000000E+00  0.22461268438E+04  0.22461268438E+04  0.50400001928E-02 0. -1.
       -1   -1    0    0    0  501  0.00000000000E+00  0.00000000000E+00 -0.21498703286E+03  0.21498703292E+03  0.50400001928E-02 0.  1.
    10030    2    1    2    0    0  0.00000000000E+00  0.00000000000E+00  0.20311398110E+04  0.24611138768E+04  0.13898030733E+04 0.  0.
        1    1    3    3  502    0  0.36437061336E+03 -0.18142785015E+03  0.20129236715E+04  0.20536659212E+04  0.50400001928E-02 0. -1.
       -1    1    3    3    0  502 -0.36437061336E+03  0.18142785015E+03  0.18216139452E+02  0.40744795552E+03  0.50400001928E-02 0.  1.
</event>
<event>
 5   0  0.8502300E-04  0.1392431E+04  0.7818609E-02  0.8959316E-01
        1   -1    0    0  501    0  0.00000000000E+00  0.00000000000E+00  0.13440061403E+04  0.13440061403E+04  0.50400001928E-02 0. -1.
       -1   -1    0    0    0  501  0.00000000000E+00  0.00000000000E+00 -0.36065021957E+03  0.36065021960E+03  0.50400001928E-02 0.  1.
    10030    2    1    2    0    0  0.00000000000E+00  0.00000000000E+00  0.98335592077E+03  0.17046563599E+04  0.13924311253E+04 0.  0.
        4    1    3    3  502    0 -0.40884311483E+03  0.55742757140E+03  0.59289972273E+03  0.91071943211E+03  0.12699999809E+01 0.  1.
       -4    1    3    3    0  502  0.40884311483E+03 -0.55742757140E+03  0.39045619804E+03  0.79393692784E+03  0.12699999809E+01 0. -1.
</event>
<event>
 5   0  0.8673728E-04  0.1365013E+04  0.7818609E-02  0.8979540E-01
        1   -1    0    0  501    0  0.00000000000E+00  0.00000000000E+00  0.62580326977E+03  0.62580326979E+03  0.50400001928E-02 0. -1.
       -1   -1    0    0    0  501  0.00000000000E+00  0.00000000000E+00 -0.74434788631E+03  0.74434788633E+03  0.50400001928E-02 0.  1.
    10030    2    1    2    0    0  0.00000000000E+00  0.00000000000E+00 -0.11854461654E+03  0.13701511561E+04  0.13650133203E+04 0.  0.
        3    1    3    3  502    0  0.32925949059E+03  0.48979001971E+03 -0.40335880474E+03  0.71484572539E+03  0.10100000352E+00 0.  1.
       -3    1    3    3    0  502 -0.32925949059E+03 -0.48979001971E+03  0.28481418820E+03  0.65530543073E+03  0.10100000352E+00 0. -1.
</event>
<event>
 5   0  0.1648463E-03  0.1373799E+04  0.7818609E-02  0.8973006E-01
       -2   -1    0    0    0  501  0.00000000000E+00  0.00000000000E+00  0.52110135121E+03  0.52110135121E+03  0.25500000920E-02 0.  1.
        2   -1    0    0  501    0  0.00000000000E+00  0.00000000000E+00 -0.90544912827E+03  0.90544912827E+03  0.25500000920E-02 0. -1.
    10030    2    1    2    0    0  0.00000000000E+00  0.00000000000E+00 -0.38434777706E+03  0.14265504795E+04  0.13737987687E+04 0.  0.
        1    1    3    3  502    0  0.39909298088E+03  0.36856134065E+03 -0.62869427585E+03  0.83088456582E+03  0.50400001928E-02 0. -1.
       -1    1    3    3    0  502 -0.39909298088E+03 -0.36856134065E+03  0.24434649879E+03  0.59566591367E+03  0.50400001928E-02 0.  1.
</event>
<event>
 5   0  0.8609148E-04  0.1388440E+04  0.7818609E-02  0.8962229E-01
        1   -1    0    0  501    0  0.00000000000E+00  0.00000000000E+00  0.90542711145E+03  0.90542711146E+03  0.50400001928E-02 0.  1.
       -1   -1    0    0    0  501  0.00000000000E+00  0.00000000000E+00 -0.53228040461E+03  0.53228040463E+03  0.50400001928E-02 0. -1.
    10030    2    1    2    0    0  0.00000000000E+00  0.00000000000E+00  0.37314670684E+03  0.14377075161E+04  0.13884395691E+04 0.  0.
        5    1    3    3  502    0  0.26328701317E+03 -0.21184490465E+03  0.81449087614E+03  0.88182526174E+03  0.46999998093E+01 0.  1.
       -5    1    3    3    0  502 -0.26328701317E+03  0.21184490465E+03 -0.44134416930E+03  0.55588225435E+03  0.46999998093E+01 0. -1.
</event>
<event>
 5   0  0.1578965E-03  0.1389039E+04  0.7818609E-02  0.8961791E-01
        2   -1    0    0  501    0  0.00000000000E+00  0.00000000000E+00  0.78907373050E+03  0.78907373051E+03  0.25500000920E-02 0.  1.
       -2   -1    0    0    0  501  0.00000000000E+00  0.00000000000E+00 -0.61129562899E+03  0.61129562900E+03  0.25500000920E-02 0. -1.
    10030    2    1    2    0    0  0.00000000000E+00  0.00000000000E+00  0.17777810151E+03  0.14003693595E+04  0.13890389806E+04 0.  0.
        2    1    3    3  502    0  0.20987347842E+03  0.66127677441E+03  0.12114177323E+03  0.70427919077E+03  0.25500000920E-02 0. -1.
       -2    1    3    3    0  502 -0.20987347842E+03 -0.66127677441E+03  0.56636328282E+02  0.69609016874E+03  0.25500000920E-02 0.  1.
</event>
<event>
 5   0  0.8502300E-04  0.1393730E+04  0.7818609E-02  0.8958369E-01
       -1   -1    0    0    0  501  0.00000000000E+00  0.00000000000E+00  0.10811965791E+04  0.10811965791E+04  0.50400001928E-02 0. -1.
        1   -1    0    0  501    0  0.00000000000E+00  0.00000000000E+00 -0.44915143937E+03  0.44915143940E+03  0.50400001928E-02 0.  1.
    10030    2    1    2    0    0  0.00000000000E+00  0.00000000000E+00  0.63204513968E+03  0.15303480185E+04  0.13937302461E+04 0.  0.
        4    1    3    3  502    0 -0.34625638359E+03  0.58684829652E+03  0.15563983817E+03  0.69893474547E+03  0.12699999809E+01 0.  1.
       -4    1    3    3    0  502  0.34625638359E+03 -0.58684829652E+03  0.47640530151E+03  0.83141327299E+03  0.12699999809E+01 0. -1.
</event>
<event>
 5   0  0.1706986E-03  0.1350900E+04  0.7818609E-02  0.8990147E-01
        2   -1    0    0  501    0  0.00000000000E+00  0.00000000000E+00  0.18623281545E+04  0.18623281545E+04  0.25500000920E-02 0.  1.
       -2   -1    0    0    0  501  0.00000000000E+00  0.00000000000E+00 -0.24497985141E+03  0.24497985142E+03  0.25500000920E-02 0. -1.
    10030    2    1    2    0    0  0.00000000000E+00  0.00000000000E+00  0.16173483031E+04  0.21073080060E+04  0.13509002548E+04 0.  0.
        3    1    3    3  502    0  0.50983901406E+03 -0.43110051140E+03  0.64921469888E+03  0.93126967449E+03  0.10100000352E+00 0. -1.
       -3    1    3    3    0  502 -0.50983901406E+03  0.43110051140E+03  0.96813360426E+03  0.11760383315E+04  0.10100000352E+00 0.  1.
</event>
<event>
 5   0  0.9639548E-04  0.1405828E+04  0.7818609E-02  0.8949611E-01
        1   -1    0    0  501    0  0.00000000000E+00  0.00000000000E+00  0.98224484218E+03  0.98224484220E+03  0.50400001928E-02 0. -1.
       -1   -1    0    0    0  501  0.00000000000E+00  0.00000000000E+00 -0.50301933899E+03  0.50301933902E+03  0.50400001928E-02 0.  1.
    10030    2    1    2    0    0  0.00000000000E+00  0.00000000000E+00  0.47922550319E+03  0.14852641812E+04  0.14058280852E+04 0.  0.
        1    1    3    3  502    0  0.48662962818E+03  0.29978473002E+03 -0.19266285344E+03  0.60315690703E+03  0.50400001928E-02 0.  1.
       -1    1    3    3    0  502 -0.48662962818E+03 -0.29978473002E+03  0.67188835663E+03  0.88210727419E+03  0.50400001928E-02 0. -1.
</event>
<event>
 5   0  0.1706986E-03  0.1413411E+04  0.7818609E-02  0.8944168E-01
       -2   -1    0    0    0  501  0.00000000000E+00  0.00000000000E+00  0.31897730895E+03  0.31897730896E+03  0.25500000920E-02 0.  1.
        2   -1    0    0  501    0  0.00000000000E+00  0.00000000000E+00 -0.15657308033E+04  0.15657308033E+04  0.25500000920E-02 0. -1.
    10030    2    1    2    0    0  0.00000000000E+00  0.00000000000E+00 -0.12467534943E+04  0.18847081123E+04  0.14134109073E+04 0.  0.
        3    1    3    3  502    0 -0.26771020998E+03  0.41339995692E+03  0.52437809021E+02  0.49529588623E+03  0.10100000352E+00 0.  1.
       -3    1    3    3    0  502  0.26771020998E+03 -0.41339995692E+03 -0.12991913034E+04  0.13894122260E+04  0.10100000352E+00 0. -1.
</event>
<event>
 5   0  0.8609148E-04  0.1373980E+04  0.7818609E-02  0.8972871E-01
       -1   -1    0    0    0  501  0.00000000000E+00  0.00000000000E+00  0.26685836215E+03  0.26685836220E+03  0.50400001928E-02 0.  1.
        1   -1    0    0  501    0  0.00000000000E+00  0.00000000000E+00 -0.17685620830E+04  0.17685620830E+04  0.50400001928E-02 0. -1.
    10030    2    1    2    0    0  0.00000000000E+00  0.00000000000E+00 -0.15017037208E+04  0.20354204452E+04  0.13739804669E+04 0.  0.
        5    1    3    3  502    0 -0.63961222298E+03  0.19250538216E+03 -0.51303515861E+03  0.84225250484E+03  0.46999998093E+01 0.  1.
       -5    1    3    3    0  502  0.63961222298E+03 -0.19250538216E+03 -0.98866856220E+03  0.11931679403E+04  0.46999998093E+01 0. -1.
</event>
<event>
 5   0  0.8609148E-04  0.1398405E+04  0.7818609E-02  0.8954974E-01
       -1   -1    0    0    0  501  0.00000000000E+00  0.00000000000E+00  0.25770468250E+03  0.25770468255E+03  0.50400001928E-02 0.  1.
        1   -1    0    0  501    0  0.00000000000E+00  0.00000000000E+00 -0.18970701949E+04  0.18970701949E+04  0.50400001928E-02 0. -1.
    10030    2    1    2    0    0  0.00000000000E+00  0.00000000000E+00 -0.16393655124E+04  0.21547748775E+04  0.13984046229E+04 0.  0.
        5    1    3    3  502    0  0.52771613733E+03 -0.44804716352E+03 -0.97090276289E+03  0.11924365171E+04  0.46999998093E+01 0. -1.
       -5    1    3    3    0  502 -0.52771613733E+03  0.44804716352E+03 -0.66846274953E+03  0.96233836037E+03  0.46999998093E+01 0.  1.
</event>
<event>
 5   0  0.8673728E-04  0.1403655E+04  0.7818609E-02  0.8951177E-01
       -1   -1    0    0    0  501  0.00000000000E+00  0.00000000000E+00  0.75392313720E+03  0.75392313721E+03  0.50400001928E-02 0.  1.
        1   -1    0    0  501    0  0.00000000000E+00  0.00000000000E+00 -0.65333183608E+03  0.65333183610E+03  0.50400001928E-02 0. -1.
    10030    2    1    2    0    0  0.00000000000E+00  0.00000000000E+00  0.10059130111E+03  0.14072549733E+04  0.14036552105E+04 0.  0.
        3    1    3    3  502    0 -0.10151642533E+03 -0.26607870209E+03 -0.59279971256E+03  0.65765870308E+03  0.10100000352E+00 0. -1.
       -3    1    3    3    0  502  0.10151642533E+03  0.26607870209E+03  0.69339101367E+03  0.74959627024E+03  0.10100000352E+00 0.  1.
</event>
<event>
 5   0  0.1605214E-03  0.1394469E+04  0.7818609E-02  0.8957832E-01
        2   -1    0    0  501    0  0.00000000000E+00  0.00000000000E+00  0.94602020616E+03  0.94602020616E+03  0.25500000920E-02 0. -1.
       -2   -1    0    0    0  501  0.00000000000E+00  0.00000000000E+00 -0.51387502876E+03  0.51387502877E+03  0.25500000920E-02 0.  1.
    10030    2    1    2    0    0  0.00000000000E+00  0.00000000000E+00  0.43214517739E+03  0.14598952349E+04  0.13944693050E+04 0.  0.
        5    1    3    3  502    0  0.41042947641E+03 -0.42763397996E+03  0.60043685927E+03  0.84372370353E+03  0.46999998093E+01 0. -1.
       -5    1    3    3    0  502 -0.41042947641E+03  0.42763397996E+03 -0.16829168188E+03  0.61617153140E+03  0.46999998093E+01 0.  1.
</event>
<event>
 5   0  0.1648463E-03  0.1505992E+04  0.7818609E-02  0.8880478E-01
        2   -1    0    0  501    0  0.00000000000E+00  0.00000000000E+00  0.15484036669E+04  0.15484036669E+04  0.25500000920E-02 0. -1.
       -2   -1    0    0    0  501  0.00000000000E+00  0.00000000000E+00 -0.36618564398E+03  0.36618564399E+03  0.25500000920E-02 0.  1.
    10030    2    1    2    0    0  0.00000000000E+00  0.00000000000E+00  0.11822180229E+04  0.19145893109E+04  0.15059922894E+04 0.  0.
        1    1    3    3  502    0 -0.15686317813E+03  0.21717932101E+03  0.14857658317E+04  0.15097261410E+04  0.50400001928E-02 0. -1.
       -1    1    3    3    0  502  0.15686317813E+03 -0.21717932101E+03 -0.30354780876E+03  0.40486316992E+03  0.50400001928E-02 0.  1.
</event>
<event>
 5   0  0.1648463E-03  0.1378645E+04  0.7818609E-02  0.8969423E-01
       -2   -1    0    0    0  501  0.00000000000E+00  0.00000000000E+00  0.15092234387E+04  0.15092234387E+04  0.25500000920E-02 0. -1.
        2   -1    0    0  501    0  0.00000000000E+00  0.00000000000E+00 -0.31484087904E+03  0.31484087905E+03  0.25500000920E-02 0.  1.
    10030    2    1    2    0    0  0.00000000000E+00  0.00000000000E+00  0.11943825596E+04  0.18240643177E+04  0.13786446012E+04 0.  0.
        1    1    3    3  502    0  0.56372312777E+03  0.20086913048E+03  0.10498199994E+04  0.12084097829E+04  0.50400001928E-02 0. -1.
       -1    1    3    3    0  502 -0.56372312777E+03 -0.20086913048E+03  0.14456256024E+03  0.61565453479E+03  0.50400001928E-02 0.  1.
</event>
<event>
 5   0  0.9007180E-04  0.1418977E+04  0.7818609E-02  0.8940195E-01
        1   -1    0    0  501    0  0.00000000000E+00  0.00000000000E+00  0.81768280042E+03  0.81768280044E+03  0.50400001928E-02 0. -1.
       -1   -1    0    0    0  501  0.00000000000E+00  0.00000000000E+00 -0.61561067332E+03  0.61561067334E+03  0.50400001928E-02 0.  1.
    10030    2    1    2    0    0  0.00000000000E+00  0.00000000000E+00  0.20207212710E+03  0.14332934738E+04  0.14189774619E+04 0.  0.
        2    1    3    3  502    0 -0.24697745403E+03 -0.43773935635E+03  0.60684828842E+03  0.78795840757E+03  0.25500000920E-02 0. -1.
       -2    1    3    3    0  502  0.24697745403E+03  0.43773935635E+03 -0.40477616132E+03  0.64533506621E+03  0.25500000920E-02 0.  1.
</event>
<event>
 5   0  0.6048000E-04  0.1389165E+04  0.7818609E-02  0.8961699E-01
        4   -1    0    0  501    0  0.00000000000E+00  0.00000000000E+00  0.56238088876E+03  0.56238232275E+03  0.12699999809E+01 0.  1.
       -4   -1    0    0    0  501  0.00000000000E+00  0.00000000000E+00 -0.85785880647E+03  0.85785974654E+03  0.12699999809E+01 0. -1.
    10030    2    1    2    0    0  0.00000000000E+00  0.00000000000E+00 -0.29547791771E+03  0.14202420693E+04  0.13891653377E+04 0.  0.
        5    1    3    3  502    0  0.94810294833E+02 -0.32849502411E+03 -0.76585069533E+03  0.83871768219E+03  0.46999998093E+01 0. -1.
       -5    1    3    3    0  502 -0.94810294833E+02  0.32849502411E+03  0.47037277763E+03  0.58152438711E+03  0.46999998093E+01 0.  1.
</event>
<event>
 5   0  0.1578965E-03  0.1408854E+04  0.7818609E-02  0.8947434E-01
        2   -1    0    0  501    0  0.00000000000E+00  0.00000000000E+00  0.84936073406E+03  0.84936073406E+03  0.25500000920E-02 0. -1.
       -2   -1    0    0    0  501  0.00000000000E+00  0.00000000000E+00 -0.58422452526E+03  0.58422452527E+03  0.25500000920E-02 0.  1.
    10030    2    1    2    0    0  0.00000000000E+00  0.00000000000E+00  0.26513620879E+03  0.14335852593E+04  0.14088539621E+04 0.  0.
        2    1    3    3  502    0  0.46534624543E+03 -0.21467776678E+02 -0.40511024566E+03  0.61735103848E+03  0.25500000920E-02 0.  1.
       -2    1    3    3    0  502 -0.46534624543E+03  0.21467776678E+02  0.67024645445E+03  0.81623422085E+03  0.25500000920E-02 0. -1.
</event>
<event>
 5   0  0.8609148E-04  0.1389416E+04  0.7818609E-02  0.8961516E-01
        1   -1    0    0  501    0  0.00000000000E+00  0.00000000000E+00  0.83143678690E+03  0.83143678691E+03  0.50400001928E-02 0.  1.
       -1   -1    0    0    0  501  0.00000000000E+00  0.00000000000E+00 -0.58046416284E+03  0.58046416286E+03  0.50400001928E-02 0. -1.
    10030    2    1    2    0    0  0.00000000000E+00  0.00000000000E+00  0.25097262406E+03  0.14119009498E+04  0.13894160766E+04 0.  0.
        5    1    3    3  502    0 -0.46609342594E+03 -0.11735835707E+03  0.63518195244E+03  0.79655148508E+03  0.46999998093E+01 0.  1.
       -5    1    3    3    0  502  0.46609342594E+03  0.11735835707E+03 -0.38420932839E+03  0.61534946469E+03  0.46999998093E+01 0. -1.
</event>
<event>
 5   0  0.8502300E-04  0.1336532E+04  0.7818609E-02  0.9001086E-01
       -1   -1    0    0    0  501  0.00000000000E+00  0.00000000000E+00  0.77272247892E+03  0.77272247894E+03  0.50400001928E-02 0.  1.
        1   -1    0    0  501    0  0.00000000000E+00  0.00000000000E+00 -0.57793008734E+03  0.57793008736E+03  0.50400001928E-02 0. -1.
    10030    2    1    2    0    0  0.00000000000E+00  0.00000000000E+00  0.19479239159E+03  0.13506525663E+04  0.13365321841E+04 0.  0.
        4    1    3    3  502    0  0.50679330456E+03 -0.14825015179E+03  0.51130908263E+03  0.73502119148E+03  0.12699999809E+01 0.  1.
       -4    1    3    3    0  502 -0.50679330456E+03  0.14825015179E+03 -0.31651669104E+03  0.61563137482E+03  0.12699999809E+01 0. -1.
</event>
<event>
 5   0  0.8673728E-04  0.1386284E+04  0.7818609E-02  0.8963807E-01
        1   -1    0    0  501    0  0.00000000000E+00  0.00000000000E+00  0.61314333127E+03  0.61314333129E+03  0.50400001928E-02 0.  1.
       -1   -1    0    0    0  501  0.00000000000E+00  0.00000000000E+00 -0.78357818105E+03  0.78357818107E+03  0.50400001928E-02 0. -1.
    10030    2    1    2    0    0  0.00000000000E+00  0.00000000000E+00 -0.17043484979E+03  0.13967215124E+04  0.13862838616E+04 0.  0.
        3    1    3    3  502    0 -0.84557640554E+02 -0.61955924551E+03 -0.38653785759E+03  0.73512936197E+03  0.10100000352E+00 0. -1.
       -3    1    3    3    0  502  0.84557640554E+02  0.61955924551E+03  0.21610300781E+03  0.66159215039E+03  0.10100000352E+00 0.  1.
</event>
<event>
 5   0  0.8609148E-04  0.1441909E+04  0.7818609E-02  0.8924029E-01
       -1   -1    0    0    0  501  0.00000000000E+00  0.00000000000E+00  0.42273653608E+03  0.42273653611E+03  0.50400001928E-02 0. -1.
        1   -1    0    0  501    0  0.00000000000E+00  0.00000000000E+00 -0.12295496775E+04  0.12295496775E+04  0.50400001928E-02 0.  1.
    10030    2    1    2    0    0  0.00000000000E+00  0.00000000000E+00 -0.80681314142E+03  0.16522862136E+04  0.14419092504E+04 0.  0.
        5    1    3    3  502    0 -0.17380447370E+03  0.16585886454E+03 -0.11823132194E+04  0.12064840640E+04  0.46999998093E+01 0.  1.
       -5    1    3    3    0  502  0.17380447370E+03 -0.16585886454E+03  0.37550007797E+03  0.44580214959E+03  0.46999998093E+01 0. -1.
</event>
<event>
 5   0  0.1578965E-03  0.1402758E+04  0.7818609E-02  0.8951824E-01
       -2   -1    0    0    0  501  0.00000000000E+00  0.00000000000E+00  0.32154193290E+03  0.32154193291E+03  0.25500000920E-02 0. -1.
        2   -1    0    0  501    0  0.00000000000E+00  0.00000000000E+00 -0.15299181818E+04  0.15299181818E+04  0.25500000920E-02 0.  1.
    10030    2    1    2    0    0  0.00000000000E+00  0.00000000000E+00 -0.12083762489E+04  0.18514601147E+04  0.14027584958E+04 0.  0.
        2    1    3    3  502    0 -0.21480749126E+03  0.47777630905E+03 -0.12197637841E+04  0.13274924289E+04  0.25500000920E-02 0.  1.
       -2    1    3    3    0  502  0.21480749126E+03 -0.47777630905E+03  0.11387535224E+02  0.52396768579E+03  0.25500000920E-02 0. -1.
</event>
<event>
 5   0  0.1578965E-03  0.1424082E+04  0.7818609E-02  0.8936569E-01
        2   -1    0    0  501    0  0.00000000000E+00  0.00000000000E+00  0.78700925952E+03  0.78700925952E+03  0.25500000920E-02 0. -1.
       -2   -1    0    0    0  501  0.00000000000E+00  0.00000000000E+00 -0.64421422506E+03  0.64421422506E+03  0.25500000920E-02 0.  1.
    10030    2    1    2    0    0  0.00000000000E+00  0.00000000000E+00  0.14279503446E+03  0.14312234846E+04  0.14240822452E+04 0.  0.
        2    1    3    3  502    0 -0.35468153935E+03 -0.27360691366E+03  0.62765547475E+03  0.77111032450E+03  0.25500000920E-02 0. -1.
       -2    1    3    3    0  502  0.35468153935E+03  0.27360691366E+03 -0.48486044029E+03  0.66011316009E+03  0.25500000920E-02 0.  1.
</event>
<event>
 5   0  0.8502300E-04  0.1442470E+04  0.7818609E-02  0.8923637E-01
       -1   -1    0    0    0  501  0.00000000000E+00  0.00000000000E+00  0.56855212971E+03  0.56855212973E+03  0.50400001928E-02 0. -1.
        1   -1    0    0  501    0  0.00000000000E+00  0.00000000000E+00 -0.91492060917E+03  0.91492060918E+03  0.50400001928E-02 0.  1.
    10030    2    1    2    0    0  0.00000000000E+00  0.00000000000E+00 -0.34636847946E+03  0.14834727389E+04  0.14424701881E+04 0.  0.
        4    1    3    3  502    0 -0.42501373418E+03  0.43813696344E+03 -0.56826256380E+03  0.83398119121E+03  0.12699999809E+01 0.  1.
       -4    1    3    3    0  502  0.42501373418E+03 -0.43813696344E+03  0.22189408434E+03  0.64949154770E+03  0.12699999809E+01 0. -1.
</event>
<event>
 5   0  0.9639548E-04  0.1403457E+04  0.7818609E-02  0.8951320E-01
        1   -1    0    0  501    0  0.00000000000E+00  0.00000000000E+00  0.75116901947E+03  0.75116901949E+03  0.50400001928E-02 0. -1.
       -1   -1    0    0    0  501  0.00000000000E+00  0.00000000000E+00 -0.65554162612E+03  0.65554162614E+03  0.50400001928E-02 0.  1.
    10030    2    1    2    0    0  0.00000000000E+00  0.00000000000E+00  0.95627393358E+02  0.14067106456E+04  0.14034565338E+04 0.  0.
        1    1    3    3  502    0  0.16682010990E+03  0.61421140745E+03 -0.24840149315E+03  0.68321878189E+03  0.50400001928E-02 0.  1.
       -1    1    3    3    0  502 -0.16682010990E+03 -0.61421140745E+03  0.34402888651E+03  0.72349186373E+03  0.50400001928E-02 0. -1.
</event>
<event>
 5   0  0.9639548E-04  0.1380985E+04  0.7818609E-02  0.8967699E-01
       -1   -1    0    0    0  501  0.00000000000E+00  0.00000000000E+00  0.42378545972E+03  0.42378545975E+03  0.50400001928E-02 0.  1.
        1   -1    0    0  501    0  0.00000000000E+00  0.00000000000E+00 -0.11250495801E+04  0.11250495801E+04  0.50400001928E-02 0. -1.
    10030    2    1    2    0    0  0.00000000000E+00  0.00000000000E+00 -0.70126412040E+03  0.15488350399E+04  0.13809846539E+04 0.  0.
        1    1    3    3  502    0 -0.68287295532E+03 -0.32344697692E+02 -0.45947385079E+03  0.82369768250E+03  0.50400001928E-02 0. -1.
       -1    1    3    3    0  502  0.68287295532E+03  0.32344697692E+02 -0.24179026960E+03  0.72513735738E+03  0.50400001928E-02 0.  1.
</event>
<event>
 5   0  0.8609148E-04  0.1378919E+04  0.7818609E-02  0.8969221E-01
       -1   -1    0    0    0  501  0.00000000000E+00  0.00000000000E+00  0.75321287074E+03  0.75321287076E+03  0.50400001928E-02 0.  1.
        1   -1    0    0  501    0  0.00000000000E+00  0.00000000000E+00 -0.63110257431E+03  0.63110257433E+03  0.50400001928E-02 0. -1.
    10030    2    1    2    0    0  0.00000000000E+00  0.00000000000E+00  0.12211029643E+03  0.13843154451E+04  0.13789192605E+04 0.  0.
        5    1    3    3  502    0  0.14791317844E+03  0.25466791837E+03 -0.56476097820E+03  0.63695455842E+03  0.46999998093E+01 0. -1.
       -5    1    3    3    0  502 -0.14791317844E+03 -0.25466791837E+03  0.68687127463E+03  0.74736088666E+03  0.46999998093E+01 0.  1.
</event>
<event>
 5   0  0.1648463E-03  0.1398640E+04  0.7818609E-02  0.8954803E-01
       -2   -1    0    0    0  501  0.00000000000E+00  0.00000000000E+00  0.48304478513E+03  0.48304478513E+03  0.25500000920E-02 0.  1.
        2   -1    0    0  501    0  0.00000000000E+00  0.00000000000E+00 -0.10124290434E+04  0.10124290434E+04  0.25500000920E-02 0. -1.
    10030    2    1    2    0    0  0.00000000000E+00  0.00000000000E+00 -0.52938425823E+03  0.14954738285E+04  0.13986401535E+04 0.  0.
        1    1    3    3  502    0  0.24060367865E+03  0.65201524851E+03 -0.18163145383E+03  0.71833418373E+03  0.50400001928E-02 0.  1.
       -1    1    3    3    0  502 -0.24060367865E+03 -0.65201524851E+03 -0.34775280440E+03  0.77713964476E+03  0.50400001928E-02 0. -1.
</event>
<event>
 5   0  0.1706986E-03  0.1345502E+04  0.7818609E-02  0.8994240E-01
        2   -1    0    0  501    0  0.00000000000E+00  0.00000000000E+00  0.19627983116E+04  0.19627983116E+04  0.25500000920E-02 0.  1.
       -2   -1    0    0    0  501  0.00000000000E+00  0.00000000000E+00 -0.23058614716E+03  0.23058614717E+03  0.25500000920E-02 0. -1.
    10030    2    1    2    0    0  0.00000000000E+00  0.00000000000E+00  0.17322121644E+04  0.21933844588E+04  0.13455022859E+04 0.  0.
        3    1    3    3  502    0  0.32995199186E+03  0.78456552579E+02 -0.81030179641E+02  0.34869707166E+03  0.10100000352E+00 0. -1.
       -3    1    3    3    0  502 -0.32995199186E+03 -0.78456552579E+02  0.18132423441E+04  0.18446873871E+04  0.10100000352E+00 0.  1.
</event>
<event>
 5   0  0.1648463E-03  0.1398827E+04  0.7818609E-02  0.8954668E-01
        2   -1    0    0  501    0  0.00000000000E+00  0.00000000000E+00  0.12655678640E+04  0.12655678640E+04  0.25500000920E-02 0. -1.
       -2   -1    0    0    0  501  0.00000000000E+00  0.00000000000E+00 -0.38652929725E+03  0.38652929726E+03  0.25500000920E-02 0.  1.
    10030    2    1    2    0    0  0.00000000000E+00  0.00000000000E+00  0.87903856675E+03  0.16520971613E+04  0.13988267328E+04 0.  0.
        1    1    3    3  502    0 -0.16235918001E+03  0.36495798773E+03 -0.23856116106E+03  0.46525935105E+03  0.50400001928E-02 0.  1.
       -1    1    3    3    0  502  0.16235918001E+03 -0.36495798773E+03  0.11175997278E+04  0.11868378102E+04  0.50400001928E-02 0. -1.
</event>
<event>
 5   0  0.1706986E-03  0.1389022E+04  0.7818609E-02  0.8961804E-01
        2   -1    0    0  501    0  0.00000000000E+00  0.00000000000E+00  0.10292876524E+04  0.10292876524E+04  0.25500000920E-02 0.  1.
       -2   -1    0    0    0  501  0.00000000000E+00  0.00000000000E+00 -0.46862071563E+03  0.46862071564E+03  0.25500000920E-02 0. -1.
    10030    2    1    2    0    0  0.00000000000E+00  0.00000000000E+00  0.56066693677E+03  0.14979083680E+04  0.13890219815E+04 0.  0.
        3    1    3    3  502    0 -0.51661268595E+03  0.27194011260E+03 -0.12532697074E+03  0.59711552645E+03  0.10100000352E+00 0. -1.
       -3    1    3    3    0  502  0.51661268595E+03 -0.27194011260E+03  0.68599390751E+03  0.90079284160E+03  0.10100000352E+00 0.  1.
</event>
<event>
 5   0  0.1605214E-03  0.1408462E+04  0.7818609E-02  0.8947716E-01
       -2   -1    0    0    0  501  0.00000000000E+00  0.00000000000E+00  0.81091558312E+03  0.81091558313E+03  0.25500000920E-02 0.  1.
        2   -1    0    0  501    0  0.00000000000E+00  0.00000000000E+00 -0.61158229425E+03  0.61158229425E+03  0.25500000920E-02 0. -1.
    10030    2    1    2    0    0  0.00000000000E+00  0.00000000000E+00  0.19933328888E+03  0.14224978774E+04  0.14084624422E+04 0.  0.
        5    1    3    3  502    0 -0.68481916931E+03  0.13520668639E+03  0.19366059531E+03  0.72442022257E+03  0.46999998093E+01 0. -1.
       -5    1    3    3    0  502  0.68481916931E+03 -0.13520668639E+03  0.56726935660E+01  0.69807765481E+03  0.46999998093E+01 0.  1.
</event>
<event>
 5   0  0.6048000E-04  0.1393470E+04  0.7818609E-02  0.8958559E-01
        4   -1    0    0  501    0  0.00000000000E+00  0.00000000000E+00  0.98188767582E+03  0.98188849714E+03  0.12699999809E+01 0.  1.
       -4   -1    0    0    0  501  0.00000000000E+00  0.00000000000E+00 -0.49439248047E+03  0.49439411166E+03  0.12699999809E+01 0. -1.
    10030    2    1    2    0    0  0.00000000000E+00  0.00000000000E+00  0.48749519535E+03  0.14762826088E+04  0.13934700483E+04 0.  0.
        5    1    3    3  502    0  0.25495168426E+03 -0.58717161880E+03 -0.47637242232E+02  0.64192076464E+03  0.46999998093E+01 0. -1.
       -5    1    3    3    0  502 -0.25495168426E+03  0.58717161880E+03  0.53513243759E+03  0.83436184416E+03  0.46999998093E+01 0.  1.
</event>
<event>
 5   0  0.8673728E-04  0.1301595E+04  0.7818609E-02  0.9028301E-01
        1   -1    0    0  501    0  0.00000000000E+00  0.00000000000E+00  0.84468805627E+03  0.84468805629E+03  0.50400001928E-02 0.  1.
       -1   -1    0    0    0  501  0.00000000000E+00  0.00000000000E+00 -0.50141258992E+03  0.50141258995E+03  0.50400001928E-02 0. -1.
    10030    2    1    2    0    0  0.00000000000E+00  0.00000000000E+00  0.34327546635E+03  0.13461006462E+04  0.13015947541E+04 0.  0.
        3    1    3    3  502    0 -0.23380139645E+03 -0.59721478057E+03  0.57366954761E+02  0.64390959366E+03  0.10100000352E+00 0. -1.
       -3    1    3    3    0  502  0.23380139645E+03  0.59721478057E+03  0.28590851159E+03  0.70219105257E+03  0.10100000352E+00 0.  1.
</event>
<event>
 5   0  0.1648463E-03  0.1403516E+04  0.7818609E-02  0.8951277E-01
       -2   -1    0    0    0  501  0.00000000000E+00  0.00000000000E+00  0.35220096645E+03  0.35220096646E+03  0.25500000920E-02 0. -1.
        2   -1    0    0  501    0  0.00000000000E+00  0.00000000000E+00 -0.13982479700E+04  0.13982479700E+04  0.25500000920E-02 0.  1.
    10030    2    1    2    0    0  0.00000000000E+00  0.00000000000E+00 -0.10460470035E+04  0.17504489365E+04  0.14035159940E+04 0.  0.
        1    1    3    3  502    0  0.30270521096E+03 -0.31388069511E+03 -0.12087648116E+04  0.12850151382E+04  0.50400001928E-02 0.  1.
       -1    1    3    3    0  502 -0.30270521096E+03  0.31388069511E+03  0.16271780806E+03  0.46543379829E+03  0.50400001928E-02 0. -1.
</event>
<event>
 5   0  0.8673728E-04  0.1380090E+04  0.7818609E-02  0.8968357E-01
        1   -1    0    0  501    0  0.00000000000E+00  0.00000000000E+00  0.61457198794E+03  0.61457198796E+03  0.50400001928E-02 0.  1.
       -1   -1    0    0    0  501  0.00000000000E+00  0.00000000000E+00 -0.77478708494E+03  0.77478708495E+03  0.50400001928E-02 0. -1.
    10030    2    1    2    0    0  0.00000000000E+00  0.00000000000E+00 -0.16021509699E+03  0.13893590729E+04  0.13800904884E+04 0.  0.
        3    1    3    3  502    0  0.29661606076E+02  0.48240712374E+02 -0.77244377501E+03  0.77451686422E+03  0.10100000352E+00 0. -1.
       -3    1    3    3    0  502 -0.29661606076E+02 -0.48240712374E+02  0.61222867802E+03  0.61484220870E+03  0.10100000352E+00 0.  1.
</event>
<event>
 5   0  0.9007180E-04  0.1482250E+04  0.7818609E-02  0.8896343E-01
        1   -1    0    0  501    0  0.00000000000E+00  0.00000000000E+00  0.71383296761E+03  0.71383296763E+03  0.50400001928E-02 0. -1.
       -1   -1    0    0    0  501  0.00000000000E+00  0.00000000000E+00 -0.76946065053E+03  0.76946065054E+03  0.50400001928E-02 0.  1.
    10030    2    1    2    0    0  0.00000000000E+00  0.00000000000E+00 -0.55627682911E+02  0.14832936182E+04  0.14822501539E+04 0.  0.
        2    1    3    3  502    0 -0.22420313201E+03  0.52062115449E+03 -0.50559413325E+03  0.75956491394E+03  0.25500000920E-02 0.  1.
       -2    1    3    3    0  502  0.22420313201E+03 -0.52062115449E+03  0.44996645033E+03  0.72372870424E+03  0.25500000920E-02 0. -1.
</event>
<event>
 5   0  0.8502300E-04  0.1405303E+04  0.7818609E-02  0.8949989E-01
        1   -1    0    0  501    0  0.00000000000E+00  0.00000000000E+00  0.84826242734E+03  0.84826242736E+03  0.50400001928E-02 0.  1.
       -1   -1    0    0    0  501  0.00000000000E+00  0.00000000000E+00 -0.58203566568E+03  0.58203566570E+03  0.50400001928E-02 0. -1.
    10030    2    1    2    0    0  0.00000000000E+00  0.00000000000E+00  0.26622676166E+03  0.14302980931E+04  0.14053027953E+04 0.  0.
        4    1    3    3  502    0 -0.49702733454E+03  0.24657883633E+03  0.57191990370E+03  0.79682575444E+03  0.12699999809E+01 0.  1.
       -4    1    3    3    0  502  0.49702733454E+03 -0.24657883633E+03 -0.30569314203E+03  0.63347233861E+03  0.12699999809E+01 0. -1.
</event>
<event>
 5   0  0.1648213E-03  0.1404245E+04  0.7818609E-02  0.8950752E-01
       -2   -1    0    0    0  501  0.00000000000E+00  0.00000000000E+00  0.15473262598E+04  0.15473262598E+04  0.25500000920E-02 0.  1.
        2   -1    0    0  501    0  0.00000000000E+00  0.00000000000E+00 -0.31859842765E+03  0.31859842766E+03  0.25500000920E-02 0. -1.
    10030    2    1    2    0    0  0.00000000000E+00  0.00000000000E+00  0.12287278322E+04  0.18659246875E+04  0.14042445848E+04 0.  0.
        4    1    3    3  502    0 -0.21975917829E+03  0.48839831211E+03  0.12176731331E+04  0.13302467740E+04  0.12699999809E+01 0.  1.
       -4    1    3    3    0  502  0.21975917829E+03 -0.48839831211E+03  0.11054699053E+02  0.53567791348E+03  0.12699999809E+01 0. -1.
</event>
<event>
 5   0  0.8609148E-04  0.1427318E+04  0.7818609E-02  0.8934278E-01
       -1   -1    0    0    0  501  0.00000000000E+00  0.00000000000E+00  0.92838347870E+03  0.92838347871E+03  0.50400001928E-02 0. -1.
        1   -1    0    0  501    0  0.00000000000E+00  0.00000000000E+00 -0.54859786568E+03  0.54859786570E+03  0.50400001928E-02 0.  1.
    10030    2    1    2    0    0  0.00000000000E+00  0.00000000000E+00  0.37978561302E+03  0.14769813444E+04  0.14273180374E+04 0.  0.
        5    1    3    3  502    0 -0.15671357436E+03  0.66758617732E+03 -0.14611183782E+02  0.68590525966E+03  0.46999998093E+01 0.  1.
       -5    1    3    3    0  502  0.15671357436E+03 -0.66758617732E+03  0.39439679680E+03  0.79107608475E+03  0.46999998093E+01 0. -1.
</event>
<event>
 5   0  0.8609148E-04  0.1380842E+04  0.7818609E-02  0.8967804E-01
        1   -1    0    0  501    0  0.00000000000E+00  0.00000000000E+00  0.16793342379E+04  0.16793342379E+04  0.50400001928E-02 0. -1.
       -1   -1    0    0    0  501  0.00000000000E+00  0.00000000000E+00 -0.28385146978E+03  0.28385146983E+03  0.50400001928E-02 0.  1.
    10030    2    1    2    0    0  0.00000000000E+00  0.00000000000E+00  0.13954827681E+04  0.19631857078E+04  0.13808424845E+04 0.  0.
        5    1    3    3  502    0  0.18273072726E+03  0.52547680888E+03  0.11649354958E+03  0.56842698076E+03  0.46999998093E+01 0.  1.
       -5    1    3    3    0  502 -0.18273072726E+03 -0.52547680888E+03  0.12789892186E+04  0.13947587270E+04  0.46999998093E+01 0. -1.
</event>
<event>
 5   0  0.8609148E-04  0.1428353E+04  0.7818609E-02  0.8933547E-01
        1   -1    0    0  501    0  0.00000000000E+00  0.00000000000E+00  0.45396449676E+03  0.45396449679E+03  0.50400001928E-02 0.  1.
       -1   -1    0    0    0  501  0.00000000000E+00  0.00000000000E+00 -0.11235413763E+04  0.11235413763E+04  0.50400001928E-02 0. -1.
    10030    2    1    2    0    0  0.00000000000E+00  0.00000000000E+00 -0.66957687957E+03  0.15775058731E+04  0.14283527513E+04 0.  0.
        5    1    3    3  502    0 -0.53034978267E+03 -0.34992524367E+03 -0.69488330227E+03  0.94159623083E+03  0.46999998093E+01 0.  1.
       -5    1    3    3    0  502  0.53034978267E+03  0.34992524367E+03  0.25306422706E+02  0.63590964230E+03  0.46999998093E+01 0. -1.
</event>
<event>
 5   0  0.1605214E-03  0.1254477E+04  0.7818609E-02  0.9066465E-01
       -2   -1    0    0    0  501  0.00000000000E+00  0.00000000000E+00  0.96218050277E+03  0.96218050278E+03  0.25500000920E-02 0.  1.
        2   -1    0    0  501    0  0.00000000000E+00  0.00000000000E+00 -0.40889241102E+03  0.40889241103E+03  0.25500000920E-02 0. -1.
    10030    2    1    2    0    0  0.00000000000E+00  0.00000000000E+00  0.55328809175E+03  0.13710729138E+04  0.12544772706E+04 0.  0.
        5    1    3    3  502    0  0.34495095296E+03  0.24513956072E+03  0.78262104834E+03  0.88972038275E+03  0.46999998093E+01 0.  1.
       -5    1    3    3    0  502 -0.34495095296E+03 -0.24513956072E+03 -0.22933295659E+03  0.48135253106E+03  0.46999998093E+01 0. -1.
</event>
<event>
 5   0  0.1648463E-03  0.1414328E+04  0.7818609E-02  0.8943512E-01
       -2   -1    0    0    0  501  0.00000000000E+00  0.00000000000E+00  0.28076559906E+03  0.28076559907E+03  0.25500000920E-02 0.  1.
        2   -1    0    0  501    0  0.00000000000E+00  0.00000000000E+00 -0.17811331237E+04  0.17811331237E+04  0.25500000920E-02 0. -1.
    10030    2    1    2    0    0  0.00000000000E+00  0.00000000000E+00 -0.15003675246E+04  0.20618987227E+04  0.14143279796E+04 0.  0.
        1    1    3    3  502    0 -0.48574954867E+02 -0.60328146497E+03 -0.21697018856E+03  0.64294954309E+03  0.50400001928E-02 0.  1.
       -1    1    3    3    0  502  0.48574954867E+02  0.60328146497E+03 -0.12833973361E+04  0.14189491797E+04  0.50400001928E-02 0. -1.
</event>
<event>
 5   0  0.9007180E-04  0.1378031E+04  0.7818609E-02  0.8969876E-01
        1   -1    0    0  501    0  0.00000000000E+00  0.00000000000E+00  0.15621706369E+04  0.15621706369E+04  0.50400001928E-02 0.  1.
       -1   -1    0    0    0  501  0.00000000000E+00  0.00000000000E+00 -0.30389917405E+03  0.30389917409E+03  0.50400001928E-02 0. -1.
    10030    2    1    2    0    0  0.00000000000E+00  0.00000000000E+00  0.12582714629E+04  0.18660698110E+04  0.13780310103E+04 0.  0.
        2    1    3    3  502    0 -0.21396590136E+03 -0.64841579263E+03  0.50415713137E+03  0.84876313550E+03  0.25500000920E-02 0. -1.
       -2    1    3    3    0  502  0.21396590136E+03  0.64841579263E+03  0.75411433151E+03  0.10173066755E+04  0.25500000920E-02 0.  1.
</event>
<event>
 5   0  0.6048000E-04  0.1396366E+04  0.7818609E-02  0.8956453E-01
       -4   -1    0    0    0  501  0.00000000000E+00  0.00000000000E+00  0.37086355304E+03  0.37086572755E+03  0.12699999809E+01 0. -1.
        4   -1    0    0  501    0  0.00000000000E+00  0.00000000000E+00 -0.13143835561E+04  0.13143841696E+04  0.12699999809E+01 0.  1.
    10030    2    1    2    0    0  0.00000000000E+00  0.00000000000E+00 -0.94352000303E+03  0.16852498972E+04  0.13963657185E+04 0.  0.
        3    1    3    3  502    0  0.59953407868E+03 -0.32515641085E+02 -0.90179138897E+03  0.10833864028E+04  0.10100000352E+00 0.  1.
       -3    1    3    3    0  502 -0.59953407868E+03  0.32515641085E+02 -0.41728614064E+02  0.60186349436E+03  0.10100000352E+00 0. -1.
</event>
<event>
 5   0  0.1648463E-03  0.1396318E+04  0.7818609E-02  0.8956488E-01
       -2   -1    0    0    0  501  0.00000000000E+00  0.00000000000E+00  0.33954791124E+03  0.33954791125E+03  0.25500000920E-02 0.  1.
        2   -1    0    0  501    0  0.00000000000E+00  0.00000000000E+00 -0.14355153806E+04  0.14355153806E+04  0.25500000920E-02 0. -1.
    10030    2    1    2    0    0  0.00000000000E+00  0.00000000000E+00 -0.10959674693E+04  0.17750632918E+04  0.13963183721E+04 0.  0.
        1    1    3    3  502    0 -0.39303649051E+02  0.50973719377E+03  0.56425557898E+02  0.51435457337E+03  0.50400001928E-02 0.  1.
       -1    1    3    3    0  502  0.39303649051E+02 -0.50973719377E+03 -0.11523930272E+04  0.12607087185E+04  0.50400001928E-02 0. -1.
</event>
<event>
 5   0  0.6048000E-04  0.1394643E+04  0.7818609E-02  0.8957705E-01
       -3   -1    0    0    0  501  0.00000000000E+00  0.00000000000E+00  0.21383930674E+03  0.21383933059E+03  0.10100000352E+00 0. -1.
        3   -1    0    0  501    0  0.00000000000E+00  0.00000000000E+00 -0.22739388739E+04  0.22739388761E+04  0.10100000352E+00 0.  1.
    10030    2    1    2    0    0  0.00000000000E+00  0.00000000000E+00 -0.20600995672E+04  0.24877782067E+04  0.13946433879E+04 0.  0.
        5    1    3    3  502    0 -0.18566873840E+03  0.62735907353E+03 -0.14603258269E+04  0.16001955812E+04  0.46999998093E+01 0.  1.
       -5    1    3    3    0  502  0.18566873840E+03 -0.62735907353E+03 -0.59977374032E+03  0.88758262553E+03  0.46999998093E+01 0. -1.
</event>
<event>
 5   0  0.1648463E-03  0.1409670E+04  0.7818609E-02  0.8946849E-01
        2   -1    0    0  501    0  0.00000000000E+00  0.00000000000E+00  0.14690398713E+04  0.14690398713E+04  0.25500000920E-02 0. -1.
       -2   -1    0    0    0  501  0.00000000000E+00  0.00000000000E+00 -0.33817474870E+03  0.33817474871E+03  0.25500000920E-02 0.  1.
    10030    2    1    2    0    0  0.00000000000E+00  0.00000000000E+00  0.11308651226E+04  0.18072146200E+04  0.14096697334E+04 0.  0.
        1    1    3    3  502    0  0.34331526898E+02 -0.67845110116E+03  0.80636106693E+03  0.10543683989E+04  0.50400001928E-02 0. -1.
       -1    1    3    3    0  502 -0.34331526898E+02  0.67845110116E+03  0.32450405566E+03  0.75284622106E+03  0.50400001928E-02 0.  1.
</event>
<event>
 5   0  0.1706986E-03  0.1402156E+04  0.7818609E-02  0.8952260E-01
       -2   -1    0    0    0  501  0.00000000000E+00  0.00000000000E+00  0.31873988321E+03  0.31873988322E+03  0.25500000920E-02 0.  1.
        2   -1    0    0  501    0  0.00000000000E+00  0.00000000000E+00 -0.15420418933E+04  0.15420418933E+04  0.25500000920E-02 0. -1.
    10030    2    1    2    0    0  0.00000000000E+00  0.00000000000E+00 -0.12233020101E+04  0.18607817765E+04  0.14021558444E+04 0.  0.
        3    1    3    3  502    0  0.52889151464E+03 -0.30440114036E+03 -0.10696860504E+04  0.12315090520E+04  0.10100000352E+00 0. -1.
       -3    1    3    3    0  502 -0.52889151464E+03  0.30440114036E+03 -0.15361595963E+03  0.62927272447E+03  0.10100000352E+00 0.  1.
</event>
<event>
 5   0  0.8502300E-04  0.1394527E+04  0.7818609E-02  0.8957790E-01
       -1   -1    0    0    0  501  0.00000000000E+00  0.00000000000E+00  0.78543802391E+03  0.78543802392E+03  0.50400001928E-02 0. -1.
        1   -1    0    0  501    0  0.00000000000E+00  0.00000000000E+00 -0.61898753773E+03  0.61898753775E+03  0.50400001928E-02 0.  1.
    10030    2    1    2    0    0  0.00000000000E+00  0.00000000000E+00  0.16645048617E+03  0.14044255617E+04  0.13945269427E+04 0.  0.
        4    1    3    3  502    0 -0.20930667895E+02 -0.31406887276E+03 -0.54336255770E+03  0.62795050100E+03  0.12699999809E+01 0.  1.
       -4    1    3    3    0  502  0.20930667895E+02  0.31406887276E+03  0.70981304388E+03  0.77647506067E+03  0.12699999809E+01 0. -1.
</event>
<event>
 5   0  0.8502300E-04  0.1410484E+04  0.7818609E-02  0.8946264E-01
        1   -1    0    0  501    0  0.00000000000E+00  0.00000000000E+00  0.60004767319E+03  0.60004767321E+03  0.50400001928E-02 0. -1.
       -1   -1    0    0    0  501  0.00000000000E+00  0.00000000000E+00 -0.82887806410E+03  0.82887806412E+03  0.50400001928E-02 0.  1.
    10030    2    1    2    0    0  0.00000000000E+00  0.00000000000E+00 -0.22883039091E+03  0.14289257373E+04  0.14104841066E+04 0.  0.
        4    1    3    3  502    0  0.37102892478E+03 -0.19845545186E+03 -0.68778119823E+03  0.80628259248E+03  0.12699999809E+01 0.  1.
       -4    1    3    3    0  502 -0.37102892478E+03  0.19845545186E+03  0.45895080731E+03  0.62264314485E+03  0.12699999809E+01 0. -1.
</event>
<event>
 5   0  0.9639548E-04  0.1393331E+04  0.7818609E-02  0.8958660E-01
       -1   -1    0    0    0  501  0.00000000000E+00  0.00000000000E+00  0.34039751798E+03  0.34039751802E+03  0.50400001928E-02 0. -1.
        1   -1    0    0  501    0  0.00000000000E+00  0.00000000000E+00 -0.14258126610E+04  0.14258126610E+04  0.50400001928E-02 0.  1.
    10030    2    1    2    0    0  0.00000000000E+00  0.00000000000E+00 -0.10854151431E+04  0.17662101791E+04  0.13933313905E+04 0.  0.
        1    1    3    3  502    0  0.29682575395E+03 -0.50140237054E+03 -0.10267865269E+04  0.11805932564E+04  0.50400001928E-02 0.  1.
       -1    1    3    3    0  502 -0.29682575395E+03  0.50140237054E+03 -0.58628616203E+02  0.58561692262E+03  0.50400001928E-02 0. -1.
</event>
<event>
 5   0  0.1605214E-03  0.1394609E+04  0.7818609E-02  0.8957730E-01
       -2   -1    0    0    0  501  0.00000000000E+00  0.00000000000E+00  0.31397861006E+03  0.31397861007E+03  0.25500000920E-02 0. -1.
        2   -1    0    0  501    0  0.00000000000E+00  0.00000000000E+00 -0.15486204653E+04  0.15486204653E+04  0.25500000920E-02 0.  1.
    10030    2    1    2    0    0  0.00000000000E+00  0.00000000000E+00 -0.12346418552E+04  0.18625990754E+04  0.13946091943E+04 0.  0.
        5    1    3    3  502    0 -0.76585709615E+02 -0.44628283975E+03 -0.13255233781E+04  0.14007383981E+04  0.46999998093E+01 0.  1.
       -5    1    3    3    0  502  0.76585709615E+02  0.44628283975E+03  0.90881522920E+02  0.46186067723E+03  0.46999998093E+01 0. -1.
</event>
<event>
 5   0  0.8673728E-04  0.1341969E+04  0.7818609E-02  0.8996930E-01
       -1   -1    0    0    0  501  0.00000000000E+00  0.00000000000E+00  0.36728309429E+03  0.36728309433E+03  0.50400001928E-02 0.  1.
        1   -1    0    0  501    0  0.00000000000E+00  0.00000000000E+00 -0.12258129857E+04  0.12258129857E+04  0.50400001928E-02 0. -1.
    10030    2    1    2    0    0  0.00000000000E+00  0.00000000000E+00 -0.85852989141E+03  0.15930960800E+04  0.13419692790E+04 0.  0.
        3    1    3    3  502    0 -0.44534822561E+03 -0.48281176601E+03 -0.26658815421E+03  0.70888045368E+03  0.10100000352E+00 0.  1.
       -3    1    3    3    0  502  0.44534822561E+03  0.48281176601E+03 -0.59194173720E+03  0.88421562635E+03  0.10100000352E+00 0. -1.
</event>
<event>
 5   0  0.6048000E-04  0.1406744E+04  0.7818609E-02  0.8948951E-01
       -4   -1    0    0    0  501  0.00000000000E+00  0.00000000000E+00  0.98537936172E+03  0.98538018013E+03  0.12699999809E+01 0.  1.
        4   -1    0    0  501    0  0.00000000000E+00  0.00000000000E+00 -0.50207123913E+03  0.50207284537E+03  0.12699999809E+01 0. -1.
    10030    2    1    2    0    0  0.00000000000E+00  0.00000000000E+00  0.48330812259E+03  0.14874530255E+04  0.14067443839E+04 0.  0.
        2    1    3    3  502    0 -0.42248266510E+03 -0.45753827245E+03 -0.10405920322E+03  0.63139622335E+03  0.25500000920E-02 0. -1.
       -2    1    3    3    0  502  0.42248266510E+03  0.45753827245E+03  0.58736732581E+03  0.85605680215E+03  0.25500000920E-02 0.  1.
</event>
<event>
 5   0  0.1648463E-03  0.1264174E+04  0.7818609E-02  0.9058468E-01
       -2   -1    0    0    0  501  0.00000000000E+00  0.00000000000E+00  0.55544661787E+03  0.55544661788E+03  0.25500000920E-02 0. -1.
        2   -1    0    0  501    0  0.00000000000E+00  0.00000000000E+00 -0.71930261489E+03  0.71930261490E+03  0.25500000920E-02 0.  1.
    10030    2    1    2    0    0  0.00000000000E+00  0.00000000000E+00 -0.16385599702E+03  0.12747492328E+04  0.12641743625E+04 0.  0.
        1    1    3    3  502    0  0.13816323825E+03  0.57266763541E+03 -0.31296664141E+03  0.66707227473E+03  0.50400001928E-02 0.  1.
       -1    1    3    3    0  502 -0.13816323825E+03 -0.57266763541E+03  0.14911064439E+03  0.60767695805E+03  0.50400001928E-02 0. -1.
</event>
<event>
 5   0  0.1648213E-03  0.1441298E+04  0.7818609E-02  0.8924456E-01
       -2   -1    0    0    0  501  0.00000000000E+00  0.00000000000E+00  0.89126871529E+03  0.89126871529E+03  0.25500000920E-02 0. -1.
        2   -1    0    0  501    0  0.00000000000E+00  0.00000000000E+00 -0.58269203020E+03  0.58269203021E+03  0.25500000920E-02 0.  1.
    10030    2    1    2    0    0  0.00000000000E+00  0.00000000000E+00  0.30857668509E+03  0.14739607455E+04  0.14412982719E+04 0.  0.
        4    1    3    3  502    0  0.47714046325E+02 -0.46068840391E+03  0.71890802014E+03  0.85518465260E+03  0.12699999809E+01 0. -1.
       -4    1    3    3    0  502 -0.47714046325E+02  0.46068840391E+03 -0.41033133506E+03  0.61877609290E+03  0.12699999809E+01 0.  1.
</event>
<event>
 5   0  0.1605214E-03  0.1403297E+04  0.7818609E-02  0.8951435E-01
       -2   -1    0    0    0  501  0.00000000000E+00  0.00000000000E+00  0.73311255652E+03  0.73311255652E+03  0.25500000920E-02 0.  1.
        2   -1    0    0  501    0  0.00000000000E+00  0.00000000000E+00 -0.67153495664E+03  0.67153495664E+03  0.25500000920E-02 0. -1.
    10030    2    1    2    0    0  0.00000000000E+00  0.00000000000E+00  0.61577599883E+02  0.14046475132E+04  0.14032971301E+04 0.  0.
        5    1    3    3  502    0  0.41600727486E+03 -0.51353710127E+03 -0.20503547704E+03  0.69198558075E+03  0.46999998093E+01 0.  1.
       -5    1    3    3    0  502 -0.41600727486E+03  0.51353710127E+03  0.26661307692E+03  0.71266193241E+03  0.46999998093E+01 0. -1.
</event>
<event>
 5   0  0.8502300E-04  0.1371813E+04  0.7818609E-02  0.8974478E-01
       -1   -1    0    0    0  501  0.00000000000E+00  0.00000000000E+00  0.62694536874E+03  0.62694536877E+03  0.50400001928E-02 0. -1.
        1   -1    0    0  501    0  0.00000000000E+00  0.00000000000E+00 -0.75041294625E+03  0.75041294627E+03  0.50400001928E-02 0.  1.
    10030    2    1    2    0    0  0.00000000000E+00  0.00000000000E+00 -0.12346757751E+03  0.13773583150E+04  0.13718132837E+04 0.  0.
        4    1    3    3  502    0 -0.27032897847E+03  0.54783066577E+03 -0.37487602051E+03  0.71674949502E+03  0.12699999809E+01 0.  1.
       -4    1    3    3    0  502  0.27032897847E+03 -0.54783066577E+03  0.25140844300E+03  0.66060882001E+03  0.12699999809E+01 0. -1.
</event>
<event>
 5   0  0.1648463E-03  0.1372205E+04  0.7818609E-02  0.8974187E-01
       -2   -1    0    0    0  501  0.00000000000E+00  0.00000000000E+00  0.48953944522E+03  0.48953944523E+03  0.25500000920E-02 0.  1.
        2   -1    0    0  501    0  0.00000000000E+00  0.00000000000E+00 -0.96159112501E+03  0.96159112502E+03  0.25500000920E-02 0. -1.
    10030    2    1    2    0    0  0.00000000000E+00  0.00000000000E+00 -0.47205167979E+03  0.14511305702E+04  0.13722052119E+04 0.  0.
        1    1    3    3  502    0 -0.18632728890E+03 -0.46341881885E+03 -0.73346591535E+03  0.88738216641E+03  0.50400001928E-02 0. -1.
       -1    1    3    3    0  502  0.18632728890E+03  0.46341881885E+03  0.26141423556E+03  0.56374840384E+03  0.50400001928E-02 0.  1.
</event>
<event>
 5   0  0.8502300E-04  0.1321636E+04  0.7818609E-02  0.9012582E-01
        1   -1    0    0  501    0  0.00000000000E+00  0.00000000000E+00  0.16511218169E+04  0.16511218169E+04  0.50400001928E-02 0. -1.
       -1   -1    0    0    0  501  0.00000000000E+00  0.00000000000E+00 -0.26447486145E+03  0.26447486149E+03  0.50400001928E-02 0.  1.
    10030    2    1    2    0    0  0.00000000000E+00  0.00000000000E+00  0.13866469555E+04  0.19155966784E+04  0.13216356742E+04 0.  0.
        4    1    3    3  502    0  0.33960811890E+03  0.17637791155E+03  0.14741737788E+04  0.15230340722E+04  0.12699999809E+01 0. -1.
       -4    1    3    3    0  502 -0.33960811890E+03 -0.17637791155E+03 -0.87526823313E+02  0.39256260622E+03  0.12699999809E+01 0.  1.
</event>
<event>
 5   0  0.9007180E-04  0.1411379E+04  0.7818609E-02  0.8945623E-01
       -1   -1    0    0    0  501  0.00000000000E+00  0.00000000000E+00  0.48285819117E+03  0.48285819119E+03  0.50400001928E-02 0.  1.
        1   -1    0    0  501    0  0.00000000000E+00  0.00000000000E+00 -0.10313539628E+04  0.10313539628E+04  0.50400001928E-02 0. -1.
    10030    2    1    2    0    0  0.00000000000E+00  0.00000000000E+00 -0.54849577163E+03  0.15142121540E+04  0.14113790546E+04 0.  0.
        2    1    3    3  502    0  0.37289778079E+03  0.42900498156E+03  0.17443299827E+03  0.59457959940E+03  0.25500000920E-02 0.  1.
       -2    1    3    3    0  502 -0.37289778079E+03 -0.42900498156E+03 -0.72292876990E+03  0.91963255460E+03  0.25500000920E-02 0. -1.
</event>
<event>
 5   0  0.9007180E-04  0.1397443E+04  0.7818609E-02  0.8955671E-01
       -1   -1    0    0    0  501  0.00000000000E+00  0.00000000000E+00  0.44433717784E+03  0.44433717787E+03  0.50400001928E-02 0. -1.
        1   -1    0    0  501    0  0.00000000000E+00  0.00000000000E+00 -0.10987416845E+04  0.10987416845E+04  0.50400001928E-02 0.  1.
    10030    2    1    2    0    0  0.00000000000E+00  0.00000000000E+00 -0.65440450664E+03  0.15430788624E+04  0.13974430640E+04 0.  0.
        2    1    3    3  502    0  0.19063662395E+03 -0.51733852593E+03 -0.80115444621E+03  0.97253787560E+03  0.25500000920E-02 0. -1.
       -2    1    3    3    0  502 -0.19063662395E+03  0.51733852593E+03  0.14674993956E+03  0.57054098676E+03  0.25500000920E-02 0.  1.
</event>
<event>
 5   0  0.9639548E-04  0.1375564E+04  0.7818609E-02  0.8971699E-01
       -1   -1    0    0    0  501  0.00000000000E+00  0.00000000000E+00  0.47933250399E+03  0.47933250401E+03  0.50400001928E-02 0. -1.
        1   -1    0    0  501    0  0.00000000000E+00  0.00000000000E+00 -0.98688136390E+03  0.98688136391E+03  0.50400001928E-02 0.  1.
    10030    2    1    2    0    0  0.00000000000E+00  0.00000000000E+00 -0.50754885991E+03  0.14662138679E+04  0.13755643428E+04 0.  0.
        1    1    3    3  502    0  0.27071115754E+03 -0.25602614057E+03 -0.86998109762E+03  0.94641482750E+03  0.50400001928E-02 0.  1.
       -1    1    3    3    0  502 -0.27071115754E+03  0.25602614057E+03  0.36243223771E+03  0.51979904042E+03  0.50400001928E-02 0. -1.
</event>
<event>
 5   0  0.8502300E-04  0.1441287E+04  0.7818609E-02  0.8924464E-01
        1   -1    0    0  501    0  0.00000000000E+00  0.00000000000E+00  0.50268253325E+03  0.50268253327E+03  0.50400001928E-02 0.  1.
       -1   -1    0    0    0  501  0.00000000000E+00  0.00000000000E+00 -0.10331107321E+04  0.10331107322E+04  0.50400001928E-02 0. -1.
    10030    2    1    2    0    0  0.00000000000E+00  0.00000000000E+00 -0.53042819890E+03  0.15357932654E+04  0.14412865364E+04 0.  0.
        4    1    3    3  502    0  0.24188204648E+03 -0.29132424790E+03 -0.91856505328E+03  0.99354924983E+03  0.12699999809E+01 0. -1.
       -4    1    3    3    0  502 -0.24188204648E+03  0.29132424790E+03  0.38813685439E+03  0.54224401560E+03  0.12699999809E+01 0.  1.
</event>
<event>
 5   0  0.1648213E-03  0.1385457E+04  0.7818609E-02  0.8964413E-01
       -2   -1    0    0    0  501  0.00000000000E+00  0.00000000000E+00  0.40727434935E+03  0.40727434936E+03  0.25500000920E-02 0. -1.
        2   -1    0    0  501    0  0.00000000000E+00  0.00000000000E+00 -0.11782544186E+04  0.11782544186E+04  0.25500000920E-02 0.  1.
    10030    2    1    2    0    0  0.00000000000E+00  0.00000000000E+00 -0.77098006927E+03  0.15855287680E+04  0.13854570390E+04 0.  0.
        4    1    3    3  502    0 -0.69038216378E+03  0.41120266900E+02 -0.43058583333E+03  0.81469269126E+03  0.12699999809E+01 0. -1.
       -4    1    3    3    0  502  0.69038216378E+03 -0.41120266900E+02 -0.34039423594E+03  0.77083607672E+03  0.12699999809E+01 0.  1.
</event>
<event>
 5   0  0.1578965E-03  0.1193491E+04  0.7818609E-02  0.9118573E-01
       -2   -1    0    0    0  501  0.00000000000E+00  0.00000000000E+00  0.51842029345E+03  0.51842029346E+03  0.25500000920E-02 0.  1.
        2   -1    0    0  501    0  0.00000000000E+00  0.00000000000E+00 -0.68690480272E+03  0.68690480272E+03  0.25500000920E-02 0. -1.
    10030    2    1    2    0    0  0.00000000000E+00  0.00000000000E+00 -0.16848450927E+03  0.12053250962E+04  0.11934913312E+04 0.  0.
        2    1    3    3  502    0  0.11164472551E+03 -0.35394618794E+03 -0.55616878998E+03  0.66863007085E+03  0.25500000920E-02 0. -1.
       -2    1    3    3    0  502 -0.11164472551E+03  0.35394618794E+03  0.38768428071E+03  0.53669502533E+03  0.25500000920E-02 0.  1.
</event>
<event>
 5   0  0.8609148E-04  0.1339689E+04  0.7818609E-02  0.8998670E-01
        1   -1    0    0  501    0  0.00000000000E+00  0.00000000000E+00  0.95938506408E+03  0.95938506409E+03  0.50400001928E-02 0. -1.
       -1   -1    0    0    0  501  0.00000000000E+00  0.00000000000E+00 -0.46768688277E+03  0.46768688280E+03  0.50400001928E-02 0.  1.
    10030    2    1    2    0    0  0.00000000000E+00  0.00000000000E+00  0.49169818131E+03  0.14270719469E+04  0.13396892327E+04 0.  0.
        5    1    3    3  502    0  0.35199261651E+02  0.49288689586E+03  0.72755423009E+03  0.87950766219E+03  0.46999998093E+01 0. -1.
       -5    1    3    3    0  502 -0.35199261651E+02 -0.49288689586E+03 -0.23585604878E+03  0.54756428470E+03  0.46999998093E+01 0.  1.
</event>
<event>
 5   0  0.1578965E-03  0.1403551E+04  0.7818609E-02  0.8951252E-01
        2   -1    0    0  501    0  0.00000000000E+00  0.00000000000E+00  0.16200739477E+04  0.16200739477E+04  0.25500000920E-02 0. -1.
       -2   -1    0    0    0  501  0.00000000000E+00  0.00000000000E+00 -0.30399145802E+03  0.30399145803E+03  0.25500000920E-02 0.  1.
    10030    2    1    2    0    0  0.00000000000E+00  0.00000000000E+00  0.13160824897E+04  0.19240654057E+04  0.14035506994E+04 0.  0.
        2    1    3    3  502    0 -0.23070110601E+03  0.65533528924E+03  0.79375803001E+03  0.10548645182E+04  0.25500000920E-02 0. -1.
       -2    1    3    3    0  502  0.23070110601E+03 -0.65533528924E+03  0.52232445967E+03  0.86920088749E+03  0.25500000920E-02 0.  1.
</event>
<event>
 5   0  0.8609148E-04  0.1370286E+04  0.7818609E-02  0.8975612E-01
       -1   -1    0    0    0  501  0.00000000000E+00  0.00000000000E+00  0.23001215771E+03  0.23001215776E+03  0.50400001928E-02 0. -1.
        1   -1    0    0  501    0  0.00000000000E+00  0.00000000000E+00 -0.20408540733E+04  0.20408540733E+04  0.50400001928E-02 0.  1.
    10030    2    1    2    0    0  0.00000000000E+00  0.00000000000E+00 -0.18108419156E+04  0.22708662310E+04  0.13702864650E+04 0.  0.
        5    1    3    3  502    0  0.67363395500E+02 -0.25369025344E+03 -0.19541972154E+04  0.19717518654E+04  0.46999998093E+01 0.  1.
       -5    1    3    3    0  502 -0.67363395500E+02  0.25369025344E+03  0.14335529989E+03  0.29911436566E+03  0.46999998093E+01 0. -1.
</event>
<event>
 5   0  0.1648463E-03  0.1396111E+04  0.7818609E-02  0.8956638E-01
        2   -1    0    0  501    0  0.00000000000E+00  0.00000000000E+00  0.21771381939E+04  0.21771381939E+04  0.25500000920E-02 0. -1.
       -2   -1    0    0    0  501  0.00000000000E+00  0.00000000000E+00 -0.22381757845E+03  0.22381757847E+03  0.25500000920E-02 0.  1.
    10030    2    1    2    0    0  0.00000000000E+00  0.00000000000E+00  0.19533206155E+04  0.24009557724E+04  0.13961114548E+04 0.  0.
        1    1    3    3  502    0  0.46382536521E+03  0.22794779310E+03  0.16968447104E+03  0.54395494807E+03  0.50400001928E-02 0.  1.
       -1    1    3    3    0  502 -0.46382536521E+03 -0.22794779310E+03  0.17836361444E+04  0.18570008243E+04  0.50400001928E-02 0. -1.
</event>
<event>
 5   0  0.1648213E-03  0.1245183E+04  0.7818609E-02  0.9074202E-01
       -2   -1    0    0    0  501  0.00000000000E+00  0.00000000000E+00  0.17190027555E+03  0.17190027557E+03  0.25500000920E-02 0.  1.
        2   -1    0    0  501    0  0.00000000000E+00  0.00000000000E+00 -0.22549113441E+04  0.22549113441E+04  0.25500000920E-02 0. -1.
    10030    2    1    2    0    0  0.00000000000E+00  0.00000000000E+00 -0.20830110685E+04  0.24268116196E+04  0.12451825271E+04 0.  0.
        4    1    3    3  502    0  0.95303686492E+02  0.22389046672E+02  0.15680284797E+03  0.18485888699E+03  0.12699999809E+01 0.  1.
       -4    1    3    3    0  502 -0.95303686492E+02 -0.22389046672E+02 -0.22398139165E+04  0.22419527327E+04  0.12699999809E+01 0. -1.
</event>
<event>
 5   0  0.8609148E-04  0.1433962E+04  0.7818609E-02  0.8929596E-01
       -1   -1    0    0    0  501  0.00000000000E+00  0.00000000000E+00  0.33374813131E+03  0.33374813135E+03  0.50400001928E-02 0.  1.
        1   -1    0    0  501    0  0.00000000000E+00  0.00000000000E+00 -0.15402676574E+04  0.15402676574E+04  0.50400001928E-02 0. -1.
    10030    2    1    2    0    0  0.00000000000E+00  0.00000000000E+00 -0.12065195261E+04  0.18740157888E+04  0.14339615789E+04 0.  0.
        5    1    3    3  502    0 -0.35264104905E+03 -0.17072101886E+03 -0.13879734814E+04  0.14422183783E+04  0.46999998093E+01 0. -1.
       -5    1    3    3    0  502  0.35264104905E+03  0.17072101886E+03  0.18145395530E+03  0.43179741043E+03  0.46999998093E+01 0.  1.
</event>
<event>
 5   0  0.1648213E-03  0.1383116E+04  0.7818609E-02  0.8966132E-01
       -2   -1    0    0    0  501  0.00000000000E+00  0.00000000000E+00  0.40795957623E+03  0.40795957623E+03  0.25500000920E-02 0. -1.
        2   -1    0    0  501    0  0.00000000000E+00  0.00000000000E+00 -0.11723032373E+04  0.11723032373E+04  0.25500000920E-02 0.  1.
    10030    2    1    2    0    0  0.00000000000E+00  0.00000000000E+00 -0.76434366107E+03  0.15802628135E+04  0.13831158041E+04 0.  0.
        4    1    3    3  502    0  0.42870327986E+02  0.59646661816E+03 -0.77901344726E+03  0.98207629821E+03  0.12699999809E+01 0. -1.
       -4    1    3    3    0  502 -0.42870327986E+02 -0.59646661816E+03  0.14669786181E+02  0.59818651533E+03  0.12699999809E+01 0.  1.
</event>
<event>
 5   0  0.1605214E-03  0.1468661E+04  0.7818609E-02  0.8905565E-01
       -2   -1    0    0    0  501  0.00000000000E+00  0.00000000000E+00  0.67417879396E+03  0.67417879397E+03  0.25500000920E-02 0.  1.
        2   -1    0    0  501    0  0.00000000000E+00  0.00000000000E+00 -0.79984924757E+03  0.79984924757E+03  0.25500000920E-02 0. -1.
    10030    2    1    2    0    0  0.00000000000E+00  0.00000000000E+00 -0.12567045361E+03  0.14740280415E+04  0.14686611605E+04 0.  0.
        5    1    3    3  502    0 -0.12134544115E+03 -0.53945681047E+03 -0.54779962366E+03  0.77836038191E+03  0.46999998093E+01 0.  1.
       -5    1    3    3    0  502  0.12134544115E+03  0.53945681047E+03  0.42212917005E+03  0.69566765963E+03  0.46999998093E+01 0. -1.
</event>
<event>
 5   0  0.1648463E-03  0.1387387E+04  0.7818609E-02  0.8962999E-01
        2   -1    0    0  501    0  0.00000000000E+00  0.00000000000E+00  0.83197945128E+03  0.83197945128E+03  0.25500000920E-02 0. -1.
       -2   -1    0    0    0  501  0.00000000000E+00  0.00000000000E+00 -0.57839242573E+03  0.57839242573E+03  0.25500000920E-02 0.  1.
    10030    2    1    2    0    0  0.00000000000E+00  0.00000000000E+00  0.25358702555E+03  0.14103718770E+04  0.13873869150E+04 0.  0.
        1    1    3    3  502    0 -0.17204514035E+03 -0.33381864484E+03 -0.46611543552E+03  0.59858000069E+03  0.50400001928E-02 0.  1.
       -1    1    3    3    0  502  0.17204514035E+03  0.33381864484E+03  0.71970246107E+03  0.81179187632E+03  0.50400001928E-02 0. -1.
</event>
<event>
 5   0  0.8502300E-04  0.1430626E+04  0.7818609E-02  0.8931943E-01
       -1   -1    0    0    0  501  0.00000000000E+00  0.00000000000E+00  0.41255029385E+03  0.41255029388E+03  0.50400001928E-02 0.  1.
        1   -1    0    0  501    0  0.00000000000E+00  0.00000000000E+00 -0.12402679486E+04  0.12402679486E+04  0.50400001928E-02 0. -1.
    10030    2    1    2    0    0  0.00000000000E+00  0.00000000000E+00 -0.82771765477E+03  0.16528182425E+04  0.14306263058E+04 0.  0.
        4    1    3    3  502    0 -0.24145234359E+03 -0.42780473198E+02 -0.11901915904E+04  0.12151901241E+04  0.12699999809E+01 0. -1.
       -4    1    3    3    0  502  0.24145234359E+03  0.42780473198E+02  0.36247393559E+03  0.43762811838E+03  0.12699999809E+01 0.  1.
</event>
<event>
 5   0  0.1648463E-03  0.1350987E+04  0.7818609E-02  0.8990081E-01
        2   -1    0    0  501    0  0.00000000000E+00  0.00000000000E+00  0.11071216949E+04  0.11071216949E+04  0.25500000920E-02 0.  1.
       -2   -1    0    0    0  501  0.00000000000E+00  0.00000000000E+00 -0.41214224443E+03  0.41214224444E+03  0.25500000920E-02 0. -1.
    10030    2    1    2    0    0  0.00000000000E+00  0.00000000000E+00  0.69497945043E+03  0.15192639393E+04  0.13509872245E+04 0.  0.
        1    1    3    3  502    0  0.10545380544E+02  0.67052444330E+03  0.25628682399E+03  0.71791167305E+03  0.50400001928E-02 0.  1.
       -1    1    3    3    0  502 -0.10545380544E+02 -0.67052444330E+03  0.43869262644E+03  0.80135226626E+03  0.50400001928E-02 0. -1.
</event>
<event>
 5   0  0.9007180E-04  0.1404208E+04  0.7818609E-02  0.8950778E-01
       -1   -1    0    0    0  501  0.00000000000E+00  0.00000000000E+00  0.60815747994E+03  0.60815747996E+03  0.50400001928E-02 0. -1.
        1   -1    0    0  501    0  0.00000000000E+00  0.00000000000E+00 -0.81056349409E+03  0.81056349411E+03  0.50400001928E-02 0.  1.
    10030    2    1    2    0    0  0.00000000000E+00  0.00000000000E+00 -0.20240601415E+03  0.14187209741E+04  0.14042083206E+04 0.  0.
        2    1    3    3  502    0 -0.54910113801E+03 -0.40380129974E+03  0.69009833583E+02  0.68507656986E+03  0.25500000920E-02 0.  1.
       -2    1    3    3    0  502  0.54910113801E+03  0.40380129974E+03 -0.27141584773E+03  0.73364440421E+03  0.25500000920E-02 0. -1.
</event>
<event>
 5   0  0.1706986E-03  0.1398797E+04  0.7818609E-02  0.8954690E-01
       -2   -1    0    0    0  501  0.00000000000E+00  0.00000000000E+00  0.43045266438E+03  0.43045266439E+03  0.25500000920E-02 0. -1.
        2   -1    0    0  501    0  0.00000000000E+00  0.00000000000E+00 -0.11363808218E+04  0.11363808218E+04  0.25500000920E-02 0.  1.
    10030    2    1    2    0    0  0.00000000000E+00  0.00000000000E+00 -0.70592815746E+03  0.15668334862E+04  0.13987968438E+04 0.  0.
        3    1    3    3  502    0  0.35829519925E+03 -0.22992489090E+03 -0.97452714659E+03  0.10634585440E+04  0.10100000352E+00 0.  1.
       -3    1    3    3    0  502 -0.35829519925E+03  0.22992489090E+03  0.26859898913E+03  0.50337494219E+03  0.10100000352E+00 0. -1.
</event>
<event>
 5   0  0.8502300E-04  0.1434942E+04  0.7818609E-02  0.8928907E-01
       -1   -1    0    0    0  501  0.00000000000E+00  0.00000000000E+00  0.92836132060E+03  0.92836132062E+03  0.50400001928E-02 0. -1.
        1   -1    0    0  501    0  0.00000000000E+00  0.00000000000E+00 -0.55448702201E+03  0.55448702204E+03  0.50400001928E-02 0.  1.
    10030    2    1    2    0    0  0.00000000000E+00  0.00000000000E+00  0.37387429859E+03  0.14828483427E+04  0.14349415375E+04 0.  0.
        4    1    3    3  502    0  0.61861322576E+03  0.33674120927E+03  0.32819660134E+03  0.77704027382E+03  0.12699999809E+01 0. -1.
       -4    1    3    3    0  502 -0.61861322576E+03 -0.33674120927E+03  0.45677697249E+02  0.70580806883E+03  0.12699999809E+01 0.  1.
</event>
<event>
 5   0  0.9639548E-04  0.1366502E+04  0.7818609E-02  0.8978429E-01
        1   -1    0    0  501    0  0.00000000000E+00  0.00000000000E+00  0.76810040761E+03  0.76810040763E+03  0.50400001928E-02 0.  1.
       -1   -1    0    0    0  501  0.00000000000E+00  0.00000000000E+00 -0.60777491893E+03  0.60777491895E+03  0.50400001928E-02 0. -1.
    10030    2    1    2    0    0  0.00000000000E+00  0.00000000000E+00  0.16032548868E+03  0.13758753266E+04  0.13665023425E+04 0.  0.
        1    1    3    3  502    0 -0.61767159574E+03  0.28524575478E+03  0.16892066072E+02  0.68056497318E+03  0.50400001928E-02 0. -1.
       -1    1    3    3    0  502  0.61767159574E+03 -0.28524575478E+03  0.14343342261E+03  0.69531035340E+03  0.50400001928E-02 0.  1.
</event>
<event>
 5   0  0.1648463E-03  0.1382095E+04  0.7818609E-02  0.8966882E-01
       -2   -1    0    0    0  501  0.00000000000E+00  0.00000000000E+00  0.22869790263E+03  0.22869790265E+03  0.25500000920E-02 0.  1.
        2   -1    0    0  501    0  0.00000000000E+00  0.00000000000E+00 -0.20881121139E+04  0.20881121139E+04  0.25500000920E-02 0. -1.
    10030    2    1    2    0    0  0.00000000000E+00  0.00000000000E+00 -0.18594142112E+04  0.23168100165E+04  0.13820953092E+04 0.  0.
        1    1    3    3  502    0 -0.29822649780E+03  0.22207365675E+03 -0.19061316058E+04  0.19420590752E+04  0.50400001928E-02 0. -1.
       -1    1    3    3    0  502  0.29822649780E+03 -0.22207365675E+03  0.46717394571E+02  0.37475094128E+03  0.50400001928E-02 0.  1.
</event>
<event>
 5   0  0.1648213E-03  0.1384855E+04  0.7818609E-02  0.8964855E-01
        2   -1    0    0  501    0  0.00000000000E+00  0.00000000000E+00  0.94399950957E+03  0.94399950957E+03  0.25500000920E-02 0. -1.
       -2   -1    0    0    0  501  0.00000000000E+00  0.00000000000E+00 -0.50789847249E+03  0.50789847249E+03  0.25500000920E-02 0.  1.
    10030    2    1    2    0    0  0.00000000000E+00  0.00000000000E+00  0.43610103708E+03  0.14518979821E+04  0.13848550956E+04 0.  0.
        4    1    3    3  502    0  0.92682243644E+02 -0.38326795137E+03  0.81478914405E+03  0.90518908687E+03  0.12699999809E+01 0. -1.
       -4    1    3    3    0  502 -0.92682243644E+02  0.38326795137E+03 -0.37868810696E+03  0.54670889520E+03  0.12699999809E+01 0.  1.
</event>
<event>
 5   0  0.8609148E-04  0.1425972E+04  0.7818609E-02  0.8935230E-01
        1   -1    0    0  501    0  0.00000000000E+00  0.00000000000E+00  0.96000330048E+03  0.96000330049E+03  0.50400001928E-02 0. -1.
       -1   -1    0    0    0  501  0.00000000000E+00  0.00000000000E+00 -0.52952865751E+03  0.52952865754E+03  0.50400001928E-02 0.  1.
    10030    2    1    2    0    0  0.00000000000E+00  0.00000000000E+00  0.43047464297E+03  0.14895319580E+04  0.14259723124E+04 0.  0.
        5    1    3    3  502    0  0.35079303821E+03  0.45672716905E+03 -0.22382102168E+03  0.61787814523E+03  0.46999998093E+01 0.  1.
       -5    1    3    3    0  502 -0.35079303821E+03 -0.45672716905E+03  0.65429566465E+03  0.87165381281E+03  0.46999998093E+01 0. -1.
</event>
<event>
 5   0  0.1648463E-03  0.1330399E+04  0.7818609E-02  0.9005800E-01
        2   -1    0    0  501    0  0.00000000000E+00  0.00000000000E+00  0.13577189730E+04  0.13577189730E+04  0.25500000920E-02 0.  1.
       -2   -1    0    0    0  501  0.00000000000E+00  0.00000000000E+00 -0.32590707883E+03  0.32590707884E+03  0.25500000920E-02 0. -1.
    10030    2    1    2    0    0  0.00000000000E+00  0.00000000000E+00  0.10318118942E+04  0.16836260519E+04  0.13303987739E+04 0.  0.
        1    1    3    3  502    0 -0.43870669757E+03 -0.14096533670E+03 -0.91213879376E+02  0.46973903868E+03  0.50400001928E-02 0. -1.
       -1    1    3    3    0  502  0.43870669757E+03  0.14096533670E+03  0.11230257736E+04  0.12138870132E+04  0.50400001928E-02 0.  1.
</event>
<event>
 5   0  0.1706986E-03  0.1461830E+04  0.7818609E-02  0.8910240E-01
       -2   -1    0    0    0  501  0.00000000000E+00  0.00000000000E+00  0.40689078117E+03  0.40689078118E+03  0.25500000920E-02 0. -1.
        2   -1    0    0  501    0  0.00000000000E+00  0.00000000000E+00 -0.13129732113E+04  0.13129732113E+04  0.25500000920E-02 0.  1.
    10030    2    1    2    0    0  0.00000000000E+00  0.00000000000E+00 -0.90608243009E+03  0.17198639924E+04  0.14618299431E+04 0.  0.
        3    1    3    3  502    0  0.52559966798E+03 -0.51877938628E+01 -0.10505840247E+04  0.11747377270E+04  0.10100000352E+00 0.  1.
       -3    1    3    3    0  502 -0.52559966798E+03  0.51877938628E+01  0.14450159461E+03  0.54512626540E+03  0.10100000352E+00 0. -1.
</event>
<event>
 5   0  0.9639548E-04  0.1406733E+04  0.7818609E-02  0.8948959E-01
        1   -1    0    0  501    0  0.00000000000E+00  0.00000000000E+00  0.78507140046E+03  0.78507140048E+03  0.50400001928E-02 0.  1.
       -1   -1    0    0    0  501  0.00000000000E+00  0.00000000000E+00 -0.63016463124E+03  0.63016463126E+03  0.50400001928E-02 0. -1.
    10030    2    1    2    0    0  0.00000000000E+00  0.00000000000E+00  0.15490676922E+03  0.14152360317E+04  0.14067327103E+04 0.  0.
        1    1    3    3  502    0 -0.41546715204E+03  0.18449449244E+03  0.61742211680E+03  0.76672109826E+03  0.50400001928E-02 0.  1.
       -1    1    3    3    0  502  0.41546715204E+03 -0.18449449244E+03 -0.46251534758E+03  0.64851493347E+03  0.50400001928E-02 0. -1.
</event>
<event>
 5   0  0.9639548E-04  0.1428825E+04  0.7818609E-02  0.8933214E-01
       -1   -1    0    0    0  501  0.00000000000E+00  0.00000000000E+00  0.39666269937E+03  0.39666269940E+03  0.50400001928E-02 0.  1.
        1   -1    0    0  501    0  0.00000000000E+00  0.00000000000E+00 -0.12866983354E+04  0.12866983354E+04  0.50400001928E-02 0. -1.
    10030    2    1    2    0    0  0.00000000000E+00  0.00000000000E+00 -0.89003563602E+03  0.16833610348E+04  0.14288250208E+04 0.  0.
        1    1    3    3  502    0  0.28771405679E+03  0.23752220216E+03  0.27276954386E+03  0.46216815021E+03  0.50400001928E-02 0.  1.
       -1    1    3    3    0  502 -0.28771405679E+03 -0.23752220216E+03 -0.11628051799E+04  0.12211928846E+04  0.50400001928E-02 0. -1.
</event>
<event>
 5   0  0.8673728E-04  0.1407972E+04  0.7818609E-02  0.8948068E-01
       -1   -1    0    0    0  501  0.00000000000E+00  0.00000000000E+00  0.39571115438E+03  0.39571115441E+03  0.50400001928E-02 0.  1.
        1   -1    0    0  501    0  0.00000000000E+00  0.00000000000E+00 -0.12524194876E+04  0.12524194876E+04  0.50400001928E-02 0. -1.
    10030    2    1    2    0    0  0.00000000000E+00  0.00000000000E+00 -0.85670833323E+03  0.16481306420E+04  0.14079721038E+04 0.  0.
        3    1    3    3  502    0  0.27028833822E+03  0.47373197676E+03  0.92672781794E+02  0.55323234384E+03  0.10100000352E+00 0.  1.
       -3    1    3    3    0  502 -0.27028833822E+03 -0.47373197676E+03 -0.94938111503E+03  0.10948982982E+04  0.10100000352E+00 0. -1.
</event>
<event>
 5   0  0.8609148E-04  0.1414288E+04  0.7818609E-02  0.8943540E-01
       -1   -1    0    0    0  501  0.00000000000E+00  0.00000000000E+00  0.55297874819E+03  0.55297874821E+03  0.50400001928E-02 0.  1.
        1   -1    0    0  501    0  0.00000000000E+00  0.00000000000E+00 -0.90428966348E+03  0.90428966350E+03  0.50400001928E-02 0. -1.
    10030    2    1    2    0    0  0.00000000000E+00  0.00000000000E+00 -0.35131091530E+03  0.14572684117E+04  0.14142884658E+04 0.  0.
        5    1    3    3  502    0  0.30112760275E+03 -0.49803549084E+03 -0.58949993902E+03  0.82840174516E+03  0.46999998093E+01 0. -1.
       -5    1    3    3    0  502 -0.30112760275E+03  0.49803549084E+03  0.23818902373E+03  0.62886666655E+03  0.46999998093E+01 0.  1.
</event>
<event>
 5   0  0.8609148E-04  0.1361057E+04  0.7818609E-02  0.8982500E-01
       -1   -1    0    0    0  501  0.00000000000E+00  0.00000000000E+00  0.26534702183E+03  0.26534702188E+03  0.50400001928E-02 0.  1.
        1   -1    0    0  501    0  0.00000000000E+00  0.00000000000E+00 -0.17453333968E+04  0.17453333968E+04  0.50400001928E-02 0. -1.
    10030    2    1    2    0    0  0.00000000000E+00  0.00000000000E+00 -0.14799863750E+04  0.20106804187E+04  0.13610569702E+04 0.  0.
        5    1    3    3  502    0 -0.67724836119E+03 -0.53009114471E+02 -0.79948282158E+03  0.10491282958E+04  0.46999998093E+01 0. -1.
       -5    1    3    3    0  502  0.67724836119E+03  0.53009114471E+02 -0.68050355337E+03  0.96155212292E+03  0.46999998093E+01 0.  1.
</event>
<event>
 5   0  0.1648213E-03  0.1388314E+04  0.7818609E-02  0.8962321E-01
       -2   -1    0    0    0  501  0.00000000000E+00  0.00000000000E+00  0.58269386492E+03  0.58269386493E+03  0.25500000920E-02 0. -1.
        2   -1    0    0  501    0  0.00000000000E+00  0.00000000000E+00 -0.82694138319E+03  0.82694138320E+03  0.25500000920E-02 0.  1.
    10030    2    1    2    0    0  0.00000000000E+00  0.00000000000E+00 -0.24424751827E+03  0.14096352481E+04  0.13883136110E+04 0.  0.
        4    1    3    3  502    0  0.22682708069E+03  0.55793808642E+03 -0.47254234164E+03  0.76553465653E+03  0.12699999809E+01 0.  1.
       -4    1    3    3    0  502 -0.22682708069E+03 -0.55793808642E+03  0.22829482336E+03  0.64410059159E+03  0.12699999809E+01 0. -1.
</event>
<event>
 5   0  0.1648463E-03  0.1428624E+04  0.7818609E-02  0.8933355E-01
       -2   -1    0    0    0  501  0.00000000000E+00  0.00000000000E+00  0.53102221889E+03  0.53102221889E+03  0.25500000920E-02 0. -1.
        2   -1    0    0  501    0  0.00000000000E+00  0.00000000000E+00 -0.96086732401E+03  0.96086732402E+03  0.25500000920E-02 0.  1.
    10030    2    1    2    0    0  0.00000000000E+00  0.00000000000E+00 -0.42984510512E+03  0.14918895429E+04  0.14286243712E+04 0.  0.
        1    1    3    3  502    0 -0.42023209504E+03  0.31177666545E+03  0.29286389664E+03  0.59964069641E+03  0.50400001928E-02 0. -1.
       -1    1    3    3    0  502  0.42023209504E+03 -0.31177666545E+03 -0.72270900177E+03  0.89224884650E+03  0.50400001928E-02 0.  1.
</event>
<event>
 5   0  0.9007180E-04  0.1412668E+04  0.7818609E-02  0.8944700E-01
        1   -1    0    0  501    0  0.00000000000E+00  0.00000000000E+00  0.17346267006E+04  0.17346267006E+04  0.50400001928E-02 0.  1.
       -1   -1    0    0    0  501  0.00000000000E+00  0.00000000000E+00 -0.28761670494E+03  0.28761670498E+03  0.50400001928E-02 0. -1.
    10030    2    1    2    0    0  0.00000000000E+00  0.00000000000E+00  0.14470099957E+04  0.20222434056E+04  0.14126678534E+04 0.  0.
        2    1    3    3  502    0 -0.12711372285E+03  0.84731466861E+02  0.17106949487E+04  0.17175024098E+04  0.25500000920E-02 0.  1.
       -2    1    3    3    0  502  0.12711372285E+03 -0.84731466861E+02 -0.26368495309E+03  0.30474099578E+03  0.25500000920E-02 0. -1.
</event>
<event>
 5   0  0.1605214E-03  0.1392882E+04  0.7818609E-02  0.8958987E-01
       -2   -1    0    0    0  501  0.00000000000E+00  0.00000000000E+00  0.50443326930E+03  0.50443326931E+03  0.25500000920E-02 0. -1.
        2   -1    0    0  501    0  0.00000000000E+00  0.00000000000E+00 -0.96153525006E+03  0.96153525006E+03  0.25500000920E-02 0.  1.
    10030    2    1    2    0    0  0.00000000000E+00  0.00000000000E+00 -0.45710198075E+03  0.14659685194E+04  0.13928824354E+04 0.  0.
        5    1    3    3  502    0  0.54100728708E+03  0.43849789397E+03 -0.22197897974E+03  0.73093504850E+03  0.46999998093E+01 0. -1.
       -5    1    3    3    0  502 -0.54100728708E+03 -0.43849789397E+03 -0.23512300102E+03  0.73503347087E+03  0.46999998093E+01 0.  1.
</event>
<event>
 5   0  0.9007180E-04  0.1419417E+04  0.7818609E-02  0.8939882E-01
       -1   -1    0    0    0  501  0.00000000000E+00  0.00000000000E+00  0.12360862468E+04  0.12360862468E+04  0.50400001928E-02 0.  1.
        1   -1    0    0  501    0  0.00000000000E+00  0.00000000000E+00 -0.40748452821E+03  0.40748452824E+03  0.50400001928E-02 0. -1.
    10030    2    1    2    0    0  0.00000000000E+00  0.00000000000E+00  0.82860171858E+03  0.16435707750E+04  0.14194168114E+04 0.  0.
        2    1    3    3  502    0  0.56065063512E+02 -0.61876582798E+03  0.81150544877E+03  0.10220349968E+04  0.25500000920E-02 0.  1.
       -2    1    3    3    0  502 -0.56065063512E+02  0.61876582798E+03  0.17096269811E+02  0.62153577827E+03  0.25500000920E-02 0. -1.
</event>
<event>
 5   0  0.1578965E-03  0.1113163E+04  0.7818609E-02  0.9192456E-01
        2   -1    0    0  501    0  0.00000000000E+00  0.00000000000E+00  0.47160990676E+03  0.47160990677E+03  0.25500000920E-02 0.  1.
       -2   -1    0    0    0  501  0.00000000000E+00  0.00000000000E+00 -0.65686276243E+03  0.65686276244E+03  0.25500000920E-02 0. -1.
    10030    2    1    2    0    0  0.00000000000E+00  0.00000000000E+00 -0.18525285567E+03  0.11284726692E+04  0.11131630359E+04 0.  0.
        2    1    3    3  502    0 -0.18061414295E+03 -0.48377440484E+03 -0.30314528099E+03  0.59879562858E+03  0.25500000920E-02 0. -1.
       -2    1    3    3    0  502  0.18061414295E+03  0.48377440484E+03  0.11789242532E+03  0.52967704063E+03  0.25500000920E-02 0.  1.
</event>
<event>
 5   0  0.1706986E-03  0.1414334E+04  0.7818609E-02  0.8943508E-01
        2   -1    0    0  501    0  0.00000000000E+00  0.00000000000E+00  0.12037191918E+04  0.12037191918E+04  0.25500000920E-02 0.  1.
       -2   -1    0    0    0  501  0.00000000000E+00  0.00000000000E+00 -0.41544979374E+03  0.41544979375E+03  0.25500000920E-02 0. -1.
    10030    2    1    2    0    0  0.00000000000E+00  0.00000000000E+00  0.78826939805E+03  0.16191689855E+04  0.14143336098E+04 0.  0.
        3    1    3    3  502    0 -0.23980005566E+03  0.65945985287E+03  0.49455065600E+03  0.85847057363E+03  0.10100000352E+00 0. -1.
       -3    1    3    3    0  502  0.23980005566E+03 -0.65945985287E+03  0.29371874205E+03  0.76069841190E+03  0.10100000352E+00 0.  1.
</event>
<event>
 5   0  0.6048000E-04  0.1284083E+04  0.7818609E-02  0.9042284E-01
        3   -1    0    0  501    0  0.00000000000E+00  0.00000000000E+00  0.30853445654E+03  0.30853447307E+03  0.10100000352E+00 0.  1.
       -3   -1    0    0    0  501  0.00000000000E+00  0.00000000000E+00 -0.13360489795E+04  0.13360489833E+04  0.10100000352E+00 0. -1.
    10030    2    1    2    0    0  0.00000000000E+00  0.00000000000E+00 -0.10275145230E+04  0.16445834564E+04  0.12840828050E+04 0.  0.
        5    1    3    3  502    0  0.38797929299E+03 -0.10720329036E+03  0.12683913260E+03  0.42205536700E+03  0.46999998093E+01 0.  1.
       -5    1    3    3    0  502 -0.38797929299E+03  0.10720329036E+03 -0.11543536556E+04  0.12225280894E+04  0.46999998093E+01 0. -1.
</event>
<event>
 5   0  0.1648463E-03  0.1393399E+04  0.7818609E-02  0.8958611E-01
        2   -1    0    0  501    0  0.00000000000E+00  0.00000000000E+00  0.74063442010E+03  0.74063442010E+03  0.25500000920E-02 0. -1.
       -2   -1    0    0    0  501  0.00000000000E+00  0.00000000000E+00 -0.65537052995E+03  0.65537052996E+03  0.25500000920E-02 0.  1.
    10030    2    1    2    0    0  0.00000000000E+00  0.00000000000E+00  0.85263890143E+02  0.13960049501E+04  0.13933986829E+04 0.  0.
        1    1    3    3  502    0 -0.39438491991E+03  0.32721618083E+03  0.51551063014E+03  0.72688451893E+03  0.50400001928E-02 0.  1.
       -1    1    3    3    0  502  0.39438491991E+03 -0.32721618083E+03 -0.43024674000E+03  0.66912043113E+03  0.50400001928E-02 0. -1.
</event>
<event>
 5   0  0.1648213E-03  0.1269245E+04  0.7818609E-02  0.9054316E-01
       -2   -1    0    0    0  501  0.00000000000E+00  0.00000000000E+00  0.41515118489E+03  0.41515118490E+03  0.25500000920E-02 0.  1.
        2   -1    0    0  501    0  0.00000000000E+00  0.00000000000E+00 -0.97011768719E+03  0.97011768719E+03  0.25500000920E-02 0. -1.
    10030    2    1    2    0    0  0.00000000000E+00  0.00000000000E+00 -0.55496650229E+03  0.13852688721E+04  0.12692446688E+04 0.  0.
        4    1    3    3  502    0  0.33213542344E+03  0.35010608077E+03  0.17232640451E+03  0.51243166362E+03  0.12699999809E+01 0. -1.
       -4    1    3    3    0  502 -0.33213542344E+03 -0.35010608077E+03 -0.72729290680E+03  0.87283720847E+03  0.12699999809E+01 0.  1.
</event>
<event>
 5   0  0.8609148E-04  0.1416936E+04  0.7818609E-02  0.8941650E-01
       -1   -1    0    0    0  501  0.00000000000E+00  0.00000000000E+00  0.40698554313E+03  0.40698554316E+03  0.50400001928E-02 0.  1.
        1   -1    0    0  501    0  0.00000000000E+00  0.00000000000E+00 -0.12332793648E+04  0.12332793648E+04  0.50400001928E-02 0. -1.
    10030    2    1    2    0    0  0.00000000000E+00  0.00000000000E+00 -0.82629382166E+03  0.16402649080E+04  0.14169359508E+04 0.  0.
        5    1    3    3  502    0 -0.79816001400E+02  0.35673630869E+03  0.28935732371E+03  0.46624150266E+03  0.46999998093E+01 0.  1.
       -5    1    3    3    0  502  0.79816001400E+02 -0.35673630869E+03 -0.11156511454E+04  0.11740234053E+04  0.46999998093E+01 0. -1.
</event>
<event>
 5   0  0.8502300E-04  0.1111460E+04  0.7818609E-02  0.9194094E-01
       -1   -1    0    0    0  501  0.00000000000E+00  0.00000000000E+00  0.50559250076E+03  0.50559250078E+03  0.50400001928E-02 0. -1.
        1   -1    0    0  501    0  0.00000000000E+00  0.00000000000E+00 -0.61083906975E+03  0.61083906977E+03  0.50400001928E-02 0.  1.
    10030    2    1    2    0    0  0.00000000000E+00  0.00000000000E+00 -0.10524656899E+03  0.11164315705E+04  0.11114596760E+04 0.  0.
        4    1    3    3  502    0  0.12450309583E+03  0.21458964218E+03 -0.55212464330E+03  0.60530403108E+03  0.12699999809E+01 0.  1.
       -4    1    3    3    0  502 -0.12450309583E+03 -0.21458964218E+03  0.44687807431E+03  0.51112753947E+03  0.12699999809E+01 0. -1.
</event>
<event>
 5   0  0.6048000E-04  0.1417227E+04  0.7818609E-02  0.8941442E-01
       -3   -1    0    0    0  501  0.00000000000E+00  0.00000000000E+00  0.45151552441E+03  0.45151553571E+03  0.10100000352E+00 0.  1.
        3   -1    0    0  501    0  0.00000000000E+00  0.00000000000E+00 -0.11121059029E+04  0.11121059075E+04  0.10100000352E+00 0. -1.
    10030    2    1    2    0    0  0.00000000000E+00  0.00000000000E+00 -0.66059037852E+03  0.15636214432E+04  0.14172270000E+04 0.  0.
        2    1    3    3  502    0  0.49999676672E+03  0.44787708656E+03 -0.58077613316E+03  0.88763256376E+03  0.25500000920E-02 0.  1.
       -2    1    3    3    0  502 -0.49999676672E+03 -0.44787708656E+03 -0.79814245360E+02  0.67598887946E+03  0.25500000920E-02 0. -1.
</event>
<event>
 5   0  0.1706986E-03  0.1368109E+04  0.7818609E-02  0.8977232E-01
        2   -1    0    0  501    0  0.00000000000E+00  0.00000000000E+00  0.52750873933E+03  0.52750873934E+03  0.25500000920E-02 0.  1.
       -2   -1    0    0    0  501  0.00000000000E+00  0.00000000000E+00 -0.88705748148E+03  0.88705748148E+03  0.25500000920E-02 0. -1.
    10030    2    1    2    0    0  0.00000000000E+00  0.00000000000E+00 -0.35954874215E+03  0.14145662208E+04  0.13681090216E+04 0.  0.
        3    1    3    3  502    0  0.35235124472E+03  0.15295020627E+03  0.40547227529E+03  0.55852747603E+03  0.10100000352E+00 0.  1.
       -3    1    3    3    0  502 -0.35235124472E+03 -0.15295020627E+03 -0.76502101744E+03  0.85603874479E+03  0.10100000352E+00 0. -1.
</event>
<event>
 5   0  0.1578965E-03  0.1435461E+04  0.7818609E-02  0.8928543E-01
       -2   -1    0    0    0  501  0.00000000000E+00  0.00000000000E+00  0.48293377526E+03  0.48293377527E+03  0.25500000920E-02 0.  1.
        2   -1    0    0  501    0  0.00000000000E+00  0.00000000000E+00 -0.10666824002E+04  0.10666824002E+04  0.25500000920E-02 0. -1.
    10030    2    1    2    0    0  0.00000000000E+00  0.00000000000E+00 -0.58374862495E+03  0.15496161755E+04  0.14354608438E+04 0.  0.
        2    1    3    3  502    0  0.46353155866E+03 -0.42287965119E+03  0.84334034573E+02  0.63308840983E+03  0.25500000920E-02 0.  1.
       -2    1    3    3    0  502 -0.46353155866E+03  0.42287965119E+03 -0.66808265952E+03  0.91652776566E+03  0.25500000920E-02 0. -1.
</event>
<event>
 5   0  0.1605214E-03  0.1395937E+04  0.7818609E-02  0.8956765E-01
        2   -1    0    0  501    0  0.00000000000E+00  0.00000000000E+00  0.70147103219E+03  0.70147103220E+03  0.25500000920E-02 0. -1.
       -2   -1    0    0    0  501  0.00000000000E+00  0.00000000000E+00 -0.69448371534E+03  0.69448371535E+03  0.25500000920E-02 0.  1.
    10030    2    1    2    0    0  0.00000000000E+00  0.00000000000E+00  0.69873168519E+01  0.13959547475E+04  0.13959372603E+04 0.  0.
        5    1    3    3  502    0  0.58433854447E+02  0.16343957250E+03 -0.67254077836E+03  0.69459354860E+03  0.46999998093E+01 0.  1.
       -5    1    3    3    0  502 -0.58433854447E+02 -0.16343957250E+03  0.67952809521E+03  0.70136119894E+03  0.46999998093E+01 0. -1.
</event>
<event>
 5   0  0.8502300E-04  0.1382933E+04  0.7818609E-02  0.8966266E-01
        1   -1    0    0  501    0  0.00000000000E+00  0.00000000000E+00  0.29066808216E+03  0.29066808221E+03  0.50400001928E-02 0. -1.
       -1   -1    0    0    0  501  0.00000000000E+00  0.00000000000E+00 -0.16449209330E+04  0.16449209330E+04  0.50400001928E-02 0.  1.
    10030    2    1    2    0    0  0.00000000000E+00  0.00000000000E+00 -0.13542528508E+04  0.19355890152E+04  0.13829331335E+04 0.  0.
        4    1    3    3  502    0  0.54833479942E+03 -0.40945590132E+03 -0.81567675343E+03  0.10647325328E+04  0.12699999809E+01 0.  1.
       -4    1    3    3    0  502 -0.54833479942E+03  0.40945590132E+03 -0.53857609738E+03  0.87085648241E+03  0.12699999809E+01 0. -1.
</event>
<event>
 5   0  0.9639548E-04  0.1382841E+04  0.7818609E-02  0.8966334E-01
        1   -1    0    0  501    0  0.00000000000E+00  0.00000000000E+00  0.20409811200E+04  0.20409811200E+04  0.50400001928E-02 0. -1.
       -1   -1    0    0    0  501  0.00000000000E+00  0.00000000000E+00 -0.23423158348E+03  0.23423158354E+03  0.50400001928E-02 0.  1.
    10030    2    1    2    0    0  0.00000000000E+00  0.00000000000E+00  0.18067495365E+04  0.22752127035E+04  0.13828409014E+04 0.  0.
        1    1    3    3  502    0 -0.61981193755E+03  0.21799716185E+03  0.54906698415E+03  0.85625005320E+03  0.50400001928E-02 0. -1.
       -1    1    3    3    0  502  0.61981193755E+03 -0.21799716185E+03  0.12576825524E+04  0.14189626503E+04  0.50400001928E-02 0.  1.
</event>
<event>
 5   0  0.1578965E-03  0.1637055E+04  0.7818609E-02  0.8798102E-01
       -2   -1    0    0    0  501  0.00000000000E+00  0.00000000000E+00  0.47242082020E+03  0.47242082020E+03  0.25500000920E-02 0.  1.
        2   -1    0    0  501    0  0.00000000000E+00  0.00000000000E+00 -0.14182001831E+04  0.14182001831E+04  0.25500000920E-02 0. -1.
    10030    2    1    2    0    0  0.00000000000E+00  0.00000000000E+00 -0.94577936289E+03  0.18906210033E+04  0.16370550311E+04 0.  0.
        2    1    3    3  502    0 -0.78656310430E+03 -0.25084676535E+02 -0.21290685653E+03  0.81525461521E+03  0.25500000920E-02 0.  1.
       -2    1    3    3    0  502  0.78656310430E+03  0.25084676535E+02 -0.73287250635E+03  0.10753663881E+04  0.25500000920E-02 0. -1.
</event>
<event>
 5   0  0.6048000E-04  0.1097987E+04  0.7818609E-02  0.9207156E-01
       -3   -1    0    0    0  501  0.00000000000E+00  0.00000000000E+00  0.19871352242E+03  0.19871354809E+03  0.10100000352E+00 0. -1.
        3   -1    0    0  501    0  0.00000000000E+00  0.00000000000E+00 -0.15167247314E+04  0.15167247348E+04  0.10100000352E+00 0.  1.
    10030    2    1    2    0    0  0.00000000000E+00  0.00000000000E+00 -0.13180112090E+04  0.17154382829E+04  0.10979867737E+04 0.  0.
        3    1    3    3  502    0 -0.15384165258E+03  0.29889546903E+03 -0.13371225170E+04  0.13787321680E+04  0.10100000352E+00 0.  1.
       -3    1    3    3    0  502  0.15384165258E+03 -0.29889546903E+03  0.19111308007E+02  0.33670611484E+03  0.10100000352E+00 0. -1.
</event>
<event>
 5   0  0.8502300E-04  0.1401016E+04  0.7818609E-02  0.8953084E-01
        1   -1    0    0  501    0  0.00000000000E+00  0.00000000000E+00  0.15002706160E+04  0.15002706160E+04  0.50400001928E-02 0. -1.
       -1   -1    0    0    0  501  0.00000000000E+00  0.00000000000E+00 -0.32708187345E+03  0.32708187349E+03  0.50400001928E-02 0.  1.
    10030    2    1    2    0    0  0.00000000000E+00  0.00000000000E+00  0.11731887425E+04  0.18273524895E+04  0.14010158083E+04 0.  0.
        4    1    3    3  502    0  0.63535400488E+03 -0.26419407739E+03  0.75783377027E+03  0.10236146044E+04  0.12699999809E+01 0. -1.
       -4    1    3    3    0  502 -0.63535400488E+03  0.26419407739E+03  0.41535497225E+03  0.80373788508E+03  0.12699999809E+01 0.  1.
</event>
<event>
 5   0  0.1648213E-03  0.1393918E+04  0.7818609E-02  0.8958233E-01
       -2   -1    0    0    0  501  0.00000000000E+00  0.00000000000E+00  0.30392695736E+03  0.30392695737E+03  0.25500000920E-02 0.  1.
        2   -1    0    0  501    0  0.00000000000E+00  0.00000000000E+00 -0.15982525037E+04  0.15982525037E+04  0.25500000920E-02 0. -1.
    10030    2    1    2    0    0  0.00000000000E+00  0.00000000000E+00 -0.12943255463E+04  0.19021794611E+04  0.13939182480E+04 0.  0.
        4    1    3    3  502    0 -0.59691768192E+02 -0.61877909997E+03 -0.10771823320E+04  0.12436937208E+04  0.12699999809E+01 0. -1.
       -4    1    3    3    0  502  0.59691768192E+02  0.61877909997E+03 -0.21714321430E+03  0.65848574029E+03  0.12699999809E+01 0.  1.
</event>
<event>
 5   0  0.8609148E-04  0.1431627E+04  0.7818609E-02  0.8931238E-01
       -1   -1    0    0    0  501  0.00000000000E+00  0.00000000000E+00  0.11297770264E+04  0.11297770264E+04  0.50400001928E-02 0.  1.
        1   -1    0    0  501    0  0.00000000000E+00  0.00000000000E+00 -0.45353081641E+03  0.45353081644E+03  0.50400001928E-02 0. -1.
    10030    2    1    2    0    0  0.00000000000E+00  0.00000000000E+00  0.67624621002E+03  0.15833078429E+04  0.14316266234E+04 0.  0.
        5    1    3    3  502    0 -0.17548459215E+03  0.15380439884E+03 -0.41026778586E+03  0.47200887841E+03  0.46999998093E+01 0. -1.
       -5    1    3    3    0  502  0.17548459215E+03 -0.15380439884E+03  0.10865139959E+04  0.11112989645E+04  0.46999998093E+01 0.  1.
</event>
<event>
 5   0  0.1605214E-03  0.1406567E+04  0.7818609E-02  0.8949079E-01
        2   -1    0    0  501    0  0.00000000000E+00  0.00000000000E+00  0.14677628236E+04  0.14677628236E+04  0.25500000920E-02 0.  1.
       -2   -1    0    0    0  501  0.00000000000E+00  0.00000000000E+00 -0.33698066144E+03  0.33698066145E+03  0.25500000920E-02 0. -1.
    10030    2    1    2    0    0  0.00000000000E+00  0.00000000000E+00  0.11307821622E+04  0.18047434851E+04  0.14065670082E+04 0.  0.
        5    1    3    3  502    0  0.69744296644E+03 -0.67601924480E+02  0.64225718324E+03  0.95053305626E+03  0.46999998093E+01 0.  1.
       -5    1    3    3    0  502 -0.69744296644E+03  0.67601924480E+02  0.48852497893E+03  0.85421042880E+03  0.46999998093E+01 0. -1.
</event>
<event>
 5   0  0.1648463E-03  0.1395754E+04  0.7818609E-02  0.8956898E-01
       -2   -1    0    0    0  501  0.00000000000E+00  0.00000000000E+00  0.42566424314E+03  0.42566424315E+03  0.25500000920E-02 0. -1.
        2   -1    0    0  501    0  0.00000000000E+00  0.00000000000E+00 -0.11441693319E+04  0.11441693319E+04  0.25500000920E-02 0.  1.
    10030    2    1    2    0    0  0.00000000000E+00  0.00000000000E+00 -0.71850508874E+03  0.15698335750E+04  0.13957535208E+04 0.  0.
        1    1    3    3  502    0  0.31493003584E+03 -0.27034874248E+02 -0.10590426152E+04  0.11052072533E+04  0.50400001928E-02 0.  1.
       -1    1    3    3    0  502 -0.31493003584E+03  0.27034874248E+02  0.34053752646E+03  0.46462632174E+03  0.50400001928E-02 0. -1.
</event>
<event>
 5   0  0.8673728E-04  0.1374607E+04  0.7818609E-02  0.8972407E-01
        1   -1    0    0  501    0  0.00000000000E+00  0.00000000000E+00  0.10213320680E+04  0.10213320680E+04  0.50400001928E-02 0. -1.
       -1   -1    0    0    0  501  0.00000000000E+00  0.00000000000E+00 -0.46251969743E+03  0.46251969746E+03  0.50400001928E-02 0.  1.
    10030    2    1    2    0    0  0.00000000000E+00  0.00000000000E+00  0.55881237059E+03  0.14838517655E+04  0.13746071426E+04 0.  0.
        3    1    3    3  502    0  0.68376416625E+03 -0.52750704464E+02  0.23029172553E+03  0.72342958255E+03  0.10100000352E+00 0.  1.
       -3    1    3    3    0  502 -0.68376416625E+03  0.52750704464E+02  0.32852064506E+03  0.76042218293E+03  0.10100000352E+00 0. -1.
</event>
<event>
 5   0  0.8502300E-04  0.1408629E+04  0.7818609E-02  0.8947596E-01
        1   -1    0    0  501    0  0.00000000000E+00  0.00000000000E+00  0.12622081078E+04  0.12622081078E+04  0.50400001928E-02 0.  1.
       -1   -1    0    0    0  501  0.00000000000E+00  0.00000000000E+00 -0.39300899084E+03  0.39300899088E+03  0.50400001928E-02 0. -1.
    10030    2    1    2    0    0  0.00000000000E+00  0.00000000000E+00  0.86919911697E+03  0.16552170987E+04  0.14086293121E+04 0.  0.
        4    1    3    3  502    0  0.69705857708E+03 -0.24858434126E+02  0.54942427302E+03  0.88790610220E+03  0.12699999809E+01 0.  1.
       -4    1    3    3    0  502 -0.69705857708E+03  0.24858434126E+02  0.31977484395E+03  0.76731099650E+03  0.12699999809E+01 0. -1.
</event>
<event>
 5   0  0.8502300E-04  0.1336027E+04  0.7818609E-02  0.9001474E-01
       -1   -1    0    0    0  501  0.00000000000E+00  0.00000000000E+00  0.39728428391E+03  0.39728428394E+03  0.50400001928E-02 0.  1.
        1   -1    0    0  501    0  0.00000000000E+00  0.00000000000E+00 -0.11232303489E+04  0.11232303489E+04  0.50400001928E-02 0. -1.
    10030    2    1    2    0    0  0.00000000000E+00  0.00000000000E+00 -0.72594606500E+03  0.15205146329E+04  0.13360265938E+04 0.  0.
        4    1    3    3  502    0  0.75528495302E+01  0.17095700153E+03 -0.10978608311E+04  0.11111180672E+04  0.12699999809E+01 0. -1.
       -4    1    3    3    0  502 -0.75528495302E+01 -0.17095700153E+03  0.37191476605E+03  0.40939656571E+03  0.12699999809E+01 0.  1.
</event>
<event>
 5   0  0.8502300E-04  0.1134327E+04  0.7818609E-02  0.9172365E-01
        1   -1    0    0  501    0  0.00000000000E+00  0.00000000000E+00  0.38575177251E+03  0.38575177254E+03  0.50400001928E-02 0. -1.
       -1   -1    0    0    0  501  0.00000000000E+00  0.00000000000E+00 -0.83389019519E+03  0.83389019521E+03  0.50400001928E-02 0.  1.
    10030    2    1    2    0    0  0.00000000000E+00  0.00000000000E+00 -0.44813842269E+03  0.12196419677E+04  0.11343273265E+04 0.  0.
        4    1    3    3  502    0  0.25293142642E+03 -0.17210404265E+03 -0.73756456743E+03  0.79849684533E+03  0.12699999809E+01 0.  1.
       -4    1    3    3    0  502 -0.25293142642E+03  0.17210404265E+03  0.28942614475E+03  0.42114512241E+03  0.12699999809E+01 0. -1.
</event>
<event>
 5   0  0.8673728E-04  0.1354175E+04  0.7818609E-02  0.8987674E-01
       -1   -1    0    0    0  501  0.00000000000E+00  0.00000000000E+00  0.71787702085E+03  0.71787702087E+03  0.50400001928E-02 0.  1.
        1   -1    0    0  501    0  0.00000000000E+00  0.00000000000E+00 -0.63861544226E+03  0.63861544228E+03  0.50400001928E-02 0. -1.
    10030    2    1    2    0    0  0.00000000000E+00  0.00000000000E+00  0.79261578589E+02  0.13564924631E+04  0.13541748058E+04 0.  0.
        3    1    3    3  502    0 -0.46828207179E+03  0.63213478843E+02 -0.44613556057E+03  0.64986228639E+03  0.10100000352E+00 0. -1.
       -3    1    3    3    0  502  0.46828207179E+03 -0.63213478843E+02  0.52539713916E+03  0.70663017676E+03  0.10100000352E+00 0.  1.
</event>
<event>
 5   0  0.1605214E-03  0.1381254E+04  0.7818609E-02  0.8967500E-01
       -2   -1    0    0    0  501  0.00000000000E+00  0.00000000000E+00  0.10117826072E+04  0.10117826072E+04  0.25500000920E-02 0. -1.
        2   -1    0    0  501    0  0.00000000000E+00  0.00000000000E+00 -0.47141143602E+03  0.47141143603E+03  0.25500000920E-02 0.  1.
    10030    2    1    2    0    0  0.00000000000E+00  0.00000000000E+00  0.54037117117E+03  0.14831940432E+04  0.13812543456E+04 0.  0.
        5    1    3    3  502    0 -0.37006629834E+02 -0.68660536063E+03  0.33933870067E+03  0.76679153339E+03  0.46999998093E+01 0.  1.
       -5    1    3    3    0  502  0.37006629834E+02  0.68660536063E+03  0.20103247051E+03  0.71640250984E+03  0.46999998093E+01 0. -1.
</event>
<event>
 5   0  0.1578965E-03  0.1386810E+04  0.7818609E-02  0.8963422E-01
       -2   -1    0    0    0  501  0.00000000000E+00  0.00000000000E+00  0.30946792422E+03  0.30946792423E+03  0.25500000920E-02 0.  1.
        2   -1    0    0  501    0  0.00000000000E+00  0.00000000000E+00 -0.15536684831E+04  0.15536684831E+04  0.25500000920E-02 0. -1.
    10030    2    1    2    0    0  0.00000000000E+00  0.00000000000E+00 -0.12442005589E+04  0.18631364074E+04  0.13868100957E+04 0.  0.
        2    1    3    3  502    0  0.29588463562E+03 -0.58071728623E+03 -0.94010900752E+03  0.11439341022E+04  0.25500000920E-02 0. -1.
       -2    1    3    3    0  502 -0.29588463562E+03  0.58071728623E+03 -0.30409155139E+03  0.71920230516E+03  0.25500000920E-02 0.  1.
</event>
<event>
 5   0  0.9007180E-04  0.1361298E+04  0.7818609E-02  0.8982320E-01
        1   -1    0    0  501    0  0.00000000000E+00  0.00000000000E+00  0.86494716487E+03  0.86494716489E+03  0.50400001928E-02 0.  1.
       -1   -1    0    0    0  501  0.00000000000E+00  0.00000000000E+00 -0.53562001418E+03  0.53562001420E+03  0.50400001928E-02 0. -1.
    10030    2    1    2    0    0  0.00000000000E+00  0.00000000000E+00  0.32932715069E+03  0.14005671791E+04  0.13612979288E+04 0.  0.
        2    1    3    3  502    0  0.19655349632E+03 -0.22139486690E+03  0.79523347641E+03  0.84855479847E+03  0.25500000920E-02 0.  1.
       -2    1    3    3    0  502 -0.19655349632E+03  0.22139486690E+03 -0.46590632571E+03  0.55201238061E+03  0.25500000920E-02 0. -1.
</event>
<event>
 5   0  0.9639548E-04  0.1392348E+04  0.7818609E-02  0.8959376E-01
       -1   -1    0    0    0  501  0.00000000000E+00  0.00000000000E+00  0.14805456316E+04  0.14805456316E+04  0.50400001928E-02 0.  1.
        1   -1    0    0  501    0  0.00000000000E+00  0.00000000000E+00 -0.32735095250E+03  0.32735095254E+03  0.50400001928E-02 0. -1.
    10030    2    1    2    0    0  0.00000000000E+00  0.00000000000E+00  0.11531946791E+04  0.18078965842E+04  0.13923476904E+04 0.  0.
        1    1    3    3  502    0 -0.28012571595E+03  0.59671549996E+03  0.28591162031E+03  0.71852992929E+03  0.50400001928E-02 0. -1.
       -1    1    3    3    0  502  0.28012571595E+03 -0.59671549996E+03  0.86728305881E+03  0.10893666549E+04  0.50400001928E-02 0.  1.
</event>
<event>
 5   0  0.8673728E-04  0.1405292E+04  0.7818609E-02  0.8949997E-01
        1   -1    0    0  501    0  0.00000000000E+00  0.00000000000E+00  0.83063066225E+03  0.83063066227E+03  0.50400001928E-02 0.  1.
       -1   -1    0    0    0  501  0.00000000000E+00  0.00000000000E+00 -0.59438104574E+03  0.59438104576E+03  0.50400001928E-02 0. -1.
    10030    2    1    2    0    0  0.00000000000E+00  0.00000000000E+00  0.23624961651E+03  0.14250117080E+04  0.14052916020E+04 0.  0.
        3    1    3    3  502    0 -0.23883644858E+02 -0.49004111008E+03 -0.39192498972E+03  0.62794579848E+03  0.10100000352E+00 0.  1.
       -3    1    3    3    0  502  0.23883644858E+02  0.49004111008E+03  0.62817460623E+03  0.79706590955E+03  0.10100000352E+00 0. -1.
</event>
<event>
 5   0  0.9639548E-04  0.1011406E+04  0.7818609E-02  0.9296123E-01
       -1   -1    0    0    0  501  0.00000000000E+00  0.00000000000E+00  0.39897649966E+03  0.39897649969E+03  0.50400001928E-02 0.  1.
        1   -1    0    0  501    0  0.00000000000E+00  0.00000000000E+00 -0.64097881362E+03  0.64097881364E+03  0.50400001928E-02 0. -1.
    10030    2    1    2    0    0  0.00000000000E+00  0.00000000000E+00 -0.24200231396E+03  0.10399553133E+04  0.10114059194E+04 0.  0.
        1    1    3    3  502    0  0.40990473673E+03 -0.46824989036E+02  0.17969342249E+03  0.45000466543E+03  0.50400001928E-02 0.  1.
       -1    1    3    3    0  502 -0.40990473673E+03  0.46824989036E+02 -0.42169573645E+03  0.58995064790E+03  0.50400001928E-02 0. -1.
</event>
<event>
 5   0  0.8502300E-04  0.1391220E+04  0.7818609E-02  0.8960199E-01
        1   -1    0    0  501    0  0.00000000000E+00  0.00000000000E+00  0.11355189356E+04  0.11355189356E+04  0.50400001928E-02 0.  1.
       -1   -1    0    0    0  501  0.00000000000E+00  0.00000000000E+00 -0.42612504123E+03  0.42612504126E+03  0.50400001928E-02 0. -1.
    10030    2    1    2    0    0  0.00000000000E+00  0.00000000000E+00  0.70939389436E+03  0.15616439769E+04  0.13912196854E+04 0.  0.
        4    1    3    3  502    0 -0.18660986036E+03 -0.66705036639E+03  0.42650193484E+03  0.81344019117E+03  0.12699999809E+01 0.  1.
       -4    1    3    3    0  502  0.18660986036E+03  0.66705036639E+03  0.28289195952E+03  0.74820378570E+03  0.12699999809E+01 0. -1.
</event>
<event>
 5   0  0.8502300E-04  0.1387296E+04  0.7818609E-02  0.8963066E-01
        1   -1    0    0  501    0  0.00000000000E+00  0.00000000000E+00  0.97069666700E+03  0.97069666701E+03  0.50400001928E-02 0.  1.
       -1   -1    0    0    0  501  0.00000000000E+00  0.00000000000E+00 -0.49567228665E+03  0.49567228668E+03  0.50400001928E-02 0. -1.
    10030    2    1    2    0    0  0.00000000000E+00  0.00000000000E+00  0.47502438035E+03  0.14663689537E+04  0.13872958395E+04 0.  0.
        4    1    3    3  502    0 -0.26604094541E+03 -0.27238217394E+03  0.85036688829E+03  0.93171631461E+03  0.12699999809E+01 0.  1.
       -4    1    3    3    0  502  0.26604094541E+03  0.27238217394E+03 -0.37534250794E+03  0.53465263908E+03  0.12699999809E+01 0. -1.
</event>
<event>
 5   0  0.8673728E-04  0.1397821E+04  0.7818609E-02  0.8955397E-01
       -1   -1    0    0    0  501  0.00000000000E+00  0.00000000000E+00  0.59662368704E+03  0.59662368706E+03  0.50400001928E-02 0. -1.
        1   -1    0    0  501    0  0.00000000000E+00  0.00000000000E+00 -0.81873338947E+03  0.81873338948E+03  0.50400001928E-02 0.  1.
    10030    2    1    2    0    0  0.00000000000E+00  0.00000000000E+00 -0.22210970242E+03  0.14153570765E+04  0.13978207804E+04 0.  0.
        3    1    3    3  502    0 -0.54518873137E+03 -0.28922237736E+03 -0.44318733557E+03  0.75979955317E+03  0.10100000352E+00 0.  1.
       -3    1    3    3    0  502  0.54518873137E+03  0.28922237736E+03  0.22107763315E+03  0.65555752338E+03  0.10100000352E+00 0. -1.
</event>
<event>
 5   0  0.1578965E-03  0.1320010E+04  0.7818609E-02  0.9013846E-01
        2   -1    0    0  501    0  0.00000000000E+00  0.00000000000E+00  0.17865501158E+04  0.17865501158E+04  0.25500000920E-02 0.  1.
       -2   -1    0    0    0  501  0.00000000000E+00  0.00000000000E+00 -0.24382553956E+03  0.24382553958E+03  0.25500000920E-02 0. -1.
    10030    2    1    2    0    0  0.00000000000E+00  0.00000000000E+00  0.15427245763E+04  0.20303756554E+04  0.13200099181E+04 0.  0.
        2    1    3    3  502    0 -0.14750052529E+03  0.19408800278E+03  0.17147648416E+04  0.17320060680E+04  0.25500000920E-02 0.  1.
       -2    1    3    3    0  502  0.14750052529E+03 -0.19408800278E+03 -0.17204026530E+03  0.29836958738E+03  0.25500000920E-02 0. -1.
</event>
<event>
 5   0  0.6048000E-04  0.1388198E+04  0.7818609E-02  0.8962406E-01
       -3   -1    0    0    0  501  0.00000000000E+00  0.00000000000E+00  0.54281124090E+03  0.54281125030E+03  0.10100000352E+00 0. -1.
        3   -1    0    0  501    0  0.00000000000E+00  0.00000000000E+00 -0.88755275020E+03  0.88755275594E+03  0.10100000352E+00 0.  1.
    10030    2    1    2    0    0  0.00000000000E+00  0.00000000000E+00 -0.34474150929E+03  0.14303640062E+04  0.13881982863E+04 0.  0.
        2    1    3    3  502    0  0.28032558048E+03  0.23070756375E+02  0.48145757842E+03  0.55759850313E+03  0.25500000920E-02 0. -1.
       -2    1    3    3    0  502 -0.28032558048E+03 -0.23070756375E+02 -0.82619908772E+03  0.87276550311E+03  0.25500000920E-02 0.  1.
</event>
<event>
 5   0  0.1648463E-03  0.1313603E+04  0.7818609E-02  0.9018847E-01
        2   -1    0    0  501    0  0.00000000000E+00  0.00000000000E+00  0.12715973924E+04  0.12715973924E+04  0.25500000920E-02 0. -1.
       -2   -1    0    0    0  501  0.00000000000E+00  0.00000000000E+00 -0.33924888456E+03  0.33924888457E+03  0.25500000920E-02 0.  1.
    10030    2    1    2    0    0  0.00000000000E+00  0.00000000000E+00  0.93234850787E+03  0.16108462770E+04  0.13136026751E+04 0.  0.
        1    1    3    3  502    0 -0.31397894501E+03  0.41227516456E+03 -0.28663882823E+02  0.51901368712E+03  0.50400001928E-02 0.  1.
       -1    1    3    3    0  502  0.31397894501E+03 -0.41227516456E+03  0.96101239069E+03  0.10918325899E+04  0.50400001928E-02 0. -1.
</event>
<event>
 5   0  0.8673728E-04  0.1429341E+04  0.7818609E-02  0.8932850E-01
       -1   -1    0    0    0  501  0.00000000000E+00  0.00000000000E+00  0.55427949194E+03  0.55427949197E+03  0.50400001928E-02 0. -1.
        1   -1    0    0  501    0  0.00000000000E+00  0.00000000000E+00 -0.92147329927E+03  0.92147329928E+03  0.50400001928E-02 0.  1.
    10030    2    1    2    0    0  0.00000000000E+00  0.00000000000E+00 -0.36719380733E+03  0.14757527913E+04  0.14293407602E+04 0.  0.
        3    1    3    3  502    0 -0.32067994898E+03  0.55674895359E+03 -0.50672684825E+03  0.81827693108E+03  0.10100000352E+00 0.  1.
       -3    1    3    3    0  502  0.32067994898E+03 -0.55674895359E+03  0.13953304092E+03  0.65747586017E+03  0.10100000352E+00 0. -1.
</event>
<event>
 5   0  0.1648463E-03  0.1407298E+04  0.7818609E-02  0.8948553E-01
       -2   -1    0    0    0  501  0.00000000000E+00  0.00000000000E+00  0.11245160181E+04  0.11245160181E+04  0.25500000920E-02 0. -1.
        2   -1    0    0  501    0  0.00000000000E+00  0.00000000000E+00 -0.44029793198E+03  0.44029793199E+03  0.25500000920E-02 0.  1.
    10030    2    1    2    0    0  0.00000000000E+00  0.00000000000E+00  0.68421808615E+03  0.15648139501E+04  0.14072982303E+04 0.  0.
        1    1    3    3  502    0  0.36700791505E+02 -0.35769817024E+03 -0.33042540341E+03  0.48833991884E+03  0.50400001928E-02 0.  1.
       -1    1    3    3    0  502 -0.36700791505E+02  0.35769817024E+03  0.10146434896E+04  0.10764740313E+04  0.50400001928E-02 0. -1.
</event>
<event>
 5   0  0.9639548E-04  0.1399975E+04  0.7818609E-02  0.8953837E-01
        1   -1    0    0  501    0  0.00000000000E+00  0.00000000000E+00  0.44056818534E+03  0.44056818537E+03  0.50400001928E-02 0.  1.
       -1   -1    0    0    0  501  0.00000000000E+00  0.00000000000E+00 -0.11121603041E+04  0.11121603041E+04  0.50400001928E-02 0. -1.
    10030    2    1    2    0    0  0.00000000000E+00  0.00000000000E+00 -0.67159211875E+03  0.15527284895E+04  0.13999749241E+04 0.  0.
        1    1    3    3  502    0  0.26562888358E+03 -0.43994406727E+03  0.19132138282E+03  0.54837337432E+03  0.50400001928E-02 0. -1.
       -1    1    3    3    0  502 -0.26562888358E+03  0.43994406727E+03 -0.86291350157E+03  0.10043551152E+04  0.50400001928E-02 0.  1.
</event>
<event>
 5   0  0.1605214E-03  0.1393533E+04  0.7818609E-02  0.8958513E-01
       -2   -1    0    0    0  501  0.00000000000E+00  0.00000000000E+00  0.66315299204E+03  0.66315299204E+03  0.25500000920E-02 0.  1.
        2   -1    0    0  501    0  0.00000000000E+00  0.00000000000E+00 -0.73208358754E+03  0.73208358754E+03  0.25500000920E-02 0. -1.
    10030    2    1    2    0    0  0.00000000000E+00  0.00000000000E+00 -0.68930595499E+02  0.13952365796E+04  0.13935328077E+04 0.  0.
        5    1    3    3  502    0  0.32470046572E+03  0.54599738301E+03 -0.32102808182E+03  0.71177570484E+03  0.46999998093E+01 0. -1.
       -5    1    3    3    0  502 -0.32470046572E+03 -0.54599738301E+03  0.25209748632E+03  0.68346087474E+03  0.46999998093E+01 0.  1.
</event>
<event>
 5   0  0.9007180E-04  0.1396951E+04  0.7818609E-02  0.8956029E-01
        1   -1    0    0  501    0  0.00000000000E+00  0.00000000000E+00  0.11148240482E+04  0.11148240482E+04  0.50400001928E-02 0.  1.
       -1   -1    0    0    0  501  0.00000000000E+00  0.00000000000E+00 -0.43761858401E+03  0.43761858404E+03  0.50400001928E-02 0. -1.
    10030    2    1    2    0    0  0.00000000000E+00  0.00000000000E+00  0.67720546419E+03  0.15524426323E+04  0.13969505667E+04 0.  0.
        2    1    3    3  502    0 -0.55906963558E+02 -0.36555734492E+03 -0.31989775011E+03  0.48897068576E+03  0.25500000920E-02 0. -1.
       -2    1    3    3    0  502  0.55906963558E+02  0.36555734492E+03  0.99710321430E+03  0.10634719465E+04  0.25500000920E-02 0.  1.
</event>
<event>
 5   0  0.1706986E-03  0.1427589E+04  0.7818609E-02  0.8934087E-01
       -2   -1    0    0    0  501  0.00000000000E+00  0.00000000000E+00  0.40715633130E+03  0.40715633131E+03  0.25500000920E-02 0. -1.
        2   -1    0    0  501    0  0.00000000000E+00  0.00000000000E+00 -0.12513684279E+04  0.12513684279E+04  0.25500000920E-02 0.  1.
    10030    2    1    2    0    0  0.00000000000E+00  0.00000000000E+00 -0.84421209659E+03  0.16585247592E+04  0.14275889860E+04 0.  0.
        3    1    3    3  502    0  0.54216581362E+03 -0.46097786215E+03 -0.48635297580E+03  0.86196495643E+03  0.10100000352E+00 0. -1.
       -3    1    3    3    0  502 -0.54216581362E+03  0.46097786215E+03 -0.35785912079E+03  0.79655980277E+03  0.10100000352E+00 0.  1.
</event>
<event>
 5   0  0.1578965E-03  0.1421344E+04  0.7818609E-02  0.8938512E-01
        2   -1    0    0  501    0  0.00000000000E+00  0.00000000000E+00  0.65468221947E+03  0.65468221948E+03  0.25500000920E-02 0.  1.
       -2   -1    0    0    0  501  0.00000000000E+00  0.00000000000E+00 -0.77145061367E+03  0.77145061368E+03  0.25500000920E-02 0. -1.
    10030    2    1    2    0    0  0.00000000000E+00  0.00000000000E+00 -0.11676839420E+03  0.14261328332E+04  0.14213444339E+04 0.  0.
        2    1    3    3  502    0  0.34763771745E+03 -0.18748196173E+03 -0.65118210668E+03  0.76160331186E+03  0.25500000920E-02 0. -1.
       -2    1    3    3    0  502 -0.34763771745E+03  0.18748196173E+03  0.53441371248E+03  0.66452952129E+03  0.25500000920E-02 0.  1.
</event>
<event>
 5   0  0.9007180E-04  0.1398767E+04  0.7818609E-02  0.8954712E-01
        1   -1    0    0  501    0  0.00000000000E+00  0.00000000000E+00  0.14026989423E+04  0.14026989423E+04  0.50400001928E-02 0. -1.
       -1   -1    0    0    0  501  0.00000000000E+00  0.00000000000E+00 -0.34871145610E+03  0.34871145614E+03  0.50400001928E-02 0.  1.
    10030    2    1    2    0    0  0.00000000000E+00  0.00000000000E+00  0.10539874862E+04  0.17514103985E+04  0.13987668722E+04 0.  0.
        2    1    3    3  502    0 -0.37465270907E+03 -0.53644820951E+03  0.83623167045E+03  0.10618025902E+04  0.25500000920E-02 0.  1.
       -2    1    3    3    0  502  0.37465270907E+03  0.53644820951E+03  0.21775581577E+03  0.68960780826E+03  0.25500000920E-02 0. -1.
</event>
<event>
 5   0  0.6048000E-04  0.1427486E+04  0.7818609E-02  0.8934159E-01
       -4   -1    0    0    0  501  0.00000000000E+00  0.00000000000E+00  0.97753355624E+03  0.97753438123E+03  0.12699999809E+01 0.  1.
        4   -1    0    0  501    0  0.00000000000E+00  0.00000000000E+00 -0.52113560329E+03  0.52113715078E+03  0.12699999809E+01 0. -1.
    10030    2    1    2    0    0  0.00000000000E+00  0.00000000000E+00  0.45639795295E+03  0.14986715320E+04  0.14274863465E+04 0.  0.
        2    1    3    3  502    0 -0.52466913489E+03 -0.33578120787E+03 -0.13760505098E+03  0.63793563212E+03  0.25500000920E-02 0. -1.
       -2    1    3    3    0  502  0.52466913489E+03  0.33578120787E+03  0.59400300392E+03  0.86073589988E+03  0.25500000920E-02 0.  1.
</event>
<event>
 5   0  0.1605214E-03  0.1424912E+04  0.7818609E-02  0.8935981E-01
        2   -1    0    0  501    0  0.00000000000E+00  0.00000000000E+00  0.11141799347E+04  0.11141799347E+04  0.25500000920E-02 0. -1.
       -2   -1    0    0    0  501  0.00000000000E+00  0.00000000000E+00 -0.45557581641E+03  0.45557581641E+03  0.25500000920E-02 0.  1.
    10030    2    1    2    0    0  0.00000000000E+00  0.00000000000E+00  0.65860411828E+03  0.15697557511E+04  0.14249118336E+04 0.  0.
        5    1    3    3  502    0  0.92435931502E+02 -0.60196549385E+03  0.73656221774E+03  0.95574727194E+03  0.46999998093E+01 0.  1.
       -5    1    3    3    0  502 -0.92435931502E+02  0.60196549385E+03 -0.77958099454E+02  0.61400847917E+03  0.46999998093E+01 0. -1.
</event>
<event>
 5   0  0.1706986E-03  0.1400428E+04  0.7818609E-02  0.8953509E-01
       -2   -1    0    0    0  501  0.00000000000E+00  0.00000000000E+00  0.28839106920E+03  0.28839106921E+03  0.25500000920E-02 0.  1.
        2   -1    0    0  501    0  0.00000000000E+00  0.00000000000E+00 -0.17001207213E+04  0.17001207213E+04  0.25500000920E-02 0. -1.
    10030    2    1    2    0    0  0.00000000000E+00  0.00000000000E+00 -0.14117296521E+04  0.19885117905E+04  0.14004279811E+04 0.  0.
        3    1    3    3  502    0  0.54715683173E+00  0.68424011939E+03 -0.49470625112E+03  0.84434538280E+03  0.10100000352E+00 0. -1.
       -3    1    3    3    0  502 -0.54715683173E+00 -0.68424011939E+03 -0.91702340096E+03  0.11441664077E+04  0.10100000352E+00 0.  1.
</event>
<event>
 5   0  0.1648463E-03  0.1394776E+04  0.7818609E-02  0.8957609E-01
        2   -1    0    0  501    0  0.00000000000E+00  0.00000000000E+00  0.66484380279E+03  0.66484380280E+03  0.25500000920E-02 0. -1.
       -2   -1    0    0    0  501  0.00000000000E+00  0.00000000000E+00 -0.73152521499E+03  0.73152521499E+03  0.25500000920E-02 0.  1.
    10030    2    1    2    0    0  0.00000000000E+00  0.00000000000E+00 -0.66681412193E+02  0.13963690178E+04  0.13947759760E+04 0.  0.
        1    1    3    3  502    0  0.27933561473E+03  0.19482806183E+03  0.57592947241E+03  0.66908976718E+03  0.50400001928E-02 0. -1.
       -1    1    3    3    0  502 -0.27933561473E+03 -0.19482806183E+03 -0.64261088460E+03  0.72727925061E+03  0.50400001928E-02 0.  1.
</event>
<event>
 5   0  0.8609148E-04  0.1234835E+04  0.7818609E-02  0.9082900E-01
        1   -1    0    0  501    0  0.00000000000E+00  0.00000000000E+00  0.72972916091E+03  0.72972916093E+03  0.50400001928E-02 0. -1.
       -1   -1    0    0    0  501  0.00000000000E+00  0.00000000000E+00 -0.52239178626E+03  0.52239178628E+03  0.50400001928E-02 0.  1.
    10030    2    1    2    0    0  0.00000000000E+00  0.00000000000E+00  0.20733737466E+03  0.12521209472E+04  0.12348352439E+04 0.  0.
        5    1    3    3  502    0  0.86419681285E+02 -0.50799026100E+03  0.44851754350E+03  0.68316362858E+03  0.46999998093E+01 0. -1.
       -5    1    3    3    0  502 -0.86419681285E+02  0.50799026100E+03 -0.24118016884E+03  0.56895731863E+03  0.46999998093E+01 0.  1.
</event>
<event>
 5   0  0.9639548E-04  0.1406248E+04  0.7818609E-02  0.8949308E-01
        1   -1    0    0  501    0  0.00000000000E+00  0.00000000000E+00  0.32980681108E+03  0.32980681112E+03  0.50400001928E-02 0.  1.
       -1   -1    0    0    0  501  0.00000000000E+00  0.00000000000E+00 -0.14990092105E+04  0.14990092106E+04  0.50400001928E-02 0. -1.
    10030    2    1    2    0    0  0.00000000000E+00  0.00000000000E+00 -0.11692023995E+04  0.18288160217E+04  0.14062481254E+04 0.  0.
        1    1    3    3  502    0 -0.49266707585E+03  0.50131155470E+03 -0.60890772727E+03  0.92994770974E+03  0.50400001928E-02 0.  1.
       -1    1    3    3    0  502  0.49266707585E+03 -0.50131155470E+03 -0.56029467219E+03  0.89886831194E+03  0.50400001928E-02 0. -1.
</event>
<event>
 5   0  0.1578965E-03  0.1223154E+04  0.7818609E-02  0.9092828E-01
        2   -1    0    0  501    0  0.00000000000E+00  0.00000000000E+00  0.17706915948E+04  0.17706915948E+04  0.25500000920E-02 0. -1.
       -2   -1    0    0    0  501  0.00000000000E+00  0.00000000000E+00 -0.21123191385E+03  0.21123191387E+03  0.25500000920E-02 0.  1.
    10030    2    1    2    0    0  0.00000000000E+00  0.00000000000E+00  0.15594596809E+04  0.19819235086E+04  0.12231542412E+04 0.  0.
        2    1    3    3  502    0  0.29278370180E+03  0.45981599089E+03  0.33047363581E+03  0.63746832508E+03  0.25500000920E-02 0.  1.
       -2    1    3    3    0  502 -0.29278370180E+03 -0.45981599089E+03  0.12289860451E+04  0.13444551836E+04  0.25500000920E-02 0. -1.
</event>
<event>
 5   0  0.9007180E-04  0.1296480E+04  0.7818609E-02  0.9032361E-01
       -1   -1    0    0    0  501  0.00000000000E+00  0.00000000000E+00  0.50775899356E+03  0.50775899358E+03  0.50400001928E-02 0. -1.
        1   -1    0    0  501    0  0.00000000000E+00  0.00000000000E+00 -0.82758772096E+03  0.82758772097E+03  0.50400001928E-02 0.  1.
    10030    2    1    2    0    0  0.00000000000E+00  0.00000000000E+00 -0.31982872740E+03  0.13353467146E+04  0.12964800165E+04 0.  0.
        2    1    3    3  502    0  0.57035016549E+03 -0.75114345651E+02 -0.46765852171E+03  0.74138112272E+03  0.25500000920E-02 0. -1.
       -2    1    3    3    0  502 -0.57035016549E+03  0.75114345651E+02  0.14782979431E+03  0.59396559184E+03  0.25500000920E-02 0.  1.
</event>
<event>
 5   0  0.1706986E-03  0.1427780E+04  0.7818609E-02  0.8933952E-01
        2   -1    0    0  501    0  0.00000000000E+00  0.00000000000E+00  0.55189424314E+03  0.55189424314E+03  0.25500000920E-02 0.  1.
       -2   -1    0    0    0  501  0.00000000000E+00  0.00000000000E+00 -0.92343593222E+03  0.92343593223E+03  0.25500000920E-02 0. -1.
    10030    2    1    2    0    0  0.00000000000E+00  0.00000000000E+00 -0.37154168909E+03  0.14753301754E+04  0.14277800600E+04 0.  0.
        3    1    3    3  502    0  0.54565741880E+03 -0.46031644245E+03 -0.18329979634E+03  0.73704278805E+03  0.10100000352E+00 0. -1.
       -3    1    3    3    0  502 -0.54565741880E+03  0.46031644245E+03 -0.18824189275E+03  0.73828738732E+03  0.10100000352E+00 0.  1.
</event>
<event>
 5   0  0.1605214E-03  0.1437557E+04  0.7818609E-02  0.8927072E-01
        2   -1    0    0  501    0  0.00000000000E+00  0.00000000000E+00  0.17992506770E+04  0.17992506770E+04  0.25500000920E-02 0. -1.
       -2   -1    0    0    0  501  0.00000000000E+00  0.00000000000E+00 -0.28714331218E+03  0.28714331220E+03  0.25500000920E-02 0.  1.
    10030    2    1    2    0    0  0.00000000000E+00  0.00000000000E+00  0.15121073648E+04  0.20863939892E+04  0.14375573712E+04 0.  0.
        5    1    3    3  502    0  0.36751944941E+03 -0.70039685226E+02  0.16467650867E+04  0.16887372336E+04  0.46999998093E+01 0. -1.
       -5    1    3    3    0  502 -0.36751944941E+03  0.70039685226E+02 -0.13465772194E+03  0.39765675560E+03  0.46999998093E+01 0.  1.
</event>
<event>
 5   0  0.8609148E-04  0.1390803E+04  0.7818609E-02  0.8960503E-01
       -1   -1    0    0    0  501  0.00000000000E+00  0.00000000000E+00  0.32938410634E+03  0.32938410638E+03  0.50400001928E-02 0. -1.
        1   -1    0    0  501    0  0.00000000000E+00  0.00000000000E+00 -0.14681436669E+04  0.14681436669E+04  0.50400001928E-02 0.  1.
    10030    2    1    2    0    0  0.00000000000E+00  0.00000000000E+00 -0.11387595606E+04  0.17975277733E+04  0.13908029188E+04 0.  0.
        5    1    3    3  502    0 -0.67702309099E+03  0.10073779050E+03 -0.41081100406E+03  0.79830829836E+03  0.46999998093E+01 0. -1.
       -5    1    3    3    0  502  0.67702309099E+03 -0.10073779050E+03 -0.72794855652E+03  0.99921947494E+03  0.46999998093E+01 0.  1.
</event>
<event>
 5   0  0.8609148E-04  0.1472202E+04  0.7818609E-02  0.8903152E-01
       -1   -1    0    0    0  501  0.00000000000E+00  0.00000000000E+00  0.96802147123E+03  0.96802147125E+03  0.50400001928E-02 0. -1.
        1   -1    0    0  501    0  0.00000000000E+00  0.00000000000E+00 -0.55974431055E+03  0.55974431058E+03  0.50400001928E-02 0.  1.
    10030    2    1    2    0    0  0.00000000000E+00  0.00000000000E+00  0.40827716068E+03  0.15277657818E+04  0.14722017675E+04 0.  0.
        5    1    3    3  502    0 -0.23578207564E+02  0.67840303239E+03 -0.91273292203E+02  0.68493759577E+03  0.46999998093E+01 0.  1.
       -5    1    3    3    0  502  0.23578207564E+02 -0.67840303239E+03  0.49955045288E+03  0.84282818605E+03  0.46999998093E+01 0. -1.
</event>
<event>
 5   0  0.1648463E-03  0.1393048E+04  0.7818609E-02  0.8958866E-01
       -2   -1    0    0    0  501  0.00000000000E+00  0.00000000000E+00  0.77570440799E+03  0.77570440800E+03  0.25500000920E-02 0.  1.
        2   -1    0    0  501    0  0.00000000000E+00  0.00000000000E+00 -0.62542616658E+03  0.62542616658E+03  0.25500000920E-02 0. -1.
    10030    2    1    2    0    0  0.00000000000E+00  0.00000000000E+00  0.15027824141E+03  0.14011305746E+04  0.13930482178E+04 0.  0.
        1    1    3    3  502    0 -0.21004932770E+03 -0.99531602000E+02 -0.58526660256E+03  0.62973348010E+03  0.50400001928E-02 0. -1.
       -1    1    3    3    0  502  0.21004932770E+03  0.99531602000E+02  0.73554484397E+03  0.77139709449E+03  0.50400001928E-02 0.  1.
</event>
<event>
 5   0  0.1648213E-03  0.1406647E+04  0.7818609E-02  0.8949021E-01
        2   -1    0    0  501    0  0.00000000000E+00  0.00000000000E+00  0.16004394007E+04  0.16004394008E+04  0.25500000920E-02 0. -1.
       -2   -1    0    0    0  501  0.00000000000E+00  0.00000000000E+00 -0.30908022364E+03  0.30908022365E+03  0.25500000920E-02 0.  1.
    10030    2    1    2    0    0  0.00000000000E+00  0.00000000000E+00  0.12913591771E+04  0.19095196244E+04  0.14066473160E+04 0.  0.
        4    1    3    3  502    0 -0.15334610108E+03 -0.24403146230E+03 -0.22523300097E+03  0.36578395117E+03  0.12699999809E+01 0.  1.
       -4    1    3    3    0  502  0.15334610108E+03  0.24403146230E+03  0.15165921781E+04  0.15437356732E+04  0.12699999809E+01 0. -1.
</event>
<event>
 5   0  0.9007180E-04  0.1370190E+04  0.7818609E-02  0.8975683E-01
       -1   -1    0    0    0  501  0.00000000000E+00  0.00000000000E+00  0.55896497891E+03  0.55896497894E+03  0.50400001928E-02 0. -1.
        1   -1    0    0  501    0  0.00000000000E+00  0.00000000000E+00 -0.83968656098E+03  0.83968656100E+03  0.50400001928E-02 0.  1.
    10030    2    1    2    0    0  0.00000000000E+00  0.00000000000E+00 -0.28072158207E+03  0.13986515399E+04  0.13701903238E+04 0.  0.
        2    1    3    3  502    0  0.17508577599E+03  0.33550686805E+03  0.44258432014E+03  0.58232359380E+03  0.25500000920E-02 0. -1.
       -2    1    3    3    0  502 -0.17508577599E+03 -0.33550686805E+03 -0.72330590220E+03  0.81632794613E+03  0.25500000920E-02 0.  1.
</event>
<event>
 5   0  0.8502300E-04  0.1387521E+04  0.7818609E-02  0.8962901E-01
       -1   -1    0    0    0  501  0.00000000000E+00  0.00000000000E+00  0.99750273337E+03  0.99750273338E+03  0.50400001928E-02 0.  1.
        1   -1    0    0  501    0  0.00000000000E+00  0.00000000000E+00 -0.48250847091E+03  0.48250847094E+03  0.50400001928E-02 0. -1.
    10030    2    1    2    0    0  0.00000000000E+00  0.00000000000E+00  0.51499426245E+03  0.14800112043E+04  0.13875208375E+04 0.  0.
        4    1    3    3  502    0 -0.23919928408E+03  0.11678485746E+03  0.94086409851E+03  0.97779438800E+03  0.12699999809E+01 0.  1.
       -4    1    3    3    0  502  0.23919928408E+03 -0.11678485746E+03 -0.42586983606E+03  0.50221681632E+03  0.12699999809E+01 0. -1.
</event>
<event>
 5   0  0.1605214E-03  0.1445965E+04  0.7818609E-02  0.8921203E-01
       -2   -1    0    0    0  501  0.00000000000E+00  0.00000000000E+00  0.95373596007E+03  0.95373596007E+03  0.25500000920E-02 0.  1.
        2   -1    0    0  501    0  0.00000000000E+00  0.00000000000E+00 -0.54805883995E+03  0.54805883995E+03  0.25500000920E-02 0. -1.
    10030    2    1    2    0    0  0.00000000000E+00  0.00000000000E+00  0.40567712012E+03  0.15017948000E+04  0.14459646246E+04 0.  0.
        5    1    3    3  502    0 -0.11022133498E+03 -0.61587398279E+03  0.57908510301E+03  0.85253219992E+03  0.46999998093E+01 0.  1.
       -5    1    3    3    0  502  0.11022133498E+03  0.61587398279E+03 -0.17340798289E+03  0.64926260010E+03  0.46999998093E+01 0. -1.
</event>
<event>
 5   0  0.9639548E-04  0.1382541E+04  0.7818609E-02  0.8966554E-01
       -1   -1    0    0    0  501  0.00000000000E+00  0.00000000000E+00  0.67128700548E+03  0.67128700549E+03  0.50400001928E-02 0.  1.
        1   -1    0    0  501    0  0.00000000000E+00  0.00000000000E+00 -0.71184927210E+03  0.71184927212E+03  0.50400001928E-02 0. -1.
    10030    2    1    2    0    0  0.00000000000E+00  0.00000000000E+00 -0.40562266629E+02  0.13831362776E+04  0.13825413791E+04 0.  0.
        1    1    3    3  502    0  0.20773019308E+03  0.44212399074E+03 -0.50960273734E+03  0.70591812998E+03  0.50400001928E-02 0. -1.
       -1    1    3    3    0  502 -0.20773019308E+03 -0.44212399074E+03  0.46904047071E+03  0.67721814764E+03  0.50400001928E-02 0.  1.
</event>
<event>
 5   0  0.1605214E-03  0.1402165E+04  0.7818609E-02  0.8952253E-01
        2   -1    0    0  501    0  0.00000000000E+00  0.00000000000E+00  0.19051272046E+04  0.19051272046E+04  0.25500000920E-02 0.  1.
       -2   -1    0    0    0  501  0.00000000000E+00  0.00000000000E+00 -0.25799675156E+03  0.25799675157E+03  0.25500000920E-02 0. -1.
    10030    2    1    2    0    0  0.00000000000E+00  0.00000000000E+00  0.16471304530E+04  0.21631239561E+04  0.14021649405E+04 0.  0.
        5    1    3    3  502    0  0.39295121634E+03 -0.57830913874E+03  0.74426336731E+03  0.10211768546E+04  0.46999998093E+01 0.  1.
       -5    1    3    3    0  502 -0.39295121634E+03  0.57830913874E+03  0.90286708568E+03  0.11419471016E+04  0.46999998093E+01 0. -1.
</event>
<event>
 5   0  0.9007180E-04  0.1384391E+04  0.7818609E-02  0.8965195E-01
       -1   -1    0    0    0  501  0.00000000000E+00  0.00000000000E+00  0.26230125944E+03  0.26230125949E+03  0.50400001928E-02 0.  1.
        1   -1    0    0  501    0  0.00000000000E+00  0.00000000000E+00 -0.18266588971E+04  0.18266588971E+04  0.50400001928E-02 0. -1.
    10030    2    1    2    0    0  0.00000000000E+00  0.00000000000E+00 -0.15643576377E+04  0.20889601566E+04  0.13843914610E+04 0.  0.
        2    1    3    3  502    0  0.39647016132E+03  0.43547706943E+03 -0.23331940539E+03  0.63345624297E+03  0.25500000920E-02 0.  1.
       -2    1    3    3    0  502 -0.39647016132E+03 -0.43547706943E+03 -0.13310382323E+04  0.14555039137E+04  0.25500000920E-02 0. -1.
</event>
<event>
 5   0  0.1648463E-03  0.1424561E+04  0.7818609E-02  0.8936229E-01
       -2   -1    0    0    0  501  0.00000000000E+00  0.00000000000E+00  0.28745935749E+03  0.28745935750E+03  0.25500000920E-02 0.  1.
        2   -1    0    0  501    0  0.00000000000E+00  0.00000000000E+00 -0.17649231701E+04  0.17649231701E+04  0.25500000920E-02 0. -1.
    10030    2    1    2    0    0  0.00000000000E+00  0.00000000000E+00 -0.14774638126E+04  0.20523825276E+04  0.14245612384E+04 0.  0.
        1    1    3    3  502    0 -0.60640086825E+03  0.22252962240E+03 -0.11711909329E+04  0.13375087466E+04  0.50400001928E-02 0. -1.
       -1    1    3    3    0  502  0.60640086825E+03 -0.22252962240E+03 -0.30627287966E+03  0.71487378096E+03  0.50400001928E-02 0.  1.
</event>
<event>
 5   0  0.1578965E-03  0.1400433E+04  0.7818609E-02  0.8953505E-01
        2   -1    0    0  501    0  0.00000000000E+00  0.00000000000E+00  0.15413098892E+04  0.15413098892E+04  0.25500000920E-02 0.  1.
       -2   -1    0    0    0  501  0.00000000000E+00  0.00000000000E+00 -0.31810825626E+03  0.31810825627E+03  0.25500000920E-02 0. -1.
    10030    2    1    2    0    0  0.00000000000E+00  0.00000000000E+00  0.12232016330E+04  0.18594181455E+04  0.14004333633E+04 0.  0.
        2    1    3    3  502    0 -0.34081780553E+03 -0.48291806565E+03  0.11100567474E+04  0.12576138585E+04  0.25500000920E-02 0.  1.
       -2    1    3    3    0  502  0.34081780553E+03  0.48291806565E+03  0.11314488558E+03  0.60180428699E+03  0.25500000920E-02 0. -1.
</event>
<event>
 5   0  0.6048000E-04  0.1398634E+04  0.7818609E-02  0.8954808E-01
        3   -1    0    0  501    0  0.00000000000E+00  0.00000000000E+00  0.49066695983E+03  0.49066697022E+03  0.10100000352E+00 0.  1.
       -3   -1    0    0    0  501  0.00000000000E+00  0.00000000000E+00 -0.99669298819E+03  0.99669299331E+03  0.10100000352E+00 0. -1.
    10030    2    1    2    0    0  0.00000000000E+00  0.00000000000E+00 -0.50602602836E+03  0.14873599635E+04  0.13986340907E+04 0.  0.
        1    1    3    3  502    0  0.60548053837E+03 -0.31268023197E+03 -0.42003947779E+03  0.80050532337E+03  0.50400001928E-02 0. -1.
       -1    1    3    3    0  502 -0.60548053837E+03  0.31268023197E+03 -0.85986550571E+02  0.68685464016E+03  0.50400001928E-02 0.  1.
</event>
<event>
 5   0  0.8502300E-04  0.1331720E+04  0.7818609E-02  0.9004782E-01
       -1   -1    0    0    0  501  0.00000000000E+00  0.00000000000E+00  0.42300004741E+03  0.42300004744E+03  0.50400001928E-02 0. -1.
        1   -1    0    0  501    0  0.00000000000E+00  0.00000000000E+00 -0.10481551626E+04  0.10481551626E+04  0.50400001928E-02 0.  1.
    10030    2    1    2    0    0  0.00000000000E+00  0.00000000000E+00 -0.62515511518E+03  0.14711552100E+04  0.13317202161E+04 0.  0.
        4    1    3    3  502    0  0.35398444975E+03 -0.52890626713E+03 -0.52883212128E+03  0.82747317508E+03  0.12699999809E+01 0.  1.
       -4    1    3    3    0  502 -0.35398444975E+03  0.52890626713E+03 -0.96322993904E+02  0.64368203496E+03  0.12699999809E+01 0. -1.
</event>
<event>
 5   0  0.1648213E-03  0.1411346E+04  0.7818609E-02  0.8945646E-01
       -2   -1    0    0    0  501  0.00000000000E+00  0.00000000000E+00  0.96059778852E+03  0.96059778852E+03  0.25500000920E-02 0. -1.
        2   -1    0    0  501    0  0.00000000000E+00  0.00000000000E+00 -0.51840049368E+03  0.51840049369E+03  0.25500000920E-02 0.  1.
    10030    2    1    2    0    0  0.00000000000E+00  0.00000000000E+00  0.44219729484E+03  0.14789982822E+04  0.14113459786E+04 0.  0.
        4    1    3    3  502    0  0.51971893392E+03 -0.19083447540E+03  0.67961906042E+03  0.87658955473E+03  0.12699999809E+01 0. -1.
       -4    1    3    3    0  502 -0.51971893392E+03  0.19083447540E+03 -0.23742176559E+03  0.60240872748E+03  0.12699999809E+01 0.  1.
</event>
<event>
 5   0  0.1605214E-03  0.1373689E+04  0.7818609E-02  0.8973087E-01
       -2   -1    0    0    0  501  0.00000000000E+00  0.00000000000E+00  0.24137172728E+03  0.24137172730E+03  0.25500000920E-02 0.  1.
        2   -1    0    0  501    0  0.00000000000E+00  0.00000000000E+00 -0.19544762472E+04  0.19544762472E+04  0.25500000920E-02 0. -1.
    10030    2    1    2    0    0  0.00000000000E+00  0.00000000000E+00 -0.17131045199E+04  0.21958479745E+04  0.13736889135E+04 0.  0.
        5    1    3    3  502    0 -0.17750583010E+03  0.28568461687E+03 -0.18138005256E+04  0.18447272039E+04  0.46999998093E+01 0. -1.
       -5    1    3    3    0  502  0.17750583010E+03 -0.28568461687E+03  0.10069600565E+03  0.35112077066E+03  0.46999998093E+01 0.  1.
</event>
<event>
 5   0  0.9639548E-04  0.1408996E+04  0.7818609E-02  0.8947332E-01
       -1   -1    0    0    0  501  0.00000000000E+00  0.00000000000E+00  0.61794346881E+03  0.61794346883E+03  0.50400001928E-02 0. -1.
        1   -1    0    0  501    0  0.00000000000E+00  0.00000000000E+00 -0.80317609084E+03  0.80317609086E+03  0.50400001928E-02 0.  1.
    10030    2    1    2    0    0  0.00000000000E+00  0.00000000000E+00 -0.18523262203E+03  0.14211195597E+04  0.14089959825E+04 0.  0.
        1    1    3    3  502    0  0.33720722022E+03 -0.46765958568E+03  0.31571680974E+03  0.65733652069E+03  0.50400001928E-02 0. -1.
       -1    1    3    3    0  502 -0.33720722022E+03  0.46765958568E+03 -0.50094943178E+03  0.76378303900E+03  0.50400001928E-02 0.  1.
</event>
<event>
 5   0  0.1648213E-03  0.1399482E+04  0.7818609E-02  0.8954193E-01
       -2   -1    0    0    0  501  0.00000000000E+00  0.00000000000E+00  0.36683739175E+03  0.36683739176E+03  0.25500000920E-02 0. -1.
        2   -1    0    0  501    0  0.00000000000E+00  0.00000000000E+00 -0.13347538125E+04  0.13347538125E+04  0.25500000920E-02 0.  1.
    10030    2    1    2    0    0  0.00000000000E+00  0.00000000000E+00 -0.96791642070E+03  0.17015912042E+04  0.13994822003E+04 0.  0.
        4    1    3    3  502    0 -0.36191900028E+03  0.55629847300E+03 -0.75360408070E+03  0.10041783095E+04  0.12699999809E+01 0.  1.
       -4    1    3    3    0  502  0.36191900028E+03 -0.55629847300E+03 -0.21431234000E+03  0.69741289477E+03  0.12699999809E+01 0. -1.
</event>
<event>
 5   0  0.6048000E-04  0.1400584E+04  0.7818609E-02  0.8953396E-01
        3   -1    0    0  501    0  0.00000000000E+00  0.00000000000E+00  0.84295488073E+03  0.84295488678E+03  0.10100000352E+00 0. -1.
       -3   -1    0    0    0  501  0.00000000000E+00  0.00000000000E+00 -0.58177374908E+03  0.58177375785E+03  0.10100000352E+00 0.  1.
    10030    2    1    2    0    0  0.00000000000E+00  0.00000000000E+00  0.26118113165E+03  0.14247286446E+04  0.14005842093E+04 0.  0.
        5    1    3    3  502    0 -0.64021354327E+03 -0.26877699085E+03  0.22311172316E+03  0.72932529286E+03  0.46999998093E+01 0.  1.
       -5    1    3    3    0  502  0.64021354327E+03  0.26877699085E+03  0.38069408486E+02  0.69540335177E+03  0.46999998093E+01 0. -1.
</event>
<event>
 5   0  0.8673728E-04  0.1185379E+04  0.7818609E-02  0.9125751E-01
        1   -1    0    0  501    0  0.00000000000E+00  0.00000000000E+00  0.88048804171E+03  0.88048804172E+03  0.50400001928E-02 0. -1.
       -1   -1    0    0    0  501  0.00000000000E+00  0.00000000000E+00 -0.39896158736E+03  0.39896158739E+03  0.50400001928E-02 0.  1.
    10030    2    1    2    0    0  0.00000000000E+00  0.00000000000E+00  0.48152645435E+03  0.12794496291E+04  0.11853791070E+04 0.  0.
        3    1    3    3  502    0 -0.16720306482E+03  0.49408177975E+03 -0.63009183768E+02  0.52539874134E+03  0.10100000352E+00 0.  1.
       -3    1    3    3    0  502  0.16720306482E+03 -0.49408177975E+03  0.54453563811E+03  0.75405088777E+03  0.10100000352E+00 0. -1.
</event>
<event>
 5   0  0.9007180E-04  0.1402256E+04  0.7818609E-02  0.8952187E-01
       -1   -1    0    0    0  501  0.00000000000E+00  0.00000000000E+00  0.87380169247E+03  0.87380169248E+03  0.50400001928E-02 0.  1.
        1   -1    0    0  501    0  0.00000000000E+00  0.00000000000E+00 -0.56257666793E+03  0.56257666795E+03  0.50400001928E-02 0. -1.
    10030    2    1    2    0    0  0.00000000000E+00  0.00000000000E+00  0.31122502454E+03  0.14363783604E+04  0.14022559604E+04 0.  0.
        2    1    3    3  502    0  0.12420503112E+03  0.51102123630E+03 -0.31936357761E+03  0.61527448218E+03  0.25500000920E-02 0. -1.
       -2    1    3    3    0  502 -0.12420503112E+03 -0.51102123630E+03  0.63058860215E+03  0.82110387825E+03  0.25500000920E-02 0.  1.
</event>
<event>
 5   0  0.9007180E-04  0.1426433E+04  0.7818609E-02  0.8934904E-01
        1   -1    0    0  501    0  0.00000000000E+00  0.00000000000E+00  0.46342234529E+03  0.46342234532E+03  0.50400001928E-02 0. -1.
       -1   -1    0    0    0  501  0.00000000000E+00  0.00000000000E+00 -0.10976549103E+04  0.10976549103E+04  0.50400001928E-02 0.  1.
    10030    2    1    2    0    0  0.00000000000E+00  0.00000000000E+00 -0.63423256496E+03  0.15610772556E+04  0.14264330519E+04 0.  0.
        2    1    3    3  502    0 -0.43890929513E+03 -0.48827792873E+03 -0.12212423287E+02  0.65666265945E+03  0.25500000920E-02 0. -1.
       -2    1    3    3    0  502  0.43890929513E+03  0.48827792873E+03 -0.62202014167E+03  0.90441459613E+03  0.25500000920E-02 0.  1.
</event>
<event>
 5   0  0.9639548E-04  0.1400404E+04  0.7818609E-02  0.8953526E-01
       -1   -1    0    0    0  501  0.00000000000E+00  0.00000000000E+00  0.38343131655E+03  0.38343131659E+03  0.50400001928E-02 0.  1.
        1   -1    0    0  501    0  0.00000000000E+00  0.00000000000E+00 -0.12786719637E+04  0.12786719637E+04  0.50400001928E-02 0. -1.
    10030    2    1    2    0    0  0.00000000000E+00  0.00000000000E+00 -0.89524064711E+03  0.16621032803E+04  0.14004040481E+04 0.  0.
        1    1    3    3  502    0 -0.15638333862E+03  0.11977501055E+03 -0.12451088127E+04  0.12605942080E+04  0.50400001928E-02 0. -1.
       -1    1    3    3    0  502  0.15638333862E+03 -0.11977501055E+03  0.34986816562E+03  0.40150907224E+03  0.50400001928E-02 0.  1.
</event>
<event>
 5   0  0.8609148E-04  0.1420054E+04  0.7818609E-02  0.8939429E-01
       -1   -1    0    0    0  501  0.00000000000E+00  0.00000000000E+00  0.44185628164E+03  0.44185628167E+03  0.50400001928E-02 0.  1.
        1   -1    0    0  501    0  0.00000000000E+00  0.00000000000E+00 -0.11409550830E+04  0.11409550830E+04  0.50400001928E-02 0. -1.
    10030    2    1    2    0    0  0.00000000000E+00  0.00000000000E+00 -0.69909880136E+03  0.15828113647E+04  0.14200537603E+04 0.  0.
        5    1    3    3  502    0 -0.36065390820E+03  0.38597789146E+03  0.17923572412E+03  0.55785097382E+03  0.46999998093E+01 0.  1.
       -5    1    3    3    0  502  0.36065390820E+03 -0.38597789146E+03 -0.87833452548E+03  0.10249603909E+04  0.46999998093E+01 0. -1.
</event>
<event>
 5   0  0.9007180E-04  0.1390394E+04  0.7818609E-02  0.8960802E-01
        1   -1    0    0  501    0  0.00000000000E+00  0.00000000000E+00  0.66886533783E+03  0.66886533785E+03  0.50400001928E-02 0.  1.
       -1   -1    0    0    0  501  0.00000000000E+00  0.00000000000E+00 -0.72256505617E+03  0.72256505619E+03  0.50400001928E-02 0. -1.
    10030    2    1    2    0    0  0.00000000000E+00  0.00000000000E+00 -0.53699718342E+02  0.13914303940E+04  0.13903937866E+04 0.  0.
        2    1    3    3  502    0  0.67321765514E+03  0.14726473378E+03  0.64814322003E+02  0.69217758512E+03  0.25500000920E-02 0.  1.
       -2    1    3    3    0  502 -0.67321765514E+03 -0.14726473378E+03 -0.11851404035E+03  0.69925280891E+03  0.25500000920E-02 0. -1.
</event>
<event>
 5   0  0.1648213E-03  0.1391351E+04  0.7818609E-02  0.8960103E-01
       -2   -1    0    0    0  501  0.00000000000E+00  0.00000000000E+00  0.43213674656E+03  0.43213674657E+03  0.25500000920E-02 0.  1.
        2   -1    0    0  501    0  0.00000000000E+00  0.00000000000E+00 -0.11199330034E+04  0.11199330034E+04  0.25500000920E-02 0. -1.
    10030    2    1    2    0    0  0.00000000000E+00  0.00000000000E+00 -0.68779625682E+03  0.15520697500E+04  0.13913507170E+04 0.  0.
        4    1    3    3  502    0 -0.13089837906E+03 -0.53006361995E+03 -0.82481330012E+03  0.98915136344E+03  0.12699999809E+01 0. -1.
       -4    1    3    3    0  502  0.13089837906E+03  0.53006361995E+03  0.13701704330E+03  0.56291838652E+03  0.12699999809E+01 0.  1.
</event>
<event>
 5   0  0.1648213E-03  0.1366702E+04  0.7818609E-02  0.8978280E-01
        2   -1    0    0  501    0  0.00000000000E+00  0.00000000000E+00  0.28600151774E+03  0.28600151775E+03  0.25500000920E-02 0.  1.
       -2   -1    0    0    0  501  0.00000000000E+00  0.00000000000E+00 -0.16327486174E+04  0.16327486174E+04  0.25500000920E-02 0. -1.
    10030    2    1    2    0    0  0.00000000000E+00  0.00000000000E+00 -0.13467470997E+04  0.19187501352E+04  0.13667019905E+04 0.  0.
        4    1    3    3  502    0 -0.47918760292E+03 -0.42312510733E+03 -0.10123903040E+04  0.11973267540E+04  0.12699999809E+01 0. -1.
       -4    1    3    3    0  502  0.47918760292E+03  0.42312510733E+03 -0.33435679569E+03  0.72142338122E+03  0.12699999809E+01 0.  1.
</event>
<event>
 5   0  0.1648463E-03  0.1458126E+04  0.7818609E-02  0.8912786E-01
        2   -1    0    0  501    0  0.00000000000E+00  0.00000000000E+00  0.18862027459E+04  0.18862027459E+04  0.25500000920E-02 0. -1.
       -2   -1    0    0    0  501  0.00000000000E+00  0.00000000000E+00 -0.28180038583E+03  0.28180038584E+03  0.25500000920E-02 0.  1.
    10030    2    1    2    0    0  0.00000000000E+00  0.00000000000E+00  0.16044023601E+04  0.21680031317E+04  0.14581257306E+04 0.  0.
        1    1    3    3  502    0  0.42859581762E+02  0.33294502411E+02 -0.27879273700E+03  0.28402615701E+03  0.50400001928E-02 0.  1.
       -1    1    3    3    0  502 -0.42859581762E+02 -0.33294502411E+02  0.18831950971E+04  0.18839769747E+04  0.50400001928E-02 0. -1.
</event>
<event>
 5   0  0.8502300E-04  0.1380621E+04  0.7818609E-02  0.8967967E-01
       -1   -1    0    0    0  501  0.00000000000E+00  0.00000000000E+00  0.96542004986E+03  0.96542004987E+03  0.50400001928E-02 0. -1.
        1   -1    0    0  501    0  0.00000000000E+00  0.00000000000E+00 -0.49359700324E+03  0.49359700327E+03  0.50400001928E-02 0.  1.
    10030    2    1    2    0    0  0.00000000000E+00  0.00000000000E+00  0.47182304661E+03  0.14590170531E+04  0.13806207930E+04 0.  0.
        4    1    3    3  502    0  0.17119947452E+03  0.56904616523E+03 -0.13532494606E+03  0.60945652196E+03  0.12699999809E+01 0. -1.
       -4    1    3    3    0  502 -0.17119947452E+03 -0.56904616523E+03  0.60714799267E+03  0.84956053118E+03  0.12699999809E+01 0.  1.
</event>
<event>
 5   0  0.8502300E-04  0.1423590E+04  0.7818609E-02  0.8936917E-01
        1   -1    0    0  501    0  0.00000000000E+00  0.00000000000E+00  0.56633730570E+03  0.56633730572E+03  0.50400001928E-02 0. -1.
       -1   -1    0    0    0  501  0.00000000000E+00  0.00000000000E+00 -0.89461240012E+03  0.89461240013E+03  0.50400001928E-02 0.  1.
    10030    2    1    2    0    0  0.00000000000E+00  0.00000000000E+00 -0.32827509442E+03  0.14609497058E+04  0.14235903573E+04 0.  0.
        4    1    3    3  502    0  0.56638491002E+03 -0.28900703137E+03 -0.49242920595E+03  0.80424192022E+03  0.12699999809E+01 0.  1.
       -4    1    3    3    0  502 -0.56638491002E+03  0.28900703137E+03  0.16415411153E+03  0.65670778563E+03  0.12699999809E+01 0. -1.
</event>
<event>
 5   0  0.1605214E-03  0.1443723E+04  0.7818609E-02  0.8922764E-01
        2   -1    0    0  501    0  0.00000000000E+00  0.00000000000E+00  0.96251437100E+03  0.96251437100E+03  0.25500000920E-02 0. -1.
       -2   -1    0    0    0  501  0.00000000000E+00  0.00000000000E+00 -0.54137788363E+03  0.54137788364E+03  0.25500000920E-02 0.  1.
    10030    2    1    2    0    0  0.00000000000E+00  0.00000000000E+00  0.42113648736E+03  0.15038922546E+04  0.14437229556E+04 0.  0.
        5    1    3    3  502    0  0.46784118316E+03 -0.62252666522E+01 -0.36202017818E+03  0.59160360548E+03  0.46999998093E+01 0.  1.
       -5    1    3    3    0  502 -0.46784118316E+03  0.62252666522E+01  0.78315666555E+03  0.91228864917E+03  0.46999998093E+01 0. -1.
</event>
<event>
 5   0  0.8609148E-04  0.1440974E+04  0.7818609E-02  0.8924682E-01
        1   -1    0    0  501    0  0.00000000000E+00  0.00000000000E+00  0.24917918536E+04  0.24917918536E+04  0.50400001928E-02 0.  1.
       -1   -1    0    0    0  501  0.00000000000E+00  0.00000000000E+00 -0.20832452414E+03  0.20832452420E+03  0.50400001928E-02 0. -1.
    10030    2    1    2    0    0  0.00000000000E+00  0.00000000000E+00  0.22834673294E+04  0.27001163778E+04  0.14409737711E+04 0.  0.
        5    1    3    3  502    0  0.59708912314E+03  0.34743113342E+03  0.15250897917E+04  0.16742594710E+04  0.46999998093E+01 0. -1.
       -5    1    3    3    0  502 -0.59708912314E+03 -0.34743113342E+03  0.75837753767E+03  0.10258569067E+04  0.46999998093E+01 0.  1.
</event>
<event>
 5   0  0.6048000E-04  0.1380840E+04  0.7818609E-02  0.8967805E-01
        3   -1    0    0  501    0  0.00000000000E+00  0.00000000000E+00  0.36974404389E+03  0.36974405769E+03  0.10100000352E+00 0. -1.
       -3   -1    0    0    0  501  0.00000000000E+00  0.00000000000E+00 -0.12892163851E+04  0.12892163891E+04  0.10100000352E+00 0.  1.
    10030    2    1    2    0    0  0.00000000000E+00  0.00000000000E+00 -0.91947234121E+03  0.16589604467E+04  0.13808404606E+04 0.  0.
        2    1    3    3  502    0 -0.25981273350E+03 -0.25678757648E+03 -0.11636020977E+04  0.12195951614E+04  0.25500000920E-02 0.  1.
       -2    1    3    3    0  502  0.25981273350E+03  0.25678757648E+03  0.24412975652E+03  0.43936528532E+03  0.25500000920E-02 0. -1.
</event>
<event>
 5   0  0.1578965E-03  0.1380916E+04  0.7818609E-02  0.8967749E-01
       -2   -1    0    0    0  501  0.00000000000E+00  0.00000000000E+00  0.22022512336E+03  0.22022512338E+03  0.25500000920E-02 0.  1.
        2   -1    0    0  501    0  0.00000000000E+00  0.00000000000E+00 -0.21647497578E+04  0.21647497578E+04  0.25500000920E-02 0. -1.
    10030    2    1    2    0    0  0.00000000000E+00  0.00000000000E+00 -0.19445246344E+04  0.23849748812E+04  0.13809160474E+04 0.  0.
        2    1    3    3  502    0 -0.14994807407E+02 -0.68030770323E+03 -0.77019304041E+03  0.10277357320E+04  0.25500000920E-02 0.  1.
       -2    1    3    3    0  502  0.14994807407E+02  0.68030770323E+03 -0.11743315940E+04  0.13572391492E+04  0.25500000920E-02 0. -1.
</event>
<event>
 5   0  0.8673728E-04  0.1399966E+04  0.7818609E-02  0.8953843E-01
        1   -1    0    0  501    0  0.00000000000E+00  0.00000000000E+00  0.11794929817E+04  0.11794929818E+04  0.50400001928E-02 0.  1.
       -1   -1    0    0    0  501  0.00000000000E+00  0.00000000000E+00 -0.41541229370E+03  0.41541229373E+03  0.50400001928E-02 0. -1.
    10030    2    1    2    0    0  0.00000000000E+00  0.00000000000E+00  0.76408068805E+03  0.15949052755E+04  0.13999655495E+04 0.  0.
        3    1    3    3  502    0 -0.18910961562E+03 -0.15078498397E+03 -0.36629547040E+03  0.43894298029E+03  0.10100000352E+00 0. -1.
       -3    1    3    3    0  502  0.18910961562E+03  0.15078498397E+03  0.11303761584E+04  0.11559622952E+04  0.10100000352E+00 0.  1.
</event>
<event>
 5   0  0.1706986E-03  0.1397621E+04  0.7818609E-02  0.8955542E-01
        2   -1    0    0  501    0  0.00000000000E+00  0.00000000000E+00  0.13928809656E+04  0.13928809656E+04  0.25500000920E-02 0. -1.
       -2   -1    0    0    0  501  0.00000000000E+00  0.00000000000E+00 -0.35059446228E+03  0.35059446229E+03  0.25500000920E-02 0.  1.
    10030    2    1    2    0    0  0.00000000000E+00  0.00000000000E+00  0.10422865033E+04  0.17434754279E+04  0.13976213409E+04 0.  0.
        3    1    3    3  502    0  0.46072061423E+03 -0.10995947419E+03  0.11620772035E+04  0.12549015927E+04  0.10100000352E+00 0. -1.
       -3    1    3    3    0  502 -0.46072061423E+03  0.10995947419E+03 -0.11979070019E+03  0.48857383515E+03  0.10100000352E+00 0.  1.
</event>
<event>
 5   0  0.1648213E-03  0.1393929E+04  0.7818609E-02  0.8958224E-01
       -2   -1    0    0    0  501  0.00000000000E+00  0.00000000000E+00  0.42213358005E+03  0.42213358005E+03  0.25500000920E-02 0.  1.
        2   -1    0    0  501    0  0.00000000000E+00  0.00000000000E+00 -0.11507253368E+04  0.11507253368E+04  0.25500000920E-02 0. -1.
    10030    2    1    2    0    0  0.00000000000E+00  0.00000000000E+00 -0.72859175676E+03  0.15728589169E+04  0.13939294187E+04 0.  0.
        4    1    3    3  502    0  0.33787440982E+03  0.39680614147E+03 -0.88645383737E+03  0.10283074683E+04  0.12699999809E+01 0. -1.
       -4    1    3    3    0  502 -0.33787440982E+03 -0.39680614147E+03  0.15786208061E+03  0.54455144854E+03  0.12699999809E+01 0.  1.
</event>
<event>
 5   0  0.1648213E-03  0.1413504E+04  0.7818609E-02  0.8944101E-01
        2   -1    0    0  501    0  0.00000000000E+00  0.00000000000E+00  0.12304009191E+04  0.12304009191E+04  0.25500000920E-02 0.  1.
       -2   -1    0    0    0  501  0.00000000000E+00  0.00000000000E+00 -0.40596415119E+03  0.40596415120E+03  0.25500000920E-02 0. -1.
    10030    2    1    2    0    0  0.00000000000E+00  0.00000000000E+00  0.82443676786E+03  0.16363650703E+04  0.14135043894E+04 0.  0.
        4    1    3    3  502    0  0.11073889117E+03  0.68755835904E+03  0.27282925959E+03  0.74795522385E+03  0.12699999809E+01 0. -1.
       -4    1    3    3    0  502 -0.11073889117E+03 -0.68755835904E+03  0.55160750828E+03  0.88840984641E+03  0.12699999809E+01 0.  1.
</event>
<event>
 5   0  0.9007180E-04  0.1440348E+04  0.7818609E-02  0.8925119E-01
       -1   -1    0    0    0  501  0.00000000000E+00  0.00000000000E+00  0.12243261019E+04  0.12243261019E+04  0.50400001928E-02 0.  1.
        1   -1    0    0  501    0  0.00000000000E+00  0.00000000000E+00 -0.42362130490E+03  0.42362130493E+03  0.50400001928E-02 0. -1.
    10030    2    1    2    0    0  0.00000000000E+00  0.00000000000E+00  0.80070479697E+03  0.16479474068E+04  0.14403480426E+04 0.  0.
        2    1    3    3  502    0 -0.45892033558E+03  0.52713958528E+03  0.59907127022E+03  0.92052724218E+03  0.25500000920E-02 0.  1.
       -2    1    3    3    0  502  0.45892033558E+03 -0.52713958528E+03  0.20163352675E+03  0.72742016462E+03  0.25500000920E-02 0. -1.
</event>
<event>
 5   0  0.1648463E-03  0.1449238E+04  0.7818609E-02  0.8918929E-01
        2   -1    0    0  501    0  0.00000000000E+00  0.00000000000E+00  0.22014388362E+04  0.22014388362E+04  0.25500000920E-02 0.  1.
       -2   -1    0    0    0  501  0.00000000000E+00  0.00000000000E+00 -0.23851356772E+03  0.23851356773E+03  0.25500000920E-02 0. -1.
    10030    2    1    2    0    0  0.00000000000E+00  0.00000000000E+00  0.19629252685E+04  0.24399524040E+04  0.14492384634E+04 0.  0.
        1    1    3    3  502    0  0.39566590666E+02  0.86003434691E+02 -0.22805729589E+03  0.24692556796E+03  0.50400001928E-02 0. -1.
       -1    1    3    3    0  502 -0.39566590666E+02 -0.86003434691E+02  0.21909825644E+04  0.21930268360E+04  0.50400001928E-02 0.  1.
</event>
<event>
 5   0  0.9639548E-04  0.1385995E+04  0.7818609E-02  0.8964019E-01
        1   -1    0    0  501    0  0.00000000000E+00  0.00000000000E+00  0.15172039478E+04  0.15172039479E+04  0.50400001928E-02 0.  1.
       -1   -1    0    0    0  501  0.00000000000E+00  0.00000000000E+00 -0.31653305448E+03  0.31653305452E+03  0.50400001928E-02 0. -1.
    10030    2    1    2    0    0  0.00000000000E+00  0.00000000000E+00  0.12006708934E+04  0.18337370024E+04  0.13859945165E+04 0.  0.
        1    1    3    3  502    0  0.37893861554E+03  0.42139670629E+03  0.11280234752E+04  0.12623813287E+04  0.50400001928E-02 0.  1.
       -1    1    3    3    0  502 -0.37893861554E+03 -0.42139670629E+03  0.72647418131E+02  0.57135567364E+03  0.50400001928E-02 0. -1.
</event>
<event>
 5   0  0.8609148E-04  0.1400255E+04  0.7818609E-02  0.8953634E-01
       -1   -1    0    0    0  501  0.00000000000E+00  0.00000000000E+00  0.15834895882E+04  0.15834895882E+04  0.50400001928E-02 0. -1.
        1   -1    0    0  501    0  0.00000000000E+00  0.00000000000E+00 -0.30955596439E+03  0.30955596443E+03  0.50400001928E-02 0.  1.
    10030    2    1    2    0    0  0.00000000000E+00  0.00000000000E+00  0.12739336238E+04  0.18930455526E+04  0.14002551862E+04 0.  0.
        5    1    3    3  502    0  0.67507382418E+03 -0.16956464562E+03  0.53508015365E+03  0.87795768574E+03  0.46999998093E+01 0.  1.
       -5    1    3    3    0  502 -0.67507382418E+03  0.16956464562E+03  0.73885347013E+03  0.10150878669E+04  0.46999998093E+01 0. -1.
</event>
<event>
 5   0  0.1648463E-03  0.1412833E+04  0.7818609E-02  0.8944582E-01
       -2   -1    0    0    0  501  0.00000000000E+00  0.00000000000E+00  0.49933986549E+03  0.49933986550E+03  0.25500000920E-02 0. -1.
        2   -1    0    0  501    0  0.00000000000E+00  0.00000000000E+00 -0.99936756555E+03  0.99936756555E+03  0.25500000920E-02 0.  1.
    10030    2    1    2    0    0  0.00000000000E+00  0.00000000000E+00 -0.50002770006E+03  0.14987074310E+04  0.14128327088E+04 0.  0.
        1    1    3    3  502    0 -0.71808358351E+02 -0.50336585960E+03 -0.77021945291E+03  0.92291474937E+03  0.50400001928E-02 0.  1.
       -1    1    3    3    0  502  0.71808358351E+02  0.50336585960E+03  0.27019175285E+03  0.57579268168E+03  0.50400001928E-02 0. -1.
</event>
<event>
 5   0  0.8609148E-04  0.1390345E+04  0.7818609E-02  0.8960837E-01
       -1   -1    0    0    0  501  0.00000000000E+00  0.00000000000E+00  0.61923965009E+03  0.61923965011E+03  0.50400001928E-02 0.  1.
        1   -1    0    0  501    0  0.00000000000E+00  0.00000000000E+00 -0.78041593700E+03  0.78041593702E+03  0.50400001928E-02 0. -1.
    10030    2    1    2    0    0  0.00000000000E+00  0.00000000000E+00 -0.16117628691E+03  0.13996555871E+04  0.13903445498E+04 0.  0.
        5    1    3    3  502    0 -0.41169751629E+03  0.51928070094E+03  0.13080649145E+03  0.67548480330E+03  0.46999998093E+01 0.  1.
       -5    1    3    3    0  502  0.41169751629E+03 -0.51928070094E+03 -0.29198277836E+03  0.72417078383E+03  0.46999998093E+01 0. -1.
</event>
<event>
 5   0  0.8673728E-04  0.1399463E+04  0.7818609E-02  0.8954207E-01
        1   -1    0    0  501    0  0.00000000000E+00  0.00000000000E+00  0.97661211331E+03  0.97661211332E+03  0.50400001928E-02 0. -1.
       -1   -1    0    0    0  501  0.00000000000E+00  0.00000000000E+00 -0.50134999126E+03  0.50134999129E+03  0.50400001928E-02 0.  1.
    10030    2    1    2    0    0  0.00000000000E+00  0.00000000000E+00  0.47526212205E+03  0.14779621046E+04  0.13994634322E+04 0.  0.
        3    1    3    3  502    0  0.24440861333E+03  0.30273375009E+03 -0.37657624515E+03  0.54147296546E+03  0.10100000352E+00 0.  1.
       -3    1    3    3    0  502 -0.24440861333E+03 -0.30273375009E+03  0.85183836720E+03  0.93648913915E+03  0.10100000352E+00 0. -1.
</event>
<event>
 5   0  0.8502300E-04  0.1385739E+04  0.7818609E-02  0.8964207E-01
       -1   -1    0    0    0  501  0.00000000000E+00  0.00000000000E+00  0.10311186112E+04  0.10311186112E+04  0.50400001928E-02 0.  1.
        1   -1    0    0  501    0  0.00000000000E+00  0.00000000000E+00 -0.46557971666E+03  0.46557971669E+03  0.50400001928E-02 0. -1.
    10030    2    1    2    0    0  0.00000000000E+00  0.00000000000E+00  0.56553889451E+03  0.14966983279E+04  0.13857386635E+04 0.  0.
        4    1    3    3  502    0  0.35860695188E+03  0.11827520848E+03  0.91021476517E+03  0.98543416955E+03  0.12699999809E+01 0.  1.
       -4    1    3    3    0  502 -0.35860695188E+03 -0.11827520848E+03 -0.34467587066E+03  0.51126415833E+03  0.12699999809E+01 0. -1.
</event>
<event>
 5   0  0.1605214E-03  0.1396129E+04  0.7818609E-02  0.8956625E-01
        2   -1    0    0  501    0  0.00000000000E+00  0.00000000000E+00  0.14129606158E+04  0.14129606158E+04  0.25500000920E-02 0.  1.
       -2   -1    0    0    0  501  0.00000000000E+00  0.00000000000E+00 -0.34487441963E+03  0.34487441964E+03  0.25500000920E-02 0. -1.
    10030    2    1    2    0    0  0.00000000000E+00  0.00000000000E+00  0.10680861962E+04  0.17578350354E+04  0.13961288943E+04 0.  0.
        5    1    3    3  502    0  0.57466657579E+03  0.32267953855E+03  0.24443294456E+03  0.70294616602E+03  0.46999998093E+01 0. -1.
       -5    1    3    3    0  502 -0.57466657579E+03 -0.32267953855E+03  0.82365325162E+03  0.10548888694E+04  0.46999998093E+01 0.  1.
</event>
<event>
 5   0  0.1648463E-03  0.1397756E+04  0.7818609E-02  0.8955445E-01
        2   -1    0    0  501    0  0.00000000000E+00  0.00000000000E+00  0.16418712622E+04  0.16418712622E+04  0.25500000920E-02 0. -1.
       -2   -1    0    0    0  501  0.00000000000E+00  0.00000000000E+00 -0.29748381027E+03  0.29748381028E+03  0.25500000920E-02 0.  1.
    10030    2    1    2    0    0  0.00000000000E+00  0.00000000000E+00  0.13443874519E+04  0.19393550725E+04  0.13977555138E+04 0.  0.
        1    1    3    3  502    0  0.12679287855E+01  0.25173183198E+03 -0.23239470465E+03  0.34260446822E+03  0.50400001928E-02 0.  1.
       -1    1    3    3    0  502 -0.12679287855E+01 -0.25173183198E+03  0.15767821566E+04  0.15967506043E+04  0.50400001928E-02 0. -1.
</event>
<event>
 5   0  0.9007180E-04  0.1365263E+04  0.7818609E-02  0.8979354E-01
       -1   -1    0    0    0  501  0.00000000000E+00  0.00000000000E+00  0.41797380931E+03  0.41797380934E+03  0.50400001928E-02 0.  1.
        1   -1    0    0  501    0  0.00000000000E+00  0.00000000000E+00 -0.11148680476E+04  0.11148680476E+04  0.50400001928E-02 0. -1.
    10030    2    1    2    0    0  0.00000000000E+00  0.00000000000E+00 -0.69689423830E+03  0.15328418570E+04  0.13652628242E+04 0.  0.
        2    1    3    3  502    0  0.23720518657E+03  0.50679479795E+03  0.90542366205E+02  0.56683788498E+03  0.25500000920E-02 0.  1.
       -2    1    3    3    0  502 -0.23720518657E+03 -0.50679479795E+03 -0.78743660451E+03  0.96600397198E+03  0.25500000920E-02 0. -1.
</event>
<event>
 5   0  0.8609148E-04  0.1461825E+04  0.7818609E-02  0.8910243E-01
       -1   -1    0    0    0  501  0.00000000000E+00  0.00000000000E+00  0.30784841407E+03  0.30784841411E+03  0.50400001928E-02 0. -1.
        1   -1    0    0  501    0  0.00000000000E+00  0.00000000000E+00 -0.17353767409E+04  0.17353767409E+04  0.50400001928E-02 0.  1.
    10030    2    1    2    0    0  0.00000000000E+00  0.00000000000E+00 -0.14275283268E+04  0.20432251550E+04  0.14618248562E+04 0.  0.
        5    1    3    3  502    0  0.36881730264E+02  0.30631675286E+03 -0.16398758613E+04  0.16686536925E+04  0.46999998093E+01 0.  1.
       -5    1    3    3    0  502 -0.36881730264E+02 -0.30631675286E+03  0.21234753447E+03  0.37457146248E+03  0.46999998093E+01 0. -1.
</event>
<event>
 5   0  0.1706986E-03  0.1396869E+04  0.7818609E-02  0.8956088E-01
       -2   -1    0    0    0  501  0.00000000000E+00  0.00000000000E+00  0.12750048625E+04  0.12750048625E+04  0.25500000920E-02 0. -1.
        2   -1    0    0  501    0  0.00000000000E+00  0.00000000000E+00 -0.38259535418E+03  0.38259535418E+03  0.25500000920E-02 0.  1.
    10030    2    1    2    0    0  0.00000000000E+00  0.00000000000E+00  0.89240950828E+03  0.16576002166E+04  0.13968692665E+04 0.  0.
        3    1    3    3  502    0 -0.49507942441E+03 -0.45170238012E+03  0.67956332326E+03  0.95443438602E+03  0.10100000352E+00 0. -1.
       -3    1    3    3    0  502  0.49507942441E+03  0.45170238012E+03  0.21284618502E+03  0.70316583063E+03  0.10100000352E+00 0.  1.
</event>
<event>
 5   0  0.1648463E-03  0.1363259E+04  0.7818609E-02  0.8980851E-01
       -2   -1    0    0    0  501  0.00000000000E+00  0.00000000000E+00  0.31868833069E+03  0.31868833070E+03  0.25500000920E-02 0.  1.
        2   -1    0    0  501    0  0.00000000000E+00  0.00000000000E+00 -0.14579104120E+04  0.14579104120E+04  0.25500000920E-02 0. -1.
    10030    2    1    2    0    0  0.00000000000E+00  0.00000000000E+00 -0.11392220813E+04  0.17765987427E+04  0.13632593818E+04 0.  0.
        1    1    3    3  502    0 -0.31366658295E+03  0.31618195579E+03  0.10284649371E+03  0.45709425256E+03  0.50400001928E-02 0.  1.
       -1    1    3    3    0  502  0.31366658295E+03 -0.31618195579E+03 -0.12420685750E+04  0.13195044902E+04  0.50400001928E-02 0. -1.
</event>
<event>
 5   0  0.6048000E-04  0.1401430E+04  0.7818609E-02  0.8952784E-01
        3   -1    0    0  501    0  0.00000000000E+00  0.00000000000E+00  0.79895831895E+03  0.79895832533E+03  0.10100000352E+00 0.  1.
       -3   -1    0    0    0  501  0.00000000000E+00  0.00000000000E+00 -0.61455182677E+03  0.61455183507E+03  0.10100000352E+00 0. -1.
    10030    2    1    2    0    0  0.00000000000E+00  0.00000000000E+00  0.18440649218E+03  0.14135101604E+04  0.14014297054E+04 0.  0.
        4    1    3    3  502    0 -0.12096610747E+03 -0.21777973965E+02  0.78799951788E+03  0.79752864048E+03  0.12699999809E+01 0.  1.
       -4    1    3    3    0  502  0.12096610747E+03  0.21777973965E+02 -0.60359302570E+03  0.61598151992E+03  0.12699999809E+01 0. -1.
</event>
<event>
 5   0  0.9007180E-04  0.1366807E+04  0.7818609E-02  0.8978202E-01
       -1   -1    0    0    0  501  0.00000000000E+00  0.00000000000E+00  0.23347978764E+03  0.23347978770E+03  0.50400001928E-02 0. -1.
        1   -1    0    0  501    0  0.00000000000E+00  0.00000000000E+00 -0.20003467502E+04  0.20003467503E+04  0.50400001928E-02 0.  1.
    10030    2    1    2    0    0  0.00000000000E+00  0.00000000000E+00 -0.17668669626E+04  0.22338265380E+04  0.13668072791E+04 0.  0.
        2    1    3    3  502    0 -0.58926987404E+03  0.23229339772E+03 -0.46406918568E+03  0.78521297505E+03  0.25500000920E-02 0. -1.
       -2    1    3    3    0  502  0.58926987404E+03 -0.23229339772E+03 -0.13027977769E+04  0.14486135629E+04  0.25500000920E-02 0.  1.
</event>
<event>
 5   0  0.8609148E-04  0.1380762E+04  0.7818609E-02  0.8967863E-01
       -1   -1    0    0    0  501  0.00000000000E+00  0.00000000000E+00  0.66704513857E+03  0.66704513859E+03  0.50400001928E-02 0.  1.
        1   -1    0    0  501    0  0.00000000000E+00  0.00000000000E+00 -0.71453290756E+03  0.71453290757E+03  0.50400001928E-02 0. -1.
    10030    2    1    2    0    0  0.00000000000E+00  0.00000000000E+00 -0.47487768986E+02  0.13815780462E+04  0.13807616773E+04 0.  0.
        5    1    3    3  502    0  0.51550938872E+03  0.44634296288E+03  0.84169971720E+02  0.68707979486E+03  0.46999998093E+01 0.  1.
       -5    1    3    3    0  502 -0.51550938872E+03 -0.44634296288E+03 -0.13165774071E+03  0.69449825130E+03  0.46999998093E+01 0. -1.
</event>
<event>
 5   0  0.9007180E-04  0.1390071E+04  0.7818609E-02  0.8961037E-01
        1   -1    0    0  501    0  0.00000000000E+00  0.00000000000E+00  0.85562419010E+03  0.85562419012E+03  0.50400001928E-02 0. -1.
       -1   -1    0    0    0  501  0.00000000000E+00  0.00000000000E+00 -0.56458708453E+03  0.56458708455E+03  0.50400001928E-02 0.  1.
    10030    2    1    2    0    0  0.00000000000E+00  0.00000000000E+00  0.29103710558E+03  0.14202112747E+04  0.13900710298E+04 0.  0.
        2    1    3    3  502    0 -0.53176793493E+03  0.39978561156E+03 -0.60011609088E+02  0.66798732403E+03  0.25500000920E-02 0.  1.
       -2    1    3    3    0  502  0.53176793493E+03 -0.39978561156E+03  0.35104871466E+03  0.75222395063E+03  0.25500000920E-02 0. -1.
</event>
<event>
 5   0  0.8609148E-04  0.1406145E+04  0.7818609E-02  0.8949383E-01
        1   -1    0    0  501    0  0.00000000000E+00  0.00000000000E+00  0.53342921756E+03  0.53342921758E+03  0.50400001928E-02 0. -1.
       -1   -1    0    0    0  501  0.00000000000E+00  0.00000000000E+00 -0.92666581871E+03  0.92666581873E+03  0.50400001928E-02 0.  1.
    10030    2    1    2    0    0  0.00000000000E+00  0.00000000000E+00 -0.39323660116E+03  0.14600950363E+04  0.14061445482E+04 0.  0.
        5    1    3    3  502    0 -0.46979785603E+02  0.15975165472E+03 -0.90587802638E+03  0.92106719631E+03  0.46999998093E+01 0.  1.
       -5    1    3    3    0  502  0.46979785603E+02 -0.15975165472E+03  0.51264142522E+03  0.53902784000E+03  0.46999998093E+01 0. -1.
</event>
<event>
 5   0  0.9007180E-04  0.1403394E+04  0.7818609E-02  0.8951365E-01
       -1   -1    0    0    0  501  0.00000000000E+00  0.00000000000E+00  0.51455660755E+03  0.51455660757E+03  0.50400001928E-02 0.  1.
        1   -1    0    0  501    0  0.00000000000E+00  0.00000000000E+00 -0.95689927566E+03  0.95689927568E+03  0.50400001928E-02 0. -1.
    10030    2    1    2    0    0  0.00000000000E+00  0.00000000000E+00 -0.44234266811E+03  0.14714558832E+04  0.14033942355E+04 0.  0.
        2    1    3    3  502    0  0.38585084480E+03 -0.78230546270E+02  0.38784074491E+03  0.55264937910E+03  0.25500000920E-02 0.  1.
       -2    1    3    3    0  502 -0.38585084480E+03  0.78230546270E+02 -0.83018341303E+03  0.91880650415E+03  0.25500000920E-02 0. -1.
</event>
<event>
 5   0  0.1706986E-03  0.1374301E+04  0.7818609E-02  0.8972634E-01
       -2   -1    0    0    0  501  0.00000000000E+00  0.00000000000E+00  0.32560224471E+03  0.32560224472E+03  0.25500000920E-02 0.  1.
        2   -1    0    0  501    0  0.00000000000E+00  0.00000000000E+00 -0.14501605385E+04  0.14501605385E+04  0.25500000920E-02 0. -1.
    10030    2    1    2    0    0  0.00000000000E+00  0.00000000000E+00 -0.11245582938E+04  0.17757627832E+04  0.13743005880E+04 0.  0.
        3    1    3    3  502    0 -0.59503180710E+03  0.12270051241E+03 -0.14747557228E+03  0.62519382741E+03  0.10100000352E+00 0.  1.
       -3    1    3    3    0  502  0.59503180710E+03 -0.12270051241E+03 -0.97708272151E+03  0.11505689558E+04  0.10100000352E+00 0. -1.
</event>
<event>
 5   0  0.1578965E-03  0.1415921E+04  0.7818609E-02  0.8942374E-01
       -2   -1    0    0    0  501  0.00000000000E+00  0.00000000000E+00  0.44530260129E+03  0.44530260130E+03  0.25500000920E-02 0. -1.
        2   -1    0    0  501    0  0.00000000000E+00  0.00000000000E+00 -0.11255450636E+04  0.11255450636E+04  0.25500000920E-02 0.  1.
    10030    2    1    2    0    0  0.00000000000E+00  0.00000000000E+00 -0.68024246227E+03  0.15708476649E+04  0.14159211061E+04 0.  0.
        2    1    3    3  502    0  0.29227591155E+03 -0.12265725213E+03 -0.10424255699E+04  0.10895508610E+04  0.25500000920E-02 0.  1.
       -2    1    3    3    0  502 -0.29227591155E+03  0.12265725213E+03  0.36218310760E+03  0.48129680387E+03  0.25500000920E-02 0. -1.
</event>
<event>
 5   0  0.1648463E-03  0.1609730E+04  0.7818609E-02  0.8814593E-01
       -2   -1    0    0    0  501  0.00000000000E+00  0.00000000000E+00  0.60394450381E+03  0.60394450381E+03  0.25500000920E-02 0. -1.
        2   -1    0    0  501    0  0.00000000000E+00  0.00000000000E+00 -0.10726280608E+04  0.10726280608E+04  0.25500000920E-02 0.  1.
    10030    2    1    2    0    0  0.00000000000E+00  0.00000000000E+00 -0.46868355704E+03  0.16765725647E+04  0.16097301910E+04 0.  0.
        1    1    3    3  502    0 -0.58945765684E+03 -0.36185991463E+03  0.19433725526E+03  0.71844964739E+03  0.50400001928E-02 0. -1.
       -1    1    3    3    0  502  0.58945765684E+03  0.36185991463E+03 -0.66302081229E+03  0.95812291727E+03  0.50400001928E-02 0.  1.
</event>
<event>
 5   0  0.9007180E-04  0.1403652E+04  0.7818609E-02  0.8951179E-01
       -1   -1    0    0    0  501  0.00000000000E+00  0.00000000000E+00  0.20163230933E+03  0.20163230940E+03  0.50400001928E-02 0.  1.
        1   -1    0    0  501    0  0.00000000000E+00  0.00000000000E+00 -0.24428608555E+04  0.24428608555E+04  0.50400001928E-02 0. -1.
    10030    2    1    2    0    0  0.00000000000E+00  0.00000000000E+00 -0.22412285462E+04  0.26444931649E+04  0.14036519166E+04 0.  0.
        2    1    3    3  502    0 -0.37578076634E+03 -0.28965097003E+02 -0.52083881391E+01  0.37693141088E+03  0.25500000920E-02 0.  1.
       -2    1    3    3    0  502  0.37578076634E+03  0.28965097003E+02 -0.22360201580E+04  0.22675617540E+04  0.25500000920E-02 0. -1.
</event>
<event>
 5   0  0.1648213E-03  0.1406746E+04  0.7818609E-02  0.8948950E-01
       -2   -1    0    0    0  501  0.00000000000E+00  0.00000000000E+00  0.87641371198E+03  0.87641371198E+03  0.25500000920E-02 0.  1.
        2   -1    0    0  501    0  0.00000000000E+00  0.00000000000E+00 -0.56449769211E+03  0.56449769211E+03  0.25500000920E-02 0. -1.
    10030    2    1    2    0    0  0.00000000000E+00  0.00000000000E+00  0.31191601987E+03  0.14409114041E+04  0.14067459156E+04 0.  0.
        4    1    3    3  502    0  0.25425861888E+03 -0.45147559583E+03 -0.33125624311E+03  0.61498778070E+03  0.12699999809E+01 0. -1.
       -4    1    3    3    0  502 -0.25425861888E+03  0.45147559583E+03  0.64317226298E+03  0.82592362339E+03  0.12699999809E+01 0.  1.
</event>
<event>
 5   0  0.9639548E-04  0.1411311E+04  0.7818609E-02  0.8945671E-01
        1   -1    0    0  501    0  0.00000000000E+00  0.00000000000E+00  0.58392723248E+03  0.58392723250E+03  0.50400001928E-02 0. -1.
       -1   -1    0    0    0  501  0.00000000000E+00  0.00000000000E+00 -0.85276028633E+03  0.85276028634E+03  0.50400001928E-02 0.  1.
    10030    2    1    2    0    0  0.00000000000E+00  0.00000000000E+00 -0.26883305385E+03  0.14366875188E+04  0.14113113816E+04 0.  0.
        1    1    3    3  502    0 -0.16642786873E+03 -0.58762589122E+03 -0.49425145219E+03  0.78567609201E+03  0.50400001928E-02 0. -1.
       -1    1    3    3    0  502  0.16642786873E+03  0.58762589122E+03  0.22541839834E+03  0.65101142683E+03  0.50400001928E-02 0.  1.
</event>
<event>
 5   0  0.8502300E-04  0.1395731E+04  0.7818609E-02  0.8956915E-01
        1   -1    0    0  501    0  0.00000000000E+00  0.00000000000E+00  0.27625925710E+03  0.27625925715E+03  0.50400001928E-02 0.  1.
       -1   -1    0    0    0  501  0.00000000000E+00  0.00000000000E+00 -0.17628949465E+04  0.17628949465E+04  0.50400001928E-02 0. -1.
    10030    2    1    2    0    0  0.00000000000E+00  0.00000000000E+00 -0.14866356894E+04  0.20391542036E+04  0.13957307023E+04 0.  0.
        4    1    3    3  502    0 -0.31932971508E+03  0.21371647529E+03 -0.15944245911E+04  0.16400724338E+04  0.12699999809E+01 0. -1.
       -4    1    3    3    0  502  0.31932971508E+03 -0.21371647529E+03  0.10778890170E+03  0.39908176979E+03  0.12699999809E+01 0.  1.
</event>
<event>
 5   0  0.1706986E-03  0.1374933E+04  0.7818609E-02  0.8972166E-01
        2   -1    0    0  501    0  0.00000000000E+00  0.00000000000E+00  0.14248423322E+04  0.14248423322E+04  0.25500000920E-02 0.  1.
       -2   -1    0    0    0  501  0.00000000000E+00  0.00000000000E+00 -0.33169283651E+03  0.33169283652E+03  0.25500000920E-02 0. -1.
    10030    2    1    2    0    0  0.00000000000E+00  0.00000000000E+00  0.10931494957E+04  0.17565351688E+04  0.13749327180E+04 0.  0.
        3    1    3    3  502    0  0.48223622356E+03 -0.48435288125E+03  0.64097897410E+03  0.93701843329E+03  0.10100000352E+00 0.  1.
       -3    1    3    3    0  502 -0.48223622356E+03  0.48435288125E+03  0.45217052163E+03  0.81951673547E+03  0.10100000352E+00 0. -1.
</event>
<event>
 5   0  0.8609148E-04  0.1419648E+04  0.7818609E-02  0.8939718E-01
       -1   -1    0    0    0  501  0.00000000000E+00  0.00000000000E+00  0.66851823071E+03  0.66851823073E+03  0.50400001928E-02 0. -1.
        1   -1    0    0  501    0  0.00000000000E+00  0.00000000000E+00 -0.75368193879E+03  0.75368193881E+03  0.50400001928E-02 0.  1.
    10030    2    1    2    0    0  0.00000000000E+00  0.00000000000E+00 -0.85163708087E+02  0.14222001695E+04  0.14196480074E+04 0.  0.
        5    1    3    3  502    0  0.47085410842E+03 -0.51737751524E+03  0.77821322173E+02  0.70389014262E+03  0.46999998093E+01 0. -1.
       -5    1    3    3    0  502 -0.47085410842E+03  0.51737751524E+03 -0.16298503026E+03  0.71831002692E+03  0.46999998093E+01 0.  1.
</event>
<event>
 5   0  0.1706986E-03  0.1366501E+04  0.7818609E-02  0.8978430E-01
       -2   -1    0    0    0  501  0.00000000000E+00  0.00000000000E+00  0.32586299332E+03  0.32586299333E+03  0.25500000920E-02 0. -1.
        2   -1    0    0  501    0  0.00000000000E+00  0.00000000000E+00 -0.14326000251E+04  0.14326000251E+04  0.25500000920E-02 0.  1.
    10030    2    1    2    0    0  0.00000000000E+00  0.00000000000E+00 -0.11067370318E+04  0.17584630184E+04  0.13665011268E+04 0.  0.
        3    1    3    3  502    0  0.34588077617E+03  0.33816771037E+03 -0.11743124992E+04  0.12700396717E+04  0.10100000352E+00 0.  1.
       -3    1    3    3    0  502 -0.34588077617E+03 -0.33816771037E+03  0.67575467424E+02  0.48842334676E+03  0.10100000352E+00 0. -1.
</event>
<event>
 5   0  0.8502300E-04  0.1390982E+04  0.7818609E-02  0.8960372E-01
       -1   -1    0    0    0  501  0.00000000000E+00  0.00000000000E+00  0.36667807204E+03  0.36667807207E+03  0.50400001928E-02 0. -1.
        1   -1    0    0  501    0  0.00000000000E+00  0.00000000000E+00 -0.13191625799E+04  0.13191625799E+04  0.50400001928E-02 0.  1.
    10030    2    1    2    0    0  0.00000000000E+00  0.00000000000E+00 -0.95248450790E+03  0.16858406520E+04  0.13909823745E+04 0.  0.
        4    1    3    3  502    0 -0.22447671443E+02 -0.59806162124E+03 -0.46844640878E+02  0.60031461254E+03  0.12699999809E+01 0. -1.
       -4    1    3    3    0  502  0.22447671443E+02  0.59806162124E+03 -0.90563986702E+03  0.10855260395E+04  0.12699999809E+01 0.  1.
</event>
<event>
 5   0  0.8609148E-04  0.1397719E+04  0.7818609E-02  0.8955471E-01
       -1   -1    0    0    0  501  0.00000000000E+00  0.00000000000E+00  0.80312421308E+03  0.80312421309E+03  0.50400001928E-02 0.  1.
        1   -1    0    0  501    0  0.00000000000E+00  0.00000000000E+00 -0.60813081089E+03  0.60813081091E+03  0.50400001928E-02 0. -1.
    10030    2    1    2    0    0  0.00000000000E+00  0.00000000000E+00  0.19499340219E+03  0.14112550240E+04  0.13977189688E+04 0.  0.
        5    1    3    3  502    0  0.14426267361E+03  0.63979986719E+02  0.78488144763E+03  0.80060360637E+03  0.46999998093E+01 0.  1.
       -5    1    3    3    0  502 -0.14426267361E+03 -0.63979986719E+02 -0.58988804544E+03  0.61065141763E+03  0.46999998093E+01 0. -1.
</event>
<event>
 5   0  0.1605214E-03  0.1404238E+04  0.7818609E-02  0.8950757E-01
       -2   -1    0    0    0  501  0.00000000000E+00  0.00000000000E+00  0.65381285948E+03  0.65381285948E+03  0.25500000920E-02 0.  1.
        2   -1    0    0  501    0  0.00000000000E+00  0.00000000000E+00 -0.75399399482E+03  0.75399399483E+03  0.25500000920E-02 0. -1.
    10030    2    1    2    0    0  0.00000000000E+00  0.00000000000E+00 -0.10018113535E+03  0.14078068543E+04  0.14042378286E+04 0.  0.
        5    1    3    3  502    0  0.46474693172E+03  0.38926315078E+02 -0.57625198100E+03  0.74134567117E+03  0.46999998093E+01 0. -1.
       -5    1    3    3    0  502 -0.46474693172E+03 -0.38926315078E+02  0.47607084566E+03  0.66646118314E+03  0.46999998093E+01 0.  1.
</event>
<event>
 5   0  0.9639548E-04  0.1400006E+04  0.7818609E-02  0.8953814E-01
       -1   -1    0    0    0  501  0.00000000000E+00  0.00000000000E+00  0.35605710464E+03  0.35605710468E+03  0.50400001928E-02 0.  1.
        1   -1    0    0  501    0  0.00000000000E+00  0.00000000000E+00 -0.13761961383E+04  0.13761961383E+04  0.50400001928E-02 0. -1.
    10030    2    1    2    0    0  0.00000000000E+00  0.00000000000E+00 -0.10201390336E+04  0.17322532430E+04  0.14000063035E+04 0.  0.
        1    1    3    3  502    0 -0.32408190844E+03  0.35127322305E+03  0.12275849541E+03  0.49344868915E+03  0.50400001928E-02 0.  1.
       -1    1    3    3    0  502  0.32408190844E+03 -0.35127322305E+03 -0.11428975291E+04  0.12388045538E+04  0.50400001928E-02 0. -1.
</event>
<event>
 5   0  0.1605214E-03  0.1440216E+04  0.7818609E-02  0.8925212E-01
        2   -1    0    0  501    0  0.00000000000E+00  0.00000000000E+00  0.12675602592E+04  0.12675602592E+04  0.25500000920E-02 0. -1.
       -2   -1    0    0    0  501  0.00000000000E+00  0.00000000000E+00 -0.40909725505E+03  0.40909725506E+03  0.25500000920E-02 0.  1.
    10030    2    1    2    0    0  0.00000000000E+00  0.00000000000E+00  0.85846300411E+03  0.16766575142E+04  0.14402158486E+04 0.  0.
        5    1    3    3  502    0  0.61165028267E+03 -0.29730007893E+03  0.15366475865E+03  0.69723622487E+03  0.46999998093E+01 0.  1.
       -5    1    3    3    0  502 -0.61165028267E+03  0.29730007893E+03  0.70479824547E+03  0.97942128935E+03  0.46999998093E+01 0. -1.
</event>
<event>
 5   0  0.9007180E-04  0.1376981E+04  0.7818609E-02  0.8970652E-01
       -1   -1    0    0    0  501  0.00000000000E+00  0.00000000000E+00  0.79740884985E+03  0.79740884987E+03  0.50400001928E-02 0.  1.
        1   -1    0    0  501    0  0.00000000000E+00  0.00000000000E+00 -0.59444909044E+03  0.59444909046E+03  0.50400001928E-02 0. -1.
    10030    2    1    2    0    0  0.00000000000E+00  0.00000000000E+00  0.20295975941E+03  0.13918579403E+04  0.13769807051E+04 0.  0.
        2    1    3    3  502    0 -0.53155000894E+03  0.19437787316E+03  0.49774968955E+03  0.75371275897E+03  0.25500000920E-02 0.  1.
       -2    1    3    3    0  502  0.53155000894E+03 -0.19437787316E+03 -0.29478993013E+03  0.63814518136E+03  0.25500000920E-02 0. -1.
</event>
<event>
 5   0  0.8673728E-04  0.1459214E+04  0.7818609E-02  0.8912037E-01
       -1   -1    0    0    0  501  0.00000000000E+00  0.00000000000E+00  0.21252139868E+03  0.21252139874E+03  0.50400001928E-02 0. -1.
        1   -1    0    0  501    0  0.00000000000E+00  0.00000000000E+00 -0.25048130792E+04  0.25048130792E+04  0.50400001928E-02 0.  1.
    10030    2    1    2    0    0  0.00000000000E+00  0.00000000000E+00 -0.22922916806E+04  0.27173344780E+04  0.14592140064E+04 0.  0.
        3    1    3    3  502    0 -0.30828079541E+03 -0.67804613438E+02  0.78790359878E+02  0.32533435944E+03  0.10100000352E+00 0. -1.
       -3    1    3    3    0  502  0.30828079541E+03  0.67804613438E+02 -0.23710820404E+04  0.23920001185E+04  0.10100000352E+00 0.  1.
</event>
<event>
 5   0  0.8609148E-04  0.1550057E+04  0.7818609E-02  0.8851831E-01
       -1   -1    0    0    0  501  0.00000000000E+00  0.00000000000E+00  0.22863871483E+03  0.22863871488E+03  0.50400001928E-02 0.  1.
        1   -1    0    0  501    0  0.00000000000E+00  0.00000000000E+00 -0.26271553533E+04  0.26271553533E+04  0.50400001928E-02 0. -1.
    10030    2    1    2    0    0  0.00000000000E+00  0.00000000000E+00 -0.23985166385E+04  0.28557940682E+04  0.15500573199E+04 0.  0.
        5    1    3    3  502    0  0.32013400844E+03 -0.69071306882E+03 -0.14667335666E+04  0.16525434252E+04  0.46999998093E+01 0. -1.
       -5    1    3    3    0  502 -0.32013400844E+03  0.69071306882E+03 -0.93178307182E+03  0.12032506429E+04  0.46999998093E+01 0.  1.
</event>
<event>
 5   0  0.1578965E-03  0.1338149E+04  0.7818609E-02  0.8999848E-01
       -2   -1    0    0    0  501  0.00000000000E+00  0.00000000000E+00  0.31130058226E+03  0.31130058227E+03  0.25500000920E-02 0.  1.
        2   -1    0    0  501    0  0.00000000000E+00  0.00000000000E+00 -0.14380345112E+04  0.14380345112E+04  0.25500000920E-02 0. -1.
    10030    2    1    2    0    0  0.00000000000E+00  0.00000000000E+00 -0.11267339289E+04  0.17493350935E+04  0.13381494396E+04 0.  0.
        2    1    3    3  502    0 -0.56374825608E+01 -0.14592069644E+03 -0.14169476379E+04  0.14244526105E+04  0.25500000920E-02 0. -1.
       -2    1    3    3    0  502  0.56374825608E+01  0.14592069644E+03  0.29021370899E+03  0.32488248299E+03  0.25500000920E-02 0.  1.
</event>
<event>
 5   0  0.1648463E-03  0.1412584E+04  0.7818609E-02  0.8944759E-01
       -2   -1    0    0    0  501  0.00000000000E+00  0.00000000000E+00  0.10615989137E+04  0.10615989137E+04  0.25500000920E-02 0.  1.
        2   -1    0    0  501    0  0.00000000000E+00  0.00000000000E+00 -0.46990320416E+03  0.46990320416E+03  0.25500000920E-02 0. -1.
    10030    2    1    2    0    0  0.00000000000E+00  0.00000000000E+00  0.59169570950E+03  0.15315021178E+04  0.14125844839E+04 0.  0.
        1    1    3    3  502    0  0.52894250064E+03  0.39713743930E+03  0.56438967436E+03  0.86950216747E+03  0.50400001928E-02 0.  1.
       -1    1    3    3    0  502 -0.52894250064E+03 -0.39713743930E+03  0.27306035143E+02  0.66199995035E+03  0.50400001928E-02 0. -1.
</event>
<event>
 5   0  0.9639548E-04  0.1360702E+04  0.7818609E-02  0.8982766E-01
       -1   -1    0    0    0  501  0.00000000000E+00  0.00000000000E+00  0.25350067841E+03  0.25350067846E+03  0.50400001928E-02 0.  1.
        1   -1    0    0  501    0  0.00000000000E+00  0.00000000000E+00 -0.18259423094E+04  0.18259423094E+04  0.50400001928E-02 0. -1.
    10030    2    1    2    0    0  0.00000000000E+00  0.00000000000E+00 -0.15724416310E+04  0.20794429879E+04  0.13607021926E+04 0.  0.
        1    1    3    3  502    0 -0.60729413721E+03 -0.28128415043E+03 -0.97307993047E+03  0.11810213772E+04  0.50400001928E-02 0. -1.
       -1    1    3    3    0  502  0.60729413721E+03  0.28128415043E+03 -0.59936170052E+03  0.89842161063E+03  0.50400001928E-02 0.  1.
</event>
<event>
 5   0  0.8673728E-04  0.1411986E+04  0.7818609E-02  0.8945188E-01
       -1   -1    0    0    0  501  0.00000000000E+00  0.00000000000E+00  0.41193126902E+03  0.41193126905E+03  0.50400001928E-02 0. -1.
        1   -1    0    0  501    0  0.00000000000E+00  0.00000000000E+00 -0.12099738566E+04  0.12099738566E+04  0.50400001928E-02 0.  1.
    10030    2    1    2    0    0  0.00000000000E+00  0.00000000000E+00 -0.79804258754E+03  0.16219051256E+04  0.14119859295E+04 0.  0.
        3    1    3    3  502    0  0.16106668794E+03 -0.29682480810E+03 -0.11111765500E+04  0.11613616061E+04  0.10100000352E+00 0.  1.
       -3    1    3    3    0  502 -0.16106668794E+03  0.29682480810E+03  0.31313396250E+03  0.46054351948E+03  0.10100000352E+00 0. -1.
</event>
<event>
 5   0  0.8673728E-04  0.1442435E+04  0.7818609E-02  0.8923662E-01
        1   -1    0    0  501    0  0.00000000000E+00  0.00000000000E+00  0.59772642616E+03  0.59772642618E+03  0.50400001928E-02 0.  1.
       -1   -1    0    0    0  501  0.00000000000E+00  0.00000000000E+00 -0.87022174370E+03  0.87022174372E+03  0.50400001928E-02 0. -1.
    10030    2    1    2    0    0  0.00000000000E+00  0.00000000000E+00 -0.27249531754E+03  0.14679481699E+04  0.14424347928E+04 0.  0.
        3    1    3    3  502    0  0.16084169787E+03  0.20742737716E+03 -0.81988717779E+03  0.86087813486E+03  0.10100000352E+00 0. -1.
       -3    1    3    3    0  502 -0.16084169787E+03 -0.20742737716E+03  0.54739186025E+03  0.60707003504E+03  0.10100000352E+00 0.  1.
</event>
<event>
 5   0  0.8502300E-04  0.1376826E+04  0.7818609E-02  0.8970766E-01
       -1   -1    0    0    0  501  0.00000000000E+00  0.00000000000E+00  0.66172906903E+03  0.66172906905E+03  0.50400001928E-02 0. -1.
        1   -1    0    0  501    0  0.00000000000E+00  0.00000000000E+00 -0.71617273615E+03  0.71617273617E+03  0.50400001928E-02 0.  1.
    10030    2    1    2    0    0  0.00000000000E+00  0.00000000000E+00 -0.54443667123E+02  0.13779018052E+04  0.13768257958E+04 0.  0.
        4    1    3    3  502    0 -0.30161575947E+03  0.27811825454E+03 -0.58045479189E+03  0.71081024768E+03  0.12699999809E+01 0.  1.
       -4    1    3    3    0  502  0.30161575947E+03 -0.27811825454E+03  0.52601112477E+03  0.66709155755E+03  0.12699999809E+01 0. -1.
</event>
<event>
 5   0  0.1648463E-03  0.1517094E+04  0.7818609E-02  0.8873165E-01
        2   -1    0    0  501    0  0.00000000000E+00  0.00000000000E+00  0.16944628901E+04  0.16944628901E+04  0.25500000920E-02 0. -1.
       -2   -1    0    0    0  501  0.00000000000E+00  0.00000000000E+00 -0.33957276095E+03  0.33957276096E+03  0.25500000920E-02 0.  1.
    10030    2    1    2    0    0  0.00000000000E+00  0.00000000000E+00  0.13548901291E+04  0.20340356510E+04  0.15170938559E+04 0.  0.
        1    1    3    3  502    0  0.64368086724E+03 -0.33441665426E+03  0.97493903086E+03  0.12151813327E+04  0.50400001928E-02 0. -1.
       -1    1    3    3    0  502 -0.64368086724E+03  0.33441665426E+03  0.37995109824E+03  0.81885431828E+03  0.50400001928E-02 0.  1.
</event>
<event>
 5   0  0.1706986E-03  0.1404465E+04  0.7818609E-02  0.8950593E-01
       -2   -1    0    0    0  501  0.00000000000E+00  0.00000000000E+00  0.17229729521E+03  0.17229729523E+03  0.25500000920E-02 0.  1.
        2   -1    0    0  501    0  0.00000000000E+00  0.00000000000E+00 -0.28620902678E+04  0.28620902678E+04  0.25500000920E-02 0. -1.
    10030    2    1    2    0    0  0.00000000000E+00  0.00000000000E+00 -0.26897929726E+04  0.30343875631E+04  0.14044648971E+04 0.  0.
        3    1    3    3  502    0  0.21259488226E+03 -0.44102926532E+03 -0.25725289295E+03  0.55306641370E+03  0.10100000352E+00 0.  1.
       -3    1    3    3    0  502 -0.21259488226E+03  0.44102926532E+03 -0.24325400797E+04  0.24813211494E+04  0.10100000352E+00 0. -1.
</event>
<event>
 5   0  0.8673728E-04  0.1413645E+04  0.7818609E-02  0.8944000E-01
       -1   -1    0    0    0  501  0.00000000000E+00  0.00000000000E+00  0.12561709829E+04  0.12561709829E+04  0.50400001928E-02 0.  1.
        1   -1    0    0  501    0  0.00000000000E+00  0.00000000000E+00 -0.39771524588E+03  0.39771524591E+03  0.50400001928E-02 0. -1.
    10030    2    1    2    0    0  0.00000000000E+00  0.00000000000E+00  0.85845573705E+03  0.16538862289E+04  0.14136454313E+04 0.  0.
        3    1    3    3  502    0  0.69755734936E+03 -0.57522504501E+01  0.29594150914E+03  0.75776033880E+03  0.10100000352E+00 0. -1.
       -3    1    3    3    0  502 -0.69755734936E+03  0.57522504501E+01  0.56251422792E+03  0.89612589006E+03  0.10100000352E+00 0.  1.
</event>
<event>
 5   0  0.1648213E-03  0.1547284E+04  0.7818609E-02  0.8853605E-01
        2   -1    0    0  501    0  0.00000000000E+00  0.00000000000E+00  0.10262286100E+04  0.10262286100E+04  0.25500000920E-02 0.  1.
       -2   -1    0    0    0  501  0.00000000000E+00  0.00000000000E+00 -0.58322459116E+03  0.58322459117E+03  0.25500000920E-02 0. -1.
    10030    2    1    2    0    0  0.00000000000E+00  0.00000000000E+00  0.44300401883E+03  0.16094532012E+04  0.15472837639E+04 0.  0.
        4    1    3    3  502    0  0.15120184286E+03 -0.69149863152E+03  0.54627769336E+03  0.89412151626E+03  0.12699999809E+01 0.  1.
       -4    1    3    3    0  502 -0.15120184286E+03  0.69149863152E+03 -0.10327367452E+03  0.71533168491E+03  0.12699999809E+01 0. -1.
</event>
<event>
 5   0  0.8673728E-04  0.1398306E+04  0.7818609E-02  0.8955046E-01
        1   -1    0    0  501    0  0.00000000000E+00  0.00000000000E+00  0.84263644087E+03  0.84263644089E+03  0.50400001928E-02 0.  1.
       -1   -1    0    0    0  501  0.00000000000E+00  0.00000000000E+00 -0.58010173367E+03  0.58010173370E+03  0.50400001928E-02 0. -1.
    10030    2    1    2    0    0  0.00000000000E+00  0.00000000000E+00  0.26253470720E+03  0.14227381746E+04  0.13983059182E+04 0.  0.
        3    1    3    3  502    0 -0.90471620875E+02 -0.32975652426E+03  0.75175087965E+03  0.82586553066E+03  0.10100000352E+00 0.  1.
       -3    1    3    3    0  502  0.90471620875E+02  0.32975652426E+03 -0.48921617245E+03  0.59687264392E+03  0.10100000352E+00 0. -1.
</event>
<event>
 5   0  0.8673728E-04  0.1346810E+04  0.7818609E-02  0.8993246E-01
       -1   -1    0    0    0  501  0.00000000000E+00  0.00000000000E+00  0.40880251656E+03  0.40880251659E+03  0.50400001928E-02 0. -1.
        1   -1    0    0  501    0  0.00000000000E+00  0.00000000000E+00 -0.11092745094E+04  0.11092745095E+04  0.50400001928E-02 0.  1.
    10030    2    1    2    0    0  0.00000000000E+00  0.00000000000E+00 -0.70047199288E+03  0.15180770260E+04  0.13468098768E+04 0.  0.
        3    1    3    3  502    0 -0.31834955908E+03  0.14254924641E+03  0.29904186628E+03  0.45944834030E+03  0.10100000352E+00 0. -1.
       -3    1    3    3    0  502  0.31834955908E+03 -0.14254924641E+03 -0.99951385916E+03  0.10586286857E+04  0.10100000352E+00 0.  1.
</event>
<event>
 5   0  0.1605214E-03  0.1401729E+04  0.7818609E-02  0.8952568E-01
       -2   -1    0    0    0  501  0.00000000000E+00  0.00000000000E+00  0.37202595709E+03  0.37202595710E+03  0.25500000920E-02 0. -1.
        2   -1    0    0  501    0  0.00000000000E+00  0.00000000000E+00 -0.13203670670E+04  0.13203670670E+04  0.25500000920E-02 0.  1.
    10030    2    1    2    0    0  0.00000000000E+00  0.00000000000E+00 -0.94834110992E+03  0.16923930241E+04  0.14017286782E+04 0.  0.
        5    1    3    3  502    0  0.51768014693E+03 -0.33659312683E+03 -0.73914217674E+02  0.62191082088E+03  0.46999998093E+01 0. -1.
       -5    1    3    3    0  502 -0.51768014693E+03  0.33659312683E+03 -0.87442689224E+03  0.10704822032E+04  0.46999998093E+01 0.  1.
</event>
<event>
 5   0  0.8502300E-04  0.1249857E+04  0.7818609E-02  0.9070303E-01
        1   -1    0    0  501    0  0.00000000000E+00  0.00000000000E+00  0.51887766156E+03  0.51887766158E+03  0.50400001928E-02 0. -1.
       -1   -1    0    0    0  501  0.00000000000E+00  0.00000000000E+00 -0.75265411026E+03  0.75265411028E+03  0.50400001928E-02 0.  1.
    10030    2    1    2    0    0  0.00000000000E+00  0.00000000000E+00 -0.23377644870E+03  0.12715317719E+04  0.12498566393E+04 0.  0.
        4    1    3    3  502    0 -0.27892367925E+03  0.36291368677E+03 -0.54974191593E+03  0.71534785239E+03  0.12699999809E+01 0. -1.
       -4    1    3    3    0  502  0.27892367925E+03 -0.36291368677E+03  0.31596546723E+03  0.55618391947E+03  0.12699999809E+01 0.  1.
</event>
<event>
 5   0  0.8673728E-04  0.1382174E+04  0.7818609E-02  0.8966824E-01
        1   -1    0    0  501    0  0.00000000000E+00  0.00000000000E+00  0.11123575800E+04  0.11123575800E+04  0.50400001928E-02 0. -1.
       -1   -1    0    0    0  501  0.00000000000E+00  0.00000000000E+00 -0.42935947033E+03  0.42935947036E+03  0.50400001928E-02 0.  1.
    10030    2    1    2    0    0  0.00000000000E+00  0.00000000000E+00  0.68299810962E+03  0.15417170503E+04  0.13821740287E+04 0.  0.
        3    1    3    3  502    0 -0.30664040005E+03  0.11594951744E+03  0.10201059756E+04  0.10714890747E+04  0.10100000352E+00 0. -1.
       -3    1    3    3    0  502  0.30664040005E+03 -0.11594951744E+03 -0.33710786600E+03  0.47022797562E+03  0.10100000352E+00 0.  1.
</event>
<event>
 5   0  0.1578965E-03  0.1433232E+04  0.7818609E-02  0.8930109E-01
        2   -1    0    0  501    0  0.00000000000E+00  0.00000000000E+00  0.58032177249E+03  0.58032177249E+03  0.25500000920E-02 0. -1.
       -2   -1    0    0    0  501  0.00000000000E+00  0.00000000000E+00 -0.88491979790E+03  0.88491979791E+03  0.25500000920E-02 0.  1.
    10030    2    1    2    0    0  0.00000000000E+00  0.00000000000E+00 -0.30459802541E+03  0.14652415704E+04  0.14332316291E+04 0.  0.
        2    1    3    3  502    0  0.10574027266E+03 -0.27610759170E+03  0.51506031267E+03  0.59388848545E+03  0.25500000920E-02 0. -1.
       -2    1    3    3    0  502 -0.10574027266E+03  0.27610759170E+03 -0.81965833808E+03  0.87135308495E+03  0.25500000920E-02 0.  1.
</event>
<event>
 5   0  0.8502300E-04  0.1405919E+04  0.7818609E-02  0.8949545E-01
        1   -1    0    0  501    0  0.00000000000E+00  0.00000000000E+00  0.86404482650E+03  0.86404482652E+03  0.50400001928E-02 0.  1.
       -1   -1    0    0    0  501  0.00000000000E+00  0.00000000000E+00 -0.57190594666E+03  0.57190594669E+03  0.50400001928E-02 0. -1.
    10030    2    1    2    0    0  0.00000000000E+00  0.00000000000E+00  0.29213887984E+03  0.14359507732E+04  0.14059194493E+04 0.  0.
        4    1    3    3  502    0 -0.54682127389E+03 -0.30214771956E+03 -0.18306235737E+03  0.65101473839E+03  0.12699999809E+01 0. -1.
       -4    1    3    3    0  502  0.54682127389E+03  0.30214771956E+03  0.47520123721E+03  0.78493603482E+03  0.12699999809E+01 0.  1.
</event>
<event>
 5   0  0.1648463E-03  0.1395575E+04  0.7818609E-02  0.8957028E-01
       -2   -1    0    0    0  501  0.00000000000E+00  0.00000000000E+00  0.28238795663E+03  0.28238795665E+03  0.25500000920E-02 0. -1.
        2   -1    0    0  501    0  0.00000000000E+00  0.00000000000E+00 -0.17242508761E+04  0.17242508761E+04  0.25500000920E-02 0.  1.
    10030    2    1    2    0    0  0.00000000000E+00  0.00000000000E+00 -0.14418629195E+04  0.20066388328E+04  0.13955754106E+04 0.  0.
        1    1    3    3  502    0 -0.59355637207E+03  0.21881083952E+03 -0.29750658479E+03  0.69906903689E+03  0.50400001928E-02 0. -1.
       -1    1    3    3    0  502  0.59355637207E+03 -0.21881083952E+03 -0.11443563347E+04  0.13075697959E+04  0.50400001928E-02 0.  1.
</event>
<event>
 5   0  0.9007180E-04  0.1656267E+04  0.7818609E-02  0.8786708E-01
       -1   -1    0    0    0  501  0.00000000000E+00  0.00000000000E+00  0.74815998843E+03  0.74815998845E+03  0.50400001928E-02 0.  1.
        1   -1    0    0  501    0  0.00000000000E+00  0.00000000000E+00 -0.91665551832E+03  0.91665551833E+03  0.50400001928E-02 0. -1.
    10030    2    1    2    0    0  0.00000000000E+00  0.00000000000E+00 -0.16849552989E+03  0.16648155068E+04  0.16562668650E+04 0.  0.
        2    1    3    3  502    0 -0.75533536832E+03  0.33667652120E+03 -0.40176470441E+02  0.82794730952E+03  0.25500000920E-02 0.  1.
       -2    1    3    3    0  502  0.75533536832E+03 -0.33667652120E+03 -0.12831905944E+03  0.83686819726E+03  0.25500000920E-02 0. -1.
</event>
<event>
 5   0  0.8502300E-04  0.1442277E+04  0.7818609E-02  0.8923772E-01
        1   -1    0    0  501    0  0.00000000000E+00  0.00000000000E+00  0.13923956228E+04  0.13923956228E+04  0.50400001928E-02 0. -1.
       -1   -1    0    0    0  501  0.00000000000E+00  0.00000000000E+00 -0.37348646713E+03  0.37348646717E+03  0.50400001928E-02 0.  1.
    10030    2    1    2    0    0  0.00000000000E+00  0.00000000000E+00  0.10189091556E+04  0.17658820900E+04  0.14422772577E+04 0.  0.
        4    1    3    3  502    0  0.25856338946E+02  0.57541836976E+03 -0.21793187542E+02  0.57641253148E+03  0.12699999809E+01 0.  1.
       -4    1    3    3    0  502 -0.25856338946E+02 -0.57541836976E+03  0.10407023432E+04  0.11894695585E+04  0.12699999809E+01 0. -1.
</event>
<event>
 5   0  0.1706986E-03  0.1246878E+04  0.7818609E-02  0.9072786E-01
       -2   -1    0    0    0  501  0.00000000000E+00  0.00000000000E+00  0.12195124128E+04  0.12195124128E+04  0.25500000920E-02 0.  1.
        2   -1    0    0  501    0  0.00000000000E+00  0.00000000000E+00 -0.31871435054E+03  0.31871435055E+03  0.25500000920E-02 0. -1.
    10030    2    1    2    0    0  0.00000000000E+00  0.00000000000E+00  0.90079806227E+03  0.15382267634E+04  0.12468778715E+04 0.  0.
        3    1    3    3  502    0 -0.36856806717E+03  0.80576521963E+01 -0.16983863476E+03  0.40589717658E+03  0.10100000352E+00 0. -1.
       -3    1    3    3    0  502  0.36856806717E+03 -0.80576521963E+01  0.10706366970E+04  0.11323295868E+04  0.10100000352E+00 0.  1.
</event>
<event>
 5   0  0.8673728E-04  0.1387482E+04  0.7818609E-02  0.8962930E-01
       -1   -1    0    0    0  501  0.00000000000E+00  0.00000000000E+00  0.33947933120E+03  0.33947933124E+03  0.50400001928E-02 0. -1.
        1   -1    0    0  501    0  0.00000000000E+00  0.00000000000E+00 -0.14176913175E+04  0.14176913175E+04  0.50400001928E-02 0.  1.
    10030    2    1    2    0    0  0.00000000000E+00  0.00000000000E+00 -0.10782119863E+04  0.17571706487E+04  0.13874824689E+04 0.  0.
        3    1    3    3  502    0  0.59824475053E+03 -0.34600664970E+03 -0.46249382981E+03  0.83157557442E+03  0.10100000352E+00 0.  1.
       -3    1    3    3    0  502 -0.59824475053E+03  0.34600664970E+03 -0.61571815648E+03  0.92559507431E+03  0.10100000352E+00 0. -1.
</event>
<event>
 5   0  0.1578965E-03  0.1272031E+04  0.7818609E-02  0.9052044E-01
       -2   -1    0    0    0  501  0.00000000000E+00  0.00000000000E+00  0.38779541011E+03  0.38779541012E+03  0.25500000920E-02 0. -1.
        2   -1    0    0  501    0  0.00000000000E+00  0.00000000000E+00 -0.10431156243E+04  0.10431156243E+04  0.25500000920E-02 0.  1.
    10030    2    1    2    0    0  0.00000000000E+00  0.00000000000E+00 -0.65532021422E+03  0.14309110345E+04  0.12720305835E+04 0.  0.
        2    1    3    3  502    0 -0.48625814810E+03 -0.16933162567E+03 -0.74765024346E+03  0.90780012811E+03  0.25500000920E-02 0.  1.
       -2    1    3    3    0  502  0.48625814810E+03  0.16933162567E+03  0.92330029235E+02  0.52311090635E+03  0.25500000920E-02 0. -1.
</event>
<event>
 5   0  0.1706986E-03  0.1397890E+04  0.7818609E-02  0.8955347E-01
        2   -1    0    0  501    0  0.00000000000E+00  0.00000000000E+00  0.89949971567E+03  0.89949971568E+03  0.25500000920E-02 0. -1.
       -2   -1    0    0    0  501  0.00000000000E+00  0.00000000000E+00 -0.54310631517E+03  0.54310631518E+03  0.25500000920E-02 0.  1.
    10030    2    1    2    0    0  0.00000000000E+00  0.00000000000E+00  0.35639340050E+03  0.14426060309E+04  0.13978898041E+04 0.  0.
        3    1    3    3  502    0 -0.30701024012E+03 -0.57243918356E+03 -0.88092417233E+02  0.65551673555E+03  0.10100000352E+00 0.  1.
       -3    1    3    3    0  502  0.30701024012E+03  0.57243918356E+03  0.44448581773E+03  0.78708929530E+03  0.10100000352E+00 0. -1.
</event>
<event>
 5   0  0.1578965E-03  0.1395866E+04  0.7818609E-02  0.8956816E-01
       -2   -1    0    0    0  501  0.00000000000E+00  0.00000000000E+00  0.28435175543E+03  0.28435175544E+03  0.25500000920E-02 0. -1.
        2   -1    0    0  501    0  0.00000000000E+00  0.00000000000E+00 -0.17130556202E+04  0.17130556202E+04  0.25500000920E-02 0.  1.
    10030    2    1    2    0    0  0.00000000000E+00  0.00000000000E+00 -0.14287038648E+04  0.19974073757E+04  0.13958658571E+04 0.  0.
        2    1    3    3  502    0  0.27193268437E+03  0.34386896503E+03 -0.14914448643E+04  0.15545420655E+04  0.25500000920E-02 0.  1.
       -2    1    3    3    0  502 -0.27193268437E+03 -0.34386896503E+03  0.62740999552E+02  0.44286531019E+03  0.25500000920E-02 0. -1.
</event>
<event>
 5   0  0.1578965E-03  0.1409041E+04  0.7818609E-02  0.8947300E-01
       -2   -1    0    0    0  501  0.00000000000E+00  0.00000000000E+00  0.53523547446E+03  0.53523547446E+03  0.25500000920E-02 0. -1.
        2   -1    0    0  501    0  0.00000000000E+00  0.00000000000E+00 -0.92734763768E+03  0.92734763768E+03  0.25500000920E-02 0.  1.
    10030    2    1    2    0    0  0.00000000000E+00  0.00000000000E+00 -0.39211216322E+03  0.14625831121E+04  0.14090413093E+04 0.  0.
        2    1    3    3  502    0  0.39448170248E+03 -0.49822157083E+03 -0.51176610160E+03  0.81593203760E+03  0.25500000920E-02 0.  1.
       -2    1    3    3    0  502 -0.39448170248E+03  0.49822157083E+03  0.11965393838E+03  0.64665107454E+03  0.25500000920E-02 0. -1.
</event>
<event>
 5   0  0.8609148E-04  0.1428400E+04  0.7818609E-02  0.8933514E-01
       -1   -1    0    0    0  501  0.00000000000E+00  0.00000000000E+00  0.54004953475E+03  0.54004953478E+03  0.50400001928E-02 0. -1.
        1   -1    0    0  501    0  0.00000000000E+00  0.00000000000E+00 -0.94450942793E+03  0.94450942795E+03  0.50400001928E-02 0.  1.
    10030    2    1    2    0    0  0.00000000000E+00  0.00000000000E+00 -0.40445989318E+03  0.14845589627E+04  0.14284003321E+04 0.  0.
        5    1    3    3  502    0  0.32607309808E+03 -0.46819590358E+03  0.24422690343E+03  0.62064477745E+03  0.46999998093E+01 0. -1.
       -5    1    3    3    0  502 -0.32607309808E+03  0.46819590358E+03 -0.64868679661E+03  0.86391418527E+03  0.46999998093E+01 0.  1.
</event>
<event>
 5   0  0.8502300E-04  0.1415391E+04  0.7818609E-02  0.8942753E-01
       -1   -1    0    0    0  501  0.00000000000E+00  0.00000000000E+00  0.82401051174E+03  0.82401051175E+03  0.50400001928E-02 0.  1.
        1   -1    0    0  501    0  0.00000000000E+00  0.00000000000E+00 -0.60779903295E+03  0.60779903297E+03  0.50400001928E-02 0. -1.
    10030    2    1    2    0    0  0.00000000000E+00  0.00000000000E+00  0.21621147879E+03  0.14318095447E+04  0.14153908184E+04 0.  0.
        4    1    3    3  502    0  0.69813025781E+03  0.99688891897E+02  0.16801644775E+03  0.72495163400E+03  0.12699999809E+01 0. -1.
       -4    1    3    3    0  502 -0.69813025781E+03 -0.99688891897E+02  0.48195031036E+02  0.70685791072E+03  0.12699999809E+01 0.  1.
</event>
<event>
 5   0  0.1578965E-03  0.1369854E+04  0.7818609E-02  0.8975933E-01
       -2   -1    0    0    0  501  0.00000000000E+00  0.00000000000E+00  0.33522807188E+03  0.33522807189E+03  0.25500000920E-02 0. -1.
        2   -1    0    0  501    0  0.00000000000E+00  0.00000000000E+00 -0.13994209498E+04  0.13994209498E+04  0.25500000920E-02 0.  1.
    10030    2    1    2    0    0  0.00000000000E+00  0.00000000000E+00 -0.10641928779E+04  0.17346490217E+04  0.13698542795E+04 0.  0.
        2    1    3    3  502    0  0.35361284891E+03  0.25260754929E+03  0.13829357957E+03  0.45604575980E+03  0.25500000920E-02 0. -1.
       -2    1    3    3    0  502 -0.35361284891E+03 -0.25260754929E+03 -0.12024864575E+04  0.12786032619E+04  0.25500000920E-02 0.  1.
</event>
<event>
 5   0  0.1578965E-03  0.1375252E+04  0.7818609E-02  0.8971930E-01
        2   -1    0    0  501    0  0.00000000000E+00  0.00000000000E+00  0.74809942143E+03  0.74809942143E+03  0.25500000920E-02 0.  1.
       -2   -1    0    0    0  501  0.00000000000E+00  0.00000000000E+00 -0.63204085790E+03  0.63204085790E+03  0.25500000920E-02 0. -1.
    10030    2    1    2    0    0  0.00000000000E+00  0.00000000000E+00  0.11605856353E+03  0.13801402793E+04  0.13752518317E+04 0.  0.
        2    1    3    3  502    0 -0.16077871656E+03 -0.45192071263E+03  0.55247449816E+03  0.73164895772E+03  0.25500000920E-02 0.  1.
       -2    1    3    3    0  502  0.16077871656E+03  0.45192071263E+03 -0.43641593463E+03  0.64849132162E+03  0.25500000920E-02 0. -1.
</event>
<event>
 5   0  0.6048000E-04  0.1380714E+04  0.7818609E-02  0.8967899E-01
        3   -1    0    0  501    0  0.00000000000E+00  0.00000000000E+00  0.62020236645E+03  0.62020237468E+03  0.10100000352E+00 0. -1.
       -3   -1    0    0    0  501  0.00000000000E+00  0.00000000000E+00 -0.76844677464E+03  0.76844678128E+03  0.10100000352E+00 0.  1.
    10030    2    1    2    0    0  0.00000000000E+00  0.00000000000E+00 -0.14824440819E+03  0.13886491560E+04  0.13807136103E+04 0.  0.
        3    1    3    3  502    0 -0.36892265180E+03  0.85282535221E+02 -0.65468808517E+03  0.75630254058E+03  0.10100000352E+00 0.  1.
       -3    1    3    3    0  502  0.36892265180E+03 -0.85282535221E+02  0.50644367698E+03  0.63234661538E+03  0.10100000352E+00 0. -1.
</event>
<event>
 5   0  0.1706986E-03  0.1389604E+04  0.7818609E-02  0.8961378E-01
       -2   -1    0    0    0  501  0.00000000000E+00  0.00000000000E+00  0.49926607072E+03  0.49926607073E+03  0.25500000920E-02 0. -1.
        2   -1    0    0  501    0  0.00000000000E+00  0.00000000000E+00 -0.96691925431E+03  0.96691925431E+03  0.25500000920E-02 0.  1.
    10030    2    1    2    0    0  0.00000000000E+00  0.00000000000E+00 -0.46765318359E+03  0.14661853250E+04  0.13896042268E+04 0.  0.
        3    1    3    3  502    0  0.17726977758E+03 -0.66131383955E+03 -0.35862161259E+03  0.77289717275E+03  0.10100000352E+00 0. -1.
       -3    1    3    3    0  502 -0.17726977758E+03  0.66131383955E+03 -0.10903157100E+03  0.69328815229E+03  0.10100000352E+00 0.  1.
</event>
<event>
 5   0  0.9007180E-04  0.1388061E+04  0.7818609E-02  0.8962506E-01
        1   -1    0    0  501    0  0.00000000000E+00  0.00000000000E+00  0.12325906082E+04  0.12325906082E+04  0.50400001928E-02 0. -1.
       -1   -1    0    0    0  501  0.00000000000E+00  0.00000000000E+00 -0.39078554284E+03  0.39078554287E+03  0.50400001928E-02 0.  1.
    10030    2    1    2    0    0  0.00000000000E+00  0.00000000000E+00  0.84180506537E+03  0.16233761511E+04  0.13880613675E+04 0.  0.
        2    1    3    3  502    0  0.13363825609E+03  0.60745971180E+03  0.60786556524E+02  0.62494919026E+03  0.25500000920E-02 0.  1.
       -2    1    3    3    0  502 -0.13363825609E+03 -0.60745971180E+03  0.78101850885E+03  0.99842696083E+03  0.25500000920E-02 0. -1.
</event>
<event>
 5   0  0.9639548E-04  0.1436677E+04  0.7818609E-02  0.8927690E-01
       -1   -1    0    0    0  501  0.00000000000E+00  0.00000000000E+00  0.81222090094E+03  0.81222090095E+03  0.50400001928E-02 0. -1.
        1   -1    0    0  501    0  0.00000000000E+00  0.00000000000E+00 -0.63530728664E+03  0.63530728666E+03  0.50400001928E-02 0.  1.
    10030    2    1    2    0    0  0.00000000000E+00  0.00000000000E+00  0.17691361430E+03  0.14475281876E+04  0.14366765214E+04 0.  0.
        1    1    3    3  502    0 -0.41206726121E+03 -0.54245320592E+03 -0.14120114808E+03  0.69569581903E+03  0.50400001928E-02 0.  1.
       -1    1    3    3    0  502  0.41206726121E+03  0.54245320592E+03  0.31811476238E+03  0.75183236858E+03  0.50400001928E-02 0. -1.
</event>
<event>
 5   0  0.1578965E-03  0.1346063E+04  0.7818609E-02  0.8993814E-01
       -2   -1    0    0    0  501  0.00000000000E+00  0.00000000000E+00  0.56901179750E+03  0.56901179750E+03  0.25500000920E-02 0. -1.
        2   -1    0    0  501    0  0.00000000000E+00  0.00000000000E+00 -0.79606656026E+03  0.79606656027E+03  0.25500000920E-02 0.  1.
    10030    2    1    2    0    0  0.00000000000E+00  0.00000000000E+00 -0.22705476276E+03  0.13650783578E+04  0.13460627985E+04 0.  0.
        2    1    3    3  502    0 -0.20551287384E+03 -0.58443059484E+03  0.15320262481E+03  0.63817372694E+03  0.25500000920E-02 0. -1.
       -2    1    3    3    0  502  0.20551287384E+03  0.58443059484E+03 -0.38025738757E+03  0.72690463083E+03  0.25500000920E-02 0.  1.
</event>
<event>
 5   0  0.1605214E-03  0.1423560E+04  0.7818609E-02  0.8936939E-01
       -2   -1    0    0    0  501  0.00000000000E+00  0.00000000000E+00  0.29649967424E+03  0.29649967425E+03  0.25500000920E-02 0.  1.
        2   -1    0    0  501    0  0.00000000000E+00  0.00000000000E+00 -0.17087055340E+04  0.17087055340E+04  0.25500000920E-02 0. -1.
    10030    2    1    2    0    0  0.00000000000E+00  0.00000000000E+00 -0.14122058598E+04  0.20052052083E+04  0.14235598115E+04 0.  0.
        5    1    3    3  502    0 -0.50389717679E+03 -0.50017718089E+03 -0.63540700850E+03  0.95281358801E+03  0.46999998093E+01 0.  1.
       -5    1    3    3    0  502  0.50389717679E+03  0.50017718089E+03 -0.77679885130E+03  0.10523916203E+04  0.46999998093E+01 0. -1.
</event>
<event>
 5   0  0.9007180E-04  0.1387287E+04  0.7818609E-02  0.8963073E-01
        1   -1    0    0  501    0  0.00000000000E+00  0.00000000000E+00  0.59069887057E+03  0.59069887059E+03  0.50400001928E-02 0.  1.
       -1   -1    0    0    0  501  0.00000000000E+00  0.00000000000E+00 -0.81452870240E+03  0.81452870241E+03  0.50400001928E-02 0. -1.
    10030    2    1    2    0    0  0.00000000000E+00  0.00000000000E+00 -0.22382983183E+03  0.14052275730E+04  0.13872868263E+04 0.  0.
        2    1    3    3  502    0 -0.42026015122E+03 -0.28980967681E+03  0.36376754132E+03  0.62684532989E+03  0.25500000920E-02 0.  1.
       -2    1    3    3    0  502  0.42026015122E+03  0.28980967681E+03 -0.58759737314E+03  0.77838224312E+03  0.25500000920E-02 0. -1.
</event>
<event>
 5   0  0.8609148E-04  0.1407453E+04  0.7818609E-02  0.8948441E-01
        1   -1    0    0  501    0  0.00000000000E+00  0.00000000000E+00  0.15302429600E+04  0.15302429600E+04  0.50400001928E-02 0.  1.
       -1   -1    0    0    0  501  0.00000000000E+00  0.00000000000E+00 -0.32362897936E+03  0.32362897940E+03  0.50400001928E-02 0. -1.
    10030    2    1    2    0    0  0.00000000000E+00  0.00000000000E+00  0.12066139807E+04  0.18538719394E+04  0.14074529724E+04 0.  0.
        5    1    3    3  502    0 -0.22726971654E+03 -0.65792803708E+03  0.46713270523E+03  0.83830536222E+03  0.46999998093E+01 0. -1.
       -5    1    3    3    0  502  0.22726971654E+03  0.65792803708E+03  0.73948127544E+03  0.10155665772E+04  0.46999998093E+01 0.  1.
</event>
<event>
 5   0  0.1648213E-03  0.1391723E+04  0.7818609E-02  0.8959832E-01
       -2   -1    0    0    0  501  0.00000000000E+00  0.00000000000E+00  0.56156088567E+03  0.56156088567E+03  0.25500000920E-02 0.  1.
        2   -1    0    0  501    0  0.00000000000E+00  0.00000000000E+00 -0.86228072350E+03  0.86228072350E+03  0.25500000920E-02 0. -1.
    10030    2    1    2    0    0  0.00000000000E+00  0.00000000000E+00 -0.30071983783E+03  0.14238416092E+04  0.13917228557E+04 0.  0.
        4    1    3    3  502    0  0.45793709143E+03 -0.51562789907E+03 -0.24547322432E+03  0.73200903462E+03  0.12699999809E+01 0. -1.
       -4    1    3    3    0  502 -0.45793709143E+03  0.51562789907E+03 -0.55246613510E+02  0.69183257455E+03  0.12699999809E+01 0.  1.
</event>
<event>
 5   0  0.8673728E-04  0.1414202E+04  0.7818609E-02  0.8943602E-01
       -1   -1    0    0    0  501  0.00000000000E+00  0.00000000000E+00  0.45958431481E+03  0.45958431484E+03  0.50400001928E-02 0. -1.
        1   -1    0    0  501    0  0.00000000000E+00  0.00000000000E+00 -0.10879211003E+04  0.10879211003E+04  0.50400001928E-02 0.  1.
    10030    2    1    2    0    0  0.00000000000E+00  0.00000000000E+00 -0.62833678545E+03  0.15475054151E+04  0.14142015040E+04 0.  0.
        3    1    3    3  502    0  0.44962778385E+03  0.23481291902E+03 -0.85323957847E+03  0.99263288249E+03  0.10100000352E+00 0.  1.
       -3    1    3    3    0  502 -0.44962778385E+03 -0.23481291902E+03  0.22490279301E+03  0.55487253262E+03  0.10100000352E+00 0. -1.
</event>
<event>
 5   0  0.9007180E-04  0.1340593E+04  0.7818609E-02  0.8997980E-01
       -1   -1    0    0    0  501  0.00000000000E+00  0.00000000000E+00  0.34954200117E+03  0.34954200121E+03  0.50400001928E-02 0. -1.
        1   -1    0    0  501    0  0.00000000000E+00  0.00000000000E+00 -0.12853893544E+04  0.12853893544E+04  0.50400001928E-02 0.  1.
    10030    2    1    2    0    0  0.00000000000E+00  0.00000000000E+00 -0.93584735321E+03  0.16349313556E+04  0.13405932526E+04 0.  0.
        2    1    3    3  502    0 -0.40693392906E+03 -0.98847317125E+02  0.17037438166E+03  0.45209893237E+03  0.25500000920E-02 0. -1.
       -2    1    3    3    0  502  0.40693392906E+03  0.98847317125E+02 -0.11062217349E+04  0.11828324232E+04  0.25500000920E-02 0.  1.
</event>
<event>
 5   0  0.1578965E-03  0.1372990E+04  0.7818609E-02  0.8973605E-01
       -2   -1    0    0    0  501  0.00000000000E+00  0.00000000000E+00  0.10831739728E+04  0.10831739728E+04  0.25500000920E-02 0. -1.
        2   -1    0    0  501    0  0.00000000000E+00  0.00000000000E+00 -0.43508720307E+03  0.43508720308E+03  0.25500000920E-02 0.  1.
    10030    2    1    2    0    0  0.00000000000E+00  0.00000000000E+00  0.64808676972E+03  0.15182611759E+04  0.13729896347E+04 0.  0.
        2    1    3    3  502    0 -0.82506409712E+02 -0.24265606033E+03  0.10282832935E+04  0.10597432722E+04  0.25500000920E-02 0. -1.
       -2    1    3    3    0  502  0.82506409712E+02  0.24265606033E+03 -0.38019652380E+03  0.45851790366E+03  0.25500000920E-02 0.  1.
</event>
<event>
 5   0  0.1605214E-03  0.1382704E+04  0.7818609E-02  0.8966435E-01
       -2   -1    0    0    0  501  0.00000000000E+00  0.00000000000E+00  0.37940413476E+03  0.37940413477E+03  0.25500000920E-02 0. -1.
        2   -1    0    0  501    0  0.00000000000E+00  0.00000000000E+00 -0.12597843134E+04  0.12597843134E+04  0.25500000920E-02 0.  1.
    10030    2    1    2    0    0  0.00000000000E+00  0.00000000000E+00 -0.88038017868E+03  0.16391884482E+04  0.13827036956E+04 0.  0.
        5    1    3    3  502    0  0.23337509128E+03 -0.35504826151E+03  0.20633646791E+03  0.47235582903E+03  0.46999998093E+01 0. -1.
       -5    1    3    3    0  502 -0.23337509128E+03  0.35504826151E+03 -0.10867166466E+04  0.11668326192E+04  0.46999998093E+01 0.  1.
</event>
<event>
 5   0  0.8502300E-04  0.1448204E+04  0.7818609E-02  0.8919647E-01
       -1   -1    0    0    0  501  0.00000000000E+00  0.00000000000E+00  0.10568131343E+04  0.10568131343E+04  0.50400001928E-02 0.  1.
        1   -1    0    0  501    0  0.00000000000E+00  0.00000000000E+00 -0.49613660240E+03  0.49613660243E+03  0.50400001928E-02 0. -1.
    10030    2    1    2    0    0  0.00000000000E+00  0.00000000000E+00  0.56067653192E+03  0.15529497368E+04  0.14482039606E+04 0.  0.
        4    1    3    3  502    0  0.51037900027E+02 -0.71183511805E+03  0.41170594760E+03  0.82390381885E+03  0.12699999809E+01 0.  1.
       -4    1    3    3    0  502 -0.51037900027E+02  0.71183511805E+03  0.14897058432E+03  0.72904591791E+03  0.12699999809E+01 0. -1.
</event>
<event>
 5   0  0.1605214E-03  0.1405833E+04  0.7818609E-02  0.8949607E-01
        2   -1    0    0  501    0  0.00000000000E+00  0.00000000000E+00  0.45731622327E+03  0.45731622328E+03  0.25500000920E-02 0.  1.
       -2   -1    0    0    0  501  0.00000000000E+00  0.00000000000E+00 -0.10804151682E+04  0.10804151682E+04  0.25500000920E-02 0. -1.
    10030    2    1    2    0    0  0.00000000000E+00  0.00000000000E+00 -0.62309894489E+03  0.15377313914E+04  0.14058326846E+04 0.  0.
        5    1    3    3  502    0 -0.14688262141E+03  0.46113440641E+03 -0.86913061632E+03  0.99480126832E+03  0.46999998093E+01 0. -1.
       -5    1    3    3    0  502  0.14688262141E+03 -0.46113440641E+03  0.24603167142E+03  0.54293012312E+03  0.46999998093E+01 0.  1.
</event>
<event>
 5   0  0.8673728E-04  0.1353307E+04  0.7818609E-02  0.8988329E-01
        1   -1    0    0  501    0  0.00000000000E+00  0.00000000000E+00  0.79531710024E+03  0.79531710026E+03  0.50400001928E-02 0. -1.
       -1   -1    0    0    0  501  0.00000000000E+00  0.00000000000E+00 -0.57569464073E+03  0.57569464076E+03  0.50400001928E-02 0.  1.
    10030    2    1    2    0    0  0.00000000000E+00  0.00000000000E+00  0.21962245951E+03  0.13710117410E+04  0.13533067536E+04 0.  0.
        3    1    3    3  502    0  0.24472481716E+03  0.34289214440E+03  0.64626177149E+03  0.77143991750E+03  0.10100000352E+00 0. -1.
       -3    1    3    3    0  502 -0.24472481716E+03 -0.34289214440E+03 -0.42663931198E+03  0.59957182351E+03  0.10100000352E+00 0.  1.
</event>
<event>
 5   0  0.1578965E-03  0.1406792E+04  0.7818609E-02  0.8948917E-01
        2   -1    0    0  501    0  0.00000000000E+00  0.00000000000E+00  0.11396015445E+04  0.11396015445E+04  0.25500000920E-02 0. -1.
       -2   -1    0    0    0  501  0.00000000000E+00  0.00000000000E+00 -0.43415718218E+03  0.43415718219E+03  0.25500000920E-02 0.  1.
    10030    2    1    2    0    0  0.00000000000E+00  0.00000000000E+00  0.70544436232E+03  0.15737587267E+04  0.14067923733E+04 0.  0.
        2    1    3    3  502    0  0.32566159110E+03 -0.60963908085E+03  0.49879922962E+03  0.85235905127E+03  0.25500000920E-02 0. -1.
       -2    1    3    3    0  502 -0.32566159110E+03  0.60963908085E+03  0.20664513270E+03  0.72139967542E+03  0.25500000920E-02 0.  1.
</event>
<event>
 5   0  0.1706986E-03  0.1404424E+04  0.7818609E-02  0.8950622E-01
       -2   -1    0    0    0  501  0.00000000000E+00  0.00000000000E+00  0.80007542246E+03  0.80007542247E+03  0.25500000920E-02 0.  1.
        2   -1    0    0  501    0  0.00000000000E+00  0.00000000000E+00 -0.61631909838E+03  0.61631909839E+03  0.25500000920E-02 0. -1.
    10030    2    1    2    0    0  0.00000000000E+00  0.00000000000E+00  0.18375632408E+03  0.14163945209E+04  0.14044240998E+04 0.  0.
        3    1    3    3  502    0 -0.67559770568E+03  0.14613334774E+02  0.28443996123E+03  0.73317931723E+03  0.10100000352E+00 0.  1.
       -3    1    3    3    0  502  0.67559770568E+03 -0.14613334774E+02 -0.10068363715E+03  0.68321520362E+03  0.10100000352E+00 0. -1.
</event>
<event>
 5   0  0.1648463E-03  0.1399556E+04  0.7818609E-02  0.8954140E-01
        2   -1    0    0  501    0  0.00000000000E+00  0.00000000000E+00  0.78562037720E+03  0.78562037721E+03  0.25500000920E-02 0. -1.
       -2   -1    0    0    0  501  0.00000000000E+00  0.00000000000E+00 -0.62331546345E+03  0.62331546346E+03  0.25500000920E-02 0.  1.
    10030    2    1    2    0    0  0.00000000000E+00  0.00000000000E+00  0.16230491375E+03  0.14089358407E+04  0.13995561147E+04 0.  0.
        1    1    3    3  502    0 -0.68428422711E+03  0.10740630631E+03 -0.19055157793E+02  0.69292432283E+03  0.50400001928E-02 0.  1.
       -1    1    3    3    0  502  0.68428422711E+03 -0.10740630631E+03  0.18136007154E+03  0.71601151784E+03  0.50400001928E-02 0. -1.
</event>
<event>
 5   0  0.9639548E-04  0.1399039E+04  0.7818609E-02  0.8954514E-01
       -1   -1    0    0    0  501  0.00000000000E+00  0.00000000000E+00  0.10193449165E+04  0.10193449165E+04  0.50400001928E-02 0.  1.
        1   -1    0    0  501    0  0.00000000000E+00  0.00000000000E+00 -0.48004138898E+03  0.48004138900E+03  0.50400001928E-02 0. -1.
    10030    2    1    2    0    0  0.00000000000E+00  0.00000000000E+00  0.53930352754E+03  0.14993863055E+04  0.13990393127E+04 0.  0.
        1    1    3    3  502    0 -0.20190497124E+03  0.29985768170E+03  0.91147809078E+03  0.98054707010E+03  0.50400001928E-02 0.  1.
       -1    1    3    3    0  502  0.20190497124E+03 -0.29985768170E+03 -0.37217456323E+03  0.51883923544E+03  0.50400001928E-02 0. -1.
</event>
<event>
 5   0  0.1706986E-03  0.1453503E+04  0.7818609E-02  0.8915975E-01
        2   -1    0    0  501    0  0.00000000000E+00  0.00000000000E+00  0.20063781897E+04  0.20063781897E+04  0.25500000920E-02 0. -1.
       -2   -1    0    0    0  501  0.00000000000E+00  0.00000000000E+00 -0.26324443425E+03  0.26324443426E+03  0.25500000920E-02 0.  1.
    10030    2    1    2    0    0  0.00000000000E+00  0.00000000000E+00  0.17431337554E+04  0.22696226239E+04  0.14535032046E+04 0.  0.
        3    1    3    3  502    0 -0.50348957394E+03  0.43006421091E+03  0.13392592387E+04  0.14940121470E+04  0.10100000352E+00 0. -1.
       -3    1    3    3    0  502  0.50348957394E+03 -0.43006421091E+03  0.40387451672E+03  0.77561047700E+03  0.10100000352E+00 0.  1.
</event>
<event>
 5   0  0.8502300E-04  0.1429572E+04  0.7818609E-02  0.8932687E-01
        1   -1    0    0  501    0  0.00000000000E+00  0.00000000000E+00  0.67596683551E+03  0.67596683553E+03  0.50400001928E-02 0.  1.
       -1   -1    0    0    0  501  0.00000000000E+00  0.00000000000E+00 -0.75583432731E+03  0.75583432733E+03  0.50400001928E-02 0. -1.
    10030    2    1    2    0    0  0.00000000000E+00  0.00000000000E+00 -0.79867491799E+02  0.14318011629E+04  0.14295718778E+04 0.  0.
        4    1    3    3  502    0 -0.33869480818E+03  0.56962325869E+03  0.22831313742E+03  0.70093746622E+03  0.12699999809E+01 0.  1.
       -4    1    3    3    0  502  0.33869480818E+03 -0.56962325869E+03 -0.30818062922E+03  0.73086369664E+03  0.12699999809E+01 0. -1.
</event>
<event>
 5   0  0.1605214E-03  0.1421545E+04  0.7818609E-02  0.8938369E-01
        2   -1    0    0  501    0  0.00000000000E+00  0.00000000000E+00  0.89142650975E+03  0.89142650975E+03  0.25500000920E-02 0.  1.
       -2   -1    0    0    0  501  0.00000000000E+00  0.00000000000E+00 -0.56672938944E+03  0.56672938945E+03  0.25500000920E-02 0. -1.
    10030    2    1    2    0    0  0.00000000000E+00  0.00000000000E+00  0.32469712030E+03  0.14581558992E+04  0.14215450772E+04 0.  0.
        5    1    3    3  502    0 -0.34890579751E+03  0.15459972243E+02 -0.47262666300E+03  0.58768385962E+03  0.46999998093E+01 0. -1.
       -5    1    3    3    0  502  0.34890579751E+03 -0.15459972243E+02  0.79732378330E+03  0.87047203958E+03  0.46999998093E+01 0.  1.
</event>
<event>
 5   0  0.8502300E-04  0.1389028E+04  0.7818609E-02  0.8961799E-01
        1   -1    0    0  501    0  0.00000000000E+00  0.00000000000E+00  0.85042816535E+03  0.85042816537E+03  0.50400001928E-02 0. -1.
       -1   -1    0    0    0  501  0.00000000000E+00  0.00000000000E+00 -0.56718462325E+03  0.56718462327E+03  0.50400001928E-02 0.  1.
    10030    2    1    2    0    0  0.00000000000E+00  0.00000000000E+00  0.28324354211E+03  0.14176127886E+04  0.13890281186E+04 0.  0.
        4    1    3    3  502    0 -0.32504851759E+03  0.23884384995E+03 -0.43538473130E+03  0.59351866070E+03  0.12699999809E+01 0.  1.
       -4    1    3    3    0  502  0.32504851759E+03 -0.23884384995E+03  0.71862827341E+03  0.82409412793E+03  0.12699999809E+01 0. -1.
</event>
<event>
 5   0  0.8609148E-04  0.1413111E+04  0.7818609E-02  0.8944382E-01
       -1   -1    0    0    0  501  0.00000000000E+00  0.00000000000E+00  0.61153531757E+03  0.61153531759E+03  0.50400001928E-02 0.  1.
        1   -1    0    0  501    0  0.00000000000E+00  0.00000000000E+00 -0.81634015929E+03  0.81634015931E+03  0.50400001928E-02 0. -1.
    10030    2    1    2    0    0  0.00000000000E+00  0.00000000000E+00 -0.20480484172E+03  0.14278754769E+04  0.14131112321E+04 0.  0.
        5    1    3    3  502    0 -0.47124008914E+02  0.25186301855E+03 -0.76772172391E+03  0.80936665838E+03  0.46999998093E+01 0. -1.
       -5    1    3    3    0  502  0.47124008914E+02 -0.25186301855E+03  0.56291688219E+03  0.61850881852E+03  0.46999998093E+01 0.  1.
</event>
<event>
 5   0  0.1648463E-03  0.1399513E+04  0.7818609E-02  0.8954171E-01
       -2   -1    0    0    0  501  0.00000000000E+00  0.00000000000E+00  0.49507640012E+03  0.49507640013E+03  0.25500000920E-02 0.  1.
        2   -1    0    0  501    0  0.00000000000E+00  0.00000000000E+00 -0.98905795195E+03  0.98905795196E+03  0.25500000920E-02 0. -1.
    10030    2    1    2    0    0  0.00000000000E+00  0.00000000000E+00 -0.49398155183E+03  0.14841343521E+04  0.13995131302E+04 0.  0.
        1    1    3    3  502    0  0.39717428707E+03  0.16189794498E+03 -0.83332412001E+03  0.93722326471E+03  0.50400001928E-02 0. -1.
       -1    1    3    3    0  502 -0.39717428707E+03 -0.16189794498E+03  0.33934256818E+03  0.54691108738E+03  0.50400001928E-02 0.  1.
</event>
<event>
 5   0  0.1648213E-03  0.1379354E+04  0.7818609E-02  0.8968900E-01
        2   -1    0    0  501    0  0.00000000000E+00  0.00000000000E+00  0.40695117806E+03  0.40695117806E+03  0.25500000920E-02 0. -1.
       -2   -1    0    0    0  501  0.00000000000E+00  0.00000000000E+00 -0.11688242620E+04  0.11688242620E+04  0.25500000920E-02 0.  1.
    10030    2    1    2    0    0  0.00000000000E+00  0.00000000000E+00 -0.76187308394E+03  0.15757754401E+04  0.13793540668E+04 0.  0.
        4    1    3    3  502    0  0.34663760374E+03  0.74327631564E+02 -0.10567616641E+04  0.11146430158E+04  0.12699999809E+01 0.  1.
       -4    1    3    3    0  502 -0.34663760374E+03 -0.74327631564E+02  0.29488858011E+03  0.46113242428E+03  0.12699999809E+01 0. -1.
</event>
<event>
 5   0  0.1706986E-03  0.1452018E+04  0.7818609E-02  0.8917003E-01
        2   -1    0    0  501    0  0.00000000000E+00  0.00000000000E+00  0.85109624845E+03  0.85109624846E+03  0.25500000920E-02 0. -1.
       -2   -1    0    0    0  501  0.00000000000E+00  0.00000000000E+00 -0.61930594338E+03  0.61930594338E+03  0.25500000920E-02 0.  1.
    10030    2    1    2    0    0  0.00000000000E+00  0.00000000000E+00  0.23179030508E+03  0.14704021918E+04  0.14520178581E+04 0.  0.
        3    1    3    3  502    0  0.16646101502E+03  0.29521399651E+03  0.76607443724E+03  0.83769363544E+03  0.10100000352E+00 0. -1.
       -3    1    3    3    0  502 -0.16646101502E+03 -0.29521399651E+03 -0.53428413217E+03  0.63270855640E+03  0.10100000352E+00 0.  1.
</event>
<event>
 5   0  0.8502300E-04  0.1383936E+04  0.7818609E-02  0.8965529E-01
        1   -1    0    0  501    0  0.00000000000E+00  0.00000000000E+00  0.94586117553E+03  0.94586117554E+03  0.50400001928E-02 0.  1.
       -1   -1    0    0    0  501  0.00000000000E+00  0.00000000000E+00 -0.50622607746E+03  0.50622607749E+03  0.50400001928E-02 0. -1.
    10030    2    1    2    0    0  0.00000000000E+00  0.00000000000E+00  0.43963509806E+03  0.14520872530E+04  0.13839358262E+04 0.  0.
        4    1    3    3  502    0  0.60396819573E+03 -0.26066428439E+02  0.57308894915E+03  0.83300035815E+03  0.12699999809E+01 0.  1.
       -4    1    3    3    0  502 -0.60396819573E+03  0.26066428439E+02 -0.13345385109E+03  0.61908689488E+03  0.12699999809E+01 0. -1.
</event>
<event>
 5   0  0.9007180E-04  0.1384391E+04  0.7818609E-02  0.8965195E-01
       -1   -1    0    0    0  501  0.00000000000E+00  0.00000000000E+00  0.37107444919E+03  0.37107444922E+03  0.50400001928E-02 0. -1.
        1   -1    0    0  501    0  0.00000000000E+00  0.00000000000E+00 -0.12912085414E+04  0.12912085415E+04  0.50400001928E-02 0.  1.
    10030    2    1    2    0    0  0.00000000000E+00  0.00000000000E+00 -0.92013409225E+03  0.16622829907E+04  0.13843908384E+04 0.  0.
        2    1    3    3  502    0  0.73693183377E+02  0.54530863090E+03 -0.96429220020E+03  0.11102484567E+04  0.25500000920E-02 0. -1.
       -2    1    3    3    0  502 -0.73693183377E+02 -0.54530863090E+03  0.44158107947E+02  0.55203453399E+03  0.25500000920E-02 0.  1.
</event>
<event>
 5   0  0.1605214E-03  0.1391720E+04  0.7818609E-02  0.8959834E-01
       -2   -1    0    0    0  501  0.00000000000E+00  0.00000000000E+00  0.94809255960E+03  0.94809255960E+03  0.25500000920E-02 0.  1.
        2   -1    0    0  501    0  0.00000000000E+00  0.00000000000E+00 -0.51073197713E+03  0.51073197714E+03  0.25500000920E-02 0. -1.
    10030    2    1    2    0    0  0.00000000000E+00  0.00000000000E+00  0.43736058247E+03  0.14588245367E+04  0.13917200688E+04 0.  0.
        5    1    3    3  502    0  0.51262125863E+03 -0.43609567027E+03  0.40394832355E+03  0.78495625772E+03  0.46999998093E+01 0.  1.
       -5    1    3    3    0  502 -0.51262125863E+03  0.43609567027E+03  0.33412258915E+02  0.67386827902E+03  0.46999998093E+01 0. -1.
</event>
<event>
 5   0  0.9639548E-04  0.1511758E+04  0.7818609E-02  0.8876671E-01
       -1   -1    0    0    0  501  0.00000000000E+00  0.00000000000E+00  0.10425740789E+04  0.10425740789E+04  0.50400001928E-02 0. -1.
        1   -1    0    0  501    0  0.00000000000E+00  0.00000000000E+00 -0.54802162386E+03  0.54802162388E+03  0.50400001928E-02 0.  1.
    10030    2    1    2    0    0  0.00000000000E+00  0.00000000000E+00  0.49455245501E+03  0.15905957028E+04  0.15117581020E+04 0.  0.
        1    1    3    3  502    0  0.37756209021E+03  0.62066280552E+03  0.27637155342E+02  0.72700705808E+03  0.50400001928E-02 0.  1.
       -1    1    3    3    0  502 -0.37756209021E+03 -0.62066280552E+03  0.46691529966E+03  0.86358864467E+03  0.50400001928E-02 0. -1.
</event>
<event>
 5   0  0.1706986E-03  0.1407646E+04  0.7818609E-02  0.8948303E-01
        2   -1    0    0  501    0  0.00000000000E+00  0.00000000000E+00  0.73428457402E+03  0.73428457402E+03  0.25500000920E-02 0. -1.
       -2   -1    0    0    0  501  0.00000000000E+00  0.00000000000E+00 -0.67462489498E+03  0.67462489499E+03  0.25500000920E-02 0.  1.
    10030    2    1    2    0    0  0.00000000000E+00  0.00000000000E+00  0.59659679036E+02  0.14089094690E+04  0.14076457703E+04 0.  0.
        3    1    3    3  502    0  0.35401234394E+03 -0.22187289767E+03  0.59674305579E+03  0.72846043627E+03  0.10100000352E+00 0. -1.
       -3    1    3    3    0  502 -0.35401234394E+03  0.22187289767E+03 -0.53708337675E+03  0.68044903274E+03  0.10100000352E+00 0.  1.
</event>
<event>
 5   0  0.9007180E-04  0.1424830E+04  0.7818609E-02  0.8936039E-01
        1   -1    0    0  501    0  0.00000000000E+00  0.00000000000E+00  0.11310732237E+04  0.11310732237E+04  0.50400001928E-02 0. -1.
       -1   -1    0    0    0  501  0.00000000000E+00  0.00000000000E+00 -0.44871985166E+03  0.44871985169E+03  0.50400001928E-02 0.  1.
    10030    2    1    2    0    0  0.00000000000E+00  0.00000000000E+00  0.68235337200E+03  0.15797930754E+04  0.14248298273E+04 0.  0.
        2    1    3    3  502    0 -0.47294848838E+03  0.17744468663E+03  0.89817573516E+03  0.10304787920E+04  0.25500000920E-02 0. -1.
       -2    1    3    3    0  502  0.47294848838E+03 -0.17744468663E+03 -0.21582236317E+03  0.54931428338E+03  0.25500000920E-02 0.  1.
</event>
<event>
 5   0  0.8502300E-04  0.1362829E+04  0.7818609E-02  0.8981173E-01
       -1   -1    0    0    0  501  0.00000000000E+00  0.00000000000E+00  0.57270820600E+03  0.57270820603E+03  0.50400001928E-02 0. -1.
        1   -1    0    0  501    0  0.00000000000E+00  0.00000000000E+00 -0.81075395026E+03  0.81075395028E+03  0.50400001928E-02 0.  1.
    10030    2    1    2    0    0  0.00000000000E+00  0.00000000000E+00 -0.23804574426E+03  0.13834621563E+04  0.13628285885E+04 0.  0.
        4    1    3    3  502    0 -0.44650421198E+03 -0.22375076955E+03 -0.58960734841E+03  0.77270230775E+03  0.12699999809E+01 0.  1.
       -4    1    3    3    0  502  0.44650421198E+03  0.22375076955E+03  0.35156160416E+03  0.61075984856E+03  0.12699999809E+01 0. -1.
</event>
<event>
 5   0  0.6048000E-04  0.1398045E+04  0.7818609E-02  0.8955235E-01
        3   -1    0    0  501    0  0.00000000000E+00  0.00000000000E+00  0.25074763185E+04  0.25074763205E+04  0.10100000352E+00 0. -1.
       -3   -1    0    0    0  501  0.00000000000E+00  0.00000000000E+00 -0.19487027120E+03  0.19487029737E+03  0.10100000352E+00 0.  1.
    10030    2    1    2    0    0  0.00000000000E+00  0.00000000000E+00  0.23126060473E+04  0.27023466179E+04  0.13980452472E+04 0.  0.
        4    1    3    3  502    0  0.31785711867E+03 -0.34592911409E+03  0.15577043229E+03  0.49494054222E+03  0.12699999809E+01 0.  1.
       -4    1    3    3    0  502 -0.31785711867E+03  0.34592911409E+03  0.21568356150E+04  0.22074060757E+04  0.12699999809E+01 0. -1.
</event>
<event>
 5   0  0.1648213E-03  0.1376294E+04  0.7818609E-02  0.8971159E-01
        2   -1    0    0  501    0  0.00000000000E+00  0.00000000000E+00  0.62062719503E+03  0.62062719503E+03  0.25500000920E-02 0.  1.
       -2   -1    0    0    0  501  0.00000000000E+00  0.00000000000E+00 -0.76301225620E+03  0.76301225621E+03  0.25500000920E-02 0. -1.
    10030    2    1    2    0    0  0.00000000000E+00  0.00000000000E+00 -0.14238506117E+03  0.13836394512E+04  0.13762938005E+04 0.  0.
        4    1    3    3  502    0  0.59749311232E+03  0.14066836101E+03 -0.38391373185E+03  0.72400067228E+03  0.12699999809E+01 0. -1.
       -4    1    3    3    0  502 -0.59749311232E+03 -0.14066836101E+03  0.24152867067E+03  0.65963877896E+03  0.12699999809E+01 0.  1.
</event>
<event>
 5   0  0.8609148E-04  0.1411660E+04  0.7818609E-02  0.8945421E-01
       -1   -1    0    0    0  501  0.00000000000E+00  0.00000000000E+00  0.10214233888E+04  0.10214233889E+04  0.50400001928E-02 0. -1.
        1   -1    0    0  501    0  0.00000000000E+00  0.00000000000E+00 -0.48774691658E+03  0.48774691661E+03  0.50400001928E-02 0.  1.
    10030    2    1    2    0    0  0.00000000000E+00  0.00000000000E+00  0.53367647226E+03  0.15091703055E+04  0.14116601694E+04 0.  0.
        5    1    3    3  502    0 -0.55043944969E+03  0.16121322083E+03 -0.17291516204E+03  0.59907848702E+03  0.46999998093E+01 0.  1.
       -5    1    3    3    0  502  0.55043944969E+03 -0.16121322083E+03  0.70659163430E+03  0.91009181844E+03  0.46999998093E+01 0. -1.
</event>
<event>
 5   0  0.1578965E-03  0.1364832E+04  0.7818609E-02  0.8979676E-01
        2   -1    0    0  501    0  0.00000000000E+00  0.00000000000E+00  0.16062676528E+04  0.16062676528E+04  0.25500000920E-02 0.  1.
       -2   -1    0    0    0  501  0.00000000000E+00  0.00000000000E+00 -0.28992153763E+03  0.28992153764E+03  0.25500000920E-02 0. -1.
    10030    2    1    2    0    0  0.00000000000E+00  0.00000000000E+00  0.13163461151E+04  0.18961891904E+04  0.13648319864E+04 0.  0.
        2    1    3    3  502    0  0.52969195478E+03  0.42153050593E+03  0.53841673798E+03  0.86495902685E+03  0.25500000920E-02 0. -1.
       -2    1    3    3    0  502 -0.52969195478E+03 -0.42153050593E+03  0.77792937716E+03  0.10312301636E+04  0.25500000920E-02 0.  1.
</event>
<event>
 5   0  0.8502300E-04  0.1396554E+04  0.7818609E-02  0.8956317E-01
        1   -1    0    0  501    0  0.00000000000E+00  0.00000000000E+00  0.14222800005E+04  0.14222800005E+04  0.50400001928E-02 0.  1.
       -1   -1    0    0    0  501  0.00000000000E+00  0.00000000000E+00 -0.34282346704E+03  0.34282346708E+03  0.50400001928E-02 0. -1.
    10030    2    1    2    0    0  0.00000000000E+00  0.00000000000E+00  0.10794565334E+04  0.17651034676E+04  0.13965542752E+04 0.  0.
        4    1    3    3  502    0 -0.52757241616E+03 -0.21788720924E+03  0.31361375063E+02  0.57165779886E+03  0.12699999809E+01 0. -1.
       -4    1    3    3    0  502  0.52757241616E+03  0.21788720924E+03  0.10480951584E+04  0.11934456687E+04  0.12699999809E+01 0.  1.
</event>
<event>
 5   0  0.9639548E-04  0.1411056E+04  0.7818609E-02  0.8945854E-01
       -1   -1    0    0    0  501  0.00000000000E+00  0.00000000000E+00  0.31379386870E+03  0.31379386874E+03  0.50400001928E-02 0. -1.
        1   -1    0    0  501    0  0.00000000000E+00  0.00000000000E+00 -0.15862951405E+04  0.15862951405E+04  0.50400001928E-02 0.  1.
    10030    2    1    2    0    0  0.00000000000E+00  0.00000000000E+00 -0.12725012718E+04  0.19000890092E+04  0.14110559012E+04 0.  0.
        1    1    3    3  502    0  0.15397112589E+03 -0.60430181253E+03 -0.10805826175E+04  0.12476163599E+04  0.50400001928E-02 0.  1.
       -1    1    3    3    0  502 -0.15397112589E+03  0.60430181253E+03 -0.19191865430E+03  0.65247264933E+03  0.50400001928E-02 0. -1.
</event>
<event>
 5   0  0.1578965E-03  0.1421064E+04  0.7818609E-02  0.8938711E-01
        2   -1    0    0  501    0  0.00000000000E+00  0.00000000000E+00  0.11700640072E+04  0.11700640072E+04  0.25500000920E-02 0. -1.
       -2   -1    0    0    0  501  0.00000000000E+00  0.00000000000E+00 -0.43147679934E+03  0.43147679935E+03  0.25500000920E-02 0.  1.
    10030    2    1    2    0    0  0.00000000000E+00  0.00000000000E+00  0.73858720781E+03  0.16015408065E+04  0.14210636479E+04 0.  0.
        2    1    3    3  502    0 -0.20309923162E+03 -0.37793056389E+03 -0.26900590173E+03  0.50640397331E+03  0.25500000920E-02 0.  1.
       -2    1    3    3    0  502  0.20309923162E+03  0.37793056389E+03  0.10075931095E+04  0.10951368332E+04  0.25500000920E-02 0. -1.
</event>
<event>
 5   0  0.1648463E-03  0.1571908E+04  0.7818609E-02  0.8837994E-01
       -2   -1    0    0    0  501  0.00000000000E+00  0.00000000000E+00  0.67376678445E+03  0.67376678446E+03  0.25500000920E-02 0. -1.
        2   -1    0    0  501    0  0.00000000000E+00  0.00000000000E+00 -0.91682155514E+03  0.91682155514E+03  0.25500000920E-02 0.  1.
    10030    2    1    2    0    0  0.00000000000E+00  0.00000000000E+00 -0.24305477069E+03  0.15905883396E+04  0.15719082812E+04 0.  0.
        1    1    3    3  502    0  0.58737303079E+03  0.46117677104E+03  0.12640026440E+03  0.75740881848E+03  0.50400001928E-02 0. -1.
       -1    1    3    3    0  502 -0.58737303079E+03 -0.46117677104E+03 -0.36945503509E+03  0.83317952112E+03  0.50400001928E-02 0.  1.
</event>
<event>
 5   0  0.9007180E-04  0.1403044E+04  0.7818609E-02  0.8951618E-01
       -1   -1    0    0    0  501  0.00000000000E+00  0.00000000000E+00  0.65752815455E+03  0.65752815457E+03  0.50400001928E-02 0.  1.
        1   -1    0    0  501    0  0.00000000000E+00  0.00000000000E+00 -0.74845984592E+03  0.74845984594E+03  0.50400001928E-02 0. -1.
    10030    2    1    2    0    0  0.00000000000E+00  0.00000000000E+00 -0.90931691373E+02  0.14059880005E+04  0.14030444345E+04 0.  0.
        2    1    3    3  502    0 -0.37520315373E+03 -0.12312219258E+03 -0.62650723180E+03  0.74057261115E+03  0.25500000920E-02 0. -1.
       -2    1    3    3    0  502  0.37520315373E+03  0.12312219258E+03  0.53557554043E+03  0.66541538936E+03  0.25500000920E-02 0.  1.
</event>
<event>
 5   0  0.9639548E-04  0.1400533E+04  0.7818609E-02  0.8953433E-01
       -1   -1    0    0    0  501  0.00000000000E+00  0.00000000000E+00  0.90492313929E+03  0.90492313930E+03  0.50400001928E-02 0.  1.
        1   -1    0    0  501    0  0.00000000000E+00  0.00000000000E+00 -0.54189500687E+03  0.54189500690E+03  0.50400001928E-02 0. -1.
    10030    2    1    2    0    0  0.00000000000E+00  0.00000000000E+00  0.36302813241E+03  0.14468181462E+04  0.14005332282E+04 0.  0.
        1    1    3    3  502    0  0.19125288128E+03 -0.32157934026E+03  0.79300731689E+03  0.87684179950E+03  0.50400001928E-02 0.  1.
       -1    1    3    3    0  502 -0.19125288128E+03  0.32157934026E+03 -0.42997918448E+03  0.56997634670E+03  0.50400001928E-02 0. -1.
</event>
<event>
 5   0  0.8502300E-04  0.1382411E+04  0.7818609E-02  0.8966650E-01
       -1   -1    0    0    0  501  0.00000000000E+00  0.00000000000E+00  0.19384694535E+03  0.19384694542E+03  0.50400001928E-02 0. -1.
        1   -1    0    0  501    0  0.00000000000E+00  0.00000000000E+00 -0.24646513438E+04  0.24646513438E+04  0.50400001928E-02 0.  1.
    10030    2    1    2    0    0  0.00000000000E+00  0.00000000000E+00 -0.22708043985E+04  0.26584982892E+04  0.13824111320E+04 0.  0.
        4    1    3    3  502    0 -0.38243697204E+03  0.40571139702E+03 -0.34974660853E+03  0.65816721153E+03  0.12699999809E+01 0. -1.
       -4    1    3    3    0  502  0.38243697204E+03 -0.40571139702E+03 -0.19210577899E+04  0.20003310777E+04  0.12699999809E+01 0.  1.
</event>
<event>
 5   0  0.1648213E-03  0.1387966E+04  0.7818609E-02  0.8962576E-01
        2   -1    0    0  501    0  0.00000000000E+00  0.00000000000E+00  0.45979157696E+03  0.45979157697E+03  0.25500000920E-02 0. -1.
       -2   -1    0    0    0  501  0.00000000000E+00  0.00000000000E+00 -0.10474579387E+04  0.10474579387E+04  0.25500000920E-02 0.  1.
    10030    2    1    2    0    0  0.00000000000E+00  0.00000000000E+00 -0.58766636170E+03  0.15072495156E+04  0.13879659037E+04 0.  0.
        4    1    3    3  502    0 -0.54683021637E+03  0.21722754950E+03  0.10575726470E+03  0.59782715373E+03  0.12699999809E+01 0. -1.
       -4    1    3    3    0  502  0.54683021637E+03 -0.21722754950E+03 -0.69342362640E+03  0.90942236191E+03  0.12699999809E+01 0.  1.
</event>
<event>
 5   0  0.8673728E-04  0.1517703E+04  0.7818609E-02  0.8872765E-01
        1   -1    0    0  501    0  0.00000000000E+00  0.00000000000E+00  0.96575991718E+03  0.96575991719E+03  0.50400001928E-02 0. -1.
       -1   -1    0    0    0  501  0.00000000000E+00  0.00000000000E+00 -0.59627209829E+03  0.59627209832E+03  0.50400001928E-02 0.  1.
    10030    2    1    2    0    0  0.00000000000E+00  0.00000000000E+00  0.36948781889E+03  0.15620320155E+04  0.15177031229E+04 0.  0.
        3    1    3    3  502    0  0.37835475731E+02  0.73580134846E+03 -0.22791479822E+01  0.73677700312E+03  0.10100000352E+00 0.  1.
       -3    1    3    3    0  502 -0.37835475731E+02 -0.73580134846E+03  0.37176696687E+03  0.82525501239E+03  0.10100000352E+00 0. -1.
</event>
<event>
 5   0  0.9639548E-04  0.1429724E+04  0.7818609E-02  0.8932580E-01
       -1   -1    0    0    0  501  0.00000000000E+00  0.00000000000E+00  0.58047911058E+03  0.58047911061E+03  0.50400001928E-02 0.  1.
        1   -1    0    0  501    0  0.00000000000E+00  0.00000000000E+00 -0.88035454247E+03  0.88035454248E+03  0.50400001928E-02 0. -1.
    10030    2    1    2    0    0  0.00000000000E+00  0.00000000000E+00 -0.29987543188E+03  0.14608336531E+04  0.14297236402E+04 0.  0.
        1    1    3    3  502    0  0.34950289716E+01 -0.21627183853E+03 -0.84611642950E+03  0.87332624813E+03  0.50400001928E-02 0. -1.
       -1    1    3    3    0  502 -0.34950289716E+01  0.21627183853E+03  0.54624099762E+03  0.58750740496E+03  0.50400001928E-02 0.  1.
</event>
<event>
 5   0  0.9639548E-04  0.1417231E+04  0.7818609E-02  0.8941439E-01
       -1   -1    0    0    0  501  0.00000000000E+00  0.00000000000E+00  0.89304418206E+03  0.89304418207E+03  0.50400001928E-02 0. -1.
        1   -1    0    0  501    0  0.00000000000E+00  0.00000000000E+00 -0.56227443106E+03  0.56227443108E+03  0.50400001928E-02 0.  1.
    10030    2    1    2    0    0  0.00000000000E+00  0.00000000000E+00  0.33076975100E+03  0.14553186132E+04  0.14172309754E+04 0.  0.
        1    1    3    3  502    0  0.44345494264E+03  0.52972270467E+03  0.32734967418E+03  0.76447121542E+03  0.50400001928E-02 0. -1.
       -1    1    3    3    0  502 -0.44345494264E+03 -0.52972270467E+03  0.34200768265E+01  0.69084739773E+03  0.50400001928E-02 0.  1.
</event>
<event>
 5   0  0.1648213E-03  0.1397980E+04  0.7818609E-02  0.8955282E-01
        2   -1    0    0  501    0  0.00000000000E+00  0.00000000000E+00  0.18552840315E+04  0.18552840315E+04  0.25500000920E-02 0. -1.
       -2   -1    0    0    0  501  0.00000000000E+00  0.00000000000E+00 -0.26334892753E+03  0.26334892754E+03  0.25500000920E-02 0.  1.
    10030    2    1    2    0    0  0.00000000000E+00  0.00000000000E+00  0.15919351040E+04  0.21186329590E+04  0.13979800570E+04 0.  0.
        4    1    3    3  502    0 -0.53811869256E+03  0.36092265860E+02  0.14698284236E+04  0.15656537250E+04  0.12699999809E+01 0. -1.
       -4    1    3    3    0  502  0.53811869256E+03 -0.36092265860E+02  0.12210668033E+03  0.55297923398E+03  0.12699999809E+01 0.  1.
</event>
<event>
 5   0  0.1706986E-03  0.1420905E+04  0.7818609E-02  0.8938824E-01
       -2   -1    0    0    0  501  0.00000000000E+00  0.00000000000E+00  0.37308267685E+03  0.37308267686E+03  0.25500000920E-02 0.  1.
        2   -1    0    0  501    0  0.00000000000E+00  0.00000000000E+00 -0.13528971536E+04  0.13528971536E+04  0.25500000920E-02 0. -1.
    10030    2    1    2    0    0  0.00000000000E+00  0.00000000000E+00 -0.97981447671E+03  0.17259798304E+04  0.14209046295E+04 0.  0.
        3    1    3    3  502    0 -0.67086073923E+02 -0.36749860034E+03 -0.12239616859E+04  0.12797023018E+04  0.10100000352E+00 0. -1.
       -3    1    3    3    0  502  0.67086073923E+02  0.36749860034E+03  0.24414720919E+03  0.44627752859E+03  0.10100000352E+00 0.  1.
</event>
<event>
 5   0  0.1605214E-03  0.1407890E+04  0.7818609E-02  0.8948127E-01
       -2   -1    0    0    0  501  0.00000000000E+00  0.00000000000E+00  0.37621782046E+03  0.37621782046E+03  0.25500000920E-02 0.  1.
        2   -1    0    0  501    0  0.00000000000E+00  0.00000000000E+00 -0.13171579817E+04  0.13171579817E+04  0.25500000920E-02 0. -1.
    10030    2    1    2    0    0  0.00000000000E+00  0.00000000000E+00 -0.94094016129E+03  0.16933758022E+04  0.14078896336E+04 0.  0.
        5    1    3    3  502    0 -0.12966278599E+03 -0.71247210560E+02  0.35728764927E+03  0.38673654779E+03  0.46999998093E+01 0.  1.
       -5    1    3    3    0  502  0.12966278599E+03  0.71247210560E+02 -0.12982278106E+04  0.13066392544E+04  0.46999998093E+01 0. -1.
</event>
<event>
 5   0  0.1706986E-03  0.1400017E+04  0.7818609E-02  0.8953807E-01
       -2   -1    0    0    0  501  0.00000000000E+00  0.00000000000E+00  0.38807644620E+03  0.38807644620E+03  0.25500000920E-02 0. -1.
        2   -1    0    0  501    0  0.00000000000E+00  0.00000000000E+00 -0.12626677605E+04  0.12626677605E+04  0.25500000920E-02 0.  1.
    10030    2    1    2    0    0  0.00000000000E+00  0.00000000000E+00 -0.87459131431E+03  0.16507442067E+04  0.14000165960E+04 0.  0.
        3    1    3    3  502    0 -0.21625306081E+03 -0.35911359699E+02  0.34656056012E+03  0.41007224254E+03  0.10100000352E+00 0. -1.
       -3    1    3    3    0  502  0.21625306081E+03  0.35911359699E+02 -0.12211518744E+04  0.12406719642E+04  0.10100000352E+00 0.  1.
</event>
<event>
 5   0  0.8609148E-04  0.1406784E+04  0.7818609E-02  0.8948923E-01
       -1   -1    0    0    0  501  0.00000000000E+00  0.00000000000E+00  0.33805521677E+03  0.33805521681E+03  0.50400001928E-02 0.  1.
        1   -1    0    0  501    0  0.00000000000E+00  0.00000000000E+00 -0.14635480972E+04  0.14635480972E+04  0.50400001928E-02 0. -1.
    10030    2    1    2    0    0  0.00000000000E+00  0.00000000000E+00 -0.11254928805E+04  0.18016033140E+04  0.14067836640E+04 0.  0.
        5    1    3    3  502    0  0.13949767595E+03  0.24142729069E+03  0.26423416022E+03  0.38417251296E+03  0.46999998093E+01 0.  1.
       -5    1    3    3    0  502 -0.13949767595E+03 -0.24142729069E+03 -0.13897270407E+04  0.14174308011E+04  0.46999998093E+01 0. -1.
</event>
<event>
 5   0  0.1605214E-03  0.1431778E+04  0.7818609E-02  0.8931132E-01
        2   -1    0    0  501    0  0.00000000000E+00  0.00000000000E+00  0.16442151854E+04  0.16442151854E+04  0.25500000920E-02 0.  1.
       -2   -1    0    0    0  501  0.00000000000E+00  0.00000000000E+00 -0.31169689684E+03  0.31169689685E+03  0.25500000920E-02 0. -1.
    10030    2    1    2    0    0  0.00000000000E+00  0.00000000000E+00  0.13325182886E+04  0.19559120823E+04  0.14317775959E+04 0.  0.
        5    1    3    3  502    0 -0.46678922846E+03 -0.50864790861E+03  0.40757029285E+03  0.80171722717E+03  0.46999998093E+01 0.  1.
       -5    1    3    3    0  502  0.46678922846E+03  0.50864790861E+03  0.92494799574E+03  0.11541948551E+04  0.46999998093E+01 0. -1.
</event>
<event>
 5   0  0.1578965E-03  0.1395224E+04  0.7818609E-02  0.8957283E-01
        2   -1    0    0  501    0  0.00000000000E+00  0.00000000000E+00  0.66598792109E+03  0.66598792110E+03  0.25500000920E-02 0. -1.
       -2   -1    0    0    0  501  0.00000000000E+00  0.00000000000E+00 -0.73073813277E+03  0.73073813278E+03  0.25500000920E-02 0.  1.
    10030    2    1    2    0    0  0.00000000000E+00  0.00000000000E+00 -0.64750211680E+02  0.13967260539E+04  0.13952243833E+04 0.  0.
        2    1    3    3  502    0 -0.66141110071E+03  0.69599679146E+02  0.17845548411E+03  0.68858922392E+03  0.25500000920E-02 0. -1.
       -2    1    3    3    0  502  0.66141110071E+03 -0.69599679146E+02 -0.24320569579E+03  0.70813682996E+03  0.25500000920E-02 0.  1.
</event>
<event>
 5   0  0.1605214E-03  0.1333238E+04  0.7818609E-02  0.9003615E-01
        2   -1    0    0  501    0  0.00000000000E+00  0.00000000000E+00  0.72954441758E+03  0.72954441758E+03  0.25500000920E-02 0.  1.
       -2   -1    0    0    0  501  0.00000000000E+00  0.00000000000E+00 -0.60912086967E+03  0.60912086968E+03  0.25500000920E-02 0. -1.
    10030    2    1    2    0    0  0.00000000000E+00  0.00000000000E+00  0.12042354791E+03  0.13386652873E+04  0.13332377584E+04 0.  0.
        5    1    3    3  502    0  0.11202165838E+03 -0.38668735723E+03 -0.47325393709E+03  0.62134317664E+03  0.46999998093E+01 0. -1.
       -5    1    3    3    0  502 -0.11202165838E+03  0.38668735723E+03  0.59367748500E+03  0.71732211062E+03  0.46999998093E+01 0.  1.
</event>
<event>
 5   0  0.9639548E-04  0.1392387E+04  0.7818609E-02  0.8959347E-01
       -1   -1    0    0    0  501  0.00000000000E+00  0.00000000000E+00  0.14306107100E+04  0.14306107100E+04  0.50400001928E-02 0. -1.
        1   -1    0    0  501    0  0.00000000000E+00  0.00000000000E+00 -0.33879635532E+03  0.33879635536E+03  0.50400001928E-02 0.  1.
    10030    2    1    2    0    0  0.00000000000E+00  0.00000000000E+00  0.10918143547E+04  0.17694070654E+04  0.13923874381E+04 0.  0.
        1    1    3    3  502    0 -0.20653270129E+03 -0.44071044647E+03 -0.86682392833E+02  0.49436352170E+03  0.50400001928E-02 0.  1.
       -1    1    3    3    0  502  0.20653270129E+03  0.44071044647E+03  0.11784967475E+04  0.12750435437E+04  0.50400001928E-02 0. -1.
</event>
<event>
 5   0  0.1578965E-03  0.1413164E+04  0.7818609E-02  0.8944344E-01
        2   -1    0    0  501    0  0.00000000000E+00  0.00000000000E+00  0.10540279649E+04  0.10540279649E+04  0.25500000920E-02 0. -1.
       -2   -1    0    0    0  501  0.00000000000E+00  0.00000000000E+00 -0.47366714072E+03  0.47366714073E+03  0.25500000920E-02 0.  1.
    10030    2    1    2    0    0  0.00000000000E+00  0.00000000000E+00  0.58036082415E+03  0.15276951056E+04  0.14131644099E+04 0.  0.
        2    1    3    3  502    0  0.20599104043E+03  0.54083055022E+03  0.72840862635E+03  0.93032742609E+03  0.25500000920E-02 0. -1.
       -2    1    3    3    0  502 -0.20599104043E+03 -0.54083055022E+03 -0.14804780220E+03  0.59736767951E+03  0.25500000920E-02 0.  1.
</event>
<event>
 5   0  0.8609148E-04  0.1388701E+04  0.7818609E-02  0.8962038E-01
       -1   -1    0    0    0  501  0.00000000000E+00  0.00000000000E+00  0.36588733875E+03  0.36588733878E+03  0.50400001928E-02 0. -1.
        1   -1    0    0  501    0  0.00000000000E+00  0.00000000000E+00 -0.13176814464E+04  0.13176814465E+04  0.50400001928E-02 0.  1.
    10030    2    1    2    0    0  0.00000000000E+00  0.00000000000E+00 -0.95179410770E+03  0.16835687852E+04  0.13887014910E+04 0.  0.
        5    1    3    3  502    0 -0.37615094080E+03 -0.39897661006E+03 -0.99228407617E+03  0.11337202668E+04  0.46999998093E+01 0.  1.
       -5    1    3    3    0  502  0.37615094080E+03  0.39897661006E+03  0.40489968475E+02  0.54984851839E+03  0.46999998093E+01 0. -1.
</event>
<event>
 5   0  0.8673728E-04  0.1431487E+04  0.7818609E-02  0.8931337E-01
        1   -1    0    0  501    0  0.00000000000E+00  0.00000000000E+00  0.10849672241E+04  0.10849672241E+04  0.50400001928E-02 0.  1.
       -1   -1    0    0    0  501  0.00000000000E+00  0.00000000000E+00 -0.47216975182E+03  0.47216975185E+03  0.50400001928E-02 0. -1.
    10030    2    1    2    0    0  0.00000000000E+00  0.00000000000E+00  0.61279747231E+03  0.15571369760E+04  0.14314869262E+04 0.  0.
        3    1    3    3  502    0 -0.51860383562E+03  0.46199377727E+03  0.11830310766E+03  0.70454511853E+03  0.10100000352E+00 0. -1.
       -3    1    3    3    0  502  0.51860383562E+03 -0.46199377727E+03  0.49449436465E+03  0.85259185747E+03  0.10100000352E+00 0.  1.
</event>
<event>
 5   0  0.1648213E-03  0.1386102E+04  0.7818609E-02  0.8963940E-01
       -2   -1    0    0    0  501  0.00000000000E+00  0.00000000000E+00  0.74156046499E+03  0.74156046500E+03  0.25500000920E-02 0.  1.
        2   -1    0    0  501    0  0.00000000000E+00  0.00000000000E+00 -0.64771524216E+03  0.64771524216E+03  0.25500000920E-02 0. -1.
    10030    2    1    2    0    0  0.00000000000E+00  0.00000000000E+00  0.93845222834E+02  0.13892757072E+04  0.13861024726E+04 0.  0.
        4    1    3    3  502    0 -0.62413562535E+03 -0.23677033585E+03 -0.13981799094E+03  0.68202357310E+03  0.12699999809E+01 0. -1.
       -4    1    3    3    0  502  0.62413562535E+03  0.23677033585E+03  0.23366321378E+03  0.70725213406E+03  0.12699999809E+01 0.  1.
</event>
<event>
 5   0  0.8609148E-04  0.1402796E+04  0.7818609E-02  0.8951797E-01
        1   -1    0    0  501    0  0.00000000000E+00  0.00000000000E+00  0.10867642269E+04  0.10867642269E+04  0.50400001928E-02 0. -1.
       -1   -1    0    0    0  501  0.00000000000E+00  0.00000000000E+00 -0.45268238387E+03  0.45268238390E+03  0.50400001928E-02 0.  1.
    10030    2    1    2    0    0  0.00000000000E+00  0.00000000000E+00  0.63408184305E+03  0.15394466108E+04  0.14027958098E+04 0.  0.
        5    1    3    3  502    0 -0.46129351172E+03  0.37597069552E+03 -0.90321545919E+02  0.60193499608E+03  0.46999998093E+01 0.  1.
       -5    1    3    3    0  502  0.46129351172E+03 -0.37597069552E+03  0.72440338897E+03  0.93751161475E+03  0.46999998093E+01 0. -1.
</event>
<event>
 5   0  0.9639548E-04  0.1423396E+04  0.7818609E-02  0.8937055E-01
       -1   -1    0    0    0  501  0.00000000000E+00  0.00000000000E+00  0.35285143497E+03  0.35285143500E+03  0.50400001928E-02 0. -1.
        1   -1    0    0  501    0  0.00000000000E+00  0.00000000000E+00 -0.14354882949E+04  0.14354882950E+04  0.50400001928E-02 0.  1.
    10030    2    1    2    0    0  0.00000000000E+00  0.00000000000E+00 -0.10826368600E+04  0.17883397300E+04  0.14233960865E+04 0.  0.
        1    1    3    3  502    0  0.61219089603E+03 -0.33908545364E+03 -0.70395883243E+03  0.99263018080E+03  0.50400001928E-02 0.  1.
       -1    1    3    3    0  502 -0.61219089603E+03  0.33908545364E+03 -0.37867802755E+03  0.79570954916E+03  0.50400001928E-02 0. -1.
</event>
<event>
 5   0  0.8609148E-04  0.1409304E+04  0.7818609E-02  0.8947111E-01
        1   -1    0    0  501    0  0.00000000000E+00  0.00000000000E+00  0.16890417683E+04  0.16890417684E+04  0.50400001928E-02 0.  1.
       -1   -1    0    0    0  501  0.00000000000E+00  0.00000000000E+00 -0.29397411865E+03  0.29397411870E+03  0.50400001928E-02 0. -1.
    10030    2    1    2    0    0  0.00000000000E+00  0.00000000000E+00  0.13950676497E+04  0.19830158871E+04  0.14093041762E+04 0.  0.
        5    1    3    3  502    0  0.19251398796E+03  0.28465178723E+03  0.15631211837E+04  0.16004556228E+04  0.46999998093E+01 0.  1.
       -5    1    3    3    0  502 -0.19251398796E+03 -0.28465178723E+03 -0.16805353399E+03  0.38256026429E+03  0.46999998093E+01 0. -1.
</event>
<event>
 5   0  0.1605214E-03  0.1419179E+04  0.7818609E-02  0.8940051E-01
        2   -1    0    0  501    0  0.00000000000E+00  0.00000000000E+00  0.66582464504E+03  0.66582464505E+03  0.25500000920E-02 0.  1.
       -2   -1    0    0    0  501  0.00000000000E+00  0.00000000000E+00 -0.75623156476E+03  0.75623156477E+03  0.25500000920E-02 0. -1.
    10030    2    1    2    0    0  0.00000000000E+00  0.00000000000E+00 -0.90406919724E+02  0.14220562098E+04  0.14191794998E+04 0.  0.
        5    1    3    3  502    0 -0.70540378594E+03 -0.66844759144E+02 -0.72743857326E+01  0.70861677212E+03  0.46999998093E+01 0.  1.
       -5    1    3    3    0  502  0.70540378594E+03  0.66844759144E+02 -0.83132533991E+02  0.71343943769E+03  0.46999998093E+01 0. -1.
</event>
<event>
 5   0  0.8502300E-04  0.1391560E+04  0.7818609E-02  0.8959951E-01
       -1   -1    0    0    0  501  0.00000000000E+00  0.00000000000E+00  0.34193834633E+03  0.34193834637E+03  0.50400001928E-02 0.  1.
        1   -1    0    0  501    0  0.00000000000E+00  0.00000000000E+00 -0.14157802739E+04  0.14157802740E+04  0.50400001928E-02 0. -1.
    10030    2    1    2    0    0  0.00000000000E+00  0.00000000000E+00 -0.10738419276E+04  0.17577186203E+04  0.13915596512E+04 0.  0.
        4    1    3    3  502    0  0.20300165543E+03  0.63107221447E+03 -0.27002654750E+03  0.71580567281E+03  0.12699999809E+01 0.  1.
       -4    1    3    3    0  502 -0.20300165543E+03 -0.63107221447E+03 -0.80381538012E+03  0.10419129475E+04  0.12699999809E+01 0. -1.
</event>
<event>
 5   0  0.6048000E-04  0.1299175E+04  0.7818609E-02  0.9030220E-01
        3   -1    0    0  501    0  0.00000000000E+00  0.00000000000E+00  0.42025175412E+03  0.42025176626E+03  0.10100000352E+00 0.  1.
       -3   -1    0    0    0  501  0.00000000000E+00  0.00000000000E+00 -0.10040738880E+04  0.10040738930E+04  0.10100000352E+00 0. -1.
    10030    2    1    2    0    0  0.00000000000E+00  0.00000000000E+00 -0.58382213384E+03  0.14243256593E+04  0.12991748534E+04 0.  0.
        2    1    3    3  502    0  0.12877873855E+03 -0.63651725902E+03 -0.30837941839E+03  0.71891310339E+03  0.25500000920E-02 0. -1.
       -2    1    3    3    0  502 -0.12877873855E+03  0.63651725902E+03 -0.27544271545E+03  0.70541255591E+03  0.25500000920E-02 0.  1.
</event>
<event>
 5   0  0.1605214E-03  0.1416144E+04  0.7818609E-02  0.8942215E-01
        2   -1    0    0  501    0  0.00000000000E+00  0.00000000000E+00  0.48720681064E+03  0.48720681065E+03  0.25500000920E-02 0. -1.
       -2   -1    0    0    0  501  0.00000000000E+00  0.00000000000E+00 -0.10290615023E+04  0.10290615023E+04  0.25500000920E-02 0.  1.
    10030    2    1    2    0    0  0.00000000000E+00  0.00000000000E+00 -0.54185469165E+03  0.15162683130E+04  0.14161437392E+04 0.  0.
        5    1    3    3  502    0 -0.12445958838E+03 -0.42443305116E+03  0.32107523598E+03  0.54657570493E+03  0.46999998093E+01 0. -1.
       -5    1    3    3    0  502  0.12445958838E+03  0.42443305116E+03 -0.86292992763E+03  0.96969260803E+03  0.46999998093E+01 0.  1.
</event>
<event>
 5   0  0.8609148E-04  0.1413761E+04  0.7818609E-02  0.8943918E-01
        1   -1    0    0  501    0  0.00000000000E+00  0.00000000000E+00  0.52598198146E+03  0.52598198149E+03  0.50400001928E-02 0. -1.
       -1   -1    0    0    0  501  0.00000000000E+00  0.00000000000E+00 -0.94999399513E+03  0.94999399514E+03  0.50400001928E-02 0.  1.
    10030    2    1    2    0    0  0.00000000000E+00  0.00000000000E+00 -0.42401201366E+03  0.14759759766E+04  0.14137605511E+04 0.  0.
        5    1    3    3  502    0 -0.12895204449E+03 -0.69497675091E+03 -0.20571419629E+03  0.73618050411E+03  0.46999998093E+01 0.  1.
       -5    1    3    3    0  502  0.12895204449E+03  0.69497675091E+03 -0.21829781738E+03  0.73979547251E+03  0.46999998093E+01 0. -1.
</event>
<event>
 5   0  0.1648213E-03  0.1393301E+04  0.7818609E-02  0.8958682E-01
        2   -1    0    0  501    0  0.00000000000E+00  0.00000000000E+00  0.84653721282E+03  0.84653721282E+03  0.25500000920E-02 0. -1.
       -2   -1    0    0    0  501  0.00000000000E+00  0.00000000000E+00 -0.57330256905E+03  0.57330256905E+03  0.25500000920E-02 0.  1.
    10030    2    1    2    0    0  0.00000000000E+00  0.00000000000E+00  0.27323464377E+03  0.14198397819E+04  0.13933010571E+04 0.  0.
        4    1    3    3  502    0 -0.66286229054E+03 -0.19217770380E+03  0.23330155909E+03  0.72852585159E+03  0.12699999809E+01 0.  1.
       -4    1    3    3    0  502  0.66286229054E+03  0.19217770380E+03  0.39933084677E+02  0.69131393029E+03  0.12699999809E+01 0. -1.
</event>
<event>
 5   0  0.8502300E-04  0.1383701E+04  0.7818609E-02  0.8965702E-01
        1   -1    0    0  501    0  0.00000000000E+00  0.00000000000E+00  0.98732710926E+03  0.98732710928E+03  0.50400001928E-02 0.  1.
       -1   -1    0    0    0  501  0.00000000000E+00  0.00000000000E+00 -0.48480070031E+03  0.48480070034E+03  0.50400001928E-02 0. -1.
    10030    2    1    2    0    0  0.00000000000E+00  0.00000000000E+00  0.50252640895E+03  0.14721278096E+04  0.13837006527E+04 0.  0.
        4    1    3    3  502    0 -0.38312323309E+03 -0.25580537711E+03  0.80042381891E+03  0.92352569291E+03  0.12699999809E+01 0. -1.
       -4    1    3    3    0  502  0.38312323309E+03  0.25580537711E+03 -0.29789740996E+03  0.54860211670E+03  0.12699999809E+01 0.  1.
</event>
<event>
 5   0  0.9007180E-04  0.1391666E+04  0.7818609E-02  0.8959873E-01
       -1   -1    0    0    0  501  0.00000000000E+00  0.00000000000E+00  0.32945302971E+03  0.32945302975E+03  0.50400001928E-02 0.  1.
        1   -1    0    0  501    0  0.00000000000E+00  0.00000000000E+00 -0.14696597428E+04  0.14696597428E+04  0.50400001928E-02 0. -1.
    10030    2    1    2    0    0  0.00000000000E+00  0.00000000000E+00 -0.11402067130E+04  0.17991127725E+04  0.13916664183E+04 0.  0.
        2    1    3    3  502    0 -0.13282177709E+03  0.11179609416E+03 -0.14412116421E+04  0.14516304586E+04  0.25500000920E-02 0. -1.
       -2    1    3    3    0  502  0.13282177709E+03 -0.11179609416E+03  0.30100492905E+03  0.34748231388E+03  0.25500000920E-02 0.  1.
</event>
<event>
 5   0  0.8673728E-04  0.1400095E+04  0.7818609E-02  0.8953750E-01
        1   -1    0    0  501    0  0.00000000000E+00  0.00000000000E+00  0.66885572488E+03  0.66885572490E+03  0.50400001928E-02 0.  1.
       -1   -1    0    0    0  501  0.00000000000E+00  0.00000000000E+00 -0.73269379477E+03  0.73269379478E+03  0.50400001928E-02 0. -1.
    10030    2    1    2    0    0  0.00000000000E+00  0.00000000000E+00 -0.63838069884E+02  0.14015495197E+04  0.14000949100E+04 0.  0.
        3    1    3    3  502    0  0.54662821515E+03 -0.61350715746E+02 -0.46538174028E+03  0.72051820956E+03  0.10100000352E+00 0. -1.
       -3    1    3    3    0  502 -0.54662821515E+03  0.61350715746E+02  0.40154367040E+03  0.68103131012E+03  0.10100000352E+00 0.  1.
</event>
<event>
 5   0  0.1706986E-03  0.1410999E+04  0.7818609E-02  0.8945895E-01
        2   -1    0    0  501    0  0.00000000000E+00  0.00000000000E+00  0.20448600874E+04  0.20448600874E+04  0.25500000920E-02 0. -1.
       -2   -1    0    0    0  501  0.00000000000E+00  0.00000000000E+00 -0.24340524789E+03  0.24340524790E+03  0.25500000920E-02 0.  1.
    10030    2    1    2    0    0  0.00000000000E+00  0.00000000000E+00  0.18014548395E+04  0.22882653353E+04  0.14109991871E+04 0.  0.
        3    1    3    3  502    0  0.48402438345E+03  0.40624677371E+02  0.17305097618E+04  0.17973853271E+04  0.10100000352E+00 0. -1.
       -3    1    3    3    0  502 -0.48402438345E+03 -0.40624677371E+02  0.70945077701E+02  0.49088000819E+03  0.10100000352E+00 0.  1.
</event>
<event>
 5   0  0.9007180E-04  0.1481843E+04  0.7818609E-02  0.8896618E-01
        1   -1    0    0  501    0  0.00000000000E+00  0.00000000000E+00  0.67049595353E+03  0.67049595355E+03  0.50400001928E-02 0. -1.
       -1   -1    0    0    0  501  0.00000000000E+00  0.00000000000E+00 -0.81874419400E+03  0.81874419402E+03  0.50400001928E-02 0.  1.
    10030    2    1    2    0    0  0.00000000000E+00  0.00000000000E+00 -0.14824824047E+03  0.14892401476E+04  0.14818429999E+04 0.  0.
        2    1    3    3  502    0  0.54588570627E+03  0.34720761342E+03  0.28881618764E+03  0.70849073486E+03  0.25500000920E-02 0. -1.
       -2    1    3    3    0  502 -0.54588570627E+03 -0.34720761342E+03 -0.43706442811E+03  0.78074941271E+03  0.25500000920E-02 0.  1.
</event>
<event>
 5   0  0.9007180E-04  0.1365759E+04  0.7818609E-02  0.8978984E-01
       -1   -1    0    0    0  501  0.00000000000E+00  0.00000000000E+00  0.15545441177E+04  0.15545441177E+04  0.50400001928E-02 0. -1.
        1   -1    0    0  501    0  0.00000000000E+00  0.00000000000E+00 -0.29997490830E+03  0.29997490834E+03  0.50400001928E-02 0.  1.
    10030    2    1    2    0    0  0.00000000000E+00  0.00000000000E+00  0.12545692094E+04  0.18545190260E+04  0.13657587330E+04 0.  0.
        2    1    3    3  502    0  0.63919740224E+03 -0.17294883139E+03  0.85384755702E+03  0.10805277729E+04  0.25500000920E-02 0. -1.
       -2    1    3    3    0  502 -0.63919740224E+03  0.17294883139E+03  0.40072165237E+03  0.77399125318E+03  0.25500000920E-02 0.  1.
</event>
<event>
 5   0  0.1605214E-03  0.1388649E+04  0.7818609E-02  0.8962076E-01
       -2   -1    0    0    0  501  0.00000000000E+00  0.00000000000E+00  0.99425725723E+03  0.99425725723E+03  0.25500000920E-02 0.  1.
        2   -1    0    0  501    0  0.00000000000E+00  0.00000000000E+00 -0.48487099544E+03  0.48487099544E+03  0.25500000920E-02 0. -1.
    10030    2    1    2    0    0  0.00000000000E+00  0.00000000000E+00  0.50938626179E+03  0.14791282527E+04  0.13886489924E+04 0.  0.
        5    1    3    3  502    0  0.12133044455E+03  0.46996745867E+03  0.78350213526E+03  0.92167682782E+03  0.46999998093E+01 0.  1.
       -5    1    3    3    0  502 -0.12133044455E+03 -0.46996745867E+03 -0.27411587347E+03  0.55745142485E+03  0.46999998093E+01 0. -1.
</event>
<event>
 5   0  0.1648213E-03  0.1452580E+04  0.7818609E-02  0.8916614E-01
        2   -1    0    0  501    0  0.00000000000E+00  0.00000000000E+00  0.62535834060E+03  0.62535834061E+03  0.25500000920E-02 0.  1.
       -2   -1    0    0    0  501  0.00000000000E+00  0.00000000000E+00 -0.84351200208E+03  0.84351200208E+03  0.25500000920E-02 0. -1.
    10030    2    1    2    0    0  0.00000000000E+00  0.00000000000E+00 -0.21815366147E+03  0.14688703427E+04  0.14525801402E+04 0.  0.
        4    1    3    3  502    0 -0.34505960700E+02  0.62659536548E+03 -0.47880440456E+03  0.78934636509E+03  0.12699999809E+01 0. -1.
       -4    1    3    3    0  502  0.34505960700E+02 -0.62659536548E+03  0.26065074309E+03  0.67952397760E+03  0.12699999809E+01 0.  1.
</event>
<event>
 5   0  0.9007180E-04  0.1379194E+04  0.7818609E-02  0.8969019E-01
       -1   -1    0    0    0  501  0.00000000000E+00  0.00000000000E+00  0.25269118622E+03  0.25269118627E+03  0.50400001928E-02 0.  1.
        1   -1    0    0  501    0  0.00000000000E+00  0.00000000000E+00 -0.18819163665E+04  0.18819163665E+04  0.50400001928E-02 0. -1.
    10030    2    1    2    0    0  0.00000000000E+00  0.00000000000E+00 -0.16292251803E+04  0.21346075528E+04  0.13791935022E+04 0.  0.
        2    1    3    3  502    0  0.80383769331E+02  0.33657893536E+02  0.24413449750E+03  0.25922202269E+03  0.25500000920E-02 0.  1.
       -2    1    3    3    0  502 -0.80383769331E+02 -0.33657893536E+02 -0.18733596778E+04  0.18753855301E+04  0.25500000920E-02 0. -1.
</event>
<event>
 5   0  0.8673728E-04  0.1384336E+04  0.7818609E-02  0.8965236E-01
        1   -1    0    0  501    0  0.00000000000E+00  0.00000000000E+00  0.10138955460E+04  0.10138955460E+04  0.50400001928E-02 0. -1.
       -1   -1    0    0    0  501  0.00000000000E+00  0.00000000000E+00 -0.47253035678E+03  0.47253035681E+03  0.50400001928E-02 0.  1.
    10030    2    1    2    0    0  0.00000000000E+00  0.00000000000E+00  0.54136518920E+03  0.14864259028E+04  0.13843358323E+04 0.  0.
        3    1    3    3  502    0  0.54658252389E+03  0.42441195375E+03  0.25481248866E+03  0.73743296406E+03  0.10100000352E+00 0. -1.
       -3    1    3    3    0  502 -0.54658252389E+03 -0.42441195375E+03  0.28655270055E+03  0.74899293875E+03  0.10100000352E+00 0.  1.
</event>
<event>
 5   0  0.8673728E-04  0.1389135E+04  0.7818609E-02  0.8961721E-01
        1   -1    0    0  501    0  0.00000000000E+00  0.00000000000E+00  0.14264625195E+04  0.14264625195E+04  0.50400001928E-02 0.  1.
       -1   -1    0    0    0  501  0.00000000000E+00  0.00000000000E+00 -0.33819618963E+03  0.33819618967E+03  0.50400001928E-02 0. -1.
    10030    2    1    2    0    0  0.00000000000E+00  0.00000000000E+00  0.10882663298E+04  0.17646587091E+04  0.13891352544E+04 0.  0.
        3    1    3    3  502    0  0.41151770229E+03  0.93537280694E+01 -0.16655867570E+03  0.44404517133E+03  0.10100000352E+00 0. -1.
       -3    1    3    3    0  502 -0.41151770229E+03 -0.93537280694E+01  0.12548250055E+04  0.13206135378E+04  0.10100000352E+00 0.  1.
</event>
<event>
 5   0  0.1578965E-03  0.1402049E+04  0.7818609E-02  0.8952337E-01
        2   -1    0    0  501    0  0.00000000000E+00  0.00000000000E+00  0.11729837021E+04  0.11729837021E+04  0.25500000920E-02 0. -1.
       -2   -1    0    0    0  501  0.00000000000E+00  0.00000000000E+00 -0.41896187851E+03  0.41896187851E+03  0.25500000920E-02 0.  1.
    10030    2    1    2    0    0  0.00000000000E+00  0.00000000000E+00  0.75402182361E+03  0.15919455806E+04  0.14020491508E+04 0.  0.
        2    1    3    3  502    0 -0.35573508119E+03  0.55963392403E+02  0.10599357589E+04  0.11194387711E+04  0.25500000920E-02 0. -1.
       -2    1    3    3    0  502  0.35573508119E+03 -0.55963392403E+02 -0.30591393526E+03  0.47250680955E+03  0.25500000920E-02 0.  1.
</event>
<event>
 5   0  0.9639548E-04  0.1442069E+04  0.7818609E-02  0.8923918E-01
       -1   -1    0    0    0  501  0.00000000000E+00  0.00000000000E+00  0.26906358139E+03  0.26906358144E+03  0.50400001928E-02 0. -1.
        1   -1    0    0  501    0  0.00000000000E+00  0.00000000000E+00 -0.19322213657E+04  0.19322213657E+04  0.50400001928E-02 0.  1.
    10030    2    1    2    0    0  0.00000000000E+00  0.00000000000E+00 -0.16631577843E+04  0.22012849471E+04  0.14420685154E+04 0.  0.
        1    1    3    3  502    0 -0.13141778560E+03  0.31129399689E+03 -0.18038812450E+04  0.18352553318E+04  0.50400001928E-02 0.  1.
       -1    1    3    3    0  502  0.13141778560E+03 -0.31129399689E+03  0.14072346070E+03  0.36602961532E+03  0.50400001928E-02 0. -1.
</event>
<event>
 5   0  0.1605214E-03  0.1398199E+04  0.7818609E-02  0.8955123E-01
        2   -1    0    0  501    0  0.00000000000E+00  0.00000000000E+00  0.53745098102E+03  0.53745098103E+03  0.25500000920E-02 0.  1.
       -2   -1    0    0    0  501  0.00000000000E+00  0.00000000000E+00 -0.90936732390E+03  0.90936732390E+03  0.25500000920E-02 0. -1.
    10030    2    1    2    0    0  0.00000000000E+00  0.00000000000E+00 -0.37191634287E+03  0.14468183049E+04  0.13981993568E+04 0.  0.
        5    1    3    3  502    0 -0.80277018147E+02  0.79312107079E+02 -0.89986383567E+03  0.90692437542E+03  0.46999998093E+01 0. -1.
       -5    1    3    3    0  502  0.80277018147E+02 -0.79312107079E+02  0.52794749280E+03  0.53989392951E+03  0.46999998093E+01 0.  1.
</event>
<event>
 5   0  0.8673728E-04  0.1409073E+04  0.7818609E-02  0.8947277E-01
       -1   -1    0    0    0  501  0.00000000000E+00  0.00000000000E+00  0.78677842731E+03  0.78677842733E+03  0.50400001928E-02 0. -1.
        1   -1    0    0  501    0  0.00000000000E+00  0.00000000000E+00 -0.63089113168E+03  0.63089113170E+03  0.50400001928E-02 0.  1.
    10030    2    1    2    0    0  0.00000000000E+00  0.00000000000E+00  0.15588729564E+03  0.14176695590E+04  0.14090727908E+04 0.  0.
        3    1    3    3  502    0  0.53813992950E+03  0.22964646348E+03 -0.31692945405E+03  0.66541443549E+03  0.10100000352E+00 0.  1.
       -3    1    3    3    0  502 -0.53813992950E+03 -0.22964646348E+03  0.47281674968E+03  0.75225512354E+03  0.10100000352E+00 0. -1.
</event>
<event>
 5   0  0.1578965E-03  0.1414656E+04  0.7818609E-02  0.8943277E-01
       -2   -1    0    0    0  501  0.00000000000E+00  0.00000000000E+00  0.17584264804E+04  0.17584264804E+04  0.25500000920E-02 0.  1.
        2   -1    0    0  501    0  0.00000000000E+00  0.00000000000E+00 -0.28452324191E+03  0.28452324192E+03  0.25500000920E-02 0. -1.
    10030    2    1    2    0    0  0.00000000000E+00  0.00000000000E+00  0.14739032385E+04  0.20429497224E+04  0.14146564288E+04 0.  0.
        2    1    3    3  502    0  0.26764367315E+03  0.64668328626E+03  0.88479565234E+03  0.11281381808E+04  0.25500000920E-02 0.  1.
       -2    1    3    3    0  502 -0.26764367315E+03 -0.64668328626E+03  0.58910758618E+03  0.91481154159E+03  0.25500000920E-02 0. -1.
</event>
<event>
 5   0  0.6048000E-04  0.1396438E+04  0.7818609E-02  0.8956401E-01
        3   -1    0    0  501    0  0.00000000000E+00  0.00000000000E+00  0.50719649899E+03  0.50719650905E+03  0.10100000352E+00 0.  1.
       -3   -1    0    0    0  501  0.00000000000E+00  0.00000000000E+00 -0.96118512087E+03  0.96118512618E+03  0.10100000352E+00 0. -1.
    10030    2    1    2    0    0  0.00000000000E+00  0.00000000000E+00 -0.45398862188E+03  0.14683816352E+04  0.13964379535E+04 0.  0.
        3    1    3    3  502    0 -0.17614970024E+03 -0.56079448333E+03  0.16923539861E+03  0.61168603039E+03  0.10100000352E+00 0.  1.
       -3    1    3    3    0  502  0.17614970024E+03  0.56079448333E+03 -0.62322402049E+03  0.85669560484E+03  0.10100000352E+00 0. -1.
</event>
<event>
 5   0  0.1605214E-03  0.1392525E+04  0.7818609E-02  0.8959247E-01
       -2   -1    0    0    0  501  0.00000000000E+00  0.00000000000E+00  0.43503208489E+03  0.43503208489E+03  0.25500000920E-02 0. -1.
        2   -1    0    0  501    0  0.00000000000E+00  0.00000000000E+00 -0.11143575567E+04  0.11143575567E+04  0.25500000920E-02 0.  1.
    10030    2    1    2    0    0  0.00000000000E+00  0.00000000000E+00 -0.67932547178E+03  0.15493896416E+04  0.13925247448E+04 0.  0.
        5    1    3    3  502    0  0.40266133123E+03 -0.41496541043E+02  0.29063148264E+03  0.49834411733E+03  0.46999998093E+01 0. -1.
       -5    1    3    3    0  502 -0.40266133123E+03  0.41496541043E+02 -0.96995695441E+03  0.10510455242E+04  0.46999998093E+01 0.  1.
</event>
<event>
 5   0  0.9639548E-04  0.1406846E+04  0.7818609E-02  0.8948878E-01
       -1   -1    0    0    0  501  0.00000000000E+00  0.00000000000E+00  0.59207289417E+03  0.59207289419E+03  0.50400001928E-02 0.  1.
        1   -1    0    0  501    0  0.00000000000E+00  0.00000000000E+00 -0.83571432106E+03  0.83571432108E+03  0.50400001928E-02 0. -1.
    10030    2    1    2    0    0  0.00000000000E+00  0.00000000000E+00 -0.24364142689E+03  0.14277872153E+04  0.14068458292E+04 0.  0.
        1    1    3    3  502    0 -0.67276420286E+03 -0.14146291758E+03  0.29326918015E+02  0.68810137178E+03  0.50400001928E-02 0.  1.
       -1    1    3    3    0  502  0.67276420286E+03  0.14146291758E+03 -0.27296834491E+03  0.73968584348E+03  0.50400001928E-02 0. -1.
</event>
<event>
 5   0  0.8502300E-04  0.1399534E+04  0.7818609E-02  0.8954156E-01
        1   -1    0    0  501    0  0.00000000000E+00  0.00000000000E+00  0.40030574524E+03  0.40030574527E+03  0.50400001928E-02 0. -1.
       -1   -1    0    0    0  501  0.00000000000E+00  0.00000000000E+00 -0.12232504751E+04  0.12232504751E+04  0.50400001928E-02 0.  1.
    10030    2    1    2    0    0  0.00000000000E+00  0.00000000000E+00 -0.82294472983E+03  0.16235562203E+04  0.13995344841E+04 0.  0.
        4    1    3    3  502    0  0.31706362415E+02  0.38084902832E+03 -0.10914956269E+04  0.11564668574E+04  0.12699999809E+01 0.  1.
       -4    1    3    3    0  502 -0.31706362415E+02 -0.38084902832E+03  0.26855089705E+03  0.46708936297E+03  0.12699999809E+01 0. -1.
</event>
<event>
 5   0  0.1706986E-03  0.1400060E+04  0.7818609E-02  0.8953775E-01
       -2   -1    0    0    0  501  0.00000000000E+00  0.00000000000E+00  0.56247314551E+03  0.56247314552E+03  0.25500000920E-02 0.  1.
        2   -1    0    0  501    0  0.00000000000E+00  0.00000000000E+00 -0.87122754204E+03  0.87122754205E+03  0.25500000920E-02 0. -1.
    10030    2    1    2    0    0  0.00000000000E+00  0.00000000000E+00 -0.30875439653E+03  0.14337006876E+04  0.14000601359E+04 0.  0.
        3    1    3    3  502    0 -0.23277361651E+03 -0.50459432344E+03 -0.59033308065E+03  0.81073555744E+03  0.10100000352E+00 0. -1.
       -3    1    3    3    0  502  0.23277361651E+03  0.50459432344E+03  0.28157868412E+03  0.62296513012E+03  0.10100000352E+00 0.  1.
</event>
<event>
 5   0  0.8609148E-04  0.1385740E+04  0.7818609E-02  0.8964206E-01
       -1   -1    0    0    0  501  0.00000000000E+00  0.00000000000E+00  0.13959136301E+04  0.13959136302E+04  0.50400001928E-02 0. -1.
        1   -1    0    0  501    0  0.00000000000E+00  0.00000000000E+00 -0.34391008325E+03  0.34391008329E+03  0.50400001928E-02 0.  1.
    10030    2    1    2    0    0  0.00000000000E+00  0.00000000000E+00  0.10520035469E+04  0.17398237134E+04  0.13857399075E+04 0.  0.
        5    1    3    3  502    0  0.11879755081E+03 -0.30810717067E+03 -0.23873627478E+03  0.40750458352E+03  0.46999998093E+01 0.  1.
       -5    1    3    3    0  502 -0.11879755081E+03  0.30810717067E+03  0.12907398217E+04  0.13323191299E+04  0.46999998093E+01 0. -1.
</event>
<event>
 5   0  0.1648463E-03  0.1350402E+04  0.7818609E-02  0.8990524E-01
        2   -1    0    0  501    0  0.00000000000E+00  0.00000000000E+00  0.14681518844E+04  0.14681518844E+04  0.25500000920E-02 0.  1.
       -2   -1    0    0    0  501  0.00000000000E+00  0.00000000000E+00 -0.31052414091E+03  0.31052414092E+03  0.25500000920E-02 0. -1.
    10030    2    1    2    0    0  0.00000000000E+00  0.00000000000E+00  0.11576277434E+04  0.17786760253E+04  0.13504023143E+04 0.  0.
        1    1    3    3  502    0  0.53090977156E+03 -0.30295840171E+03  0.20107180006E+03  0.64348958617E+03  0.50400001928E-02 0. -1.
       -1    1    3    3    0  502 -0.53090977156E+03  0.30295840171E+03  0.95655594338E+03  0.11351864391E+04  0.50400001928E-02 0.  1.
</event>
<event>
 5   0  0.9639548E-04  0.1339576E+04  0.7818609E-02  0.8998756E-01
       -1   -1    0    0    0  501  0.00000000000E+00  0.00000000000E+00  0.23277026039E+03  0.23277026045E+03  0.50400001928E-02 0. -1.
        1   -1    0    0  501    0  0.00000000000E+00  0.00000000000E+00 -0.19272913255E+04  0.19272913255E+04  0.50400001928E-02 0.  1.
    10030    2    1    2    0    0  0.00000000000E+00  0.00000000000E+00 -0.16945210651E+04  0.21600615860E+04  0.13395762073E+04 0.  0.
        1    1    3    3  502    0  0.29063821787E+02  0.62657203795E+03 -0.46848218424E+03  0.78288746411E+03  0.50400001928E-02 0. -1.
       -1    1    3    3    0  502 -0.29063821787E+02 -0.62657203795E+03 -0.12260388809E+04  0.13771741219E+04  0.50400001928E-02 0.  1.
</event>
<event>
 5   0  0.1578965E-03  0.1411196E+04  0.7818609E-02  0.8945754E-01
        2   -1    0    0  501    0  0.00000000000E+00  0.00000000000E+00  0.67030486200E+03  0.67030486200E+03  0.25500000920E-02 0. -1.
       -2   -1    0    0    0  501  0.00000000000E+00  0.00000000000E+00 -0.74274917578E+03  0.74274917578E+03  0.25500000920E-02 0.  1.
    10030    2    1    2    0    0  0.00000000000E+00  0.00000000000E+00 -0.72444313784E+02  0.14130540378E+04  0.14111957820E+04 0.  0.
        2    1    3    3  502    0 -0.67978882114E+03 -0.11521526048E+03  0.11391188608E+03  0.69882996172E+03  0.25500000920E-02 0. -1.
       -2    1    3    3    0  502  0.67978882114E+03  0.11521526048E+03 -0.18635619987E+03  0.71422407607E+03  0.25500000920E-02 0.  1.
</event>
<event>
 5   0  0.8673728E-04  0.1369264E+04  0.7818609E-02  0.8976372E-01
        1   -1    0    0  501    0  0.00000000000E+00  0.00000000000E+00  0.19012282466E+04  0.19012282466E+04  0.50400001928E-02 0. -1.
       -1   -1    0    0    0  501  0.00000000000E+00  0.00000000000E+00 -0.24653589429E+03  0.24653589434E+03  0.50400001928E-02 0.  1.
    10030    2    1    2    0    0  0.00000000000E+00  0.00000000000E+00  0.16546923523E+04  0.21477641409E+04  0.13692640448E+04 0.  0.
        3    1    3    3  502    0  0.13941006749E+03 -0.41304207513E+02 -0.22203825741E+03  0.26540949951E+03  0.10100000352E+00 0.  1.
       -3    1    3    3    0  502 -0.13941006749E+03  0.41304207513E+02  0.18767306097E+04  0.18823546414E+04  0.10100000352E+00 0. -1.
</event>
<event>
 5   0  0.1648213E-03  0.1526957E+04  0.7818609E-02  0.8866722E-01
        2   -1    0    0  501    0  0.00000000000E+00  0.00000000000E+00  0.81021317996E+03  0.81021317997E+03  0.25500000920E-02 0.  1.
       -2   -1    0    0    0  501  0.00000000000E+00  0.00000000000E+00 -0.71943998372E+03  0.71943998372E+03  0.25500000920E-02 0. -1.
    10030    2    1    2    0    0  0.00000000000E+00  0.00000000000E+00  0.90773196249E+02  0.15296531637E+04  0.15269574415E+04 0.  0.
        4    1    3    3  502    0 -0.64511971050E+03 -0.38309589788E+03  0.18690253630E+03  0.77322446859E+03  0.12699999809E+01 0.  1.
       -4    1    3    3    0  502  0.64511971050E+03  0.38309589788E+03 -0.96129340050E+02  0.75642869510E+03  0.12699999809E+01 0. -1.
</event>
<event>
 5   0  0.1648463E-03  0.1380967E+04  0.7818609E-02  0.8967712E-01
       -2   -1    0    0    0  501  0.00000000000E+00  0.00000000000E+00  0.38250270069E+03  0.38250270070E+03  0.25500000920E-02 0.  1.
        2   -1    0    0  501    0  0.00000000000E+00  0.00000000000E+00 -0.12464419859E+04  0.12464419859E+04  0.25500000920E-02 0. -1.
    10030    2    1    2    0    0  0.00000000000E+00  0.00000000000E+00 -0.86393928522E+03  0.16289446866E+04  0.13809669451E+04 0.  0.
        1    1    3    3  502    0  0.19439921991E+03 -0.31113247850E+02  0.34869451721E+03  0.40043346170E+03  0.50400001928E-02 0.  1.
       -1    1    3    3    0  502 -0.19439921991E+03  0.31113247850E+02 -0.12126338024E+04  0.12285112249E+04  0.50400001928E-02 0. -1.
</event>
<event>
 5   0  0.8673728E-04  0.1412263E+04  0.7818609E-02  0.8944990E-01
        1   -1    0    0  501    0  0.00000000000E+00  0.00000000000E+00  0.88872565017E+03  0.88872565018E+03  0.50400001928E-02 0. -1.
       -1   -1    0    0    0  501  0.00000000000E+00  0.00000000000E+00 -0.56105239738E+03  0.56105239740E+03  0.50400001928E-02 0.  1.
    10030    2    1    2    0    0  0.00000000000E+00  0.00000000000E+00  0.32767325279E+03  0.14497780476E+04  0.14122629453E+04 0.  0.
        3    1    3    3  502    0  0.33329444812E+03  0.39911896159E+03  0.65427260346E+03  0.83573547519E+03  0.10100000352E+00 0. -1.
       -3    1    3    3    0  502 -0.33329444812E+03 -0.39911896159E+03 -0.32659935068E+03  0.61404257239E+03  0.10100000352E+00 0.  1.
</event>
<event>
 5   0  0.8609148E-04  0.1411656E+04  0.7818609E-02  0.8945424E-01
        1   -1    0    0  501    0  0.00000000000E+00  0.00000000000E+00  0.10507142292E+04  0.10507142292E+04  0.50400001928E-02 0.  1.
       -1   -1    0    0    0  501  0.00000000000E+00  0.00000000000E+00 -0.47414700569E+03  0.47414700572E+03  0.50400001928E-02 0. -1.
    10030    2    1    2    0    0  0.00000000000E+00  0.00000000000E+00  0.57656722347E+03  0.15248612349E+04  0.14116557734E+04 0.  0.
        5    1    3    3  502    0 -0.24557338870E+03  0.45579434431E+03  0.80645694299E+03  0.95835779563E+03  0.46999998093E+01 0.  1.
       -5    1    3    3    0  502  0.24557338870E+03 -0.45579434431E+03 -0.22988971953E+03  0.56650343925E+03  0.46999998093E+01 0. -1.
</event>
<event>
 5   0  0.8673728E-04  0.1402111E+04  0.7818609E-02  0.8952292E-01
        1   -1    0    0  501    0  0.00000000000E+00  0.00000000000E+00  0.15796467071E+04  0.15796467071E+04  0.50400001928E-02 0. -1.
       -1   -1    0    0    0  501  0.00000000000E+00  0.00000000000E+00 -0.31113231253E+03  0.31113231257E+03  0.50400001928E-02 0.  1.
    10030    2    1    2    0    0  0.00000000000E+00  0.00000000000E+00  0.12685143946E+04  0.18907790197E+04  0.14021114549E+04 0.  0.
        3    1    3    3  502    0  0.41935226329E+03  0.21188757100E+03 -0.67397745584E+02  0.47465264118E+03  0.10100000352E+00 0.  1.
       -3    1    3    3    0  502 -0.41935226329E+03 -0.21188757100E+03  0.13359121401E+04  0.14161263785E+04  0.10100000352E+00 0. -1.
</event>
<event>
 5   0  0.6048000E-04  0.1395909E+04  0.7818609E-02  0.8956785E-01
       -3   -1    0    0    0  501  0.00000000000E+00  0.00000000000E+00  0.30444314814E+03  0.30444316489E+03  0.10100000352E+00 0.  1.
        3   -1    0    0  501    0  0.00000000000E+00  0.00000000000E+00 -0.16001028754E+04  0.16001028786E+04  0.10100000352E+00 0. -1.
    10030    2    1    2    0    0  0.00000000000E+00  0.00000000000E+00 -0.12956597273E+04  0.19045460435E+04  0.13959088448E+04 0.  0.
        2    1    3    3  502    0 -0.11245194293E+01  0.41120438826E+03  0.12162324729E+03  0.42881526064E+03  0.25500000920E-02 0.  1.
       -2    1    3    3    0  502  0.11245194293E+01 -0.41120438826E+03 -0.14172829746E+04  0.14757307829E+04  0.25500000920E-02 0. -1.
</event>
<event>
 5   0  0.1578965E-03  0.1379083E+04  0.7818609E-02  0.8969100E-01
        2   -1    0    0  501    0  0.00000000000E+00  0.00000000000E+00  0.18580954022E+04  0.18580954022E+04  0.25500000920E-02 0. -1.
       -2   -1    0    0    0  501  0.00000000000E+00  0.00000000000E+00 -0.25588960280E+03  0.25588960282E+03  0.25500000920E-02 0.  1.
    10030    2    1    2    0    0  0.00000000000E+00  0.00000000000E+00  0.16022057994E+04  0.21139850050E+04  0.13790827306E+04 0.  0.
        2    1    3    3  502    0  0.29239614316E+03  0.37775923139E+03  0.38853519600E+02  0.47927772474E+03  0.25500000920E-02 0.  1.
       -2    1    3    3    0  502 -0.29239614316E+03 -0.37775923139E+03  0.15633522798E+04  0.16347072802E+04  0.25500000920E-02 0. -1.
</event>
<event>
 5   0  0.8673728E-04  0.1388069E+04  0.7818609E-02  0.8962500E-01
        1   -1    0    0  501    0  0.00000000000E+00  0.00000000000E+00  0.17054668792E+04  0.17054668792E+04  0.50400001928E-02 0. -1.
       -1   -1    0    0    0  501  0.00000000000E+00  0.00000000000E+00 -0.28243532948E+03  0.28243532953E+03  0.50400001928E-02 0.  1.
    10030    2    1    2    0    0  0.00000000000E+00  0.00000000000E+00  0.14230315497E+04  0.19879022088E+04  0.13880693066E+04 0.  0.
        3    1    3    3  502    0  0.33956075047E+03 -0.64418000034E+02  0.15734573245E+04  0.16109683871E+04  0.10100000352E+00 0. -1.
       -3    1    3    3    0  502 -0.33956075047E+03  0.64418000034E+02 -0.15042577477E+03  0.37693382165E+03  0.10100000352E+00 0.  1.
</event>
<event>
 5   0  0.1648463E-03  0.1426027E+04  0.7818609E-02  0.8935191E-01
        2   -1    0    0  501    0  0.00000000000E+00  0.00000000000E+00  0.40282607983E+03  0.40282607984E+03  0.25500000920E-02 0. -1.
       -2   -1    0    0    0  501  0.00000000000E+00  0.00000000000E+00 -0.12620547179E+04  0.12620547179E+04  0.25500000920E-02 0.  1.
    10030    2    1    2    0    0  0.00000000000E+00  0.00000000000E+00 -0.85922863811E+03  0.16648807978E+04  0.14260274255E+04 0.  0.
        1    1    3    3  502    0 -0.33626474866E+03 -0.58214826791E+03 -0.70692333172E+03  0.97555685840E+03  0.50400001928E-02 0.  1.
       -1    1    3    3    0  502  0.33626474866E+03  0.58214826791E+03 -0.15230530640E+03  0.68932393938E+03  0.50400001928E-02 0. -1.
</event>
<event>
 5   0  0.1648213E-03  0.1399100E+04  0.7818609E-02  0.8954470E-01
       -2   -1    0    0    0  501  0.00000000000E+00  0.00000000000E+00  0.45691142544E+03  0.45691142545E+03  0.25500000920E-02 0. -1.
        2   -1    0    0  501    0  0.00000000000E+00  0.00000000000E+00 -0.10710391000E+04  0.10710391000E+04  0.25500000920E-02 0.  1.
    10030    2    1    2    0    0  0.00000000000E+00  0.00000000000E+00 -0.61412767458E+03  0.15279505255E+04  0.13990997132E+04 0.  0.
        4    1    3    3  502    0 -0.63725446442E+01 -0.30357200511E+03  0.38119189413E+03  0.48734530332E+03  0.12699999809E+01 0. -1.
       -4    1    3    3    0  502  0.63725446442E+01  0.30357200511E+03 -0.99531956871E+03  0.10406052222E+04  0.12699999809E+01 0.  1.
</event>
<event>
 5   0  0.8609148E-04  0.1403654E+04  0.7818609E-02  0.8951178E-01
        1   -1    0    0  501    0  0.00000000000E+00  0.00000000000E+00  0.10965735382E+04  0.10965735382E+04  0.50400001928E-02 0. -1.
       -1   -1    0    0    0  501  0.00000000000E+00  0.00000000000E+00 -0.44918219605E+03  0.44918219607E+03  0.50400001928E-02 0.  1.
    10030    2    1    2    0    0  0.00000000000E+00  0.00000000000E+00  0.64739134219E+03  0.15457557343E+04  0.14036542453E+04 0.  0.
        5    1    3    3  502    0 -0.35892523324E+03  0.54407839943E+03  0.61020903248E+03  0.89287500866E+03  0.46999998093E+01 0.  1.
       -5    1    3    3    0  502  0.35892523324E+03 -0.54407839943E+03  0.37182309711E+02  0.65288072566E+03  0.46999998093E+01 0. -1.
</event>
<event>
 5   0  0.1706986E-03  0.1263944E+04  0.7818609E-02  0.9058657E-01
        2   -1    0    0  501    0  0.00000000000E+00  0.00000000000E+00  0.15321077888E+04  0.15321077888E+04  0.25500000920E-02 0.  1.
       -2   -1    0    0    0  501  0.00000000000E+00  0.00000000000E+00 -0.26067923095E+03  0.26067923096E+03  0.25500000920E-02 0. -1.
    10030    2    1    2    0    0  0.00000000000E+00  0.00000000000E+00  0.12714285578E+04  0.17927870197E+04  0.12639441129E+04 0.  0.
        3    1    3    3  502    0  0.58496364299E+03  0.21967350815E+03  0.50152851959E+03  0.80123016666E+03  0.10100000352E+00 0.  1.
       -3    1    3    3    0  502 -0.58496364299E+03 -0.21967350815E+03  0.76990003822E+03  0.99155685306E+03  0.10100000352E+00 0. -1.
</event>
<event>
 5   0  0.1706986E-03  0.1396070E+04  0.7818609E-02  0.8956668E-01
       -2   -1    0    0    0  501  0.00000000000E+00  0.00000000000E+00  0.51288624258E+03  0.51288624259E+03  0.25500000920E-02 0. -1.
        2   -1    0    0  501    0  0.00000000000E+00  0.00000000000E+00 -0.95002126283E+03  0.95002126283E+03  0.25500000920E-02 0.  1.
    10030    2    1    2    0    0  0.00000000000E+00  0.00000000000E+00 -0.43713502025E+03  0.14629075054E+04  0.13960699637E+04 0.  0.
        3    1    3    3  502    0 -0.23632883062E+03 -0.12322621646E+03  0.45746797451E+03  0.52944591273E+03  0.10100000352E+00 0. -1.
       -3    1    3    3    0  502  0.23632883062E+03  0.12322621646E+03 -0.89460299475E+03  0.93346159269E+03  0.10100000352E+00 0.  1.
</event>
<event>
 5   0  0.9007180E-04  0.1426902E+04  0.7818609E-02  0.8934573E-01
        1   -1    0    0  501    0  0.00000000000E+00  0.00000000000E+00  0.19229949853E+04  0.19229949853E+04  0.50400001928E-02 0.  1.
       -1   -1    0    0    0  501  0.00000000000E+00  0.00000000000E+00 -0.26469759883E+03  0.26469759888E+03  0.50400001928E-02 0. -1.
    10030    2    1    2    0    0  0.00000000000E+00  0.00000000000E+00  0.16582973865E+04  0.21876925842E+04  0.14269017559E+04 0.  0.
        2    1    3    3  502    0  0.28849054945E+03  0.18691333036E+03 -0.12936118785E+03  0.36728423205E+03  0.25500000920E-02 0. -1.
       -2    1    3    3    0  502 -0.28849054945E+03 -0.18691333036E+03  0.17876585743E+04  0.18204083521E+04  0.25500000920E-02 0.  1.
</event>
<event>
 5   0  0.8609148E-04  0.1400351E+04  0.7818609E-02  0.8953565E-01
       -1   -1    0    0    0  501  0.00000000000E+00  0.00000000000E+00  0.75655779177E+03  0.75655779179E+03  0.50400001928E-02 0. -1.
        1   -1    0    0  501    0  0.00000000000E+00  0.00000000000E+00 -0.64799478277E+03  0.64799478279E+03  0.50400001928E-02 0.  1.
    10030    2    1    2    0    0  0.00000000000E+00  0.00000000000E+00  0.10856300900E+03  0.14045525746E+04  0.14003506732E+04 0.  0.
        5    1    3    3  502    0 -0.11463319119E+03  0.47842040434E+03  0.55396968253E+03  0.74089901537E+03  0.46999998093E+01 0. -1.
       -5    1    3    3    0  502  0.11463319119E+03 -0.47842040434E+03 -0.44540667354E+03  0.66365355920E+03  0.46999998093E+01 0.  1.
</event>
<event>
 5   0  0.9639548E-04  0.1377434E+04  0.7818609E-02  0.8970317E-01
       -1   -1    0    0    0  501  0.00000000000E+00  0.00000000000E+00  0.23043655752E+04  0.23043655752E+04  0.50400001928E-02 0. -1.
        1   -1    0    0  501    0  0.00000000000E+00  0.00000000000E+00 -0.20584023290E+03  0.20584023296E+03  0.50400001928E-02 0.  1.
    10030    2    1    2    0    0  0.00000000000E+00  0.00000000000E+00  0.20985253423E+04  0.25102058082E+04  0.13774340591E+04 0.  0.
        1    1    3    3  502    0  0.88016981838E+02  0.33401192183E+03 -0.36575341188E+02  0.34734522975E+03  0.50400001928E-02 0.  1.
       -1    1    3    3    0  502 -0.88016981838E+02 -0.33401192183E+03  0.21351006835E+04  0.21628605784E+04  0.50400001928E-02 0. -1.
</event>
<event>
 5   0  0.1605214E-03  0.1391898E+04  0.7818609E-02  0.8959704E-01
        2   -1    0    0  501    0  0.00000000000E+00  0.00000000000E+00  0.16468010461E+04  0.16468010461E+04  0.25500000920E-02 0. -1.
       -2   -1    0    0    0  501  0.00000000000E+00  0.00000000000E+00 -0.29411251618E+03  0.29411251619E+03  0.25500000920E-02 0.  1.
    10030    2    1    2    0    0  0.00000000000E+00  0.00000000000E+00  0.13526885300E+04  0.19409135623E+04  0.13918976964E+04 0.  0.
        5    1    3    3  502    0 -0.18439534164E+03  0.11738000130E+03 -0.24497975584E+03  0.32835480428E+03  0.46999998093E+01 0.  1.
       -5    1    3    3    0  502  0.18439534164E+03 -0.11738000130E+03  0.15976682858E+04  0.16125587580E+04  0.46999998093E+01 0. -1.
</event>
<event>
 5   0  0.1706986E-03  0.1401061E+04  0.7818609E-02  0.8953051E-01
       -2   -1    0    0    0  501  0.00000000000E+00  0.00000000000E+00  0.82152001681E+03  0.82152001681E+03  0.25500000920E-02 0. -1.
        2   -1    0    0  501    0  0.00000000000E+00  0.00000000000E+00 -0.59736013142E+03  0.59736013142E+03  0.25500000920E-02 0.  1.
    10030    2    1    2    0    0  0.00000000000E+00  0.00000000000E+00  0.22415988539E+03  0.14188801482E+04  0.14010614622E+04 0.  0.
        3    1    3    3  502    0  0.87779737297E+02 -0.66771351556E+03  0.30739718260E+03  0.74029700743E+03  0.10100000352E+00 0.  1.
       -3    1    3    3    0  502 -0.87779737297E+02  0.66771351556E+03 -0.83237297214E+02  0.67858314080E+03  0.10100000352E+00 0. -1.
</event>
<event>
 5   0  0.1648213E-03  0.1389917E+04  0.7818609E-02  0.8961149E-01
        2   -1    0    0  501    0  0.00000000000E+00  0.00000000000E+00  0.36766020074E+03  0.36766020075E+03  0.25500000920E-02 0. -1.
       -2   -1    0    0    0  501  0.00000000000E+00  0.00000000000E+00 -0.13136249986E+04  0.13136249986E+04  0.25500000920E-02 0.  1.
    10030    2    1    2    0    0  0.00000000000E+00  0.00000000000E+00 -0.94596479785E+03  0.16812851994E+04  0.13899174518E+04 0.  0.
        4    1    3    3  502    0 -0.60710929061E+03 -0.20728214116E+03 -0.79624656436E+03  0.10225251982E+04  0.12699999809E+01 0.  1.
       -4    1    3    3    0  502  0.60710929061E+03  0.20728214116E+03 -0.14971823349E+03  0.65876000116E+03  0.12699999809E+01 0. -1.
</event>
<event>
 5   0  0.1706986E-03  0.1651519E+04  0.7818609E-02  0.8789508E-01
        2   -1    0    0  501    0  0.00000000000E+00  0.00000000000E+00  0.16266915224E+04  0.16266915224E+04  0.25500000920E-02 0.  1.
       -2   -1    0    0    0  501  0.00000000000E+00  0.00000000000E+00 -0.41918156136E+03  0.41918156137E+03  0.25500000920E-02 0. -1.
    10030    2    1    2    0    0  0.00000000000E+00  0.00000000000E+00  0.12075099611E+04  0.20458730838E+04  0.16515194122E+04 0.  0.
        3    1    3    3  502    0 -0.46480819420E+03 -0.61138035129E+02  0.14458487154E+04  0.15199549450E+04  0.10100000352E+00 0.  1.
       -3    1    3    3    0  502  0.46480819420E+03  0.61138035129E+02 -0.23833875432E+03  0.52591813882E+03  0.10100000352E+00 0. -1.
</event>
<event>
 5   0  0.8609148E-04  0.1391938E+04  0.7818609E-02  0.8959675E-01
       -1   -1    0    0    0  501  0.00000000000E+00  0.00000000000E+00  0.44135494731E+03  0.44135494734E+03  0.50400001928E-02 0. -1.
        1   -1    0    0  501    0  0.00000000000E+00  0.00000000000E+00 -0.10974679955E+04  0.10974679955E+04  0.50400001928E-02 0.  1.
    10030    2    1    2    0    0  0.00000000000E+00  0.00000000000E+00 -0.65611304817E+03  0.15388229428E+04  0.13919381155E+04 0.  0.
        5    1    3    3  502    0 -0.34050372373E+03 -0.59852007591E+03 -0.43960930823E+03  0.81697460243E+03  0.46999998093E+01 0. -1.
       -5    1    3    3    0  502  0.34050372373E+03  0.59852007591E+03 -0.21650373994E+03  0.72184834040E+03  0.46999998093E+01 0.  1.
</event>
<event>
 5   0  0.8502300E-04  0.1374834E+04  0.7818609E-02  0.8972239E-01
        1   -1    0    0  501    0  0.00000000000E+00  0.00000000000E+00  0.88988779697E+03  0.88988779698E+03  0.50400001928E-02 0.  1.
       -1   -1    0    0    0  501  0.00000000000E+00  0.00000000000E+00 -0.53101349713E+03  0.53101349715E+03  0.50400001928E-02 0. -1.
    10030    2    1    2    0    0  0.00000000000E+00  0.00000000000E+00  0.35887429984E+03  0.14209012941E+04  0.13748344353E+04 0.  0.
        4    1    3    3  502    0 -0.59825393761E+03 -0.27658341481E+03 -0.22387144242E+02  0.65947627428E+03  0.12699999809E+01 0. -1.
       -4    1    3    3    0  502  0.59825393761E+03  0.27658341481E+03  0.38126144408E+03  0.76142501985E+03  0.12699999809E+01 0.  1.
</event>
<event>
 5   0  0.8609148E-04  0.1391843E+04  0.7818609E-02  0.8959744E-01
       -1   -1    0    0    0  501  0.00000000000E+00  0.00000000000E+00  0.13010977815E+04  0.13010977815E+04  0.50400001928E-02 0.  1.
        1   -1    0    0  501    0  0.00000000000E+00  0.00000000000E+00 -0.37222932299E+03  0.37222932303E+03  0.50400001928E-02 0. -1.
    10030    2    1    2    0    0  0.00000000000E+00  0.00000000000E+00  0.92886845851E+03  0.16733271045E+04  0.13918430176E+04 0.  0.
        5    1    3    3  502    0  0.27733636220E+03  0.20152570900E+03  0.11925149850E+04  0.12408231738E+04  0.46999998093E+01 0.  1.
       -5    1    3    3    0  502 -0.27733636220E+03 -0.20152570900E+03 -0.26364652649E+03  0.43250393075E+03  0.46999998093E+01 0. -1.
</event>
<event>
 5   0  0.8502300E-04  0.1432457E+04  0.7818609E-02  0.8930654E-01
        1   -1    0    0  501    0  0.00000000000E+00  0.00000000000E+00  0.15543397879E+04  0.15543397879E+04  0.50400001928E-02 0.  1.
       -1   -1    0    0    0  501  0.00000000000E+00  0.00000000000E+00 -0.33003287606E+03  0.33003287610E+03  0.50400001928E-02 0. -1.
    10030    2    1    2    0    0  0.00000000000E+00  0.00000000000E+00  0.12243069119E+04  0.18843726640E+04  0.14324569531E+04 0.  0.
        4    1    3    3  502    0 -0.15566324031E+03  0.67229396115E+03  0.35989814605E+03  0.77829204224E+03  0.12699999809E+01 0.  1.
       -4    1    3    3    0  502  0.15566324031E+03 -0.67229396115E+03  0.86440876582E+03  0.11060806218E+04  0.12699999809E+01 0. -1.
</event>
<event>
 5   0  0.1706986E-03  0.1405777E+04  0.7818609E-02  0.8949648E-01
       -2   -1    0    0    0  501  0.00000000000E+00  0.00000000000E+00  0.32541602928E+03  0.32541602929E+03  0.25500000920E-02 0.  1.
        2   -1    0    0  501    0  0.00000000000E+00  0.00000000000E+00 -0.15182170663E+04  0.15182170663E+04  0.25500000920E-02 0. -1.
    10030    2    1    2    0    0  0.00000000000E+00  0.00000000000E+00 -0.11928010371E+04  0.18436330956E+04  0.14057768946E+04 0.  0.
        3    1    3    3  502    0  0.37544837287E+02  0.13692513922E+03  0.30641439170E+03  0.33770978398E+03  0.10100000352E+00 0.  1.
       -3    1    3    3    0  502 -0.37544837287E+02 -0.13692513922E+03 -0.14992154288E+04  0.15059233116E+04  0.10100000352E+00 0. -1.
</event>
<event>
 5   0  0.8673728E-04  0.1390937E+04  0.7818609E-02  0.8960405E-01
        1   -1    0    0  501    0  0.00000000000E+00  0.00000000000E+00  0.80492407504E+03  0.80492407506E+03  0.50400001928E-02 0. -1.
       -1   -1    0    0    0  501  0.00000000000E+00  0.00000000000E+00 -0.60089706760E+03  0.60089706762E+03  0.50400001928E-02 0.  1.
    10030    2    1    2    0    0  0.00000000000E+00  0.00000000000E+00  0.20402700744E+03  0.14058211427E+04  0.13909371177E+04 0.  0.
        3    1    3    3  502    0  0.54732140250E+02 -0.18272606364E+03 -0.57394211193E+03  0.60480904388E+03  0.10100000352E+00 0.  1.
       -3    1    3    3    0  502 -0.54732140250E+02  0.18272606364E+03  0.77796911938E+03  0.80101209879E+03  0.10100000352E+00 0. -1.
</event>
<event>
 5   0  0.6048000E-04  0.1396936E+04  0.7818609E-02  0.8956039E-01
        4   -1    0    0  501    0  0.00000000000E+00  0.00000000000E+00  0.10586275701E+04  0.10586283319E+04  0.12699999809E+01 0. -1.
       -4   -1    0    0    0  501  0.00000000000E+00  0.00000000000E+00 -0.46083793484E+03  0.46083968480E+03  0.12699999809E+01 0.  1.
    10030    2    1    2    0    0  0.00000000000E+00  0.00000000000E+00  0.59778963530E+03  0.15194680167E+04  0.13969361495E+04 0.  0.
        1    1    3    3  502    0  0.68658277841E+03  0.12829111167E+03  0.30081932734E+03  0.76049114963E+03  0.50400001928E-02 0.  1.
       -1    1    3    3    0  502 -0.68658277841E+03 -0.12829111167E+03  0.29697030796E+03  0.75897686709E+03  0.50400001928E-02 0. -1.
</event>
<event>
 5   0  0.1706986E-03  0.1315572E+04  0.7818609E-02  0.9017307E-01
       -2   -1    0    0    0  501  0.00000000000E+00  0.00000000000E+00  0.19874290886E+03  0.19874290888E+03  0.25500000920E-02 0.  1.
        2   -1    0    0  501    0  0.00000000000E+00  0.00000000000E+00 -0.21770949671E+04  0.21770949671E+04  0.25500000920E-02 0. -1.
    10030    2    1    2    0    0  0.00000000000E+00  0.00000000000E+00 -0.19783520582E+04  0.23758378760E+04  0.13155716425E+04 0.  0.
        3    1    3    3  502    0  0.36140890749E+03 -0.52950634480E+03 -0.12551383712E+04  0.14093848689E+04  0.10100000352E+00 0. -1.
       -3    1    3    3    0  502 -0.36140890749E+03  0.52950634480E+03 -0.72321368702E+03  0.96645300708E+03  0.10100000352E+00 0.  1.
</event>
<event>
 5   0  0.8673728E-04  0.1370157E+04  0.7818609E-02  0.8975708E-01
       -1   -1    0    0    0  501  0.00000000000E+00  0.00000000000E+00  0.38615669110E+03  0.38615669113E+03  0.50400001928E-02 0.  1.
        1   -1    0    0  501    0  0.00000000000E+00  0.00000000000E+00 -0.12153942799E+04  0.12153942799E+04  0.50400001928E-02 0. -1.
    10030    2    1    2    0    0  0.00000000000E+00  0.00000000000E+00 -0.82923758882E+03  0.16015509711E+04  0.13701571203E+04 0.  0.
        3    1    3    3  502    0 -0.63474085963E+03 -0.25208526572E+03 -0.35178467766E+03  0.76824176515E+03  0.10100000352E+00 0. -1.
       -3    1    3    3    0  502  0.63474085963E+03  0.25208526572E+03 -0.47745291116E+03  0.83330920591E+03  0.10100000352E+00 0.  1.
</event>
<event>
 5   0  0.1648213E-03  0.1349298E+04  0.7818609E-02  0.8991360E-01
        2   -1    0    0  501    0  0.00000000000E+00  0.00000000000E+00  0.11524241757E+04  0.11524241757E+04  0.25500000920E-02 0. -1.
       -2   -1    0    0    0  501  0.00000000000E+00  0.00000000000E+00 -0.39495097138E+03  0.39495097139E+03  0.25500000920E-02 0.  1.
    10030    2    1    2    0    0  0.00000000000E+00  0.00000000000E+00  0.75747320431E+03  0.15473751471E+04  0.13492976657E+04 0.  0.
        4    1    3    3  502    0 -0.57797911532E+03 -0.89725502551E+02 -0.68321510054E+01  0.58494342867E+03  0.12699999809E+01 0.  1.
       -4    1    3    3    0  502  0.57797911532E+03  0.89725502551E+02  0.76430535532E+03  0.96243171842E+03  0.12699999809E+01 0. -1.
</event>
<event>
 5   0  0.6048000E-04  0.1364730E+04  0.7818609E-02  0.8979752E-01
        4   -1    0    0  501    0  0.00000000000E+00  0.00000000000E+00  0.11058596594E+04  0.11058603886E+04  0.12699999809E+01 0. -1.
       -4   -1    0    0    0  501  0.00000000000E+00  0.00000000000E+00 -0.42104786757E+03  0.42104978291E+03  0.12699999809E+01 0.  1.
    10030    2    1    2    0    0  0.00000000000E+00  0.00000000000E+00  0.68481179181E+03  0.15269101715E+04  0.13647298201E+04 0.  0.
        3    1    3    3  502    0  0.94092794225E+02  0.25836170061E+03  0.10411351570E+04  0.10768317639E+04  0.10100000352E+00 0. -1.
       -3    1    3    3    0  502 -0.94092794225E+02 -0.25836170061E+03 -0.35632336521E+03  0.45007840768E+03  0.10100000352E+00 0.  1.
</event>
<event>
 5   0  0.9007180E-04  0.1398216E+04  0.7818609E-02  0.8955111E-01
        1   -1    0    0  501    0  0.00000000000E+00  0.00000000000E+00  0.14947690728E+04  0.14947690728E+04  0.50400001928E-02 0. -1.
       -1   -1    0    0    0  501  0.00000000000E+00  0.00000000000E+00 -0.32697471249E+03  0.32697471253E+03  0.50400001928E-02 0.  1.
    10030    2    1    2    0    0  0.00000000000E+00  0.00000000000E+00  0.11677943603E+04  0.18217437853E+04  0.13982155597E+04 0.  0.
        2    1    3    3  502    0  0.60133913875E+03  0.25776541034E+03  0.90489880431E+03  0.11166439059E+04  0.25500000920E-02 0. -1.
       -2    1    3    3    0  502 -0.60133913875E+03 -0.25776541034E+03  0.26289555596E+03  0.70509987939E+03  0.25500000920E-02 0.  1.
</event>
<event>
 5   0  0.8502300E-04  0.1381310E+04  0.7818609E-02  0.8967459E-01
        1   -1    0    0  501    0  0.00000000000E+00  0.00000000000E+00  0.99076926346E+03  0.99076926347E+03  0.50400001928E-02 0.  1.
       -1   -1    0    0    0  501  0.00000000000E+00  0.00000000000E+00 -0.48144850125E+03  0.48144850128E+03  0.50400001928E-02 0. -1.
    10030    2    1    2    0    0  0.00000000000E+00  0.00000000000E+00  0.50932076221E+03  0.14722177648E+04  0.13813100695E+04 0.  0.
        4    1    3    3  502    0  0.24847123800E+02 -0.68976669794E+03  0.22839535407E+03  0.72702237092E+03  0.12699999809E+01 0. -1.
       -4    1    3    3    0  502 -0.24847123800E+02  0.68976669794E+03  0.28092540814E+03  0.74519539383E+03  0.12699999809E+01 0.  1.
</event>
<event>
 5   0  0.8673728E-04  0.1410773E+04  0.7818609E-02  0.8946057E-01
       -1   -1    0    0    0  501  0.00000000000E+00  0.00000000000E+00  0.41415886765E+03  0.41415886768E+03  0.50400001928E-02 0. -1.
        1   -1    0    0  501    0  0.00000000000E+00  0.00000000000E+00 -0.12013993473E+04  0.12013993473E+04  0.50400001928E-02 0.  1.
    10030    2    1    2    0    0  0.00000000000E+00  0.00000000000E+00 -0.78724047963E+03  0.16155582150E+04  0.14107731119E+04 0.  0.
        3    1    3    3  502    0  0.64850880311E+02 -0.43004688475E+03  0.24235422435E+03  0.49787703304E+03  0.10100000352E+00 0. -1.
       -3    1    3    3    0  502 -0.64850880311E+02  0.43004688475E+03 -0.10295947040E+04  0.11176811819E+04  0.10100000352E+00 0.  1.
</event>
<event>
 5   0  0.8609148E-04  0.1394894E+04  0.7818609E-02  0.8957523E-01
       -1   -1    0    0    0  501  0.00000000000E+00  0.00000000000E+00  0.64996895267E+03  0.64996895269E+03  0.50400001928E-02 0.  1.
        1   -1    0    0  501    0  0.00000000000E+00  0.00000000000E+00 -0.74839285356E+03  0.74839285357E+03  0.50400001928E-02 0. -1.
    10030    2    1    2    0    0  0.00000000000E+00  0.00000000000E+00 -0.98423900885E+02  0.13983618063E+04  0.13948937153E+04 0.  0.
        5    1    3    3  502    0 -0.44634182309E+03  0.31936211854E+03 -0.48062693539E+03  0.72954611014E+03  0.46999998093E+01 0. -1.
       -5    1    3    3    0  502  0.44634182309E+03 -0.31936211854E+03  0.38220303450E+03  0.66881569613E+03  0.46999998093E+01 0.  1.
</event>
<event>
 5   0  0.1706986E-03  0.1394207E+04  0.7818609E-02  0.8958023E-01
       -2   -1    0    0    0  501  0.00000000000E+00  0.00000000000E+00  0.38347761685E+03  0.38347761686E+03  0.25500000920E-02 0. -1.
        2   -1    0    0  501    0  0.00000000000E+00  0.00000000000E+00 -0.12672264699E+04  0.12672264699E+04  0.25500000920E-02 0.  1.
    10030    2    1    2    0    0  0.00000000000E+00  0.00000000000E+00 -0.88374885309E+03  0.16507040868E+04  0.13942065653E+04 0.  0.
        3    1    3    3  502    0  0.51267542778E+03  0.97899592481E+02  0.10523493788E+03  0.53244232251E+03  0.10100000352E+00 0. -1.
       -3    1    3    3    0  502 -0.51267542778E+03 -0.97899592481E+02 -0.98898379096E+03  0.11182617643E+04  0.10100000352E+00 0.  1.
</event>
<event>
 5   0  0.9639548E-04  0.1398088E+04  0.7818609E-02  0.8955204E-01
       -1   -1    0    0    0  501  0.00000000000E+00  0.00000000000E+00  0.60632198133E+03  0.60632198135E+03  0.50400001928E-02 0. -1.
        1   -1    0    0  501    0  0.00000000000E+00  0.00000000000E+00 -0.80594509291E+03  0.80594509292E+03  0.50400001928E-02 0.  1.
    10030    2    1    2    0    0  0.00000000000E+00  0.00000000000E+00 -0.19962311158E+03  0.14122670743E+04  0.13980875875E+04 0.  0.
        1    1    3    3  502    0 -0.22006517096E+03 -0.52402748724E+03  0.31129111799E+03  0.64802441854E+03  0.50400001928E-02 0. -1.
       -1    1    3    3    0  502  0.22006517096E+03  0.52402748724E+03 -0.51091422957E+03  0.76424265574E+03  0.50400001928E-02 0.  1.
</event>
<event>
 5   0  0.1648463E-03  0.1376129E+04  0.7818609E-02  0.8971281E-01
        2   -1    0    0  501    0  0.00000000000E+00  0.00000000000E+00  0.19777059383E+04  0.19777059383E+04  0.25500000920E-02 0.  1.
       -2   -1    0    0    0  501  0.00000000000E+00  0.00000000000E+00 -0.23938472615E+03  0.23938472616E+03  0.25500000920E-02 0. -1.
    10030    2    1    2    0    0  0.00000000000E+00  0.00000000000E+00  0.17383212121E+04  0.22170906645E+04  0.13761287650E+04 0.  0.
        1    1    3    3  502    0 -0.20732838334E+03 -0.42441265133E+02  0.19239698018E+04  0.19355738472E+04  0.50400001928E-02 0.  1.
       -1    1    3    3    0  502  0.20732838334E+03  0.42441265133E+02 -0.18564858969E+03  0.28151681727E+03  0.50400001928E-02 0. -1.
</event>
<event>
 5   0  0.8673728E-04  0.1397638E+04  0.7818609E-02  0.8955530E-01
        1   -1    0    0  501    0  0.00000000000E+00  0.00000000000E+00  0.51081213622E+03  0.51081213624E+03  0.50400001928E-02 0. -1.
       -1   -1    0    0    0  501  0.00000000000E+00  0.00000000000E+00 -0.95602312250E+03  0.95602312252E+03  0.50400001928E-02 0.  1.
    10030    2    1    2    0    0  0.00000000000E+00  0.00000000000E+00 -0.44521098629E+03  0.14668352588E+04  0.13976383130E+04 0.  0.
        3    1    3    3  502    0 -0.60491035062E+03 -0.34805451327E+03 -0.26029629764E+03  0.74485746909E+03  0.10100000352E+00 0.  1.
       -3    1    3    3    0  502  0.60491035062E+03  0.34805451327E+03 -0.18491468864E+03  0.72197778967E+03  0.10100000352E+00 0. -1.
</event>
<event>
 5   0  0.9007180E-04  0.1397742E+04  0.7818609E-02  0.8955455E-01
        1   -1    0    0  501    0  0.00000000000E+00  0.00000000000E+00  0.12060246215E+04  0.12060246215E+04  0.50400001928E-02 0. -1.
       -1   -1    0    0    0  501  0.00000000000E+00  0.00000000000E+00 -0.40498378273E+03  0.40498378276E+03  0.50400001928E-02 0.  1.
    10030    2    1    2    0    0  0.00000000000E+00  0.00000000000E+00  0.80104083875E+03  0.16110084043E+04  0.13977416261E+04 0.  0.
        2    1    3    3  502    0 -0.49006250887E+03  0.49433744055E+03  0.32863746434E+03  0.76976187922E+03  0.25500000920E-02 0. -1.
       -2    1    3    3    0  502  0.49006250887E+03 -0.49433744055E+03  0.47240337441E+03  0.84124652503E+03  0.25500000920E-02 0.  1.
</event>
<event>
 5   0  0.8609148E-04  0.1408020E+04  0.7818609E-02  0.8948034E-01
       -1   -1    0    0    0  501  0.00000000000E+00  0.00000000000E+00  0.22212641594E+03  0.22212641600E+03  0.50400001928E-02 0.  1.
        1   -1    0    0  501    0  0.00000000000E+00  0.00000000000E+00 -0.22312961572E+04  0.22312961572E+04  0.50400001928E-02 0. -1.
    10030    2    1    2    0    0  0.00000000000E+00  0.00000000000E+00 -0.20091697413E+04  0.24534225732E+04  0.14080196283E+04 0.  0.
        5    1    3    3  502    0  0.19782300483E+03  0.51149407743E+03 -0.23543464185E+03  0.59683472844E+03  0.46999998093E+01 0.  1.
       -5    1    3    3    0  502 -0.19782300483E+03 -0.51149407743E+03 -0.17737350994E+04  0.18565878448E+04  0.46999998093E+01 0. -1.
</event>
<event>
 5   0  0.1605214E-03  0.1410807E+04  0.7818609E-02  0.8946032E-01
       -2   -1    0    0    0  501  0.00000000000E+00  0.00000000000E+00  0.19588983751E+04  0.19588983751E+04  0.25500000920E-02 0.  1.
        2   -1    0    0  501    0  0.00000000000E+00  0.00000000000E+00 -0.25401748574E+03  0.25401748575E+03  0.25500000920E-02 0. -1.
    10030    2    1    2    0    0  0.00000000000E+00  0.00000000000E+00  0.17048808894E+04  0.22129158609E+04  0.14108074852E+04 0.  0.
        5    1    3    3  502    0 -0.61180205342E+02  0.65810022385E+03  0.12389952207E+04  0.14042685531E+04  0.46999998093E+01 0.  1.
       -5    1    3    3    0  502  0.61180205342E+02 -0.65810022385E+03  0.46588566864E+03  0.80864730779E+03  0.46999998093E+01 0. -1.
</event>
<event>
 5   0  0.1605214E-03  0.1425424E+04  0.7818609E-02  0.8935618E-01
       -2   -1    0    0    0  501  0.00000000000E+00  0.00000000000E+00  0.42843987395E+03  0.42843987396E+03  0.25500000920E-02 0.  1.
        2   -1    0    0  501    0  0.00000000000E+00  0.00000000000E+00 -0.11856009880E+04  0.11856009880E+04  0.25500000920E-02 0. -1.
    10030    2    1    2    0    0  0.00000000000E+00  0.00000000000E+00 -0.75716111403E+03  0.16140408619E+04  0.14254244811E+04 0.  0.
        5    1    3    3  502    0  0.60783896586E+03 -0.25281816323E+03 -0.69409906539E+02  0.66198569260E+03  0.46999998093E+01 0.  1.
       -5    1    3    3    0  502 -0.60783896586E+03  0.25281816323E+03 -0.68775120749E+03  0.95205516935E+03  0.46999998093E+01 0. -1.
</event>
<event>
 5   0  0.1605214E-03  0.1427317E+04  0.7818609E-02  0.8934279E-01
        2   -1    0    0  501    0  0.00000000000E+00  0.00000000000E+00  0.77531181327E+03  0.77531181327E+03  0.25500000920E-02 0. -1.
       -2   -1    0    0    0  501  0.00000000000E+00  0.00000000000E+00 -0.65690781083E+03  0.65690781084E+03  0.25500000920E-02 0.  1.
    10030    2    1    2    0    0  0.00000000000E+00  0.00000000000E+00  0.11840400243E+03  0.14322196241E+04  0.14273169038E+04 0.  0.
        5    1    3    3  502    0  0.19929858950E+03 -0.55532236390E+02  0.74454330583E+03  0.77276812907E+03  0.46999998093E+01 0. -1.
       -5    1    3    3    0  502 -0.19929858950E+03  0.55532236390E+02 -0.62613930340E+03  0.65945149504E+03  0.46999998093E+01 0.  1.
</event>
<event>
 5   0  0.8502300E-04  0.1434433E+04  0.7818609E-02  0.8929265E-01
       -1   -1    0    0    0  501  0.00000000000E+00  0.00000000000E+00  0.60200336962E+03  0.60200336964E+03  0.50400001928E-02 0. -1.
        1   -1    0    0  501    0  0.00000000000E+00  0.00000000000E+00 -0.85447931714E+03  0.85447931715E+03  0.50400001928E-02 0.  1.
    10030    2    1    2    0    0  0.00000000000E+00  0.00000000000E+00 -0.25247594752E+03  0.14564826868E+04  0.14344328889E+04 0.  0.
        4    1    3    3  502    0 -0.80972894674E+02 -0.90373689879E+02  0.59150406199E+03  0.60382338622E+03  0.12699999809E+01 0. -1.
       -4    1    3    3    0  502  0.80972894674E+02  0.90373689879E+02 -0.84398000951E+03  0.85265930057E+03  0.12699999809E+01 0.  1.
</event>
<event>
 5   0  0.1578965E-03  0.1447619E+04  0.7818609E-02  0.8920053E-01
        2   -1    0    0  501    0  0.00000000000E+00  0.00000000000E+00  0.18634365479E+04  0.18634365479E+04  0.25500000920E-02 0.  1.
       -2   -1    0    0    0  501  0.00000000000E+00  0.00000000000E+00 -0.28114730555E+03  0.28114730557E+03  0.25500000920E-02 0. -1.
    10030    2    1    2    0    0  0.00000000000E+00  0.00000000000E+00  0.15822892423E+04  0.21445838534E+04  0.14476189616E+04 0.  0.
        2    1    3    3  502    0  0.55694805191E+03  0.18456474882E+03  0.14190528830E+04  0.15355671147E+04  0.25500000920E-02 0.  1.
       -2    1    3    3    0  502 -0.55694805191E+03 -0.18456474882E+03  0.16323635930E+03  0.60901673871E+03  0.25500000920E-02 0. -1.
</event>
<event>
 5   0  0.1706986E-03  0.1381344E+04  0.7818609E-02  0.8967435E-01
        2   -1    0    0  501    0  0.00000000000E+00  0.00000000000E+00  0.10505551016E+04  0.10505551016E+04  0.25500000920E-02 0.  1.
       -2   -1    0    0    0  501  0.00000000000E+00  0.00000000000E+00 -0.45407208387E+03  0.45407208388E+03  0.25500000920E-02 0. -1.
    10030    2    1    2    0    0  0.00000000000E+00  0.00000000000E+00  0.59648301775E+03  0.15046271855E+04  0.13813439025E+04 0.  0.
        3    1    3    3  502    0  0.39076041229E+02 -0.12734192969E+03 -0.43994846095E+03  0.45967114609E+03  0.10100000352E+00 0. -1.
       -3    1    3    3    0  502 -0.39076041229E+02  0.12734192969E+03  0.10364314787E+04  0.10449560394E+04  0.10100000352E+00 0.  1.
</event>
<event>
 5   0  0.8673728E-04  0.1397708E+04  0.7818609E-02  0.8955480E-01
       -1   -1    0    0    0  501  0.00000000000E+00  0.00000000000E+00  0.60105285623E+03  0.60105285626E+03  0.50400001928E-02 0. -1.
        1   -1    0    0  501    0  0.00000000000E+00  0.00000000000E+00 -0.81256855866E+03  0.81256855867E+03  0.50400001928E-02 0.  1.
    10030    2    1    2    0    0  0.00000000000E+00  0.00000000000E+00 -0.21151570242E+03  0.14136214149E+04  0.13977076276E+04 0.  0.
        3    1    3    3  502    0 -0.13898012303E+03 -0.20772176632E+03 -0.76582381877E+03  0.80557429105E+03  0.10100000352E+00 0.  1.
       -3    1    3    3    0  502  0.13898012303E+03  0.20772176632E+03  0.55430811635E+03  0.60804712388E+03  0.10100000352E+00 0. -1.
</event>
<event>
 5   0  0.1706986E-03  0.1434406E+04  0.7818609E-02  0.8929284E-01
       -2   -1    0    0    0  501  0.00000000000E+00  0.00000000000E+00  0.55292896631E+03  0.55292896632E+03  0.25500000920E-02 0.  1.
        2   -1    0    0  501    0  0.00000000000E+00  0.00000000000E+00 -0.93028191743E+03  0.93028191744E+03  0.25500000920E-02 0. -1.
    10030    2    1    2    0    0  0.00000000000E+00  0.00000000000E+00 -0.37735295112E+03  0.14832108838E+04  0.14344055479E+04 0.  0.
        3    1    3    3  502    0  0.39688786566E+03 -0.18542234619E+03 -0.77586999256E+03  0.89099701454E+03  0.10100000352E+00 0. -1.
       -3    1    3    3    0  502 -0.39688786566E+03  0.18542234619E+03  0.39851704144E+03  0.59221386921E+03  0.10100000352E+00 0.  1.
</event>
<event>
 5   0  0.8502300E-04  0.1386153E+04  0.7818609E-02  0.8963903E-01
       -1   -1    0    0    0  501  0.00000000000E+00  0.00000000000E+00  0.30248469405E+03  0.30248469410E+03  0.50400001928E-02 0.  1.
        1   -1    0    0  501    0  0.00000000000E+00  0.00000000000E+00 -0.15880317710E+04  0.15880317710E+04  0.50400001928E-02 0. -1.
    10030    2    1    2    0    0  0.00000000000E+00  0.00000000000E+00 -0.12855470769E+04  0.18905164651E+04  0.13861533890E+04 0.  0.
        4    1    3    3  502    0 -0.12757586355E+03  0.61498463624E+03 -0.24310963013E+03  0.67348764572E+03  0.12699999809E+01 0.  1.
       -4    1    3    3    0  502  0.12757586355E+03 -0.61498463624E+03 -0.10424374468E+04  0.12170288193E+04  0.12699999809E+01 0. -1.
</event>
<event>
 5   0  0.1605214E-03  0.1434887E+04  0.7818609E-02  0.8928946E-01
       -2   -1    0    0    0  501  0.00000000000E+00  0.00000000000E+00  0.39921199218E+03  0.39921199219E+03  0.25500000920E-02 0.  1.
        2   -1    0    0  501    0  0.00000000000E+00  0.00000000000E+00 -0.12893531296E+04  0.12893531296E+04  0.25500000920E-02 0. -1.
    10030    2    1    2    0    0  0.00000000000E+00  0.00000000000E+00 -0.89014113739E+03  0.16885651218E+04  0.14348870778E+04 0.  0.
        5    1    3    3  502    0 -0.14735811551E+03  0.57971728090E+03 -0.91123006605E+03  0.10900224141E+04  0.46999998093E+01 0. -1.
       -5    1    3    3    0  502  0.14735811551E+03 -0.57971728090E+03  0.21088928661E+02  0.59854270766E+03  0.46999998093E+01 0.  1.
</event>
<event>
 5   0  0.8673728E-04  0.1449837E+04  0.7818609E-02  0.8918514E-01
        1   -1    0    0  501    0  0.00000000000E+00  0.00000000000E+00  0.54898155445E+03  0.54898155447E+03  0.50400001928E-02 0. -1.
       -1   -1    0    0    0  501  0.00000000000E+00  0.00000000000E+00 -0.95723947363E+03  0.95723947365E+03  0.50400001928E-02 0.  1.
    10030    2    1    2    0    0  0.00000000000E+00  0.00000000000E+00 -0.40825791918E+03  0.15062210281E+04  0.14498369760E+04 0.  0.
        3    1    3    3  502    0  0.23335045199E+03 -0.42389396824E+03 -0.76490657001E+03  0.90510806029E+03  0.10100000352E+00 0.  1.
       -3    1    3    3    0  502 -0.23335045199E+03  0.42389396824E+03  0.35664865083E+03  0.60111296783E+03  0.10100000352E+00 0. -1.
</event>
<event>
 5   0  0.1578965E-03  0.1374909E+04  0.7818609E-02  0.8972184E-01
        2   -1    0    0  501    0  0.00000000000E+00  0.00000000000E+00  0.57864309630E+03  0.57864309631E+03  0.25500000920E-02 0. -1.
       -2   -1    0    0    0  501  0.00000000000E+00  0.00000000000E+00 -0.81672686955E+03  0.81672686955E+03  0.25500000920E-02 0.  1.
    10030    2    1    2    0    0  0.00000000000E+00  0.00000000000E+00 -0.23808377325E+03  0.13953699659E+04  0.13749085273E+04 0.  0.
        2    1    3    3  502    0  0.54584124524E+02  0.60545722245E+03 -0.44481030949E+03  0.75326893358E+03  0.25500000920E-02 0.  1.
       -2    1    3    3    0  502 -0.54584124524E+02 -0.60545722245E+03  0.20672653624E+03  0.64210103228E+03  0.25500000920E-02 0. -1.
</event>
<event>
 5   0  0.8609148E-04  0.1396761E+04  0.7818609E-02  0.8956166E-01
        1   -1    0    0  501    0  0.00000000000E+00  0.00000000000E+00  0.82714617878E+03  0.82714617880E+03  0.50400001928E-02 0. -1.
       -1   -1    0    0    0  501  0.00000000000E+00  0.00000000000E+00 -0.58966069951E+03  0.58966069953E+03  0.50400001928E-02 0.  1.
    10030    2    1    2    0    0  0.00000000000E+00  0.00000000000E+00  0.23748547928E+03  0.14168068783E+04  0.13967613889E+04 0.  0.
        5    1    3    3  502    0  0.32185051408E+03 -0.88002507853E+02  0.74104654963E+03  0.81271414010E+03  0.46999998093E+01 0. -1.
       -5    1    3    3    0  502 -0.32185051408E+03  0.88002507853E+02 -0.50356107036E+03  0.60409273823E+03  0.46999998093E+01 0.  1.
</event>
<event>
 5   0  0.9007180E-04  0.1384922E+04  0.7818609E-02  0.8964806E-01
       -1   -1    0    0    0  501  0.00000000000E+00  0.00000000000E+00  0.23357160769E+03  0.23357160774E+03  0.50400001928E-02 0.  1.
        1   -1    0    0  501    0  0.00000000000E+00  0.00000000000E+00 -0.20529124261E+04  0.20529124261E+04  0.50400001928E-02 0. -1.
    10030    2    1    2    0    0  0.00000000000E+00  0.00000000000E+00 -0.18193408184E+04  0.22864840339E+04  0.13849217391E+04 0.  0.
        2    1    3    3  502    0 -0.93259716800E+02  0.35239148702E+03  0.62344289774E+02  0.36981609670E+03  0.25500000920E-02 0.  1.
       -2    1    3    3    0  502  0.93259716800E+02 -0.35239148702E+03 -0.18816851082E+04  0.19166679372E+04  0.25500000920E-02 0. -1.
</event>
<event>
 5   0  0.8609148E-04  0.1382575E+04  0.7818609E-02  0.8966529E-01
       -1   -1    0    0    0  501  0.00000000000E+00  0.00000000000E+00  0.71775476306E+03  0.71775476308E+03  0.50400001928E-02 0. -1.
        1   -1    0    0  501    0  0.00000000000E+00  0.00000000000E+00 -0.66579591247E+03  0.66579591249E+03  0.50400001928E-02 0.  1.
    10030    2    1    2    0    0  0.00000000000E+00  0.00000000000E+00  0.51958850590E+02  0.13835506756E+04  0.13825746814E+04 0.  0.
        5    1    3    3  502    0 -0.58029881567E+03  0.36330779113E+03 -0.69570075030E+02  0.68818700358E+03  0.46999998093E+01 0.  1.
       -5    1    3    3    0  502  0.58029881567E+03 -0.36330779113E+03  0.12152892562E+03  0.69536367199E+03  0.46999998093E+01 0. -1.
</event>
<event>
 5   0  0.1605214E-03  0.1410543E+04  0.7818609E-02  0.8946222E-01
        2   -1    0    0  501    0  0.00000000000E+00  0.00000000000E+00  0.91853444050E+03  0.91853444051E+03  0.25500000920E-02 0.  1.
       -2   -1    0    0    0  501  0.00000000000E+00  0.00000000000E+00 -0.54152331651E+03  0.54152331651E+03  0.25500000920E-02 0. -1.
    10030    2    1    2    0    0  0.00000000000E+00  0.00000000000E+00  0.37701112400E+03  0.14600577570E+04  0.14105428977E+04 0.  0.
        5    1    3    3  502    0 -0.31504131191E+03  0.14648756089E+03  0.82378934023E+03  0.89406968453E+03  0.46999998093E+01 0.  1.
       -5    1    3    3    0  502  0.31504131191E+03 -0.14648756089E+03 -0.44677821624E+03  0.56598807250E+03  0.46999998093E+01 0. -1.
</event>
<event>
 5   0  0.8609148E-04  0.1408086E+04  0.7818609E-02  0.8947986E-01
        1   -1    0    0  501    0  0.00000000000E+00  0.00000000000E+00  0.11157959512E+04  0.11157959512E+04  0.50400001928E-02 0.  1.
       -1   -1    0    0    0  501  0.00000000000E+00  0.00000000000E+00 -0.44423605497E+03  0.44423605500E+03  0.50400001928E-02 0. -1.
    10030    2    1    2    0    0  0.00000000000E+00  0.00000000000E+00  0.67155989620E+03  0.15600320062E+04  0.14080863490E+04 0.  0.
        5    1    3    3  502    0 -0.25137981850E+03  0.43536579482E+03 -0.21027383644E+03  0.54495170863E+03  0.46999998093E+01 0. -1.
       -5    1    3    3    0  502  0.25137981850E+03 -0.43536579482E+03  0.88183373264E+03  0.10150802975E+04  0.46999998093E+01 0.  1.
</event>
<event>
 5   0  0.1648463E-03  0.1315632E+04  0.7818609E-02  0.9017260E-01
        2   -1    0    0  501    0  0.00000000000E+00  0.00000000000E+00  0.15345360878E+04  0.15345360878E+04  0.25500000920E-02 0. -1.
       -2   -1    0    0    0  501  0.00000000000E+00  0.00000000000E+00 -0.28198877690E+03  0.28198877691E+03  0.25500000920E-02 0.  1.
    10030    2    1    2    0    0  0.00000000000E+00  0.00000000000E+00  0.12525473109E+04  0.18165248647E+04  0.13156320983E+04 0.  0.
        1    1    3    3  502    0 -0.37901649454E+03 -0.19646388668E+03 -0.64737541230E+02  0.43178989239E+03  0.50400001928E-02 0.  1.
       -1    1    3    3    0  502  0.37901649454E+03  0.19646388668E+03  0.13172848521E+04  0.13847349723E+04  0.50400001928E-02 0. -1.
</event>
<event>
 5   0  0.1605214E-03  0.1372412E+04  0.7818609E-02  0.8974033E-01
       -2   -1    0    0    0  501  0.00000000000E+00  0.00000000000E+00  0.96171727440E+03  0.96171727441E+03  0.25500000920E-02 0. -1.
        2   -1    0    0  501    0  0.00000000000E+00  0.00000000000E+00 -0.48962312368E+03  0.48962312369E+03  0.25500000920E-02 0.  1.
    10030    2    1    2    0    0  0.00000000000E+00  0.00000000000E+00  0.47209415072E+03  0.14513403981E+04  0.13724124978E+04 0.  0.
        5    1    3    3  502    0  0.31890834294E+03  0.11259471665E+03 -0.39534666220E+03  0.52028951048E+03  0.46999998093E+01 0.  1.
       -5    1    3    3    0  502 -0.31890834294E+03 -0.11259471665E+03  0.86744081292E+03  0.93105088761E+03  0.46999998093E+01 0. -1.
</event>
<event>
 5   0  0.1605214E-03  0.1406653E+04  0.7818609E-02  0.8949017E-01
        2   -1    0    0  501    0  0.00000000000E+00  0.00000000000E+00  0.86066661515E+03  0.86066661515E+03  0.25500000920E-02 0.  1.
       -2   -1    0    0    0  501  0.00000000000E+00  0.00000000000E+00 -0.57474969438E+03  0.57474969439E+03  0.25500000920E-02 0. -1.
    10030    2    1    2    0    0  0.00000000000E+00  0.00000000000E+00  0.28591692076E+03  0.14354163095E+04  0.14066525854E+04 0.  0.
        5    1    3    3  502    0 -0.20152593260E+02  0.15987789408E+03  0.84155856032E+03  0.85686053035E+03  0.46999998093E+01 0.  1.
       -5    1    3    3    0  502  0.20152593260E+02 -0.15987789408E+03 -0.55564163956E+03  0.57855577919E+03  0.46999998093E+01 0. -1.
</event>
<event>
 5   0  0.8609148E-04  0.1385397E+04  0.7818609E-02  0.8964457E-01
       -1   -1    0    0    0  501  0.00000000000E+00  0.00000000000E+00  0.35932605156E+03  0.35932605159E+03  0.50400001928E-02 0. -1.
        1   -1    0    0  501    0  0.00000000000E+00  0.00000000000E+00 -0.13353640747E+04  0.13353640747E+04  0.50400001928E-02 0.  1.
    10030    2    1    2    0    0  0.00000000000E+00  0.00000000000E+00 -0.97603802313E+03  0.16946901263E+04  0.13853968390E+04 0.  0.
        5    1    3    3  502    0  0.30283772049E+03  0.13376507744E+03  0.25626275779E+03  0.41868421504E+03  0.46999998093E+01 0. -1.
       -5    1    3    3    0  502 -0.30283772049E+03 -0.13376507744E+03 -0.12323007809E+04  0.12760059113E+04  0.46999998093E+01 0.  1.
</event>
<event>
 5   0  0.8609148E-04  0.1406038E+04  0.7818609E-02  0.8949459E-01
        1   -1    0    0  501    0  0.00000000000E+00  0.00000000000E+00  0.38411815304E+03  0.38411815307E+03  0.50400001928E-02 0. -1.
       -1   -1    0    0    0  501  0.00000000000E+00  0.00000000000E+00 -0.12866764700E+04  0.12866764700E+04  0.50400001928E-02 0.  1.
    10030    2    1    2    0    0  0.00000000000E+00  0.00000000000E+00 -0.90255831692E+03  0.16707946230E+04  0.14060381065E+04 0.  0.
        5    1    3    3  502    0 -0.35006445760E+03  0.45305579705E+03 -0.93602535338E+03  0.10972557732E+04  0.46999998093E+01 0.  1.
       -5    1    3    3    0  502  0.35006445760E+03 -0.45305579705E+03  0.33467036453E+02  0.57353884981E+03  0.46999998093E+01 0. -1.
</event>
<event>
 5   0  0.1605214E-03  0.1422265E+04  0.7818609E-02  0.8937858E-01
       -2   -1    0    0    0  501  0.00000000000E+00  0.00000000000E+00  0.19530234991E+03  0.19530234993E+03  0.25500000920E-02 0. -1.
        2   -1    0    0  501    0  0.00000000000E+00  0.00000000000E+00 -0.25893677659E+04  0.25893677659E+04  0.25500000920E-02 0.  1.
    10030    2    1    2    0    0  0.00000000000E+00  0.00000000000E+00 -0.23940654160E+04  0.27846701159E+04  0.14222652488E+04 0.  0.
        5    1    3    3  502    0  0.34686209465E+02  0.46382418919E+03 -0.22502210190E+04  0.22977930142E+04  0.46999998093E+01 0.  1.
       -5    1    3    3    0  502 -0.34686209465E+02 -0.46382418919E+03 -0.14384439702E+03  0.48687710170E+03  0.46999998093E+01 0. -1.
</event>
<event>
 5   0  0.8502300E-04  0.1410388E+04  0.7818609E-02  0.8946333E-01
        1   -1    0    0  501    0  0.00000000000E+00  0.00000000000E+00  0.81031156123E+03  0.81031156125E+03  0.50400001928E-02 0.  1.
       -1   -1    0    0    0  501  0.00000000000E+00  0.00000000000E+00 -0.61371265139E+03  0.61371265141E+03  0.50400001928E-02 0. -1.
    10030    2    1    2    0    0  0.00000000000E+00  0.00000000000E+00  0.19659890984E+03  0.14240242127E+04  0.14103878285E+04 0.  0.
        4    1    3    3  502    0 -0.51197207731E+03  0.74647032947E+02  0.58210798174E+03  0.77880607521E+03  0.12699999809E+01 0.  1.
       -4    1    3    3    0  502  0.51197207731E+03 -0.74647032947E+02 -0.38550907190E+03  0.64521813745E+03  0.12699999809E+01 0. -1.
</event>
<event>
 5   0  0.1648463E-03  0.1346031E+04  0.7818609E-02  0.8993838E-01
       -2   -1    0    0    0  501  0.00000000000E+00  0.00000000000E+00  0.26613812427E+03  0.26613812428E+03  0.25500000920E-02 0. -1.
        2   -1    0    0  501    0  0.00000000000E+00  0.00000000000E+00 -0.17019364768E+04  0.17019364768E+04  0.25500000920E-02 0.  1.
    10030    2    1    2    0    0  0.00000000000E+00  0.00000000000E+00 -0.14357983526E+04  0.19680746011E+04  0.13460314730E+04 0.  0.
        1    1    3    3  502    0  0.26927213236E+03 -0.28566707209E+03  0.81389285029E+02  0.40092065685E+03  0.50400001928E-02 0. -1.
       -1    1    3    3    0  502 -0.26927213236E+03  0.28566707209E+03 -0.15171876376E+04  0.15671539443E+04  0.50400001928E-02 0.  1.
</event>
<event>
 5   0  0.8609148E-04  0.1422646E+04  0.7818609E-02  0.8937588E-01
       -1   -1    0    0    0  501  0.00000000000E+00  0.00000000000E+00  0.45226886888E+03  0.45226886891E+03  0.50400001928E-02 0.  1.
        1   -1    0    0  501    0  0.00000000000E+00  0.00000000000E+00 -0.11187594484E+04  0.11187594484E+04  0.50400001928E-02 0. -1.
    10030    2    1    2    0    0  0.00000000000E+00  0.00000000000E+00 -0.66649057955E+03  0.15710283174E+04  0.14226455220E+04 0.  0.
        5    1    3    3  502    0 -0.43090388724E+03  0.37360693917E+03  0.13617687794E+03  0.58636723742E+03  0.46999998093E+01 0.  1.
       -5    1    3    3    0  502  0.43090388724E+03 -0.37360693917E+03 -0.80266745749E+03  0.98466107994E+03  0.46999998093E+01 0. -1.
</event>
<event>
 5   0  0.9639548E-04  0.1465947E+04  0.7818609E-02  0.8907419E-01
       -1   -1    0    0    0  501  0.00000000000E+00  0.00000000000E+00  0.42447621338E+03  0.42447621341E+03  0.50400001928E-02 0. -1.
        1   -1    0    0  501    0  0.00000000000E+00  0.00000000000E+00 -0.12656772581E+04  0.12656772581E+04  0.50400001928E-02 0.  1.
    10030    2    1    2    0    0  0.00000000000E+00  0.00000000000E+00 -0.84120104475E+03  0.16901534715E+04  0.14659466429E+04 0.  0.
        1    1    3    3  502    0 -0.32315519368E+03  0.45107545421E+03 -0.97275273120E+03  0.11198866999E+04  0.50400001928E-02 0.  1.
       -1    1    3    3    0  502  0.32315519368E+03 -0.45107545421E+03  0.13155168645E+03  0.57026677163E+03  0.50400001928E-02 0. -1.
</event>
<event>
 5   0  0.9639548E-04  0.1324119E+04  0.7818609E-02  0.9010654E-01
       -1   -1    0    0    0  501  0.00000000000E+00  0.00000000000E+00  0.31702179300E+03  0.31702179304E+03  0.50400001928E-02 0.  1.
        1   -1    0    0  501    0  0.00000000000E+00  0.00000000000E+00 -0.13826266556E+04  0.13826266556E+04  0.50400001928E-02 0. -1.
    10030    2    1    2    0    0  0.00000000000E+00  0.00000000000E+00 -0.10656048626E+04  0.16996484487E+04  0.13241189999E+04 0.  0.
        1    1    3    3  502    0  0.64124224061E+03 -0.15484782875E+03 -0.60488265441E+03  0.89501535564E+03  0.50400001928E-02 0. -1.
       -1    1    3    3    0  502 -0.64124224061E+03  0.15484782875E+03 -0.46072220820E+03  0.80463309301E+03  0.50400001928E-02 0.  1.
</event>
<event>
 5   0  0.8502300E-04  0.1008403E+04  0.7818609E-02  0.9299376E-01
       -1   -1    0    0    0  501  0.00000000000E+00  0.00000000000E+00  0.14615421211E+03  0.14615421220E+03  0.50400001928E-02 0.  1.
        1   -1    0    0  501    0  0.00000000000E+00  0.00000000000E+00 -0.17393892290E+04  0.17393892290E+04  0.50400001928E-02 0. -1.
    10030    2    1    2    0    0  0.00000000000E+00  0.00000000000E+00 -0.15932350169E+04  0.18855434412E+04  0.10084028211E+04 0.  0.
        4    1    3    3  502    0  0.34969756992E+03  0.16203675577E+03 -0.18878375228E+03  0.42916805410E+03  0.12699999809E+01 0. -1.
       -4    1    3    3    0  502 -0.34969756992E+03 -0.16203675577E+03 -0.14044512646E+04  0.14563753871E+04  0.12699999809E+01 0.  1.
</event>
<event>
 5   0  0.1648213E-03  0.1146088E+04  0.7818609E-02  0.9161400E-01
       -2   -1    0    0    0  501  0.00000000000E+00  0.00000000000E+00  0.47637418757E+03  0.47637418758E+03  0.25500000920E-02 0. -1.
        2   -1    0    0  501    0  0.00000000000E+00  0.00000000000E+00 -0.68933065673E+03  0.68933065673E+03  0.25500000920E-02 0.  1.
    10030    2    1    2    0    0  0.00000000000E+00  0.00000000000E+00 -0.21295646916E+03  0.11657048443E+04  0.11460878353E+04 0.  0.
        4    1    3    3  502    0  0.49668645356E+03 -0.21771855628E+03 -0.29479294070E+03  0.61725464249E+03  0.12699999809E+01 0.  1.
       -4    1    3    3    0  502 -0.49668645356E+03  0.21771855628E+03  0.81836471540E+02  0.54845020182E+03  0.12699999809E+01 0. -1.
</event>
<event>
 5   0  0.1706986E-03  0.1021413E+04  0.7818609E-02  0.9285367E-01
        2   -1    0    0  501    0  0.00000000000E+00  0.00000000000E+00  0.35809416393E+03  0.35809416393E+03  0.25500000920E-02 0.  1.
       -2   -1    0    0    0  501  0.00000000000E+00  0.00000000000E+00 -0.72835843487E+03  0.72835843488E+03  0.25500000920E-02 0. -1.
    10030    2    1    2    0    0  0.00000000000E+00  0.00000000000E+00 -0.37026427094E+03  0.10864525988E+04  0.10214125607E+04 0.  0.
        3    1    3    3  502    0 -0.25121050974E+03 -0.23232616351E+02 -0.65745054652E+03  0.70419294656E+03  0.10100000352E+00 0. -1.
       -3    1    3    3    0  502  0.25121050974E+03  0.23232616351E+02  0.28718627557E+03  0.38225965225E+03  0.10100000352E+00 0.  1.
</event>
<event>
 5   0  0.8502300E-04  0.1407401E+04  0.7818609E-02  0.8948478E-01
        1   -1    0    0  501    0  0.00000000000E+00  0.00000000000E+00  0.93084491270E+03  0.93084491272E+03  0.50400001928E-02 0. -1.
       -1   -1    0    0    0  501  0.00000000000E+00  0.00000000000E+00 -0.53198407735E+03  0.53198407738E+03  0.50400001928E-02 0.  1.
    10030    2    1    2    0    0  0.00000000000E+00  0.00000000000E+00  0.39886083535E+03  0.14628289901E+04  0.14074013956E+04 0.  0.
        4    1    3    3  502    0 -0.61757538051E+03  0.27456035180E+03  0.40313441619E+03  0.78695724650E+03  0.12699999809E+01 0.  1.
       -4    1    3    3    0  502  0.61757538051E+03 -0.27456035180E+03 -0.42735808397E+01  0.67587174360E+03  0.12699999809E+01 0. -1.
</event>
<event>
 5   0  0.1605214E-03  0.1394997E+04  0.7818609E-02  0.8957448E-01
       -2   -1    0    0    0  501  0.00000000000E+00  0.00000000000E+00  0.85328878325E+03  0.85328878325E+03  0.25500000920E-02 0. -1.
        2   -1    0    0  501    0  0.00000000000E+00  0.00000000000E+00 -0.57015158210E+03  0.57015158211E+03  0.25500000920E-02 0.  1.
    10030    2    1    2    0    0  0.00000000000E+00  0.00000000000E+00  0.28313720115E+03  0.14234403654E+04  0.13949967022E+04 0.  0.
        5    1    3    3  502    0 -0.45160211824E+03  0.52979159637E+03  0.18555498668E+03  0.72046953569E+03  0.46999998093E+01 0.  1.
       -5    1    3    3    0  502  0.45160211824E+03 -0.52979159637E+03  0.97582214467E+02  0.70297082967E+03  0.46999998093E+01 0. -1.
</event>
<event>
 5   0  0.1706986E-03  0.1404911E+04  0.7818609E-02  0.8950272E-01
       -2   -1    0    0    0  501  0.00000000000E+00  0.00000000000E+00  0.10352920457E+04  0.10352920457E+04  0.25500000920E-02 0. -1.
        2   -1    0    0  501    0  0.00000000000E+00  0.00000000000E+00 -0.47662259389E+03  0.47662259390E+03  0.25500000920E-02 0.  1.
    10030    2    1    2    0    0  0.00000000000E+00  0.00000000000E+00  0.55866945179E+03  0.15119146396E+04  0.14049107876E+04 0.  0.
        3    1    3    3  502    0 -0.66962571469E+03  0.14640546410E+03  0.44469466781E+03  0.81705967682E+03  0.10100000352E+00 0. -1.
       -3    1    3    3    0  502  0.66962571469E+03 -0.14640546410E+03  0.11397478398E+03  0.69485496277E+03  0.10100000352E+00 0.  1.
</event>
<event>
 5   0  0.1648213E-03  0.1396198E+04  0.7818609E-02  0.8956575E-01
       -2   -1    0    0    0  501  0.00000000000E+00  0.00000000000E+00  0.36619441228E+03  0.36619441229E+03  0.25500000920E-02 0. -1.
        2   -1    0    0  501    0  0.00000000000E+00  0.00000000000E+00 -0.13308292127E+04  0.13308292128E+04  0.25500000920E-02 0.  1.
    10030    2    1    2    0    0  0.00000000000E+00  0.00000000000E+00 -0.96463480047E+03  0.16970236250E+04  0.13961980109E+04 0.  0.
        4    1    3    3  502    0  0.32466480587E+03 -0.53663583725E+03 -0.10975276174E+03  0.63673584758E+03  0.12699999809E+01 0. -1.
       -4    1    3    3    0  502 -0.32466480587E+03  0.53663583725E+03 -0.85488203873E+03  0.10602877775E+04  0.12699999809E+01 0.  1.
</event>
<event>
 5   0  0.1578965E-03  0.1395392E+04  0.7818609E-02  0.8957161E-01
        2   -1    0    0  501    0  0.00000000000E+00  0.00000000000E+00  0.10411590902E+04  0.10411590902E+04  0.25500000920E-02 0.  1.
       -2   -1    0    0    0  501  0.00000000000E+00  0.00000000000E+00 -0.46753640390E+03  0.46753640391E+03  0.25500000920E-02 0. -1.
    10030    2    1    2    0    0  0.00000000000E+00  0.00000000000E+00  0.57362268629E+03  0.15086954941E+04  0.13953920982E+04 0.  0.
        2    1    3    3  502    0 -0.52874097919E+03 -0.41329594768E+03  0.49308859348E+03  0.83277663540E+03  0.25500000920E-02 0.  1.
       -2    1    3    3    0  502  0.52874097919E+03  0.41329594768E+03  0.80534092802E+02  0.67591885870E+03  0.25500000920E-02 0. -1.
</event>
<event>
 5   0  0.1578965E-03  0.1407451E+04  0.7818609E-02  0.8948443E-01
       -2   -1    0    0    0  501  0.00000000000E+00  0.00000000000E+00  0.59077606569E+03  0.59077606569E+03  0.25500000920E-02 0. -1.
        2   -1    0    0  501    0  0.00000000000E+00  0.00000000000E+00 -0.83826923108E+03  0.83826923108E+03  0.25500000920E-02 0.  1.
    10030    2    1    2    0    0  0.00000000000E+00  0.00000000000E+00 -0.24749316539E+03  0.14290452968E+04  0.14074507428E+04 0.  0.
        2    1    3    3  502    0  0.65805247040E+02  0.69478351130E+03 -0.31943961270E+02  0.69862355728E+03  0.25500000920E-02 0.  1.
       -2    1    3    3    0  502 -0.65805247040E+02 -0.69478351130E+03 -0.21554920412E+03  0.73042173949E+03  0.25500000920E-02 0. -1.
</event>
<event>
 5   0  0.1578965E-03  0.1512580E+04  0.7818609E-02  0.8876130E-01
        2   -1    0    0  501    0  0.00000000000E+00  0.00000000000E+00  0.19665493800E+04  0.19665493800E+04  0.25500000920E-02 0. -1.
       -2   -1    0    0    0  501  0.00000000000E+00  0.00000000000E+00 -0.29085175988E+03  0.29085175989E+03  0.25500000920E-02 0.  1.
    10030    2    1    2    0    0  0.00000000000E+00  0.00000000000E+00  0.16756976201E+04  0.22574011399E+04  0.15125797144E+04 0.  0.
        2    1    3    3  502    0 -0.63041979227E+03  0.41771876870E+03  0.84904332327E+03  0.11370103997E+04  0.25500000920E-02 0.  1.
       -2    1    3    3    0  502  0.63041979227E+03 -0.41771876870E+03  0.82665429685E+03  0.11203907402E+04  0.25500000920E-02 0. -1.
</event>
<event>
 5   0  0.1706986E-03  0.1391412E+04  0.7818609E-02  0.8960058E-01
        2   -1    0    0  501    0  0.00000000000E+00  0.00000000000E+00  0.12312729657E+04  0.12312729657E+04  0.25500000920E-02 0. -1.
       -2   -1    0    0    0  501  0.00000000000E+00  0.00000000000E+00 -0.39309480805E+03  0.39309480806E+03  0.25500000920E-02 0.  1.
    10030    2    1    2    0    0  0.00000000000E+00  0.00000000000E+00  0.83817815768E+03  0.16243677738E+04  0.13914122468E+04 0.  0.
        3    1    3    3  502    0 -0.22813944244E+03  0.46642428667E+03  0.95965518648E+03  0.10911174582E+04  0.10100000352E+00 0. -1.
       -3    1    3    3    0  502  0.22813944244E+03 -0.46642428667E+03 -0.12147702879E+03  0.53325031563E+03  0.10100000352E+00 0.  1.
</event>
<event>
 5   0  0.1648213E-03  0.1406404E+04  0.7818609E-02  0.8949196E-01
       -2   -1    0    0    0  501  0.00000000000E+00  0.00000000000E+00  0.44870164626E+03  0.44870164627E+03  0.25500000920E-02 0.  1.
        2   -1    0    0  501    0  0.00000000000E+00  0.00000000000E+00 -0.11020529008E+04  0.11020529009E+04  0.25500000920E-02 0. -1.
    10030    2    1    2    0    0  0.00000000000E+00  0.00000000000E+00 -0.65335125459E+03  0.15507545471E+04  0.14064038551E+04 0.  0.
        4    1    3    3  502    0 -0.60126869303E+03  0.74682552756E+02 -0.72022603377E+03  0.94118472019E+03  0.12699999809E+01 0. -1.
       -4    1    3    3    0  502  0.60126869303E+03 -0.74682552756E+02  0.66874779179E+02  0.60956982692E+03  0.12699999809E+01 0.  1.
</event>
<event>
 5   0  0.1648463E-03  0.1414758E+04  0.7818609E-02  0.8943205E-01
        2   -1    0    0  501    0  0.00000000000E+00  0.00000000000E+00  0.15350180813E+04  0.15350180813E+04  0.25500000920E-02 0. -1.
       -2   -1    0    0    0  501  0.00000000000E+00  0.00000000000E+00 -0.32597989790E+03  0.32597989791E+03  0.25500000920E-02 0.  1.
    10030    2    1    2    0    0  0.00000000000E+00  0.00000000000E+00  0.12090381834E+04  0.18609979792E+04  0.14147579827E+04 0.  0.
        1    1    3    3  502    0  0.26652363397E+02 -0.30055019989E+03 -0.23708551539E+03  0.38373208461E+03  0.50400001928E-02 0.  1.
       -1    1    3    3    0  502 -0.26652363397E+02  0.30055019989E+03  0.14461236988E+04  0.14772658946E+04  0.50400001928E-02 0. -1.
</event>
<event>
 5   0  0.9639548E-04  0.1292219E+04  0.7818609E-02  0.9035759E-01
       -1   -1    0    0    0  501  0.00000000000E+00  0.00000000000E+00  0.21927856362E+03  0.21927856368E+03  0.50400001928E-02 0.  1.
        1   -1    0    0  501    0  0.00000000000E+00  0.00000000000E+00 -0.19037764682E+04  0.19037764682E+04  0.50400001928E-02 0. -1.
    10030    2    1    2    0    0  0.00000000000E+00  0.00000000000E+00 -0.16844979046E+04  0.21230550319E+04  0.12922188197E+04 0.  0.
        1    1    3    3  502    0  0.24645242447E+03  0.46790161342E+03 -0.14521070066E+04  0.15454078672E+04  0.50400001928E-02 0. -1.
       -1    1    3    3    0  502 -0.24645242447E+03 -0.46790161342E+03 -0.23239089795E+03  0.57764716466E+03  0.50400001928E-02 0.  1.
</event>
<event>
 5   0  0.8673728E-04  0.1386272E+04  0.7818609E-02  0.8963816E-01
        1   -1    0    0  501    0  0.00000000000E+00  0.00000000000E+00  0.59790500745E+03  0.59790500747E+03  0.50400001928E-02 0.  1.
       -1   -1    0    0    0  501  0.00000000000E+00  0.00000000000E+00 -0.80353479963E+03  0.80353479965E+03  0.50400001928E-02 0. -1.
    10030    2    1    2    0    0  0.00000000000E+00  0.00000000000E+00 -0.20562979218E+03  0.14014398071E+04  0.13862719508E+04 0.  0.
        3    1    3    3  502    0  0.18333409852E+02  0.28007016270E+03  0.53788760449E+03  0.60671121237E+03  0.10100000352E+00 0.  1.
       -3    1    3    3    0  502 -0.18333409852E+02 -0.28007016270E+03 -0.74351739667E+03  0.79472859474E+03  0.10100000352E+00 0. -1.
</event>
<event>
 5   0  0.9639548E-04  0.1400417E+04  0.7818609E-02  0.8953517E-01
       -1   -1    0    0    0  501  0.00000000000E+00  0.00000000000E+00  0.60785561977E+03  0.60785561979E+03  0.50400001928E-02 0. -1.
        1   -1    0    0  501    0  0.00000000000E+00  0.00000000000E+00 -0.80659245765E+03  0.80659245767E+03  0.50400001928E-02 0.  1.
    10030    2    1    2    0    0  0.00000000000E+00  0.00000000000E+00 -0.19873683788E+03  0.14144480775E+04  0.14004167355E+04 0.  0.
        1    1    3    3  502    0  0.33318393104E+03 -0.60134625852E+03  0.34865035981E+02  0.68836358510E+03  0.50400001928E-02 0.  1.
       -1    1    3    3    0  502 -0.33318393104E+03  0.60134625852E+03 -0.23360187386E+03  0.72608449235E+03  0.50400001928E-02 0. -1.
</event>
<event>
 5   0  0.1648213E-03  0.1382348E+04  0.7818609E-02  0.8966696E-01
       -2   -1    0    0    0  501  0.00000000000E+00  0.00000000000E+00  0.76777782987E+03  0.76777782987E+03  0.25500000920E-02 0.  1.
        2   -1    0    0  501    0  0.00000000000E+00  0.00000000000E+00 -0.62221338989E+03  0.62221338989E+03  0.25500000920E-02 0. -1.
    10030    2    1    2    0    0  0.00000000000E+00  0.00000000000E+00  0.14556443998E+03  0.13899912198E+04  0.13823482140E+04 0.  0.
        4    1    3    3  502    0 -0.51481610858E+03  0.29013524894E+03  0.43324150006E+03  0.73274408807E+03  0.12699999809E+01 0.  1.
       -4    1    3    3    0  502  0.51481610858E+03 -0.29013524894E+03 -0.28767706007E+03  0.65724713170E+03  0.12699999809E+01 0. -1.
</event>
<event>
 5   0  0.1578965E-03  0.1378389E+04  0.7818609E-02  0.8969612E-01
        2   -1    0    0  501    0  0.00000000000E+00  0.00000000000E+00  0.78443285181E+03  0.78443285181E+03  0.25500000920E-02 0.  1.
       -2   -1    0    0    0  501  0.00000000000E+00  0.00000000000E+00 -0.60551926830E+03  0.60551926831E+03  0.25500000920E-02 0. -1.
    10030    2    1    2    0    0  0.00000000000E+00  0.00000000000E+00  0.17891358351E+03  0.13899521201E+04  0.13783892142E+04 0.  0.
        2    1    3    3  502    0  0.34146640555E+03 -0.59386387751E+03  0.13221035929E+02  0.68516305135E+03  0.25500000920E-02 0. -1.
       -2    1    3    3    0  502 -0.34146640555E+03  0.59386387751E+03  0.16569254758E+03  0.70478906877E+03  0.25500000920E-02 0.  1.
</event>
<event>
 5   0  0.1578965E-03  0.1411827E+04  0.7818609E-02  0.8945301E-01
       -2   -1    0    0    0  501  0.00000000000E+00  0.00000000000E+00  0.14902995283E+04  0.14902995283E+04  0.25500000920E-02 0.  1.
        2   -1    0    0  501    0  0.00000000000E+00  0.00000000000E+00 -0.33437184646E+03  0.33437184647E+03  0.25500000920E-02 0. -1.
    10030    2    1    2    0    0  0.00000000000E+00  0.00000000000E+00  0.11559276818E+04  0.18246713747E+04  0.14118274754E+04 0.  0.
        2    1    3    3  502    0  0.42627426987E+03  0.48088055539E+03  0.20036902915E+03  0.67312971228E+03  0.25500000920E-02 0. -1.
       -2    1    3    3    0  502 -0.42627426987E+03 -0.48088055539E+03  0.95555865265E+03  0.11515416625E+04  0.25500000920E-02 0.  1.
</event>
<event>
 5   0  0.1648463E-03  0.1404280E+04  0.7818609E-02  0.8950726E-01
       -2   -1    0    0    0  501  0.00000000000E+00  0.00000000000E+00  0.10515915303E+04  0.10515915303E+04  0.25500000920E-02 0.  1.
        2   -1    0    0  501    0  0.00000000000E+00  0.00000000000E+00 -0.46881387077E+03  0.46881387077E+03  0.25500000920E-02 0. -1.
    10030    2    1    2    0    0  0.00000000000E+00  0.00000000000E+00  0.58277765954E+03  0.15204054011E+04  0.14042801655E+04 0.  0.
        1    1    3    3  502    0 -0.24173094150E+03 -0.24180287507E+03  0.95537078882E+03  0.10147097233E+04  0.50400001928E-02 0.  1.
       -1    1    3    3    0  502  0.24173094150E+03  0.24180287507E+03 -0.37259312929E+03  0.50569567774E+03  0.50400001928E-02 0. -1.
</event>
<event>
 5   0  0.1605214E-03  0.1448405E+04  0.7818609E-02  0.8919507E-01
        2   -1    0    0  501    0  0.00000000000E+00  0.00000000000E+00  0.12184375959E+04  0.12184375959E+04  0.25500000920E-02 0.  1.
       -2   -1    0    0    0  501  0.00000000000E+00  0.00000000000E+00 -0.43044420118E+03  0.43044420119E+03  0.25500000920E-02 0. -1.
    10030    2    1    2    0    0  0.00000000000E+00  0.00000000000E+00  0.78799339473E+03  0.16488817971E+04  0.14484051887E+04 0.  0.
        5    1    3    3  502    0 -0.56750769267E+03 -0.73893300518E+01 -0.11807072856E+03  0.57972611670E+03  0.46999998093E+01 0. -1.
       -5    1    3    3    0  502  0.56750769267E+03  0.73893300518E+01  0.90606412329E+03  0.10691556804E+04  0.46999998093E+01 0.  1.
</event>
<event>
 5   0  0.9007180E-04  0.1417907E+04  0.7818609E-02  0.8940958E-01
       -1   -1    0    0    0  501  0.00000000000E+00  0.00000000000E+00  0.35395690867E+03  0.35395690871E+03  0.50400001928E-02 0.  1.
        1   -1    0    0  501    0  0.00000000000E+00  0.00000000000E+00 -0.14199894166E+04  0.14199894166E+04  0.50400001928E-02 0. -1.
    10030    2    1    2    0    0  0.00000000000E+00  0.00000000000E+00 -0.10660325079E+04  0.17739463253E+04  0.14179069988E+04 0.  0.
        2    1    3    3  502    0  0.60233375770E+02 -0.46217977951E+03  0.13533090085E+03  0.48533767716E+03  0.25500000920E-02 0.  1.
       -2    1    3    3    0  502 -0.60233375770E+02  0.46217977951E+03 -0.12013634088E+04  0.12886086482E+04  0.25500000920E-02 0. -1.
</event>
<event>
 5   0  0.8673728E-04  0.1389180E+04  0.7818609E-02  0.8961688E-01
        1   -1    0    0  501    0  0.00000000000E+00  0.00000000000E+00  0.18834238984E+04  0.18834238984E+04  0.50400001928E-02 0. -1.
       -1   -1    0    0    0  501  0.00000000000E+00  0.00000000000E+00 -0.25615862931E+03  0.25615862936E+03  0.50400001928E-02 0.  1.
    10030    2    1    2    0    0  0.00000000000E+00  0.00000000000E+00  0.16272652691E+04  0.21395825277E+04  0.13891800233E+04 0.  0.
        3    1    3    3  502    0 -0.67666634275E+03 -0.15674810107E+03  0.80928521744E+03  0.10664848241E+04  0.10100000352E+00 0. -1.
       -3    1    3    3    0  502  0.67666634275E+03  0.15674810107E+03  0.81798005162E+03  0.10730977037E+04  0.10100000352E+00 0.  1.
</event>
<event>
 5   0  0.9639548E-04  0.1395220E+04  0.7818609E-02  0.8957286E-01
       -1   -1    0    0    0  501  0.00000000000E+00  0.00000000000E+00  0.71462560054E+03  0.71462560055E+03  0.50400001928E-02 0.  1.
        1   -1    0    0  501    0  0.00000000000E+00  0.00000000000E+00 -0.68099987875E+03  0.68099987877E+03  0.50400001928E-02 0. -1.
    10030    2    1    2    0    0  0.00000000000E+00  0.00000000000E+00  0.33625721783E+02  0.13956254793E+04  0.13952203372E+04 0.  0.
        1    1    3    3  502    0 -0.54225646922E+03 -0.60879154588E+02 -0.41795296704E+03  0.68733764087E+03  0.50400001928E-02 0. -1.
       -1    1    3    3    0  502  0.54225646922E+03  0.60879154588E+02  0.45157868882E+03  0.70828783845E+03  0.50400001928E-02 0.  1.
</event>
<event>
 5   0  0.9007180E-04  0.1392594E+04  0.7818609E-02  0.8959197E-01
       -1   -1    0    0    0  501  0.00000000000E+00  0.00000000000E+00  0.11591884458E+04  0.11591884458E+04  0.50400001928E-02 0. -1.
        1   -1    0    0  501    0  0.00000000000E+00  0.00000000000E+00 -0.41824925571E+03  0.41824925574E+03  0.50400001928E-02 0.  1.
    10030    2    1    2    0    0  0.00000000000E+00  0.00000000000E+00  0.74093919004E+03  0.15774377015E+04  0.13925942764E+04 0.  0.
        2    1    3    3  502    0  0.11191761127E+03  0.26718849183E+03 -0.34675218982E+03  0.45183218459E+03  0.25500000920E-02 0.  1.
       -2    1    3    3    0  502 -0.11191761127E+03 -0.26718849183E+03  0.10876913799E+04  0.11256055169E+04  0.25500000920E-02 0. -1.
</event>
<event>
 5   0  0.1706986E-03  0.1346725E+04  0.7818609E-02  0.8993311E-01
       -2   -1    0    0    0  501  0.00000000000E+00  0.00000000000E+00  0.32472849838E+03  0.32472849839E+03  0.25500000920E-02 0.  1.
        2   -1    0    0  501    0  0.00000000000E+00  0.00000000000E+00 -0.13962964467E+04  0.13962964467E+04  0.25500000920E-02 0. -1.
    10030    2    1    2    0    0  0.00000000000E+00  0.00000000000E+00 -0.10715679483E+04  0.17210249451E+04  0.13467252852E+04 0.  0.
        3    1    3    3  502    0 -0.47464874553E+03 -0.33947105442E+03 -0.10641894103E+03  0.59317537848E+03  0.10100000352E+00 0. -1.
       -3    1    3    3    0  502  0.47464874553E+03  0.33947105442E+03 -0.96514900729E+03  0.11278495666E+04  0.10100000352E+00 0.  1.
</event>
<event>
 5   0  0.9007180E-04  0.1401535E+04  0.7818609E-02  0.8952708E-01
        1   -1    0    0  501    0  0.00000000000E+00  0.00000000000E+00  0.13424426294E+04  0.13424426294E+04  0.50400001928E-02 0. -1.
       -1   -1    0    0    0  501  0.00000000000E+00  0.00000000000E+00 -0.36580735810E+03  0.36580735813E+03  0.50400001928E-02 0.  1.
    10030    2    1    2    0    0  0.00000000000E+00  0.00000000000E+00  0.97663527131E+03  0.17082499875E+04  0.14015354319E+04 0.  0.
        2    1    3    3  502    0 -0.23945397522E+03 -0.54452415325E+03  0.36801914583E+02  0.59598585608E+03  0.25500000920E-02 0.  1.
       -2    1    3    3    0  502  0.23945397522E+03  0.54452415325E+03  0.93983335672E+03  0.11122641315E+04  0.25500000920E-02 0. -1.
</event>
<event>
 5   0  0.1605214E-03  0.1410229E+04  0.7818609E-02  0.8946447E-01
       -2   -1    0    0    0  501  0.00000000000E+00  0.00000000000E+00  0.35787109779E+03  0.35787109779E+03  0.25500000920E-02 0. -1.
        2   -1    0    0  501    0  0.00000000000E+00  0.00000000000E+00 -0.13892892648E+04  0.13892892648E+04  0.25500000920E-02 0.  1.
    10030    2    1    2    0    0  0.00000000000E+00  0.00000000000E+00 -0.10314181670E+04  0.17471603626E+04  0.14102290230E+04 0.  0.
        5    1    3    3  502    0  0.37271421609E+03 -0.34169478399E+02 -0.12560409737E+04  0.13106275054E+04  0.46999998093E+01 0.  1.
       -5    1    3    3    0  502 -0.37271421609E+03  0.34169478399E+02  0.22462280673E+03  0.43653285722E+03  0.46999998093E+01 0. -1.
</event>
<event>
 5   0  0.1648463E-03  0.1396992E+04  0.7818609E-02  0.8955999E-01
        2   -1    0    0  501    0  0.00000000000E+00  0.00000000000E+00  0.15032296756E+04  0.15032296756E+04  0.25500000920E-02 0. -1.
       -2   -1    0    0    0  501  0.00000000000E+00  0.00000000000E+00 -0.32456571518E+03  0.32456571519E+03  0.25500000920E-02 0.  1.
    10030    2    1    2    0    0  0.00000000000E+00  0.00000000000E+00  0.11786639605E+04  0.18277953908E+04  0.13969922187E+04 0.  0.
        1    1    3    3  502    0 -0.46200745980E+02  0.93921173672E+02 -0.31424669710E+03  0.33121999103E+03  0.50400001928E-02 0.  1.
       -1    1    3    3    0  502  0.46200745980E+02 -0.93921173672E+02  0.14929106576E+04  0.14965753998E+04  0.50400001928E-02 0. -1.
</event>
<event>
 5   0  0.8609148E-04  0.1437225E+04  0.7818609E-02  0.8927306E-01
        1   -1    0    0  501    0  0.00000000000E+00  0.00000000000E+00  0.11195873612E+04  0.11195873612E+04  0.50400001928E-02 0.  1.
       -1   -1    0    0    0  501  0.00000000000E+00  0.00000000000E+00 -0.46124461706E+03  0.46124461709E+03  0.50400001928E-02 0. -1.
    10030    2    1    2    0    0  0.00000000000E+00  0.00000000000E+00  0.65834274414E+03  0.15808319783E+04  0.14372246084E+04 0.  0.
        5    1    3    3  502    0  0.30446851175E+03 -0.53468309161E+03 -0.79126355929E+02  0.62037904002E+03  0.46999998093E+01 0. -1.
       -5    1    3    3    0  502 -0.30446851175E+03  0.53468309161E+03  0.73746910007E+03  0.96045293828E+03  0.46999998093E+01 0.  1.
</event>
<event>
 5   0  0.8673728E-04  0.1379358E+04  0.7818609E-02  0.8968898E-01
       -1   -1    0    0    0  501  0.00000000000E+00  0.00000000000E+00  0.40862599830E+03  0.40862599834E+03  0.50400001928E-02 0. -1.
        1   -1    0    0  501    0  0.00000000000E+00  0.00000000000E+00 -0.11640396684E+04  0.11640396684E+04  0.50400001928E-02 0.  1.
    10030    2    1    2    0    0  0.00000000000E+00  0.00000000000E+00 -0.75541367013E+03  0.15726656668E+04  0.13793576354E+04 0.  0.
        3    1    3    3  502    0  0.58827181587E+03 -0.19532918048E+03 -0.72247470374E+03  0.95193850949E+03  0.10100000352E+00 0.  1.
       -3    1    3    3    0  502 -0.58827181587E+03  0.19532918048E+03 -0.32938966390E+02  0.62072715730E+03  0.10100000352E+00 0. -1.
</event>
<event>
 5   0  0.9639548E-04  0.1359595E+04  0.7818609E-02  0.8983596E-01
       -1   -1    0    0    0  501  0.00000000000E+00  0.00000000000E+00  0.78746169549E+03  0.78746169551E+03  0.50400001928E-02 0. -1.
        1   -1    0    0  501    0  0.00000000000E+00  0.00000000000E+00 -0.58685382541E+03  0.58685382544E+03  0.50400001928E-02 0.  1.
    10030    2    1    2    0    0  0.00000000000E+00  0.00000000000E+00  0.20060787008E+03  0.13743155209E+04  0.13595953933E+04 0.  0.
        1    1    3    3  502    0 -0.36058356938E+03 -0.12339799031E+03 -0.46870928228E+03  0.60409930131E+03  0.50400001928E-02 0.  1.
       -1    1    3    3    0  502  0.36058356938E+03  0.12339799031E+03  0.66931715236E+03  0.77021621963E+03  0.50400001928E-02 0. -1.
</event>
<event>
 5   0  0.8609148E-04  0.1415776E+04  0.7818609E-02  0.8942478E-01
        1   -1    0    0  501    0  0.00000000000E+00  0.00000000000E+00  0.14732663524E+04  0.14732663524E+04  0.50400001928E-02 0.  1.
       -1   -1    0    0    0  501  0.00000000000E+00  0.00000000000E+00 -0.34013228082E+03  0.34013228086E+03  0.50400001928E-02 0. -1.
    10030    2    1    2    0    0  0.00000000000E+00  0.00000000000E+00  0.11331340716E+04  0.18133986333E+04  0.14157760342E+04 0.  0.
        5    1    3    3  502    0  0.26594419029E+03 -0.57818658203E+03  0.16959130429E+03  0.65864203971E+03  0.46999998093E+01 0. -1.
       -5    1    3    3    0  502 -0.26594419029E+03  0.57818658203E+03  0.96354276728E+03  0.11547565936E+04  0.46999998093E+01 0.  1.
</event>
<event>
 5   0  0.1578965E-03  0.1413769E+04  0.7818609E-02  0.8943911E-01
        2   -1    0    0  501    0  0.00000000000E+00  0.00000000000E+00  0.13997009125E+04  0.13997009125E+04  0.25500000920E-02 0. -1.
       -2   -1    0    0    0  501  0.00000000000E+00  0.00000000000E+00 -0.35699486878E+03  0.35699486878E+03  0.25500000920E-02 0.  1.
    10030    2    1    2    0    0  0.00000000000E+00  0.00000000000E+00  0.10427060437E+04  0.17566957813E+04  0.14137694913E+04 0.  0.
        2    1    3    3  502    0  0.19583793896E+03 -0.42867204948E+03  0.11760000541E+04  0.12669208151E+04  0.25500000920E-02 0. -1.
       -2    1    3    3    0  502 -0.19583793896E+03  0.42867204948E+03 -0.13329401038E+03  0.48977496624E+03  0.25500000920E-02 0.  1.
</event>
<event>
 5   0  0.9007180E-04  0.1381172E+04  0.7818609E-02  0.8967561E-01
        1   -1    0    0  501    0  0.00000000000E+00  0.00000000000E+00  0.97781136519E+03  0.97781136520E+03  0.50400001928E-02 0.  1.
       -1   -1    0    0    0  501  0.00000000000E+00  0.00000000000E+00 -0.48773076413E+03  0.48773076415E+03  0.50400001928E-02 0. -1.
    10030    2    1    2    0    0  0.00000000000E+00  0.00000000000E+00  0.49008060106E+03  0.14655421294E+04  0.13811715090E+04 0.  0.
        2    1    3    3  502    0  0.66621745601E+03 -0.13106521984E+03  0.37877461446E+03  0.77749212158E+03  0.25500000920E-02 0. -1.
       -2    1    3    3    0  502 -0.66621745601E+03  0.13106521984E+03  0.11130598660E+03  0.68805000778E+03  0.25500000920E-02 0.  1.
</event>
<event>
 5   0  0.1605214E-03  0.1393066E+04  0.7818609E-02  0.8958853E-01
       -2   -1    0    0    0  501  0.00000000000E+00  0.00000000000E+00  0.65966362925E+03  0.65966362926E+03  0.25500000920E-02 0. -1.
        2   -1    0    0  501    0  0.00000000000E+00  0.00000000000E+00 -0.73546252671E+03  0.73546252672E+03  0.25500000920E-02 0.  1.
    10030    2    1    2    0    0  0.00000000000E+00  0.00000000000E+00 -0.75798897464E+02  0.13951261560E+04  0.13930655111E+04 0.  0.
        5    1    3    3  502    0  0.65672914761E+03 -0.14096371220E+03  0.14668772804E+03  0.68753423262E+03  0.46999998093E+01 0. -1.
       -5    1    3    3    0  502 -0.65672914761E+03  0.14096371220E+03 -0.22248662550E+03  0.70759192335E+03  0.46999998093E+01 0.  1.
</event>
<event>
 5   0  0.9639548E-04  0.1339513E+04  0.7818609E-02  0.8998805E-01
       -1   -1    0    0    0  501  0.00000000000E+00  0.00000000000E+00  0.33381563617E+03  0.33381563621E+03  0.50400001928E-02 0. -1.
        1   -1    0    0  501    0  0.00000000000E+00  0.00000000000E+00 -0.13437767920E+04  0.13437767920E+04  0.50400001928E-02 0.  1.
    10030    2    1    2    0    0  0.00000000000E+00  0.00000000000E+00 -0.10099611558E+04  0.16775924282E+04  0.13395129036E+04 0.  0.
        1    1    3    3  502    0 -0.30802155443E+03 -0.17619936018E+03 -0.12163669369E+04  0.12670722228E+04  0.50400001928E-02 0.  1.
       -1    1    3    3    0  502  0.30802155443E+03  0.17619936018E+03  0.20640578113E+03  0.41052020539E+03  0.50400001928E-02 0. -1.
</event>
<event>
 5   0  0.1605214E-03  0.1381656E+04  0.7818609E-02  0.8967205E-01
       -2   -1    0    0    0  501  0.00000000000E+00  0.00000000000E+00  0.32379891131E+03  0.32379891132E+03  0.25500000920E-02 0.  1.
        2   -1    0    0  501    0  0.00000000000E+00  0.00000000000E+00 -0.14738878204E+04  0.14738878204E+04  0.25500000920E-02 0. -1.
    10030    2    1    2    0    0  0.00000000000E+00  0.00000000000E+00 -0.11500889091E+04  0.17976867317E+04  0.13816559219E+04 0.  0.
        5    1    3    3  502    0  0.68986205783E+03 -0.20730015604E+02 -0.61368084246E+03  0.92356139957E+03  0.46999998093E+01 0.  1.
       -5    1    3    3    0  502 -0.68986205783E+03  0.20730015604E+02 -0.53640806665E+03  0.87412533217E+03  0.46999998093E+01 0. -1.
</event>
<event>
 5   0  0.1605214E-03  0.1385105E+04  0.7818609E-02  0.8964672E-01
        2   -1    0    0  501    0  0.00000000000E+00  0.00000000000E+00  0.11978799575E+04  0.11978799575E+04  0.25500000920E-02 0.  1.
       -2   -1    0    0    0  501  0.00000000000E+00  0.00000000000E+00 -0.40039802067E+03  0.40039802068E+03  0.25500000920E-02 0. -1.
    10030    2    1    2    0    0  0.00000000000E+00  0.00000000000E+00  0.79748193679E+03  0.15982779781E+04  0.13851047094E+04 0.  0.
        5    1    3    3  502    0 -0.63167805034E+03  0.16544931612E+03  0.13255143158E+03  0.66632019893E+03  0.46999998093E+01 0. -1.
       -5    1    3    3    0  502  0.63167805034E+03 -0.16544931612E+03  0.66493050521E+03  0.93195777922E+03  0.46999998093E+01 0.  1.
</event>
<event>
 5   0  0.1605214E-03  0.1399986E+04  0.7818609E-02  0.8953829E-01
        2   -1    0    0  501    0  0.00000000000E+00  0.00000000000E+00  0.25809025532E+04  0.25809025532E+04  0.25500000920E-02 0.  1.
       -2   -1    0    0    0  501  0.00000000000E+00  0.00000000000E+00 -0.18985217802E+03  0.18985217804E+03  0.25500000920E-02 0. -1.
    10030    2    1    2    0    0  0.00000000000E+00  0.00000000000E+00  0.23910503752E+04  0.27707547312E+04  0.13999856728E+04 0.  0.
        5    1    3    3  502    0 -0.41177060709E+03  0.24011448600E+02  0.23148042186E+04  0.23512703466E+04  0.46999998093E+01 0.  1.
       -5    1    3    3    0  502  0.41177060709E+03 -0.24011448600E+02  0.76246156567E+02  0.41948438459E+03  0.46999998093E+01 0. -1.
</event>
<event>
 5   0  0.1706986E-03  0.1385267E+04  0.7818609E-02  0.8964552E-01
       -2   -1    0    0    0  501  0.00000000000E+00  0.00000000000E+00  0.39532056384E+03  0.39532056385E+03  0.25500000920E-02 0.  1.
        2   -1    0    0  501    0  0.00000000000E+00  0.00000000000E+00 -0.12135501543E+04  0.12135501543E+04  0.25500000920E-02 0. -1.
    10030    2    1    2    0    0  0.00000000000E+00  0.00000000000E+00 -0.81822959041E+03  0.16088707181E+04  0.13852672395E+04 0.  0.
        3    1    3    3  502    0 -0.63098164247E+03 -0.28018464037E+03 -0.34444934611E+03  0.77154820203E+03  0.10100000352E+00 0. -1.
       -3    1    3    3    0  502  0.63098164247E+03  0.28018464037E+03 -0.47378024430E+03  0.83732251607E+03  0.10100000352E+00 0.  1.
</event>
<event>
 5   0  0.9639548E-04  0.1394668E+04  0.7818609E-02  0.8957687E-01
       -1   -1    0    0    0  501  0.00000000000E+00  0.00000000000E+00  0.10255964012E+04  0.10255964012E+04  0.50400001928E-02 0. -1.
        1   -1    0    0  501    0  0.00000000000E+00  0.00000000000E+00 -0.47413835590E+03  0.47413835593E+03  0.50400001928E-02 0.  1.
    10030    2    1    2    0    0  0.00000000000E+00  0.00000000000E+00  0.55145804532E+03  0.14997347572E+04  0.13946678336E+04 0.  0.
        1    1    3    3  502    0 -0.37770549287E+02 -0.34264490803E+03  0.92756500825E+03  0.98954989361E+03  0.50400001928E-02 0. -1.
       -1    1    3    3    0  502  0.37770549287E+02  0.34264490803E+03 -0.37610696293E+03  0.51018486354E+03  0.50400001928E-02 0.  1.
</event>
<event>
 5   0  0.8502300E-04  0.1398183E+04  0.7818609E-02  0.8955134E-01
        1   -1    0    0  501    0  0.00000000000E+00  0.00000000000E+00  0.56337735031E+03  0.56337735033E+03  0.50400001928E-02 0. -1.
       -1   -1    0    0    0  501  0.00000000000E+00  0.00000000000E+00 -0.86749894053E+03  0.86749894054E+03  0.50400001928E-02 0.  1.
    10030    2    1    2    0    0  0.00000000000E+00  0.00000000000E+00 -0.30412159022E+03  0.14308762909E+04  0.13981834708E+04 0.  0.
        4    1    3    3  502    0  0.92388492128E+02  0.17840654691E+03  0.53319522800E+03  0.56979232491E+03  0.12699999809E+01 0. -1.
       -4    1    3    3    0  502 -0.92388492128E+02 -0.17840654691E+03 -0.83731681822E+03  0.86108396596E+03  0.12699999809E+01 0.  1.
</event>
<event>
 5   0  0.8609148E-04  0.1390020E+04  0.7818609E-02  0.8961074E-01
        1   -1    0    0  501    0  0.00000000000E+00  0.00000000000E+00  0.44169526810E+03  0.44169526812E+03  0.50400001928E-02 0.  1.
       -1   -1    0    0    0  501  0.00000000000E+00  0.00000000000E+00 -0.10936021356E+04  0.10936021356E+04  0.50400001928E-02 0. -1.
    10030    2    1    2    0    0  0.00000000000E+00  0.00000000000E+00 -0.65190686752E+03  0.15352974038E+04  0.13900199833E+04 0.  0.
        5    1    3    3  502    0  0.10937736419E+03 -0.48913588258E+03 -0.85772816834E+03  0.99344703945E+03  0.46999998093E+01 0.  1.
       -5    1    3    3    0  502 -0.10937736419E+03  0.48913588258E+03  0.20582130082E+03  0.54185036430E+03  0.46999998093E+01 0. -1.
</event>
<event>
 5   0  0.1578965E-03  0.1401689E+04  0.7818609E-02  0.8952597E-01
        2   -1    0    0  501    0  0.00000000000E+00  0.00000000000E+00  0.69450592673E+03  0.69450592674E+03  0.25500000920E-02 0. -1.
       -2   -1    0    0    0  501  0.00000000000E+00  0.00000000000E+00 -0.70724095011E+03  0.70724095012E+03  0.25500000920E-02 0.  1.
    10030    2    1    2    0    0  0.00000000000E+00  0.00000000000E+00 -0.12735023380E+02  0.14017468769E+04  0.14016890261E+04 0.  0.
        2    1    3    3  502    0 -0.52328737011E+03  0.32171709521E+03 -0.34380027298E+03  0.70393905189E+03  0.25500000920E-02 0.  1.
       -2    1    3    3    0  502  0.52328737011E+03 -0.32171709521E+03  0.33106524960E+03  0.69780782496E+03  0.25500000920E-02 0. -1.
</event>
<event>
 5   0  0.8673728E-04  0.1412744E+04  0.7818609E-02  0.8944645E-01
       -1   -1    0    0    0  501  0.00000000000E+00  0.00000000000E+00  0.92532374603E+03  0.92532374604E+03  0.50400001928E-02 0.  1.
        1   -1    0    0  501    0  0.00000000000E+00  0.00000000000E+00 -0.53922868621E+03  0.53922868623E+03  0.50400001928E-02 0. -1.
    10030    2    1    2    0    0  0.00000000000E+00  0.00000000000E+00  0.38609505982E+03  0.14645524323E+04  0.14127435831E+04 0.  0.
        3    1    3    3  502    0  0.30117225765E+03  0.37863391718E+03  0.72659933945E+03  0.87293469533E+03  0.10100000352E+00 0.  1.
       -3    1    3    3    0  502 -0.30117225765E+03 -0.37863391718E+03 -0.34050427963E+03  0.59161773694E+03  0.10100000352E+00 0. -1.
</event>
<event>
 5   0  0.8502300E-04  0.1400299E+04  0.7818609E-02  0.8953602E-01
        1   -1    0    0  501    0  0.00000000000E+00  0.00000000000E+00  0.53507464223E+03  0.53507464225E+03  0.50400001928E-02 0. -1.
       -1   -1    0    0    0  501  0.00000000000E+00  0.00000000000E+00 -0.91615066169E+03  0.91615066170E+03  0.50400001928E-02 0.  1.
    10030    2    1    2    0    0  0.00000000000E+00  0.00000000000E+00 -0.38107601946E+03  0.14512253040E+04  0.14002985218E+04 0.  0.
        4    1    3    3  502    0  0.36760757832E+03 -0.36644980459E+03 -0.67750615351E+03  0.85348520308E+03  0.12699999809E+01 0.  1.
       -4    1    3    3    0  502 -0.36760757832E+03  0.36644980459E+03  0.29643013405E+03  0.59774010088E+03  0.12699999809E+01 0. -1.
</event>
<event>
 5   0  0.1648213E-03  0.1395032E+04  0.7818609E-02  0.8957422E-01
        2   -1    0    0  501    0  0.00000000000E+00  0.00000000000E+00  0.53790729180E+03  0.53790729181E+03  0.25500000920E-02 0.  1.
       -2   -1    0    0    0  501  0.00000000000E+00  0.00000000000E+00 -0.90448414816E+03  0.90448414816E+03  0.25500000920E-02 0. -1.
    10030    2    1    2    0    0  0.00000000000E+00  0.00000000000E+00 -0.36657685635E+03  0.14423914400E+04  0.13950320693E+04 0.  0.
        4    1    3    3  502    0 -0.34418968989E+03  0.58547600423E+03 -0.18899343936E+02  0.67941702382E+03  0.12699999809E+01 0.  1.
       -4    1    3    3    0  502  0.34418968989E+03 -0.58547600423E+03 -0.34767751242E+03  0.76297441615E+03  0.12699999809E+01 0. -1.
</event>
<event>
 5   0  0.8502300E-04  0.1407067E+04  0.7818609E-02  0.8948719E-01
        1   -1    0    0  501    0  0.00000000000E+00  0.00000000000E+00  0.51191300873E+03  0.51191300875E+03  0.50400001928E-02 0. -1.
       -1   -1    0    0    0  501  0.00000000000E+00  0.00000000000E+00 -0.96688219888E+03  0.96688219890E+03  0.50400001928E-02 0.  1.
    10030    2    1    2    0    0  0.00000000000E+00  0.00000000000E+00 -0.45496919016E+03  0.14787952076E+04  0.14070672700E+04 0.  0.
        4    1    3    3  502    0  0.18473118395E+03  0.57742336941E+03  0.14766352911E+03  0.62397875653E+03  0.12699999809E+01 0.  1.
       -4    1    3    3    0  502 -0.18473118395E+03 -0.57742336941E+03 -0.60263271927E+03  0.85481645112E+03  0.12699999809E+01 0. -1.
</event>
<event>
 5   0  0.8502300E-04  0.1383766E+04  0.7818609E-02  0.8965654E-01
       -1   -1    0    0    0  501  0.00000000000E+00  0.00000000000E+00  0.15679616584E+04  0.15679616584E+04  0.50400001928E-02 0. -1.
        1   -1    0    0  501    0  0.00000000000E+00  0.00000000000E+00 -0.30530219665E+03  0.30530219669E+03  0.50400001928E-02 0.  1.
    10030    2    1    2    0    0  0.00000000000E+00  0.00000000000E+00  0.12626594617E+04  0.18732638551E+04  0.13837660765E+04 0.  0.
        4    1    3    3  502    0  0.52515912174E+03 -0.15255613274E+03  0.12050917711E+04  0.13233719305E+04  0.12699999809E+01 0. -1.
       -4    1    3    3    0  502 -0.52515912174E+03  0.15255613274E+03  0.57567690617E+02  0.54989192455E+03  0.12699999809E+01 0.  1.
</event>
<event>
 5   0  0.9639548E-04  0.1349180E+04  0.7818609E-02  0.8991449E-01
       -1   -1    0    0    0  501  0.00000000000E+00  0.00000000000E+00  0.73818061312E+03  0.73818061313E+03  0.50400001928E-02 0.  1.
        1   -1    0    0  501    0  0.00000000000E+00  0.00000000000E+00 -0.61647772227E+03  0.61647772229E+03  0.50400001928E-02 0. -1.
    10030    2    1    2    0    0  0.00000000000E+00  0.00000000000E+00  0.12170289084E+03  0.13546583354E+04  0.13491803483E+04 0.  0.
        1    1    3    3  502    0  0.80300615263E+02  0.95178037290E+02  0.72654024186E+03  0.73713483886E+03  0.50400001928E-02 0.  1.
       -1    1    3    3    0  502 -0.80300615263E+02 -0.95178037290E+02 -0.60483735102E+03  0.61752349656E+03  0.50400001928E-02 0. -1.
</event>
<event>
 5   0  0.1648463E-03  0.1523325E+04  0.7818609E-02  0.8869088E-01
        2   -1    0    0  501    0  0.00000000000E+00  0.00000000000E+00  0.14416521278E+04  0.14416521278E+04  0.25500000920E-02 0.  1.
       -2   -1    0    0    0  501  0.00000000000E+00  0.00000000000E+00 -0.40240631382E+03  0.40240631382E+03  0.25500000920E-02 0. -1.
    10030    2    1    2    0    0  0.00000000000E+00  0.00000000000E+00  0.10392458140E+04  0.18440584416E+04  0.15233252031E+04 0.  0.
        1    1    3    3  502    0 -0.58824919348E+03 -0.38625965056E+03  0.87233991512E+03  0.11208079937E+04  0.50400001928E-02 0.  1.
       -1    1    3    3    0  502  0.58824919348E+03  0.38625965056E+03  0.16690589887E+03  0.72325044790E+03  0.50400001928E-02 0. -1.
</event>
<event>
 5   0  0.8673728E-04  0.1409173E+04  0.7818609E-02  0.8947206E-01
        1   -1    0    0  501    0  0.00000000000E+00  0.00000000000E+00  0.68811481110E+03  0.68811481111E+03  0.50400001928E-02 0. -1.
       -1   -1    0    0    0  501  0.00000000000E+00  0.00000000000E+00 -0.72145197413E+03  0.72145197415E+03  0.50400001928E-02 0.  1.
    10030    2    1    2    0    0  0.00000000000E+00  0.00000000000E+00 -0.33337163037E+02  0.14095667853E+04  0.14091725074E+04 0.  0.
        3    1    3    3  502    0 -0.39752979417E+03 -0.49622565268E+03 -0.32035185171E+03  0.71196569772E+03  0.10100000352E+00 0.  1.
       -3    1    3    3    0  502  0.39752979417E+03  0.49622565268E+03  0.28701468867E+03  0.69760108755E+03  0.10100000352E+00 0. -1.
</event>
<event>
 5   0  0.1578965E-03  0.1422066E+04  0.7818609E-02  0.8937999E-01
       -2   -1    0    0    0  501  0.00000000000E+00  0.00000000000E+00  0.51874097441E+03  0.51874097442E+03  0.25500000920E-02 0.  1.
        2   -1    0    0  501    0  0.00000000000E+00  0.00000000000E+00 -0.97460520976E+03  0.97460520976E+03  0.25500000920E-02 0. -1.
    10030    2    1    2    0    0  0.00000000000E+00  0.00000000000E+00 -0.45586423535E+03  0.14933461842E+04  0.14220656190E+04 0.  0.
        2    1    3    3  502    0  0.13674451247E+03 -0.12238058633E+02  0.50468984111E+03  0.52303027398E+03  0.25500000920E-02 0.  1.
       -2    1    3    3    0  502 -0.13674451247E+03  0.12238058633E+02 -0.96055407646E+03  0.97031591020E+03  0.25500000920E-02 0. -1.
</event>
<event>
 5   0  0.1706986E-03  0.1418590E+04  0.7818609E-02  0.8940471E-01
        2   -1    0    0  501    0  0.00000000000E+00  0.00000000000E+00  0.41072102401E+03  0.41072102402E+03  0.25500000920E-02 0.  1.
       -2   -1    0    0    0  501  0.00000000000E+00  0.00000000000E+00 -0.12249172265E+04  0.12249172265E+04  0.25500000920E-02 0. -1.
    10030    2    1    2    0    0  0.00000000000E+00  0.00000000000E+00 -0.81419620245E+03  0.16356382505E+04  0.14185898034E+04 0.  0.
        3    1    3    3  502    0  0.47590157480E+03 -0.52556985284E+03 -0.38423290768E+03  0.80643717465E+03  0.10100000352E+00 0.  1.
       -3    1    3    3    0  502 -0.47590157480E+03  0.52556985284E+03 -0.42996329477E+03  0.82920107583E+03  0.10100000352E+00 0. -1.
</event>
<event>
 5   0  0.6048000E-04  0.1331056E+04  0.7818609E-02  0.9005294E-01
        3   -1    0    0  501    0  0.00000000000E+00  0.00000000000E+00  0.27644021539E+03  0.27644023384E+03  0.10100000352E+00 0.  1.
       -3   -1    0    0    0  501  0.00000000000E+00  0.00000000000E+00 -0.16022530634E+04  0.16022530666E+04  0.10100000352E+00 0. -1.
    10030    2    1    2    0    0  0.00000000000E+00  0.00000000000E+00 -0.13258128480E+04  0.18786933004E+04  0.13310555244E+04 0.  0.
        5    1    3    3  502    0  0.55296948720E+02 -0.30550864047E+03 -0.14937490078E+04  0.15256806580E+04  0.46999998093E+01 0. -1.
       -5    1    3    3    0  502 -0.55296948720E+02  0.30550864047E+03  0.16793615978E+03  0.35301264241E+03  0.46999998093E+01 0.  1.
</event>
<event>
 5   0  0.8609148E-04  0.1427789E+04  0.7818609E-02  0.8933946E-01
        1   -1    0    0  501    0  0.00000000000E+00  0.00000000000E+00  0.41182958143E+03  0.41182958146E+03  0.50400001928E-02 0. -1.
       -1   -1    0    0    0  501  0.00000000000E+00  0.00000000000E+00 -0.12375151648E+04  0.12375151648E+04  0.50400001928E-02 0.  1.
    10030    2    1    2    0    0  0.00000000000E+00  0.00000000000E+00 -0.82568558339E+03  0.16493447463E+04  0.14277889933E+04 0.  0.
        5    1    3    3  502    0  0.31473832684E+01 -0.13529319667E+03 -0.12225440591E+04  0.12300204150E+04  0.46999998093E+01 0.  1.
       -5    1    3    3    0  502 -0.31473832684E+01  0.13529319667E+03  0.39685847566E+03  0.41932433126E+03  0.46999998093E+01 0. -1.
</event>
<event>
 5   0  0.1648213E-03  0.1390360E+04  0.7818609E-02  0.8960826E-01
       -2   -1    0    0    0  501  0.00000000000E+00  0.00000000000E+00  0.63157651792E+03  0.63157651792E+03  0.25500000920E-02 0. -1.
        2   -1    0    0  501    0  0.00000000000E+00  0.00000000000E+00 -0.76518860338E+03  0.76518860338E+03  0.25500000920E-02 0.  1.
    10030    2    1    2    0    0  0.00000000000E+00  0.00000000000E+00 -0.13361208546E+03  0.13967651213E+04  0.13903598868E+04 0.  0.
        4    1    3    3  502    0  0.29287496222E+03 -0.49776763961E+03  0.32191993611E+03  0.66119771983E+03  0.12699999809E+01 0.  1.
       -4    1    3    3    0  502 -0.29287496222E+03  0.49776763961E+03 -0.45553202157E+03  0.73556740148E+03  0.12699999809E+01 0. -1.
</event>
<event>
 5   0  0.1648213E-03  0.1404097E+04  0.7818609E-02  0.8950858E-01
       -2   -1    0    0    0  501  0.00000000000E+00  0.00000000000E+00  0.48991630597E+03  0.48991630597E+03  0.25500000920E-02 0. -1.
        2   -1    0    0  501    0  0.00000000000E+00  0.00000000000E+00 -0.10060333652E+04  0.10060333652E+04  0.25500000920E-02 0.  1.
    10030    2    1    2    0    0  0.00000000000E+00  0.00000000000E+00 -0.51611705923E+03  0.14959496712E+04  0.14040970764E+04 0.  0.
        4    1    3    3  502    0 -0.62544420530E+03 -0.31029465858E+03 -0.33640337007E+03  0.77500456088E+03  0.12699999809E+01 0. -1.
       -4    1    3    3    0  502  0.62544420530E+03  0.31029465858E+03 -0.17971368916E+03  0.72094511029E+03  0.12699999809E+01 0.  1.
</event>
<event>
 5   0  0.1578965E-03  0.1398608E+04  0.7818609E-02  0.8954827E-01
       -2   -1    0    0    0  501  0.00000000000E+00  0.00000000000E+00  0.88530663686E+03  0.88530663686E+03  0.25500000920E-02 0. -1.
        2   -1    0    0  501    0  0.00000000000E+00  0.00000000000E+00 -0.55238051456E+03  0.55238051457E+03  0.25500000920E-02 0.  1.
    10030    2    1    2    0    0  0.00000000000E+00  0.00000000000E+00  0.33292612230E+03  0.14376871514E+04  0.13986080732E+04 0.  0.
        2    1    3    3  502    0 -0.60527655197E+03 -0.34713724738E+03  0.21426137190E+03  0.72991226074E+03  0.25500000920E-02 0. -1.
       -2    1    3    3    0  502  0.60527655197E+03  0.34713724738E+03  0.11866475040E+03  0.70777489068E+03  0.25500000920E-02 0.  1.
</event>
<event>
 5   0  0.8609148E-04  0.1392969E+04  0.7818609E-02  0.8958923E-01
       -1   -1    0    0    0  501  0.00000000000E+00  0.00000000000E+00  0.28075746619E+03  0.28075746623E+03  0.50400001928E-02 0. -1.
        1   -1    0    0  501    0  0.00000000000E+00  0.00000000000E+00 -0.17277935209E+04  0.17277935209E+04  0.50400001928E-02 0.  1.
    10030    2    1    2    0    0  0.00000000000E+00  0.00000000000E+00 -0.14470360547E+04  0.20085509872E+04  0.13929693910E+04 0.  0.
        5    1    3    3  502    0 -0.16635112545E+03  0.33759153143E+03 -0.15685228786E+04  0.16130489298E+04  0.46999998093E+01 0.  1.
       -5    1    3    3    0  502  0.16635112545E+03 -0.33759153143E+03  0.12148682390E+03  0.39550205740E+03  0.46999998093E+01 0. -1.
</event>
<event>
 5   0  0.1706986E-03  0.1334609E+04  0.7818609E-02  0.9002561E-01
       -2   -1    0    0    0  501  0.00000000000E+00  0.00000000000E+00  0.40180597562E+03  0.40180597563E+03  0.25500000920E-02 0.  1.
        2   -1    0    0  501    0  0.00000000000E+00  0.00000000000E+00 -0.11082343723E+04  0.11082343724E+04  0.25500000920E-02 0. -1.
    10030    2    1    2    0    0  0.00000000000E+00  0.00000000000E+00 -0.70642839673E+03  0.15100403480E+04  0.13346088464E+04 0.  0.
        3    1    3    3  502    0  0.63884638080E+03  0.14551451000E+03 -0.49631445569E+03  0.82196546157E+03  0.10100000352E+00 0.  1.
       -3    1    3    3    0  502 -0.63884638080E+03 -0.14551451000E+03 -0.21011394104E+03  0.68807488641E+03  0.10100000352E+00 0. -1.
</event>
<event>
 5   0  0.6048000E-04  0.1370141E+04  0.7818609E-02  0.8975720E-01
        3   -1    0    0  501    0  0.00000000000E+00  0.00000000000E+00  0.27832928336E+03  0.27832930169E+03  0.10100000352E+00 0.  1.
       -3   -1    0    0    0  501  0.00000000000E+00  0.00000000000E+00 -0.16862101947E+04  0.16862101977E+04  0.10100000352E+00 0. -1.
    10030    2    1    2    0    0  0.00000000000E+00  0.00000000000E+00 -0.14078809113E+04  0.19645394994E+04  0.13701411549E+04 0.  0.
        1    1    3    3  502    0 -0.45233084770E+03  0.39863132422E+03 -0.11703441997E+04  0.13165164922E+04  0.50400001928E-02 0. -1.
       -1    1    3    3    0  502  0.45233084770E+03 -0.39863132422E+03 -0.23753671157E+03  0.64802300715E+03  0.50400001928E-02 0.  1.
</event>
<event>
 5   0  0.8673728E-04  0.1375558E+04  0.7818609E-02  0.8971703E-01
        1   -1    0    0  501    0  0.00000000000E+00  0.00000000000E+00  0.15639776264E+04  0.15639776264E+04  0.50400001928E-02 0. -1.
       -1   -1    0    0    0  501  0.00000000000E+00  0.00000000000E+00 -0.30245956962E+03  0.30245956966E+03  0.50400001928E-02 0.  1.
    10030    2    1    2    0    0  0.00000000000E+00  0.00000000000E+00  0.12615180567E+04  0.18664371960E+04  0.13755580683E+04 0.  0.
        3    1    3    3  502    0 -0.24753924947E+03  0.14345236863E+03 -0.21788576848E+03  0.35962269172E+03  0.10100000352E+00 0.  1.
       -3    1    3    3    0  502  0.24753924947E+03 -0.14345236863E+03  0.14794038252E+04  0.15068145043E+04  0.10100000352E+00 0. -1.
</event>
<event>
 5   0  0.6048000E-04  0.1415851E+04  0.7818609E-02  0.8942424E-01
        3   -1    0    0  501    0  0.00000000000E+00  0.00000000000E+00  0.56650332017E+03  0.56650332917E+03  0.10100000352E+00 0. -1.
       -3   -1    0    0    0  501  0.00000000000E+00  0.00000000000E+00 -0.88465188565E+03  0.88465189141E+03  0.10100000352E+00 0.  1.
    10030    2    1    2    0    0  0.00000000000E+00  0.00000000000E+00 -0.31814856548E+03  0.14511552206E+04  0.14158506152E+04 0.  0.
        1    1    3    3  502    0  0.41521478416E+03 -0.56536025574E+03 -0.25696877510E+03  0.74703981631E+03  0.50400001928E-02 0. -1.
       -1    1    3    3    0  502 -0.41521478416E+03  0.56536025574E+03 -0.61179790379E+02  0.70411540427E+03  0.50400001928E-02 0.  1.
</event>
<event>
 5   0  0.1648213E-03  0.1395197E+04  0.7818609E-02  0.8957302E-01
       -2   -1    0    0    0  501  0.00000000000E+00  0.00000000000E+00  0.29799989992E+03  0.29799989993E+03  0.25500000920E-02 0. -1.
        2   -1    0    0  501    0  0.00000000000E+00  0.00000000000E+00 -0.16330339940E+04  0.16330339940E+04  0.25500000920E-02 0.  1.
    10030    2    1    2    0    0  0.00000000000E+00  0.00000000000E+00 -0.13350340941E+04  0.19310338940E+04  0.13951974295E+04 0.  0.
        4    1    3    3  502    0  0.22061919064E+03  0.32363824987E+03  0.13144260660E+03  0.41315047596E+03  0.12699999809E+01 0. -1.
       -4    1    3    3    0  502 -0.22061919064E+03 -0.32363824987E+03 -0.14664767007E+04  0.15178834180E+04  0.12699999809E+01 0.  1.
</event>
<event>
 5   0  0.8502300E-04  0.1356284E+04  0.7818609E-02  0.8986085E-01
       -1   -1    0    0    0  501  0.00000000000E+00  0.00000000000E+00  0.10180562180E+04  0.10180562180E+04  0.50400001928E-02 0.  1.
        1   -1    0    0  501    0  0.00000000000E+00  0.00000000000E+00 -0.45172025459E+03  0.45172025462E+03  0.50400001928E-02 0. -1.
    10030    2    1    2    0    0  0.00000000000E+00  0.00000000000E+00  0.56633596344E+03  0.14697764727E+04  0.13562840617E+04 0.  0.
        4    1    3    3  502    0 -0.19140817445E+03 -0.86919801301E+02  0.98185341958E+03  0.10041065140E+04  0.12699999809E+01 0.  1.
       -4    1    3    3    0  502  0.19140817445E+03  0.86919801301E+02 -0.41551745614E+03  0.46566995862E+03  0.12699999809E+01 0. -1.
</event>
<event>
 5   0  0.8673728E-04  0.1378823E+04  0.7818609E-02  0.8969292E-01
       -1   -1    0    0    0  501  0.00000000000E+00  0.00000000000E+00  0.52679245761E+03  0.52679245764E+03  0.50400001928E-02 0. -1.
        1   -1    0    0  501    0  0.00000000000E+00  0.00000000000E+00 -0.90223015734E+03  0.90223015735E+03  0.50400001928E-02 0.  1.
    10030    2    1    2    0    0  0.00000000000E+00  0.00000000000E+00 -0.37543769972E+03  0.14290226150E+04  0.13788227471E+04 0.  0.
        3    1    3    3  502    0  0.18197773600E+03 -0.58792547991E+03 -0.50969951399E+03  0.79910316673E+03  0.10100000352E+00 0.  1.
       -3    1    3    3    0  502 -0.18197773600E+03  0.58792547991E+03  0.13426181426E+03  0.62991944826E+03  0.10100000352E+00 0. -1.
</event>
<event>
 5   0  0.1578965E-03  0.1394508E+04  0.7818609E-02  0.8957803E-01
       -2   -1    0    0    0  501  0.00000000000E+00  0.00000000000E+00  0.58729758051E+03  0.58729758051E+03  0.25500000920E-02 0.  1.
        2   -1    0    0  501    0  0.00000000000E+00  0.00000000000E+00 -0.82779749665E+03  0.82779749666E+03  0.25500000920E-02 0. -1.
    10030    2    1    2    0    0  0.00000000000E+00  0.00000000000E+00 -0.24049991614E+03  0.14150950772E+04  0.13945084682E+04 0.  0.
        2    1    3    3  502    0  0.28778393692E+02 -0.29338710908E+03 -0.76144768088E+03  0.81652113411E+03  0.25500000920E-02 0. -1.
       -2    1    3    3    0  502 -0.28778393692E+02  0.29338710908E+03  0.52094776474E+03  0.59857394306E+03  0.25500000920E-02 0.  1.
</event>
<event>
 5   0  0.8673728E-04  0.1398818E+04  0.7818609E-02  0.8954675E-01
        1   -1    0    0  501    0  0.00000000000E+00  0.00000000000E+00  0.71644014981E+03  0.71644014983E+03  0.50400001928E-02 0.  1.
       -1   -1    0    0    0  501  0.00000000000E+00  0.00000000000E+00 -0.68278245899E+03  0.68278245901E+03  0.50400001928E-02 0. -1.
    10030    2    1    2    0    0  0.00000000000E+00  0.00000000000E+00  0.33657690823E+02  0.13992226088E+04  0.13988177397E+04 0.  0.
        3    1    3    3  502    0  0.34536378024E+03 -0.58555972712E+00 -0.59153817171E+03  0.68497730062E+03  0.10100000352E+00 0. -1.
       -3    1    3    3    0  502 -0.34536378024E+03  0.58555972712E+00  0.62519586253E+03  0.71424530821E+03  0.10100000352E+00 0.  1.
</event>
<event>
 5   0  0.1648213E-03  0.1407415E+04  0.7818609E-02  0.8948469E-01
       -2   -1    0    0    0  501  0.00000000000E+00  0.00000000000E+00  0.32492139186E+03  0.32492139187E+03  0.25500000920E-02 0.  1.
        2   -1    0    0  501    0  0.00000000000E+00  0.00000000000E+00 -0.15240734121E+04  0.15240734121E+04  0.25500000920E-02 0. -1.
    10030    2    1    2    0    0  0.00000000000E+00  0.00000000000E+00 -0.11991520203E+04  0.18489948040E+04  0.14074147283E+04 0.  0.
        4    1    3    3  502    0 -0.31027715307E+03  0.22821614036E+03  0.17414278762E+03  0.42270774990E+03  0.12699999809E+01 0.  1.
       -4    1    3    3    0  502  0.31027715307E+03 -0.22821614036E+03 -0.13732948079E+04  0.14262870541E+04  0.12699999809E+01 0. -1.
</event>
<event>
 5   0  0.1648463E-03  0.1420980E+04  0.7818609E-02  0.8938770E-01
        2   -1    0    0  501    0  0.00000000000E+00  0.00000000000E+00  0.81421537543E+03  0.81421537543E+03  0.25500000920E-02 0.  1.
       -2   -1    0    0    0  501  0.00000000000E+00  0.00000000000E+00 -0.61997883406E+03  0.61997883406E+03  0.25500000920E-02 0. -1.
    10030    2    1    2    0    0  0.00000000000E+00  0.00000000000E+00  0.19423654137E+03  0.14341942095E+04  0.14209803646E+04 0.  0.
        1    1    3    3  502    0 -0.83084488569E+02 -0.11798819065E+03 -0.60503193962E+03  0.62200312970E+03  0.50400001928E-02 0. -1.
       -1    1    3    3    0  502  0.83084488569E+02  0.11798819065E+03  0.79926848099E+03  0.81219107980E+03  0.50400001928E-02 0.  1.
</event>
<event>
 5   0  0.1706986E-03  0.1392670E+04  0.7818609E-02  0.8959142E-01
       -2   -1    0    0    0  501  0.00000000000E+00  0.00000000000E+00  0.45030249566E+03  0.45030249567E+03  0.25500000920E-02 0.  1.
        2   -1    0    0  501    0  0.00000000000E+00  0.00000000000E+00 -0.10767921622E+04  0.10767921622E+04  0.25500000920E-02 0. -1.
    10030    2    1    2    0    0  0.00000000000E+00  0.00000000000E+00 -0.62648966655E+03  0.15270946579E+04  0.13926696636E+04 0.  0.
        3    1    3    3  502    0  0.41807741598E+03 -0.26436578161E+03 -0.85065779488E+03  0.98402067379E+03  0.10100000352E+00 0. -1.
       -3    1    3    3    0  502 -0.41807741598E+03  0.26436578161E+03  0.22416812834E+03  0.54307398410E+03  0.10100000352E+00 0.  1.
</event>
<event>
 5   0  0.1706986E-03  0.1411615E+04  0.7818609E-02  0.8945454E-01
        2   -1    0    0  501    0  0.00000000000E+00  0.00000000000E+00  0.64628508536E+03  0.64628508537E+03  0.25500000920E-02 0. -1.
       -2   -1    0    0    0  501  0.00000000000E+00  0.00000000000E+00 -0.77081145668E+03  0.77081145668E+03  0.25500000920E-02 0.  1.
    10030    2    1    2    0    0  0.00000000000E+00  0.00000000000E+00 -0.12452637132E+03  0.14170965420E+04  0.14116146047E+04 0.  0.
        3    1    3    3  502    0 -0.27877888652E+03 -0.48345120720E+03 -0.49605375970E+03  0.74666731549E+03  0.10100000352E+00 0.  1.
       -3    1    3    3    0  502  0.27877888652E+03  0.48345120720E+03  0.37152738838E+03  0.67042922656E+03  0.10100000352E+00 0. -1.
</event>
<event>
 5   0  0.1605214E-03  0.1400584E+04  0.7818609E-02  0.8953396E-01
       -2   -1    0    0    0  501  0.00000000000E+00  0.00000000000E+00  0.33812595679E+03  0.33812595680E+03  0.25500000920E-02 0. -1.
        2   -1    0    0  501    0  0.00000000000E+00  0.00000000000E+00 -0.14503740070E+04  0.14503740070E+04  0.25500000920E-02 0.  1.
    10030    2    1    2    0    0  0.00000000000E+00  0.00000000000E+00 -0.11122480502E+04  0.17884999638E+04  0.14005843050E+04 0.  0.
        5    1    3    3  502    0 -0.17115934484E+03 -0.31188256020E+03 -0.13263593214E+04  0.13732506662E+04  0.46999998093E+01 0.  1.
       -5    1    3    3    0  502  0.17115934484E+03  0.31188256020E+03  0.21411127123E+03  0.41524929759E+03  0.46999998093E+01 0. -1.
</event>
<event>
 5   0  0.8673728E-04  0.1335234E+04  0.7818609E-02  0.9002082E-01
       -1   -1    0    0    0  501  0.00000000000E+00  0.00000000000E+00  0.24956801422E+03  0.24956801427E+03  0.50400001928E-02 0.  1.
        1   -1    0    0  501    0  0.00000000000E+00  0.00000000000E+00 -0.17859360104E+04  0.17859360104E+04  0.50400001928E-02 0. -1.
    10030    2    1    2    0    0  0.00000000000E+00  0.00000000000E+00 -0.15363679962E+04  0.20355040247E+04  0.13352340674E+04 0.  0.
        3    1    3    3  502    0  0.41838191004E+03 -0.75918852645E+02  0.16437070331E+02  0.42553176417E+03  0.10100000352E+00 0.  1.
       -3    1    3    3    0  502 -0.41838191004E+03  0.75918852645E+02 -0.15528050665E+04  0.16099722605E+04  0.10100000352E+00 0. -1.
</event>
<event>
 5   0  0.8502300E-04  0.1383810E+04  0.7818609E-02  0.8965622E-01
       -1   -1    0    0    0  501  0.00000000000E+00  0.00000000000E+00  0.30924186785E+03  0.30924186789E+03  0.50400001928E-02 0.  1.
        1   -1    0    0  501    0  0.00000000000E+00  0.00000000000E+00 -0.15480844527E+04  0.15480844527E+04  0.50400001928E-02 0. -1.
    10030    2    1    2    0    0  0.00000000000E+00  0.00000000000E+00 -0.12388425849E+04  0.18573263206E+04  0.13838099982E+04 0.  0.
        4    1    3    3  502    0  0.28636028728E+02  0.35724401325E+03 -0.14137936731E+04  0.14585120740E+04  0.12699999809E+01 0. -1.
       -4    1    3    3    0  502 -0.28636028728E+02 -0.35724401325E+03  0.17495108819E+03  0.39881424662E+03  0.12699999809E+01 0.  1.
</event>
<event>
 5   0  0.1648213E-03  0.1419654E+04  0.7818609E-02  0.8939714E-01
        2   -1    0    0  501    0  0.00000000000E+00  0.00000000000E+00  0.55553473331E+03  0.55553473332E+03  0.25500000920E-02 0. -1.
       -2   -1    0    0    0  501  0.00000000000E+00  0.00000000000E+00 -0.90697200628E+03  0.90697200628E+03  0.25500000920E-02 0.  1.
    10030    2    1    2    0    0  0.00000000000E+00  0.00000000000E+00 -0.35143727296E+03  0.14625067396E+04  0.14196541151E+04 0.  0.
        4    1    3    3  502    0 -0.50320762026E+03  0.11283075457E+03  0.32675853980E+03  0.61050916823E+03  0.12699999809E+01 0. -1.
       -4    1    3    3    0  502  0.50320762026E+03 -0.11283075457E+03 -0.67819581276E+03  0.85199757137E+03  0.12699999809E+01 0.  1.
</event>
<event>
 5   0  0.8673728E-04  0.1439807E+04  0.7818609E-02  0.8925498E-01
        1   -1    0    0  501    0  0.00000000000E+00  0.00000000000E+00  0.57465800715E+03  0.57465800717E+03  0.50400001928E-02 0.  1.
       -1   -1    0    0    0  501  0.00000000000E+00  0.00000000000E+00 -0.90185935811E+03  0.90185935812E+03  0.50400001928E-02 0. -1.
    10030    2    1    2    0    0  0.00000000000E+00  0.00000000000E+00 -0.32720135096E+03  0.14765173653E+04  0.14398065168E+04 0.  0.
        3    1    3    3  502    0 -0.27945058234E+03  0.55697607260E+03  0.20607034848E+03  0.65633830617E+03  0.10100000352E+00 0.  1.
       -3    1    3    3    0  502  0.27945058234E+03 -0.55697607260E+03 -0.53327169944E+03  0.82017905913E+03  0.10100000352E+00 0. -1.
</event>
<event>
 5   0  0.9007180E-04  0.1383680E+04  0.7818609E-02  0.8965717E-01
        1   -1    0    0  501    0  0.00000000000E+00  0.00000000000E+00  0.16359261941E+04  0.16359261941E+04  0.50400001928E-02 0. -1.
       -1   -1    0    0    0  501  0.00000000000E+00  0.00000000000E+00 -0.29258187948E+03  0.29258187952E+03  0.50400001928E-02 0.  1.
    10030    2    1    2    0    0  0.00000000000E+00  0.00000000000E+00  0.13433443146E+04  0.19285080736E+04  0.13836796748E+04 0.  0.
        2    1    3    3  502    0  0.51930630708E+03 -0.41373950198E+03  0.94258762418E+03  0.11529661076E+04  0.25500000920E-02 0. -1.
       -2    1    3    3    0  502 -0.51930630708E+03  0.41373950198E+03  0.40075669041E+03  0.77554196598E+03  0.25500000920E-02 0.  1.
</event>
<event>
 5   0  0.8609148E-04  0.1454017E+04  0.7818609E-02  0.8915620E-01
        1   -1    0    0  501    0  0.00000000000E+00  0.00000000000E+00  0.28209152217E+03  0.28209152222E+03  0.50400001928E-02 0. -1.
       -1   -1    0    0    0  501  0.00000000000E+00  0.00000000000E+00 -0.18736530241E+04  0.18736530241E+04  0.50400001928E-02 0.  1.
    10030    2    1    2    0    0  0.00000000000E+00  0.00000000000E+00 -0.15915615019E+04  0.21557445463E+04  0.14540173777E+04 0.  0.
        5    1    3    3  502    0 -0.60316821233E+03  0.38453589086E+03 -0.98817680601E+03  0.12199160765E+04  0.46999998093E+01 0.  1.
       -5    1    3    3    0  502  0.60316821233E+03 -0.38453589086E+03 -0.60338469593E+03  0.93582846986E+03  0.46999998093E+01 0. -1.
</event>
<event>
 5   0  0.8673728E-04  0.1391049E+04  0.7818609E-02  0.8960324E-01
        1   -1    0    0  501    0  0.00000000000E+00  0.00000000000E+00  0.69321077965E+03  0.69321077967E+03  0.50400001928E-02 0.  1.
       -1   -1    0    0    0  501  0.00000000000E+00  0.00000000000E+00 -0.69784548730E+03  0.69784548732E+03  0.50400001928E-02 0. -1.
    10030    2    1    2    0    0  0.00000000000E+00  0.00000000000E+00 -0.46347076520E+01  0.13910562670E+04  0.13910485460E+04 0.  0.
        3    1    3    3  502    0  0.54026265668E+03  0.19799711606E+03  0.38841158384E+03  0.69422630664E+03  0.10100000352E+00 0.  1.
       -3    1    3    3    0  502 -0.54026265668E+03 -0.19799711606E+03 -0.39304629149E+03  0.69682996034E+03  0.10100000352E+00 0. -1.
</event>
<event>
 5   0  0.8609148E-04  0.1357315E+04  0.7818609E-02  0.8985309E-01
       -1   -1    0    0    0  501  0.00000000000E+00  0.00000000000E+00  0.21935898106E+03  0.21935898112E+03  0.50400001928E-02 0.  1.
        1   -1    0    0  501    0  0.00000000000E+00  0.00000000000E+00 -0.20996457238E+04  0.20996457238E+04  0.50400001928E-02 0. -1.
    10030    2    1    2    0    0  0.00000000000E+00  0.00000000000E+00 -0.18802867428E+04  0.23190047050E+04  0.13573152127E+04 0.  0.
        5    1    3    3  502    0 -0.67952903799E+02 -0.66437783992E+03 -0.73413664992E+03  0.99246875118E+03  0.46999998093E+01 0.  1.
       -5    1    3    3    0  502  0.67952903799E+02  0.66437783992E+03 -0.11461500928E+04  0.13265359538E+04  0.46999998093E+01 0. -1.
</event>
<event>
 5   0  0.9007180E-04  0.1372035E+04  0.7818609E-02  0.8974313E-01
       -1   -1    0    0    0  501  0.00000000000E+00  0.00000000000E+00  0.95480435357E+03  0.95480435358E+03  0.50400001928E-02 0. -1.
        1   -1    0    0  501    0  0.00000000000E+00  0.00000000000E+00 -0.49289697654E+03  0.49289697657E+03  0.50400001928E-02 0.  1.
    10030    2    1    2    0    0  0.00000000000E+00  0.00000000000E+00  0.46190737703E+03  0.14477013301E+04  0.13720352460E+04 0.  0.
        2    1    3    3  502    0 -0.32438318792E+03 -0.55984245176E+03 -0.95928273008E+01  0.64710126390E+03  0.25500000920E-02 0.  1.
       -2    1    3    3    0  502  0.32438318792E+03  0.55984245176E+03  0.47150020433E+03  0.80060006625E+03  0.25500000920E-02 0. -1.
</event>
<event>
 5   0  0.9007180E-04  0.1396145E+04  0.7818609E-02  0.8956614E-01
       -1   -1    0    0    0  501  0.00000000000E+00  0.00000000000E+00  0.22970309654E+03  0.22970309660E+03  0.50400001928E-02 0.  1.
        1   -1    0    0  501    0  0.00000000000E+00  0.00000000000E+00 -0.21214556683E+04  0.21214556683E+04  0.50400001928E-02 0. -1.
    10030    2    1    2    0    0  0.00000000000E+00  0.00000000000E+00 -0.18917525717E+04  0.23511587649E+04  0.13961446003E+04 0.  0.
        2    1    3    3  502    0  0.30842410555E+03  0.52562909268E+03 -0.15191753268E+04  0.16368582851E+04  0.25500000920E-02 0. -1.
       -2    1    3    3    0  502 -0.30842410555E+03 -0.52562909268E+03 -0.37257724493E+03  0.71430047977E+03  0.25500000920E-02 0.  1.
</event>
<event>
 5   0  0.1605214E-03  0.1429290E+04  0.7818609E-02  0.8932886E-01
        2   -1    0    0  501    0  0.00000000000E+00  0.00000000000E+00  0.97858610130E+03  0.97858610130E+03  0.25500000920E-02 0. -1.
       -2   -1    0    0    0  501  0.00000000000E+00  0.00000000000E+00 -0.52189310129E+03  0.52189310130E+03  0.25500000920E-02 0.  1.
    10030    2    1    2    0    0  0.00000000000E+00  0.00000000000E+00  0.45669300000E+03  0.15004792026E+04  0.14292898031E+04 0.  0.
        5    1    3    3  502    0  0.21412868894E+03  0.55892368913E+03 -0.18154716395E+03  0.62548241256E+03  0.46999998093E+01 0.  1.
       -5    1    3    3    0  502 -0.21412868894E+03 -0.55892368913E+03  0.63824016395E+03  0.87499679003E+03  0.46999998093E+01 0. -1.
</event>
<event>
 5   0  0.8673728E-04  0.1411510E+04  0.7818609E-02  0.8945529E-01
       -1   -1    0    0    0  501  0.00000000000E+00  0.00000000000E+00  0.32523170049E+03  0.32523170053E+03  0.50400001928E-02 0. -1.
        1   -1    0    0  501    0  0.00000000000E+00  0.00000000000E+00 -0.15314927388E+04  0.15314927388E+04  0.50400001928E-02 0.  1.
    10030    2    1    2    0    0  0.00000000000E+00  0.00000000000E+00 -0.12062610383E+04  0.18567244393E+04  0.14115098126E+04 0.  0.
        3    1    3    3  502    0 -0.50469283960E+03  0.49321969241E+03 -0.61689221436E+03  0.93730280147E+03  0.10100000352E+00 0.  1.
       -3    1    3    3    0  502  0.50469283960E+03 -0.49321969241E+03 -0.58936882394E+03  0.91942163785E+03  0.10100000352E+00 0. -1.
</event>
<event>
 5   0  0.1605214E-03  0.1386907E+04  0.7818609E-02  0.8963351E-01
       -2   -1    0    0    0  501  0.00000000000E+00  0.00000000000E+00  0.37619081924E+03  0.37619081925E+03  0.25500000920E-02 0.  1.
        2   -1    0    0  501    0  0.00000000000E+00  0.00000000000E+00 -0.12782807664E+04  0.12782807664E+04  0.25500000920E-02 0. -1.
    10030    2    1    2    0    0  0.00000000000E+00  0.00000000000E+00 -0.90208994712E+03  0.16544715856E+04  0.13869066136E+04 0.  0.
        5    1    3    3  502    0  0.24106386665E+03 -0.26355756603E+03  0.25799749239E+03  0.44063496740E+03  0.46999998093E+01 0.  1.
       -5    1    3    3    0  502 -0.24106386665E+03  0.26355756603E+03 -0.11600874395E+04  0.12138366182E+04  0.46999998093E+01 0. -1.
</event>
<event>
 5   0  0.8673728E-04  0.1407879E+04  0.7818609E-02  0.8948135E-01
       -1   -1    0    0    0  501  0.00000000000E+00  0.00000000000E+00  0.12321107744E+04  0.12321107744E+04  0.50400001928E-02 0.  1.
        1   -1    0    0  501    0  0.00000000000E+00  0.00000000000E+00 -0.40218032330E+03  0.40218032333E+03  0.50400001928E-02 0. -1.
    10030    2    1    2    0    0  0.00000000000E+00  0.00000000000E+00  0.82993045107E+03  0.16342910977E+04  0.14078788437E+04 0.  0.
        3    1    3    3  502    0  0.10496824462E+02 -0.48430418663E+03  0.10078580265E+04  0.11182300928E+04  0.10100000352E+00 0.  1.
       -3    1    3    3    0  502 -0.10496824462E+02  0.48430418663E+03 -0.17792757546E+03  0.51606100494E+03  0.10100000352E+00 0. -1.
</event>
<event>
 5   0  0.1648213E-03  0.1368145E+04  0.7818609E-02  0.8977205E-01
        2   -1    0    0  501    0  0.00000000000E+00  0.00000000000E+00  0.12778369958E+04  0.12778369958E+04  0.25500000920E-02 0.  1.
       -2   -1    0    0    0  501  0.00000000000E+00  0.00000000000E+00 -0.36620900393E+03  0.36620900394E+03  0.25500000920E-02 0. -1.
    10030    2    1    2    0    0  0.00000000000E+00  0.00000000000E+00  0.91162799183E+03  0.16440459997E+04  0.13681453335E+04 0.  0.
        4    1    3    3  502    0 -0.36296461672E+03  0.33508174595E+03 -0.11282751598E+03  0.50670973024E+03  0.12699999809E+01 0. -1.
       -4    1    3    3    0  502  0.36296461672E+03 -0.33508174595E+03  0.10244555078E+04  0.11373362695E+04  0.12699999809E+01 0.  1.
</event>
<event>
 5   0  0.8502300E-04  0.1358299E+04  0.7818609E-02  0.8984570E-01
        1   -1    0    0  501    0  0.00000000000E+00  0.00000000000E+00  0.34455658520E+03  0.34455658524E+03  0.50400001928E-02 0. -1.
       -1   -1    0    0    0  501  0.00000000000E+00  0.00000000000E+00 -0.13386597178E+04  0.13386597178E+04  0.50400001928E-02 0.  1.
    10030    2    1    2    0    0  0.00000000000E+00  0.00000000000E+00 -0.99410313256E+03  0.16832163030E+04  0.13582989673E+04 0.  0.
        4    1    3    3  502    0 -0.49919987492E+03  0.28762155948E+03 -0.51425856361E+02  0.57842277635E+03  0.12699999809E+01 0. -1.
       -4    1    3    3    0  502  0.49919987492E+03 -0.28762155948E+03 -0.94267727620E+03  0.11047935267E+04  0.12699999809E+01 0.  1.
</event>
<event>
 5   0  0.1648213E-03  0.1396116E+04  0.7818609E-02  0.8956635E-01
       -2   -1    0    0    0  501  0.00000000000E+00  0.00000000000E+00  0.59179970857E+03  0.59179970857E+03  0.25500000920E-02 0.  1.
        2   -1    0    0  501    0  0.00000000000E+00  0.00000000000E+00 -0.82339500906E+03  0.82339500906E+03  0.25500000920E-02 0. -1.
    10030    2    1    2    0    0  0.00000000000E+00  0.00000000000E+00 -0.23159530049E+03  0.14151947176E+04  0.13961159356E+04 0.  0.
        4    1    3    3  502    0  0.44761980861E+03  0.37225539778E+03  0.27462252602E+03  0.64370545977E+03  0.12699999809E+01 0.  1.
       -4    1    3    3    0  502 -0.44761980861E+03 -0.37225539778E+03 -0.50621782651E+03  0.77148925787E+03  0.12699999809E+01 0. -1.
</event>
<event>
 5   0  0.1578965E-03  0.1390918E+04  0.7818609E-02  0.8960419E-01
        2   -1    0    0  501    0  0.00000000000E+00  0.00000000000E+00  0.21112396585E+04  0.21112396585E+04  0.25500000920E-02 0.  1.
       -2   -1    0    0    0  501  0.00000000000E+00  0.00000000000E+00 -0.22908979083E+03  0.22908979085E+03  0.25500000920E-02 0. -1.
    10030    2    1    2    0    0  0.00000000000E+00  0.00000000000E+00  0.18821498676E+04  0.23403294493E+04  0.13909183323E+04 0.  0.
        2    1    3    3  502    0  0.38380421027E+03  0.28671662333E+03  0.92829396297E+02  0.48798503127E+03  0.25500000920E-02 0. -1.
       -2    1    3    3    0  502 -0.38380421027E+03 -0.28671662333E+03  0.17893204713E+04  0.18523444181E+04  0.25500000920E-02 0.  1.
</event>
<event>
 5   0  0.9639548E-04  0.1405047E+04  0.7818609E-02  0.8950173E-01
        1   -1    0    0  501    0  0.00000000000E+00  0.00000000000E+00  0.94897699201E+03  0.94897699202E+03  0.50400001928E-02 0. -1.
       -1   -1    0    0    0  501  0.00000000000E+00  0.00000000000E+00 -0.52007511420E+03  0.52007511422E+03  0.50400001928E-02 0.  1.
    10030    2    1    2    0    0  0.00000000000E+00  0.00000000000E+00  0.42890187781E+03  0.14690521062E+04  0.14050470704E+04 0.  0.
        1    1    3    3  502    0 -0.31313918569E+03  0.11608584545E+03  0.86067351448E+03  0.92319606351E+03  0.50400001928E-02 0. -1.
       -1    1    3    3    0  502  0.31313918569E+03 -0.11608584545E+03 -0.43177163667E+03  0.54585604273E+03  0.50400001928E-02 0.  1.
</event>
<event>
 5   0  0.6048000E-04  0.1379953E+04  0.7818609E-02  0.8968459E-01
        3   -1    0    0  501    0  0.00000000000E+00  0.00000000000E+00  0.42955412802E+03  0.42955413990E+03  0.10100000352E+00 0.  1.
       -3   -1    0    0    0  501  0.00000000000E+00  0.00000000000E+00 -0.11082834649E+04  0.11082834695E+04  0.10100000352E+00 0. -1.
    10030    2    1    2    0    0  0.00000000000E+00  0.00000000000E+00 -0.67872933683E+03  0.15378376093E+04  0.13799532601E+04 0.  0.
        3    1    3    3  502    0  0.27486579944E+03 -0.26440286696E+03 -0.98013523467E+03  0.10517248558E+04  0.10100000352E+00 0. -1.
       -3    1    3    3    0  502 -0.27486579944E+03  0.26440286696E+03  0.30140589784E+03  0.48611275360E+03  0.10100000352E+00 0.  1.
</event>
<event>
 5   0  0.9639548E-04  0.1377365E+04  0.7818609E-02  0.8970368E-01
        1   -1    0    0  501    0  0.00000000000E+00  0.00000000000E+00  0.65277031044E+03  0.65277031046E+03  0.50400001928E-02 0. -1.
       -1   -1    0    0    0  501  0.00000000000E+00  0.00000000000E+00 -0.72657068184E+03  0.72657068185E+03  0.50400001928E-02 0.  1.
    10030    2    1    2    0    0  0.00000000000E+00  0.00000000000E+00 -0.73800371397E+02  0.13793409923E+04  0.13773652668E+04 0.  0.
        1    1    3    3  502    0  0.38598469964E+03  0.14345536403E+03 -0.58970662771E+03  0.71924789649E+03  0.50400001928E-02 0.  1.
       -1    1    3    3    0  502 -0.38598469964E+03 -0.14345536403E+03  0.51590625631E+03  0.66009309582E+03  0.50400001928E-02 0. -1.
</event>
<event>
 5   0  0.1605214E-03  0.1366706E+04  0.7818609E-02  0.8978277E-01
       -2   -1    0    0    0  501  0.00000000000E+00  0.00000000000E+00  0.27853922000E+03  0.27853922001E+03  0.25500000920E-02 0.  1.
        2   -1    0    0  501    0  0.00000000000E+00  0.00000000000E+00 -0.16765009609E+04  0.16765009609E+04  0.25500000920E-02 0. -1.
    10030    2    1    2    0    0  0.00000000000E+00  0.00000000000E+00 -0.13979617409E+04  0.19550401809E+04  0.13667059230E+04 0.  0.
        5    1    3    3  502    0  0.22190464906E+03 -0.72958172127E+02  0.21963054215E+03  0.32066217925E+03  0.46999998093E+01 0.  1.
       -5    1    3    3    0  502 -0.22190464906E+03  0.72958172127E+02 -0.16175922830E+04  0.16343780017E+04  0.46999998093E+01 0. -1.
</event>
<event>
 5   0  0.1706986E-03  0.1413759E+04  0.7818609E-02  0.8943919E-01
       -2   -1    0    0    0  501  0.00000000000E+00  0.00000000000E+00  0.11504593381E+04  0.11504593381E+04  0.25500000920E-02 0.  1.
        2   -1    0    0  501    0  0.00000000000E+00  0.00000000000E+00 -0.43432966291E+03  0.43432966291E+03  0.25500000920E-02 0. -1.
    10030    2    1    2    0    0  0.00000000000E+00  0.00000000000E+00  0.71612967521E+03  0.15847890010E+04  0.14137589844E+04 0.  0.
        3    1    3    3  502    0 -0.18933387875E+03 -0.39574961437E+03  0.97938613549E+03  0.10731552952E+04  0.10100000352E+00 0.  1.
       -3    1    3    3    0  502  0.18933387875E+03  0.39574961437E+03 -0.26325646028E+03  0.51163370588E+03  0.10100000352E+00 0. -1.
</event>
<event>
 5   0  0.1605214E-03  0.1470520E+04  0.7818609E-02  0.8904297E-01
       -2   -1    0    0    0  501  0.00000000000E+00  0.00000000000E+00  0.49061177523E+03  0.49061177524E+03  0.25500000920E-02 0.  1.
        2   -1    0    0  501    0  0.00000000000E+00  0.00000000000E+00 -0.11019036711E+04  0.11019036711E+04  0.25500000920E-02 0. -1.
    10030    2    1    2    0    0  0.00000000000E+00  0.00000000000E+00 -0.61129189585E+03  0.15925154463E+04  0.14705195221E+04 0.  0.
        5    1    3    3  502    0 -0.57180398520E+03 -0.12498142709E+02 -0.80600307348E+03  0.98832132706E+03  0.46999998093E+01 0. -1.
       -5    1    3    3    0  502  0.57180398520E+03  0.12498142709E+02  0.19471117763E+03  0.60419411926E+03  0.46999998093E+01 0.  1.
</event>
<event>
 5   0  0.9007180E-04  0.1393737E+04  0.7818609E-02  0.8958365E-01
       -1   -1    0    0    0  501  0.00000000000E+00  0.00000000000E+00  0.30369059886E+03  0.30369059890E+03  0.50400001928E-02 0.  1.
        1   -1    0    0  501    0  0.00000000000E+00  0.00000000000E+00 -0.15990794995E+04  0.15990794995E+04  0.50400001928E-02 0. -1.
    10030    2    1    2    0    0  0.00000000000E+00  0.00000000000E+00 -0.12953889007E+04  0.19027700984E+04  0.13937365761E+04 0.  0.
        2    1    3    3  502    0  0.14983190329E+03  0.60582492985E+03 -0.22435893493E+03  0.66318200862E+03  0.25500000920E-02 0.  1.
       -2    1    3    3    0  502 -0.14983190329E+03 -0.60582492985E+03 -0.10710299657E+04  0.12395880898E+04  0.25500000920E-02 0. -1.
</event>
<event>
 5   0  0.1648213E-03  0.1228753E+04  0.7818609E-02  0.9088055E-01
       -2   -1    0    0    0  501  0.00000000000E+00  0.00000000000E+00  0.37530816127E+03  0.37530816128E+03  0.25500000920E-02 0. -1.
        2   -1    0    0  501    0  0.00000000000E+00  0.00000000000E+00 -0.10057297433E+04  0.10057297433E+04  0.25500000920E-02 0.  1.
    10030    2    1    2    0    0  0.00000000000E+00  0.00000000000E+00 -0.63042158207E+03  0.13810379046E+04  0.12287531578E+04 0.  0.
        4    1    3    3  502    0  0.27031237276E+03 -0.29621215815E+03 -0.83834947641E+03  0.92932334470E+03  0.12699999809E+01 0.  1.
       -4    1    3    3    0  502 -0.27031237276E+03  0.29621215815E+03  0.20792789434E+03  0.45171455992E+03  0.12699999809E+01 0. -1.
</event>
<event>
 5   0  0.8673728E-04  0.1402538E+04  0.7818609E-02  0.8951983E-01
        1   -1    0    0  501    0  0.00000000000E+00  0.00000000000E+00  0.15328807852E+04  0.15328807852E+04  0.50400001928E-02 0. -1.
       -1   -1    0    0    0  501  0.00000000000E+00  0.00000000000E+00 -0.32081973997E+03  0.32081974001E+03  0.50400001928E-02 0.  1.
    10030    2    1    2    0    0  0.00000000000E+00  0.00000000000E+00  0.12120610452E+04  0.18537005252E+04  0.14025382918E+04 0.  0.
        3    1    3    3  502    0  0.31776106334E+03 -0.72031639625E+02 -0.21470523759E+03  0.39020379256E+03  0.10100000352E+00 0.  1.
       -3    1    3    3    0  502 -0.31776106334E+03  0.72031639625E+02  0.14267662828E+04  0.14634967327E+04  0.10100000352E+00 0. -1.
</event>
<event>
 5   0  0.1706986E-03  0.1395459E+04  0.7818609E-02  0.8957112E-01
        2   -1    0    0  501    0  0.00000000000E+00  0.00000000000E+00  0.15083773704E+04  0.15083773704E+04  0.25500000920E-02 0. -1.
       -2   -1    0    0    0  501  0.00000000000E+00  0.00000000000E+00 -0.32274865781E+03  0.32274865782E+03  0.25500000920E-02 0.  1.
    10030    2    1    2    0    0  0.00000000000E+00  0.00000000000E+00  0.11856287126E+04  0.18311260282E+04  0.13954594538E+04 0.  0.
        3    1    3    3  502    0 -0.39634375860E+03 -0.26427825383E+03 -0.76145878542E+02  0.48242053796E+03  0.10100000352E+00 0.  1.
       -3    1    3    3    0  502  0.39634375860E+03  0.26427825383E+03  0.12617745911E+04  0.13487054903E+04  0.10100000352E+00 0. -1.
</event>
<event>
 5   0  0.9639548E-04  0.1390031E+04  0.7818609E-02  0.8961067E-01
       -1   -1    0    0    0  501  0.00000000000E+00  0.00000000000E+00  0.14713364452E+04  0.14713364452E+04  0.50400001928E-02 0.  1.
        1   -1    0    0  501    0  0.00000000000E+00  0.00000000000E+00 -0.32830444090E+03  0.32830444094E+03  0.50400001928E-02 0. -1.
    10030    2    1    2    0    0  0.00000000000E+00  0.00000000000E+00  0.11430320043E+04  0.17996408862E+04  0.13900306314E+04 0.  0.
        1    1    3    3  502    0  0.87619355256E+02  0.52634367989E+03 -0.50609713607E+01  0.53361075161E+03  0.50400001928E-02 0. -1.
       -1    1    3    3    0  502 -0.87619355256E+02 -0.52634367989E+03  0.11480929757E+04  0.12660301346E+04  0.50400001928E-02 0.  1.
</event>
<event>
 5   0  0.1605214E-03  0.1375906E+04  0.7818609E-02  0.8971446E-01
       -2   -1    0    0    0  501  0.00000000000E+00  0.00000000000E+00  0.12453967229E+04  0.12453967230E+04  0.25500000920E-02 0. -1.
        2   -1    0    0  501    0  0.00000000000E+00  0.00000000000E+00 -0.38002318041E+03  0.38002318041E+03  0.25500000920E-02 0.  1.
    10030    2    1    2    0    0  0.00000000000E+00  0.00000000000E+00  0.86537354254E+03  0.16254199034E+04  0.13759064264E+04 0.  0.
        5    1    3    3  502    0 -0.34256982695E+03 -0.56968383843E+03  0.22347273684E+03  0.70132440155E+03  0.46999998093E+01 0.  1.
       -5    1    3    3    0  502  0.34256982695E+03  0.56968383843E+03  0.64190080570E+03  0.92409550181E+03  0.46999998093E+01 0. -1.
</event>
<event>
 5   0  0.6048000E-04  0.1209299E+04  0.7818609E-02  0.9104756E-01
        3   -1    0    0  501    0  0.00000000000E+00  0.00000000000E+00  0.12578831422E+04  0.12578831463E+04  0.10100000352E+00 0.  1.
       -3   -1    0    0    0  501  0.00000000000E+00  0.00000000000E+00 -0.29064779842E+03  0.29064781597E+03  0.10100000352E+00 0. -1.
    10030    2    1    2    0    0  0.00000000000E+00  0.00000000000E+00  0.96723534383E+03  0.15485309623E+04  0.12092989418E+04 0.  0.
        5    1    3    3  502    0 -0.42539291596E+03  0.41865319977E+03  0.35980223513E+03  0.69692852792E+03  0.46999998093E+01 0. -1.
       -5    1    3    3    0  502  0.42539291596E+03 -0.41865319977E+03  0.60743310870E+03  0.85160243434E+03  0.46999998093E+01 0.  1.
</event>
<event>
 5   0  0.8502300E-04  0.1382734E+04  0.7818609E-02  0.8966412E-01
       -1   -1    0    0    0  501  0.00000000000E+00  0.00000000000E+00  0.57717465251E+03  0.57717465253E+03  0.50400001928E-02 0.  1.
        1   -1    0    0  501    0  0.00000000000E+00  0.00000000000E+00 -0.82815200088E+03  0.82815200089E+03  0.50400001928E-02 0. -1.
    10030    2    1    2    0    0  0.00000000000E+00  0.00000000000E+00 -0.25097734837E+03  0.14053266534E+04  0.13827340212E+04 0.  0.
        4    1    3    3  502    0 -0.43142596790E+02 -0.18718384072E+03  0.54950715137E+03  0.58211579277E+03  0.12699999809E+01 0.  1.
       -4    1    3    3    0  502  0.43142596790E+02  0.18718384072E+03 -0.80048449973E+03  0.82321086065E+03  0.12699999809E+01 0. -1.
</event>
<event>
 5   0  0.1578965E-03  0.1388787E+04  0.7818609E-02  0.8961976E-01
       -2   -1    0    0    0  501  0.00000000000E+00  0.00000000000E+00  0.55671398331E+03  0.55671398332E+03  0.25500000920E-02 0.  1.
        2   -1    0    0  501    0  0.00000000000E+00  0.00000000000E+00 -0.86612180685E+03  0.86612180685E+03  0.25500000920E-02 0. -1.
    10030    2    1    2    0    0  0.00000000000E+00  0.00000000000E+00 -0.30940782353E+03  0.14228357902E+04  0.13887866951E+04 0.  0.
        2    1    3    3  502    0 -0.49950439663E+03  0.47573834354E+03 -0.73060067499E+02  0.69366374219E+03  0.25500000920E-02 0.  1.
       -2    1    3    3    0  502  0.49950439663E+03 -0.47573834354E+03 -0.23634775603E+03  0.72917204798E+03  0.25500000920E-02 0. -1.
</event>
<event>
 5   0  0.1706986E-03  0.1356428E+04  0.7818609E-02  0.8985976E-01
        2   -1    0    0  501    0  0.00000000000E+00  0.00000000000E+00  0.97231624636E+03  0.97231624636E+03  0.25500000920E-02 0.  1.
       -2   -1    0    0    0  501  0.00000000000E+00  0.00000000000E+00 -0.47307084048E+03  0.47307084048E+03  0.25500000920E-02 0. -1.
    10030    2    1    2    0    0  0.00000000000E+00  0.00000000000E+00  0.49924540588E+03  0.14453870868E+04  0.13564283451E+04 0.  0.
        3    1    3    3  502    0 -0.54001655491E+03  0.40507359860E+03  0.17997599574E+03  0.69863715125E+03  0.10100000352E+00 0. -1.
       -3    1    3    3    0  502  0.54001655491E+03 -0.40507359860E+03  0.31926941015E+03  0.74674993560E+03  0.10100000352E+00 0.  1.
</event>
<event>
 5   0  0.8609148E-04  0.1395180E+04  0.7818609E-02  0.8957315E-01
       -1   -1    0    0    0  501  0.00000000000E+00  0.00000000000E+00  0.12156648987E+04  0.12156648987E+04  0.50400001928E-02 0. -1.
        1   -1    0    0  501    0  0.00000000000E+00  0.00000000000E+00 -0.40030071215E+03  0.40030071218E+03  0.50400001928E-02 0.  1.
    10030    2    1    2    0    0  0.00000000000E+00  0.00000000000E+00  0.81536418656E+03  0.16159656109E+04  0.13951795938E+04 0.  0.
        5    1    3    3  502    0  0.25234462596E+03  0.13955458943E+03 -0.32801690378E+03  0.43677279316E+03  0.46999998093E+01 0.  1.
       -5    1    3    3    0  502 -0.25234462596E+03 -0.13955458943E+03  0.11433810903E+04  0.11791928177E+04  0.46999998093E+01 0. -1.
</event>
<event>
 5   0  0.6048000E-04  0.1422184E+04  0.7818609E-02  0.8937916E-01
       -4   -1    0    0    0  501  0.00000000000E+00  0.00000000000E+00  0.12477900627E+04  0.12477907090E+04  0.12699999809E+01 0. -1.
        4   -1    0    0  501    0  0.00000000000E+00  0.00000000000E+00 -0.40523603075E+03  0.40523802082E+03  0.12699999809E+01 0.  1.
    10030    2    1    2    0    0  0.00000000000E+00  0.00000000000E+00  0.84255403191E+03  0.16530287298E+04  0.14221837732E+04 0.  0.
        5    1    3    3  502    0 -0.43661222081E+03 -0.49563686809E+03  0.72735168525E+03  0.98252160302E+03  0.46999998093E+01 0. -1.
       -5    1    3    3    0  502  0.43661222081E+03  0.49563686809E+03  0.11520234666E+03  0.67050712677E+03  0.46999998093E+01 0.  1.
</event>
<event>
 5   0  0.1648213E-03  0.1441303E+04  0.7818609E-02  0.8924453E-01
       -2   -1    0    0    0  501  0.00000000000E+00  0.00000000000E+00  0.53064140815E+03  0.53064140815E+03  0.25500000920E-02 0.  1.
        2   -1    0    0  501    0  0.00000000000E+00  0.00000000000E+00 -0.97869906145E+03  0.97869906146E+03  0.25500000920E-02 0. -1.
    10030    2    1    2    0    0  0.00000000000E+00  0.00000000000E+00 -0.44805765331E+03  0.15093404696E+04  0.14413025333E+04 0.  0.
        4    1    3    3  502    0  0.63179441089E+03  0.32634603407E+03 -0.10158755854E+03  0.71832273842E+03  0.12699999809E+01 0.  1.
       -4    1    3    3    0  502 -0.63179441089E+03 -0.32634603407E+03 -0.34647009476E+03  0.79101773119E+03  0.12699999809E+01 0. -1.
</event>
<event>
 5   0  0.1578965E-03  0.1382368E+04  0.7818609E-02  0.8966681E-01
        2   -1    0    0  501    0  0.00000000000E+00  0.00000000000E+00  0.76003636392E+03  0.76003636392E+03  0.25500000920E-02 0.  1.
       -2   -1    0    0    0  501  0.00000000000E+00  0.00000000000E+00 -0.62856944292E+03  0.62856944293E+03  0.25500000920E-02 0. -1.
    10030    2    1    2    0    0  0.00000000000E+00  0.00000000000E+00  0.13146692100E+03  0.13886058069E+04  0.13823684514E+04 0.  0.
        2    1    3    3  502    0  0.27729556791E+03  0.36978898863E+03 -0.45049086351E+03  0.64542911787E+03  0.25500000920E-02 0. -1.
       -2    1    3    3    0  502 -0.27729556791E+03 -0.36978898863E+03  0.58195778451E+03  0.74317668898E+03  0.25500000920E-02 0.  1.
</event>
<event>
 5   0  0.9007180E-04  0.1402304E+04  0.7818609E-02  0.8952152E-01
        1   -1    0    0  501    0  0.00000000000E+00  0.00000000000E+00  0.10960485724E+04  0.10960485724E+04  0.50400001928E-02 0.  1.
       -1   -1    0    0    0  501  0.00000000000E+00  0.00000000000E+00 -0.44853347426E+03  0.44853347429E+03  0.50400001928E-02 0. -1.
    10030    2    1    2    0    0  0.00000000000E+00  0.00000000000E+00  0.64751509813E+03  0.15445820467E+04  0.14023044950E+04 0.  0.
        2    1    3    3  502    0  0.43412075433E+03  0.30668295552E+03 -0.17991102234E+03  0.56114458076E+03  0.25500000920E-02 0. -1.
       -2    1    3    3    0  502 -0.43412075433E+03 -0.30668295552E+03  0.82742612047E+03  0.98343746593E+03  0.25500000920E-02 0.  1.
</event>
<event>
 5   0  0.1578965E-03  0.1407104E+04  0.7818609E-02  0.8948693E-01
       -2   -1    0    0    0  501  0.00000000000E+00  0.00000000000E+00  0.23687708948E+03  0.23687708949E+03  0.25500000920E-02 0. -1.
        2   -1    0    0  501    0  0.00000000000E+00  0.00000000000E+00 -0.20896288826E+04  0.20896288826E+04  0.25500000920E-02 0.  1.
    10030    2    1    2    0    0  0.00000000000E+00  0.00000000000E+00 -0.18527517931E+04  0.23265059721E+04  0.14071037031E+04 0.  0.
        2    1    3    3  502    0 -0.34111122709E+03  0.60321870347E+03 -0.11272183585E+04  0.13231972269E+04  0.25500000920E-02 0.  1.
       -2    1    3    3    0  502  0.34111122709E+03 -0.60321870347E+03 -0.72553343461E+03  0.10033087452E+04  0.25500000920E-02 0. -1.
</event>
<event>
 5   0  0.1605214E-03  0.1399123E+04  0.7818609E-02  0.8954453E-01
       -2   -1    0    0    0  501  0.00000000000E+00  0.00000000000E+00  0.42594869004E+03  0.42594869004E+03  0.25500000920E-02 0. -1.
        2   -1    0    0  501    0  0.00000000000E+00  0.00000000000E+00 -0.11489329352E+04  0.11489329352E+04  0.25500000920E-02 0.  1.
    10030    2    1    2    0    0  0.00000000000E+00  0.00000000000E+00 -0.72298424517E+03  0.15748816253E+04  0.13991232665E+04 0.  0.
        5    1    3    3  502    0 -0.30155219137E+03  0.14480486140E+03  0.33006598990E+03  0.46996576439E+03  0.46999998093E+01 0. -1.
       -5    1    3    3    0  502  0.30155219137E+03 -0.14480486140E+03 -0.10530502351E+04  0.11049158609E+04  0.46999998093E+01 0.  1.
</event>
<event>
 5   0  0.1648213E-03  0.1405514E+04  0.7818609E-02  0.8949837E-01
       -2   -1    0    0    0  501  0.00000000000E+00  0.00000000000E+00  0.61797346942E+03  0.61797346942E+03  0.25500000920E-02 0. -1.
        2   -1    0    0  501    0  0.00000000000E+00  0.00000000000E+00 -0.79917284832E+03  0.79917284833E+03  0.25500000920E-02 0.  1.
    10030    2    1    2    0    0  0.00000000000E+00  0.00000000000E+00 -0.18119937891E+03  0.14171463178E+04  0.14055143084E+04 0.  0.
        4    1    3    3  502    0  0.52104660177E+03  0.38210937725E+03 -0.36923592659E+03  0.74420018798E+03  0.12699999809E+01 0.  1.
       -4    1    3    3    0  502 -0.52104660177E+03 -0.38210937725E+03  0.18803654769E+03  0.67294612977E+03  0.12699999809E+01 0. -1.
</event>
<event>
 5   0  0.1578965E-03  0.1393071E+04  0.7818609E-02  0.8958850E-01
        2   -1    0    0  501    0  0.00000000000E+00  0.00000000000E+00  0.91411891306E+03  0.91411891307E+03  0.25500000920E-02 0. -1.
       -2   -1    0    0    0  501  0.00000000000E+00  0.00000000000E+00 -0.53074207696E+03  0.53074207696E+03  0.25500000920E-02 0.  1.
    10030    2    1    2    0    0  0.00000000000E+00  0.00000000000E+00  0.38337683611E+03  0.14448609900E+04  0.13930705230E+04 0.  0.
        2    1    3    3  502    0 -0.64970702669E+03 -0.19372796949E+03  0.26026756106E+02  0.67847412533E+03  0.25500000920E-02 0.  1.
       -2    1    3    3    0  502  0.64970702669E+03  0.19372796949E+03  0.35735008000E+03  0.76638686470E+03  0.25500000920E-02 0. -1.
</event>
<event>
 5   0  0.6048000E-04  0.1382235E+04  0.7818609E-02  0.8966779E-01
        4   -1    0    0  501    0  0.00000000000E+00  0.00000000000E+00  0.13128369803E+04  0.13128375946E+04  0.12699999809E+01 0. -1.
       -4   -1    0    0    0  501  0.00000000000E+00  0.00000000000E+00 -0.36382334496E+03  0.36382556155E+03  0.12699999809E+01 0.  1.
    10030    2    1    2    0    0  0.00000000000E+00  0.00000000000E+00  0.94901363534E+03  0.16766631561E+04  0.13822345890E+04 0.  0.
        4    1    3    3  502    0 -0.65240153587E+03 -0.11328183545E+02  0.75081051183E+03  0.99472314205E+03  0.12699999809E+01 0.  1.
       -4    1    3    3    0  502  0.65240153587E+03  0.11328183545E+02  0.19820312351E+03  0.68194001409E+03  0.12699999809E+01 0. -1.
</event>
<event>
 5   0  0.9639548E-04  0.1412019E+04  0.7818609E-02  0.8945164E-01
       -1   -1    0    0    0  501  0.00000000000E+00  0.00000000000E+00  0.80216852821E+03  0.80216852822E+03  0.50400001928E-02 0. -1.
        1   -1    0    0  501    0  0.00000000000E+00  0.00000000000E+00 -0.62137727669E+03  0.62137727671E+03  0.50400001928E-02 0.  1.
    10030    2    1    2    0    0  0.00000000000E+00  0.00000000000E+00  0.18079125151E+03  0.14235458049E+04  0.14120188321E+04 0.  0.
        1    1    3    3  502    0 -0.25179754752E+03  0.39898663754E+03  0.61990411207E+03  0.77902082775E+03  0.50400001928E-02 0. -1.
       -1    1    3    3    0  502  0.25179754752E+03 -0.39898663754E+03 -0.43911286056E+03  0.64452497718E+03  0.50400001928E-02 0.  1.
</event>
<event>
 5   0  0.1706986E-03  0.1405498E+04  0.7818609E-02  0.8949849E-01
       -2   -1    0    0    0  501  0.00000000000E+00  0.00000000000E+00  0.55742717736E+03  0.55742717737E+03  0.25500000920E-02 0. -1.
        2   -1    0    0  501    0  0.00000000000E+00  0.00000000000E+00 -0.88595583521E+03  0.88595583521E+03  0.25500000920E-02 0.  1.
    10030    2    1    2    0    0  0.00000000000E+00  0.00000000000E+00 -0.32852865785E+03  0.14433830126E+04  0.14054975781E+04 0.  0.
        3    1    3    3  502    0  0.54274933716E+03  0.44150372102E+03 -0.23202369697E+03  0.73711422780E+03  0.10100000352E+00 0.  1.
       -3    1    3    3    0  502 -0.54274933716E+03 -0.44150372102E+03 -0.96504960874E+02  0.70626878477E+03  0.10100000352E+00 0. -1.
</event>
<event>
 5   0  0.9639548E-04  0.1422497E+04  0.7818609E-02  0.8937693E-01
       -1   -1    0    0    0  501  0.00000000000E+00  0.00000000000E+00  0.10641362150E+04  0.10641362150E+04  0.50400001928E-02 0.  1.
        1   -1    0    0  501    0  0.00000000000E+00  0.00000000000E+00 -0.47538481485E+03  0.47538481488E+03  0.50400001928E-02 0. -1.
    10030    2    1    2    0    0  0.00000000000E+00  0.00000000000E+00  0.58875140018E+03  0.15395210299E+04  0.14224966750E+04 0.  0.
        1    1    3    3  502    0  0.14064284531E+03 -0.66881954424E+03  0.81264725033E+02  0.68826154059E+03  0.50400001928E-02 0.  1.
       -1    1    3    3    0  502 -0.14064284531E+03  0.66881954424E+03  0.50748667515E+03  0.85125948933E+03  0.50400001928E-02 0. -1.
</event>
<event>
 5   0  0.1578965E-03  0.1456797E+04  0.7818609E-02  0.8913702E-01
        2   -1    0    0  501    0  0.00000000000E+00  0.00000000000E+00  0.19820261271E+04  0.19820261271E+04  0.25500000920E-02 0.  1.
       -2   -1    0    0    0  501  0.00000000000E+00  0.00000000000E+00 -0.26768799563E+03  0.26768799564E+03  0.25500000920E-02 0. -1.
    10030    2    1    2    0    0  0.00000000000E+00  0.00000000000E+00  0.17143381315E+04  0.22497141227E+04  0.14567973109E+04 0.  0.
        2    1    3    3  502    0  0.49978178192E+03  0.47339211719E+03  0.12248349831E+04  0.14050276375E+04  0.25500000920E-02 0.  1.
       -2    1    3    3    0  502 -0.49978178192E+03 -0.47339211719E+03  0.48950314831E+03  0.84468648525E+03  0.25500000920E-02 0. -1.
</event>
<event>
 5   0  0.1605214E-03  0.1401581E+04  0.7818609E-02  0.8952675E-01
        2   -1    0    0  501    0  0.00000000000E+00  0.00000000000E+00  0.57337626292E+03  0.57337626293E+03  0.25500000920E-02 0. -1.
       -2   -1    0    0    0  501  0.00000000000E+00  0.00000000000E+00 -0.85651849460E+03  0.85651849461E+03  0.25500000920E-02 0.  1.
    10030    2    1    2    0    0  0.00000000000E+00  0.00000000000E+00 -0.28314223168E+03  0.14298947575E+04  0.14015810695E+04 0.  0.
        5    1    3    3  502    0  0.17159428314E+02  0.12236756969E+03 -0.84530074276E+03  0.85429719876E+03  0.46999998093E+01 0.  1.
       -5    1    3    3    0  502 -0.17159428314E+02 -0.12236756969E+03  0.56215851108E+03  0.57559755878E+03  0.46999998093E+01 0. -1.
</event>
<event>
 5   0  0.8673728E-04  0.1373173E+04  0.7818609E-02  0.8973469E-01
       -1   -1    0    0    0  501  0.00000000000E+00  0.00000000000E+00  0.41009915375E+03  0.41009915378E+03  0.50400001928E-02 0. -1.
        1   -1    0    0  501    0  0.00000000000E+00  0.00000000000E+00 -0.11494811662E+04  0.11494811662E+04  0.50400001928E-02 0.  1.
    10030    2    1    2    0    0  0.00000000000E+00  0.00000000000E+00 -0.73938201247E+03  0.15595803200E+04  0.13731733373E+04 0.  0.
        3    1    3    3  502    0 -0.16507167342E+03  0.26966638085E+03  0.32249435485E+03  0.45163174539E+03  0.10100000352E+00 0. -1.
       -3    1    3    3    0  502  0.16507167342E+03 -0.26966638085E+03 -0.10618763673E+04  0.11079485746E+04  0.10100000352E+00 0.  1.
</event>
<event>
 5   0  0.9639548E-04  0.1389208E+04  0.7818609E-02  0.8961667E-01
       -1   -1    0    0    0  501  0.00000000000E+00  0.00000000000E+00  0.40458235801E+03  0.40458235804E+03  0.50400001928E-02 0. -1.
        1   -1    0    0  501    0  0.00000000000E+00  0.00000000000E+00 -0.11925260456E+04  0.11925260456E+04  0.50400001928E-02 0.  1.
    10030    2    1    2    0    0  0.00000000000E+00  0.00000000000E+00 -0.78794368763E+03  0.15971084037E+04  0.13892084071E+04 0.  0.
        1    1    3    3  502    0  0.18091428180E+03 -0.54617224841E+02  0.37445954392E+03  0.41944364182E+03  0.50400001928E-02 0. -1.
       -1    1    3    3    0  502 -0.18091428180E+03  0.54617224841E+02 -0.11624032315E+04  0.11776647619E+04  0.50400001928E-02 0.  1.
</event>
<event>
 5   0  0.8609148E-04  0.1376766E+04  0.7818609E-02  0.8970811E-01
       -1   -1    0    0    0  501  0.00000000000E+00  0.00000000000E+00  0.64555385659E+03  0.64555385661E+03  0.50400001928E-02 0.  1.
        1   -1    0    0  501    0  0.00000000000E+00  0.00000000000E+00 -0.73405320585E+03  0.73405320587E+03  0.50400001928E-02 0. -1.
    10030    2    1    2    0    0  0.00000000000E+00  0.00000000000E+00 -0.88499349260E+02  0.13796070625E+04  0.13767655981E+04 0.  0.
        5    1    3    3  502    0  0.47228993029E+03  0.41637320447E+03  0.23457694122E+03  0.67191729774E+03  0.46999998093E+01 0.  1.
       -5    1    3    3    0  502 -0.47228993029E+03 -0.41637320447E+03 -0.32307629048E+03  0.70768976474E+03  0.46999998093E+01 0. -1.
</event>
<event>
 5   0  0.6048000E-04  0.1399413E+04  0.7818609E-02  0.8954244E-01
        3   -1    0    0  501    0  0.00000000000E+00  0.00000000000E+00  0.51429166333E+03  0.51429167325E+03  0.10100000352E+00 0.  1.
       -3   -1    0    0    0  501  0.00000000000E+00  0.00000000000E+00 -0.95196763334E+03  0.95196763870E+03  0.10100000352E+00 0. -1.
    10030    2    1    2    0    0  0.00000000000E+00  0.00000000000E+00 -0.43767597001E+03  0.14662593119E+04  0.13994127751E+04 0.  0.
        5    1    3    3  502    0 -0.36264027495E+03  0.31478998665E+03 -0.75203353929E+03  0.89228764360E+03  0.46999998093E+01 0. -1.
       -5    1    3    3    0  502  0.36264027495E+03 -0.31478998665E+03  0.31435756928E+03  0.57397166835E+03  0.46999998093E+01 0.  1.
</event>
<event>
 5   0  0.6048000E-04  0.1421385E+04  0.7818609E-02  0.8938483E-01
       -3   -1    0    0    0  501  0.00000000000E+00  0.00000000000E+00  0.27905488833E+03  0.27905490660E+03  0.10100000352E+00 0.  1.
        3   -1    0    0  501    0  0.00000000000E+00  0.00000000000E+00 -0.18099788911E+04  0.18099788939E+04  0.10100000352E+00 0. -1.
    10030    2    1    2    0    0  0.00000000000E+00  0.00000000000E+00 -0.15309240027E+04  0.20890338005E+04  0.14213845072E+04 0.  0.
        1    1    3    3  502    0 -0.18372848840E+03  0.26894227549E+03 -0.16938273209E+04  0.17248585733E+04  0.50400001928E-02 0. -1.
       -1    1    3    3    0  502  0.18372848840E+03 -0.26894227549E+03  0.16290331814E+03  0.36417522716E+03  0.50400001928E-02 0.  1.
</event>
<event>
 5   0  0.8673728E-04  0.1388925E+04  0.7818609E-02  0.8961874E-01
        1   -1    0    0  501    0  0.00000000000E+00  0.00000000000E+00  0.12729334224E+04  0.12729334224E+04  0.50400001928E-02 0.  1.
       -1   -1    0    0    0  501  0.00000000000E+00  0.00000000000E+00 -0.37887163709E+03  0.37887163712E+03  0.50400001928E-02 0. -1.
    10030    2    1    2    0    0  0.00000000000E+00  0.00000000000E+00  0.89406178531E+03  0.16518050595E+04  0.13889252963E+04 0.  0.
        3    1    3    3  502    0  0.10206837174E+03  0.33913838287E+03 -0.26339708400E+03  0.44137379771E+03  0.10100000352E+00 0. -1.
       -3    1    3    3    0  502 -0.10206837174E+03 -0.33913838287E+03  0.11574588693E+04  0.12104312618E+04  0.10100000352E+00 0.  1.
</event>
<event>
 5   0  0.1605214E-03  0.1402888E+04  0.7818609E-02  0.8951730E-01
       -2   -1    0    0    0  501  0.00000000000E+00  0.00000000000E+00  0.53655971487E+03  0.53655971487E+03  0.25500000920E-02 0. -1.
        2   -1    0    0  501    0  0.00000000000E+00  0.00000000000E+00 -0.91699763894E+03  0.91699763894E+03  0.25500000920E-02 0.  1.
    10030    2    1    2    0    0  0.00000000000E+00  0.00000000000E+00 -0.38043792407E+03  0.14535573538E+04  0.14028884370E+04 0.  0.
        5    1    3    3  502    0 -0.26761001937E+02  0.47489901457E+02 -0.91478336225E+03  0.91641809880E+03  0.46999998093E+01 0.  1.
       -5    1    3    3    0  502  0.26761001937E+02 -0.47489901457E+02  0.53434543818E+03  0.53713925501E+03  0.46999998093E+01 0. -1.
</event>
<event>
 5   0  0.6048000E-04  0.1418423E+04  0.7818609E-02  0.8940590E-01
        3   -1    0    0  501    0  0.00000000000E+00  0.00000000000E+00  0.18662762583E+04  0.18662762610E+04  0.10100000352E+00 0. -1.
       -3   -1    0    0    0  501  0.00000000000E+00  0.00000000000E+00 -0.26951058734E+03  0.26951060627E+03  0.10100000352E+00 0.  1.
    10030    2    1    2    0    0  0.00000000000E+00  0.00000000000E+00  0.15967656709E+04  0.21357868673E+04  0.14184233975E+04 0.  0.
        1    1    3    3  502    0 -0.37772229636E+03 -0.43751708995E+03  0.14171805727E+04  0.15305215166E+04  0.50400001928E-02 0. -1.
       -1    1    3    3    0  502  0.37772229636E+03  0.43751708995E+03  0.17958509823E+03  0.60526535065E+03  0.50400001928E-02 0.  1.
</event>
<event>
 5   0  0.1605214E-03  0.1403039E+04  0.7818609E-02  0.8951622E-01
       -2   -1    0    0    0  501  0.00000000000E+00  0.00000000000E+00  0.74275067166E+03  0.74275067166E+03  0.25500000920E-02 0.  1.
        2   -1    0    0  501    0  0.00000000000E+00  0.00000000000E+00 -0.66257707708E+03  0.66257707709E+03  0.25500000920E-02 0. -1.
    10030    2    1    2    0    0  0.00000000000E+00  0.00000000000E+00  0.80173594577E+02  0.14053277488E+04  0.14030389432E+04 0.  0.
        5    1    3    3  502    0 -0.65682205971E+03  0.20219488612E+03 -0.10088899104E+03  0.69462124111E+03  0.46999998093E+01 0. -1.
       -5    1    3    3    0  502  0.65682205971E+03 -0.20219488612E+03  0.18106258562E+03  0.71070650764E+03  0.46999998093E+01 0.  1.
</event>
<event>
 5   0  0.9639548E-04  0.1376363E+04  0.7818609E-02  0.8971108E-01
       -1   -1    0    0    0  501  0.00000000000E+00  0.00000000000E+00  0.51325163712E+03  0.51325163715E+03  0.50400001928E-02 0. -1.
        1   -1    0    0  501    0  0.00000000000E+00  0.00000000000E+00 -0.92273209259E+03  0.92273209260E+03  0.50400001928E-02 0.  1.
    10030    2    1    2    0    0  0.00000000000E+00  0.00000000000E+00 -0.40948045547E+03  0.14359837297E+04  0.13763629713E+04 0.  0.
        1    1    3    3  502    0 -0.45411860294E+03  0.41126882517E+01 -0.74420014511E+03  0.87182250244E+03  0.50400001928E-02 0.  1.
       -1    1    3    3    0  502  0.45411860294E+03 -0.41126882517E+01  0.33471968965E+03  0.56416122731E+03  0.50400001928E-02 0. -1.
</event>
<event>
 5   0  0.8609148E-04  0.1414802E+04  0.7818609E-02  0.8943173E-01
        1   -1    0    0  501    0  0.00000000000E+00  0.00000000000E+00  0.69220335567E+03  0.69220335569E+03  0.50400001928E-02 0. -1.
       -1   -1    0    0    0  501  0.00000000000E+00  0.00000000000E+00 -0.72293278641E+03  0.72293278643E+03  0.50400001928E-02 0.  1.
    10030    2    1    2    0    0  0.00000000000E+00  0.00000000000E+00 -0.30729430735E+02  0.14151361421E+04  0.14148024607E+04 0.  0.
        5    1    3    3  502    0  0.29734300547E+03 -0.28077998889E+03  0.56195781874E+03  0.69503161446E+03  0.46999998093E+01 0.  1.
       -5    1    3    3    0  502 -0.29734300547E+03  0.28077998889E+03 -0.59268724948E+03  0.72010452766E+03  0.46999998093E+01 0. -1.
</event>
<event>
 5   0  0.1706986E-03  0.1411869E+04  0.7818609E-02  0.8945272E-01
        2   -1    0    0  501    0  0.00000000000E+00  0.00000000000E+00  0.11019309075E+04  0.11019309075E+04  0.25500000920E-02 0.  1.
       -2   -1    0    0    0  501  0.00000000000E+00  0.00000000000E+00 -0.45224550713E+03  0.45224550713E+03  0.25500000920E-02 0. -1.
    10030    2    1    2    0    0  0.00000000000E+00  0.00000000000E+00  0.64968540034E+03  0.15541764146E+04  0.14118686937E+04 0.  0.
        3    1    3    3  502    0  0.88718139522E+02  0.31225417235E+02  0.10950030945E+04  0.10990349049E+04  0.10100000352E+00 0.  1.
       -3    1    3    3    0  502 -0.88718139522E+02 -0.31225417235E+02 -0.44531769415E+03  0.45514150974E+03  0.10100000352E+00 0. -1.
</event>
<event>
 5   0  0.1605214E-03  0.1423993E+04  0.7818609E-02  0.8936632E-01
        2   -1    0    0  501    0  0.00000000000E+00  0.00000000000E+00  0.14551184615E+04  0.14551184615E+04  0.25500000920E-02 0. -1.
       -2   -1    0    0    0  501  0.00000000000E+00  0.00000000000E+00 -0.34838331571E+03  0.34838331572E+03  0.25500000920E-02 0.  1.
    10030    2    1    2    0    0  0.00000000000E+00  0.00000000000E+00  0.11067351458E+04  0.18035017772E+04  0.14239929696E+04 0.  0.
        5    1    3    3  502    0  0.41839867550E+03  0.49862628530E+03  0.91875366887E+03  0.11259733647E+04  0.46999998093E+01 0. -1.
       -5    1    3    3    0  502 -0.41839867550E+03 -0.49862628530E+03  0.18798147694E+03  0.67752841249E+03  0.46999998093E+01 0.  1.
</event>
<event>
 5   0  0.6048000E-04  0.1415096E+04  0.7818609E-02  0.8942963E-01
       -3   -1    0    0    0  501  0.00000000000E+00  0.00000000000E+00  0.51063356631E+03  0.51063357630E+03  0.10100000352E+00 0. -1.
        3   -1    0    0  501    0  0.00000000000E+00  0.00000000000E+00 -0.98039871850E+03  0.98039872370E+03  0.10100000352E+00 0.  1.
    10030    2    1    2    0    0  0.00000000000E+00  0.00000000000E+00 -0.46976515219E+03  0.14910323000E+04  0.14150964707E+04 0.  0.
        3    1    3    3  502    0 -0.51107551039E+03  0.39646214700E+02  0.27899147262E+03  0.58361481446E+03  0.10100000352E+00 0. -1.
       -3    1    3    3    0  502  0.51107551039E+03 -0.39646214700E+02 -0.74875662481E+03  0.90741748554E+03  0.10100000352E+00 0.  1.
</event>
<event>
 5   0  0.1648213E-03  0.1378105E+04  0.7818609E-02  0.8969822E-01
        2   -1    0    0  501    0  0.00000000000E+00  0.00000000000E+00  0.28345425445E+04  0.28345425445E+04  0.25500000920E-02 0. -1.
       -2   -1    0    0    0  501  0.00000000000E+00  0.00000000000E+00 -0.16750255377E+03  0.16750255379E+03  0.25500000920E-02 0.  1.
    10030    2    1    2    0    0  0.00000000000E+00  0.00000000000E+00  0.26670399907E+04  0.30020450983E+04  0.13781046622E+04 0.  0.
        4    1    3    3  502    0 -0.55743698078E+03 -0.39231486800E+02  0.22117001399E+04  0.22812045544E+04  0.12699999809E+01 0. -1.
       -4    1    3    3    0  502  0.55743698078E+03  0.39231486800E+02  0.45533985080E+03  0.72084054390E+03  0.12699999809E+01 0.  1.
</event>
<event>
 5   0  0.8673728E-04  0.1339520E+04  0.7818609E-02  0.8998800E-01
       -1   -1    0    0    0  501  0.00000000000E+00  0.00000000000E+00  0.37836213282E+03  0.37836213285E+03  0.50400001928E-02 0.  1.
        1   -1    0    0  501    0  0.00000000000E+00  0.00000000000E+00 -0.11855793758E+04  0.11855793758E+04  0.50400001928E-02 0. -1.
    10030    2    1    2    0    0  0.00000000000E+00  0.00000000000E+00 -0.80721724295E+03  0.15639415086E+04  0.13395198263E+04 0.  0.
        3    1    3    3  502    0 -0.40438925902E+03  0.39073722062E+03  0.21176758843E+02  0.56272081328E+03  0.10100000352E+00 0.  1.
       -3    1    3    3    0  502  0.40438925902E+03 -0.39073722062E+03 -0.82839400179E+03  0.10012206953E+04  0.10100000352E+00 0. -1.
</event>
<event>
 5   0  0.8502300E-04  0.1376500E+04  0.7818609E-02  0.8971007E-01
       -1   -1    0    0    0  501  0.00000000000E+00  0.00000000000E+00  0.57752331805E+03  0.57752331807E+03  0.50400001928E-02 0.  1.
        1   -1    0    0  501    0  0.00000000000E+00  0.00000000000E+00 -0.82020633914E+03  0.82020633915E+03  0.50400001928E-02 0. -1.
    10030    2    1    2    0    0  0.00000000000E+00  0.00000000000E+00 -0.24268302109E+03  0.13977296572E+04  0.13765003254E+04 0.  0.
        4    1    3    3  502    0 -0.53871950850E+03  0.37532613872E+03  0.88235076171E+02  0.66247676247E+03  0.12699999809E+01 0. -1.
       -4    1    3    3    0  502  0.53871950850E+03 -0.37532613872E+03 -0.33091809726E+03  0.73525289475E+03  0.12699999809E+01 0.  1.
</event>
<event>
 5   0  0.8502300E-04  0.1360422E+04  0.7818609E-02  0.8982976E-01
       -1   -1    0    0    0  501  0.00000000000E+00  0.00000000000E+00  0.37351989962E+03  0.37351989965E+03  0.50400001928E-02 0.  1.
        1   -1    0    0  501    0  0.00000000000E+00  0.00000000000E+00 -0.12387210259E+04  0.12387210259E+04  0.50400001928E-02 0. -1.
    10030    2    1    2    0    0  0.00000000000E+00  0.00000000000E+00 -0.86520112630E+03  0.16122409256E+04  0.13604219247E+04 0.  0.
        4    1    3    3  502    0  0.15887414592E+03  0.27018485389E+03 -0.11480385794E+04  0.11900567391E+04  0.12699999809E+01 0. -1.
       -4    1    3    3    0  502 -0.15887414592E+03 -0.27018485389E+03  0.28283745314E+03  0.42218418647E+03  0.12699999809E+01 0.  1.
</event>
<event>
 5   0  0.8502300E-04  0.1406906E+04  0.7818609E-02  0.8948835E-01
        1   -1    0    0  501    0  0.00000000000E+00  0.00000000000E+00  0.14946741873E+04  0.14946741873E+04  0.50400001928E-02 0. -1.
       -1   -1    0    0    0  501  0.00000000000E+00  0.00000000000E+00 -0.33107305066E+03  0.33107305070E+03  0.50400001928E-02 0.  1.
    10030    2    1    2    0    0  0.00000000000E+00  0.00000000000E+00  0.11636011367E+04  0.18257472380E+04  0.14069063124E+04 0.  0.
        4    1    3    3  502    0  0.70203661117E+03 -0.36383724879E+02  0.61527908576E+03  0.93421043943E+03  0.12699999809E+01 0.  1.
       -4    1    3    3    0  502 -0.70203661117E+03  0.36383724879E+02  0.54832205091E+03  0.89153679861E+03  0.12699999809E+01 0. -1.
</event>
<event>
 5   0  0.9639548E-04  0.1372736E+04  0.7818609E-02  0.8973793E-01
        1   -1    0    0  501    0  0.00000000000E+00  0.00000000000E+00  0.17570296265E+04  0.17570296265E+04  0.50400001928E-02 0. -1.
       -1   -1    0    0    0  501  0.00000000000E+00  0.00000000000E+00 -0.26812356339E+03  0.26812356344E+03  0.50400001928E-02 0.  1.
    10030    2    1    2    0    0  0.00000000000E+00  0.00000000000E+00  0.14889060631E+04  0.20251531899E+04  0.13727360190E+04 0.  0.
        1    1    3    3  502    0 -0.50592137559E+03 -0.46368128388E+03  0.76217302812E+03  0.10256044540E+04  0.50400001928E-02 0.  1.
       -1    1    3    3    0  502  0.50592137559E+03  0.46368128388E+03  0.72673303496E+03  0.99954873590E+03  0.50400001928E-02 0. -1.
</event>
<event>
 5   0  0.8609148E-04  0.1395390E+04  0.7818609E-02  0.8957162E-01
        1   -1    0    0  501    0  0.00000000000E+00  0.00000000000E+00  0.12277577959E+04  0.12277577959E+04  0.50400001928E-02 0.  1.
       -1   -1    0    0    0  501  0.00000000000E+00  0.00000000000E+00 -0.39647753765E+03  0.39647753768E+03  0.50400001928E-02 0. -1.
    10030    2    1    2    0    0  0.00000000000E+00  0.00000000000E+00  0.83128025822E+03  0.16242353336E+04  0.13953901071E+04 0.  0.
        5    1    3    3  502    0  0.30298009145E+03  0.68741592812E+02 -0.31149619805E+03  0.43997081016E+03  0.46999998093E+01 0. -1.
       -5    1    3    3    0  502 -0.30298009145E+03 -0.68741592812E+02  0.11427764563E+04  0.11842645234E+04  0.46999998093E+01 0.  1.
</event>
<event>
 5   0  0.1648213E-03  0.1405661E+04  0.7818609E-02  0.8949731E-01
        2   -1    0    0  501    0  0.00000000000E+00  0.00000000000E+00  0.96107438448E+03  0.96107438449E+03  0.25500000920E-02 0.  1.
       -2   -1    0    0    0  501  0.00000000000E+00  0.00000000000E+00 -0.51397782822E+03  0.51397782822E+03  0.25500000920E-02 0. -1.
    10030    2    1    2    0    0  0.00000000000E+00  0.00000000000E+00  0.44709655627E+03  0.14750522127E+04  0.14056613033E+04 0.  0.
        4    1    3    3  502    0 -0.43075832854E+03  0.14480657509E+02  0.80611795048E+03  0.91410622471E+03  0.12699999809E+01 0.  1.
       -4    1    3    3    0  502  0.43075832854E+03 -0.14480657509E+02 -0.35902139422E+03  0.56094598800E+03  0.12699999809E+01 0. -1.
</event>
<event>
 5   0  0.8609148E-04  0.1426465E+04  0.7818609E-02  0.8934882E-01
        1   -1    0    0  501    0  0.00000000000E+00  0.00000000000E+00  0.73434608371E+03  0.73434608373E+03  0.50400001928E-02 0. -1.
       -1   -1    0    0    0  501  0.00000000000E+00  0.00000000000E+00 -0.69272562162E+03  0.69272562164E+03  0.50400001928E-02 0.  1.
    10030    2    1    2    0    0  0.00000000000E+00  0.00000000000E+00  0.41620462086E+02  0.14270717054E+04  0.14264646471E+04 0.  0.
        5    1    3    3  502    0 -0.62200714839E+03 -0.33484648941E+03  0.11915360744E+03  0.71640403145E+03  0.46999998093E+01 0. -1.
       -5    1    3    3    0  502  0.62200714839E+03  0.33484648941E+03 -0.77533145355E+02  0.71066767391E+03  0.46999998093E+01 0.  1.
</event>
<event>
 5   0  0.1648213E-03  0.1390122E+04  0.7818609E-02  0.8961000E-01
        2   -1    0    0  501    0  0.00000000000E+00  0.00000000000E+00  0.11563805530E+04  0.11563805530E+04  0.25500000920E-02 0. -1.
       -2   -1    0    0    0  501  0.00000000000E+00  0.00000000000E+00 -0.41777724793E+03  0.41777724794E+03  0.25500000920E-02 0.  1.
    10030    2    1    2    0    0  0.00000000000E+00  0.00000000000E+00  0.73860330507E+03  0.15741578009E+04  0.13901215558E+04 0.  0.
        4    1    3    3  502    0 -0.25705492705E+03  0.39285212136E+03 -0.21109345804E+03  0.51475439357E+03  0.12699999809E+01 0.  1.
       -4    1    3    3    0  502  0.25705492705E+03 -0.39285212136E+03  0.94969676311E+03  0.10594034074E+04  0.12699999809E+01 0. -1.
</event>
<event>
 5   0  0.9639548E-04  0.1438332E+04  0.7818609E-02  0.8926530E-01
       -1   -1    0    0    0  501  0.00000000000E+00  0.00000000000E+00  0.48729561152E+03  0.48729561155E+03  0.50400001928E-02 0. -1.
        1   -1    0    0  501    0  0.00000000000E+00  0.00000000000E+00 -0.10613669365E+04  0.10613669365E+04  0.50400001928E-02 0.  1.
    10030    2    1    2    0    0  0.00000000000E+00  0.00000000000E+00 -0.57407132500E+03  0.15486625481E+04  0.14383316035E+04 0.  0.
        1    1    3    3  502    0 -0.54093197453E+03 -0.88037579481E+02 -0.78841785830E+03  0.96018786484E+03  0.50400001928E-02 0.  1.
       -1    1    3    3    0  502  0.54093197453E+03  0.88037579481E+02  0.21434653330E+03  0.58847468325E+03  0.50400001928E-02 0. -1.
</event>
<event>
 5   0  0.1648463E-03  0.1407873E+04  0.7818609E-02  0.8948139E-01
        2   -1    0    0  501    0  0.00000000000E+00  0.00000000000E+00  0.20957368745E+04  0.20957368745E+04  0.25500000920E-02 0.  1.
       -2   -1    0    0    0  501  0.00000000000E+00  0.00000000000E+00 -0.23644515835E+03  0.23644515836E+03  0.25500000920E-02 0. -1.
    10030    2    1    2    0    0  0.00000000000E+00  0.00000000000E+00  0.18592917162E+04  0.23321820329E+04  0.14078733426E+04 0.  0.
        1    1    3    3  502    0  0.38681690158E+03  0.37145376666E+03  0.17429507185E+03  0.56390069002E+03  0.50400001928E-02 0. -1.
       -1    1    3    3    0  502 -0.38681690158E+03 -0.37145376666E+03  0.16849966443E+04  0.17682813429E+04  0.50400001928E-02 0.  1.
</event>
<event>
 5   0  0.8673728E-04  0.1378665E+04  0.7818609E-02  0.8969408E-01
        1   -1    0    0  501    0  0.00000000000E+00  0.00000000000E+00  0.47185452601E+03  0.47185452603E+03  0.50400001928E-02 0. -1.
       -1   -1    0    0    0  501  0.00000000000E+00  0.00000000000E+00 -0.10070465848E+04  0.10070465848E+04  0.50400001928E-02 0.  1.
    10030    2    1    2    0    0  0.00000000000E+00  0.00000000000E+00 -0.53519205875E+03  0.14789011108E+04  0.13786652805E+04 0.  0.
        3    1    3    3  502    0 -0.35199533976E+03  0.46425196094E+03  0.12763261984E+03  0.59642325432E+03  0.10100000352E+00 0. -1.
       -3    1    3    3    0  502  0.35199533976E+03 -0.46425196094E+03 -0.66282467859E+03  0.88247785649E+03  0.10100000352E+00 0.  1.
</event>
<event>
 5   0  0.1578965E-03  0.1396192E+04  0.7818609E-02  0.8956579E-01
        2   -1    0    0  501    0  0.00000000000E+00  0.00000000000E+00  0.29052708985E+03  0.29052708986E+03  0.25500000920E-02 0.  1.
       -2   -1    0    0    0  501  0.00000000000E+00  0.00000000000E+00 -0.16774279021E+04  0.16774279021E+04  0.25500000920E-02 0. -1.
    10030    2    1    2    0    0  0.00000000000E+00  0.00000000000E+00 -0.13869008123E+04  0.19679549920E+04  0.13961923175E+04 0.  0.
        2    1    3    3  502    0 -0.46782503966E+03  0.51627920801E+03 -0.75543318373E+03  0.10276593713E+04  0.25500000920E-02 0.  1.
       -2    1    3    3    0  502  0.46782503966E+03 -0.51627920801E+03 -0.63146762852E+03  0.94029562066E+03  0.25500000920E-02 0. -1.
</event>
<event>
 5   0  0.9639548E-04  0.1399893E+04  0.7818609E-02  0.8953896E-01
        1   -1    0    0  501    0  0.00000000000E+00  0.00000000000E+00  0.44014236345E+03  0.44014236348E+03  0.50400001928E-02 0.  1.
       -1   -1    0    0    0  501  0.00000000000E+00  0.00000000000E+00 -0.11131063797E+04  0.11131063798E+04  0.50400001928E-02 0. -1.
    10030    2    1    2    0    0  0.00000000000E+00  0.00000000000E+00 -0.67296401630E+03  0.15532487432E+04  0.13998932428E+04 0.  0.
        1    1    3    3  502    0  0.25084101907E+03  0.24669802820E+01 -0.10615170529E+04  0.10907546729E+04  0.50400001928E-02 0. -1.
       -1    1    3    3    0  502 -0.25084101907E+03 -0.24669802820E+01  0.38855303659E+03  0.46249407034E+03  0.50400001928E-02 0.  1.
</event>
<event>
 5   0  0.8673728E-04  0.1413927E+04  0.7818609E-02  0.8943799E-01
        1   -1    0    0  501    0  0.00000000000E+00  0.00000000000E+00  0.10889049093E+04  0.10889049093E+04  0.50400001928E-02 0. -1.
       -1   -1    0    0    0  501  0.00000000000E+00  0.00000000000E+00 -0.45899099290E+03  0.45899099293E+03  0.50400001928E-02 0.  1.
    10030    2    1    2    0    0  0.00000000000E+00  0.00000000000E+00  0.62991391640E+03  0.15478959022E+04  0.14139272195E+04 0.  0.
        3    1    3    3  502    0 -0.70362720582E+03  0.63111067796E+02  0.28551484165E+03  0.76196652594E+03  0.10100000352E+00 0. -1.
       -3    1    3    3    0  502  0.70362720582E+03 -0.63111067796E+02  0.34439907475E+03  0.78592937630E+03  0.10100000352E+00 0.  1.
</event>
<event>
 5   0  0.9639548E-04  0.1405601E+04  0.7818609E-02  0.8949774E-01
       -1   -1    0    0    0  501  0.00000000000E+00  0.00000000000E+00  0.49536703891E+03  0.49536703894E+03  0.50400001928E-02 0. -1.
        1   -1    0    0  501    0  0.00000000000E+00  0.00000000000E+00 -0.99709571753E+03  0.99709571754E+03  0.50400001928E-02 0.  1.
    10030    2    1    2    0    0  0.00000000000E+00  0.00000000000E+00 -0.50172867862E+03  0.14924627565E+04  0.14056007301E+04 0.  0.
        1    1    3    3  502    0 -0.54067722635E+03 -0.43401350890E+03 -0.37298837976E+03  0.78728642848E+03  0.50400001928E-02 0. -1.
       -1    1    3    3    0  502  0.54067722635E+03  0.43401350890E+03 -0.12874029886E+03  0.70517632800E+03  0.50400001928E-02 0.  1.
</event>
<event>
 5   0  0.1605214E-03  0.1392380E+04  0.7818609E-02  0.8959353E-01
        2   -1    0    0  501    0  0.00000000000E+00  0.00000000000E+00  0.11560201436E+04  0.11560201436E+04  0.25500000920E-02 0. -1.
       -2   -1    0    0    0  501  0.00000000000E+00  0.00000000000E+00 -0.41926659337E+03  0.41926659338E+03  0.25500000920E-02 0.  1.
    10030    2    1    2    0    0  0.00000000000E+00  0.00000000000E+00  0.73675355025E+03  0.15752867370E+04  0.13923801600E+04 0.  0.
        5    1    3    3  502    0  0.67843336843E+03 -0.15603129310E+03  0.37561552067E+03  0.79102889277E+03  0.46999998093E+01 0.  1.
       -5    1    3    3    0  502 -0.67843336843E+03  0.15603129310E+03  0.36113802958E+03  0.78425784423E+03  0.46999998093E+01 0. -1.
</event>
<event>
 5   0  0.1706986E-03  0.1411546E+04  0.7818609E-02  0.8945503E-01
        2   -1    0    0  501    0  0.00000000000E+00  0.00000000000E+00  0.63011558940E+03  0.63011558940E+03  0.25500000920E-02 0.  1.
       -2   -1    0    0    0  501  0.00000000000E+00  0.00000000000E+00 -0.79051398045E+03  0.79051398045E+03  0.25500000920E-02 0. -1.
    10030    2    1    2    0    0  0.00000000000E+00  0.00000000000E+00 -0.16039839105E+03  0.14206295699E+04  0.14115455115E+04 0.  0.
        3    1    3    3  502    0  0.25488917414E+03  0.31321421191E+03 -0.66275373176E+03  0.77608901087E+03  0.10100000352E+00 0. -1.
       -3    1    3    3    0  502 -0.25488917414E+03 -0.31321421191E+03  0.50235534071E+03  0.64454055898E+03  0.10100000352E+00 0.  1.
</event>
<event>
 5   0  0.1648463E-03  0.1082566E+04  0.7818609E-02  0.9222352E-01
       -2   -1    0    0    0  501  0.00000000000E+00  0.00000000000E+00  0.26455668952E+03  0.26455668953E+03  0.25500000920E-02 0.  1.
        2   -1    0    0  501    0  0.00000000000E+00  0.00000000000E+00 -0.11074660376E+04  0.11074660376E+04  0.25500000920E-02 0. -1.
    10030    2    1    2    0    0  0.00000000000E+00  0.00000000000E+00 -0.84290934809E+03  0.13720227271E+04  0.10825664851E+04 0.  0.
        1    1    3    3  502    0 -0.48490755117E+03 -0.18695104961E+02 -0.11754055382E+03  0.49930013213E+03  0.50400001928E-02 0.  1.
       -1    1    3    3    0  502  0.48490755117E+03  0.18695104961E+02 -0.72536879427E+03  0.87272259502E+03  0.50400001928E-02 0. -1.
</event>
<event>
 5   0  0.9007180E-04  0.1415552E+04  0.7818609E-02  0.8942638E-01
       -1   -1    0    0    0  501  0.00000000000E+00  0.00000000000E+00  0.87704103854E+03  0.87704103856E+03  0.50400001928E-02 0. -1.
        1   -1    0    0  501    0  0.00000000000E+00  0.00000000000E+00 -0.57117836961E+03  0.57117836964E+03  0.50400001928E-02 0.  1.
    10030    2    1    2    0    0  0.00000000000E+00  0.00000000000E+00  0.30586266893E+03  0.14482194082E+04  0.14155520061E+04 0.  0.
        2    1    3    3  502    0 -0.55048602516E+03  0.52337346423E+02  0.60491026464E+03  0.81956725777E+03  0.25500000920E-02 0. -1.
       -2    1    3    3    0  502  0.55048602516E+03 -0.52337346423E+02 -0.29904759571E+03  0.62865215043E+03  0.25500000920E-02 0.  1.
</event>
<event>
 5   0  0.9639548E-04  0.1391399E+04  0.7818609E-02  0.8960068E-01
        1   -1    0    0  501    0  0.00000000000E+00  0.00000000000E+00  0.71696123322E+03  0.71696123323E+03  0.50400001928E-02 0.  1.
       -1   -1    0    0    0  501  0.00000000000E+00  0.00000000000E+00 -0.67506812438E+03  0.67506812440E+03  0.50400001928E-02 0. -1.
    10030    2    1    2    0    0  0.00000000000E+00  0.00000000000E+00  0.41893108838E+02  0.13920293576E+04  0.13913988285E+04 0.  0.
        1    1    3    3  502    0  0.17955216464E+03 -0.27575575528E+03 -0.59228917310E+03  0.67755935606E+03  0.50400001928E-02 0. -1.
       -1    1    3    3    0  502 -0.17955216464E+03  0.27575575528E+03  0.63418228194E+03  0.71447000157E+03  0.50400001928E-02 0.  1.
</event>
<event>
 5   0  0.1605214E-03  0.1424646E+04  0.7818609E-02  0.8936169E-01
        2   -1    0    0  501    0  0.00000000000E+00  0.00000000000E+00  0.33052837996E+03  0.33052837997E+03  0.25500000920E-02 0.  1.
       -2   -1    0    0    0  501  0.00000000000E+00  0.00000000000E+00 -0.15351305914E+04  0.15351305914E+04  0.25500000920E-02 0. -1.
    10030    2    1    2    0    0  0.00000000000E+00  0.00000000000E+00 -0.12046022115E+04  0.18656589714E+04  0.14246462402E+04 0.  0.
        5    1    3    3  502    0  0.23280644979E+03  0.53389026170E+02  0.27650297683E+03  0.36541102525E+03  0.46999998093E+01 0.  1.
       -5    1    3    3    0  502 -0.23280644979E+03 -0.53389026170E+02 -0.14811051883E+04  0.15002479462E+04  0.46999998093E+01 0. -1.
</event>
<event>
 5   0  0.8609148E-04  0.1323410E+04  0.7818609E-02  0.9011204E-01
       -1   -1    0    0    0  501  0.00000000000E+00  0.00000000000E+00  0.32905484722E+03  0.32905484725E+03  0.50400001928E-02 0. -1.
        1   -1    0    0  501    0  0.00000000000E+00  0.00000000000E+00 -0.13306398349E+04  0.13306398349E+04  0.50400001928E-02 0.  1.
    10030    2    1    2    0    0  0.00000000000E+00  0.00000000000E+00 -0.10015849877E+04  0.16596946822E+04  0.13234099707E+04 0.  0.
        5    1    3    3  502    0  0.15500511420E+03 -0.43213930331E+02  0.30412134688E+03  0.34410160248E+03  0.46999998093E+01 0. -1.
       -5    1    3    3    0  502 -0.15500511420E+03  0.43213930331E+02 -0.13057063346E+04  0.13155930797E+04  0.46999998093E+01 0.  1.
</event>
<event>
 5   0  0.8502300E-04  0.1392930E+04  0.7818609E-02  0.8958952E-01
        1   -1    0    0  501    0  0.00000000000E+00  0.00000000000E+00  0.14119741857E+04  0.14119741857E+04  0.50400001928E-02 0.  1.
       -1   -1    0    0    0  501  0.00000000000E+00  0.00000000000E+00 -0.34353577896E+03  0.34353577900E+03  0.50400001928E-02 0. -1.
    10030    2    1    2    0    0  0.00000000000E+00  0.00000000000E+00  0.10684384067E+04  0.17555099647E+04  0.13929302234E+04 0.  0.
        4    1    3    3  502    0  0.38658961467E+03  0.14923710844E+03 -0.17125481059E+03  0.44838941530E+03  0.12699999809E+01 0. -1.
       -4    1    3    3    0  502 -0.38658961467E+03 -0.14923710844E+03  0.12396932173E+04  0.13071205494E+04  0.12699999809E+01 0.  1.
</event>
<event>
 5   0  0.1605214E-03  0.1430628E+04  0.7818609E-02  0.8931942E-01
        2   -1    0    0  501    0  0.00000000000E+00  0.00000000000E+00  0.12566565241E+04  0.12566565241E+04  0.25500000920E-02 0.  1.
       -2   -1    0    0    0  501  0.00000000000E+00  0.00000000000E+00 -0.40717122132E+03  0.40717122133E+03  0.25500000920E-02 0. -1.
    10030    2    1    2    0    0  0.00000000000E+00  0.00000000000E+00  0.84948530277E+03  0.16638277454E+04  0.14306283538E+04 0.  0.
        5    1    3    3  502    0 -0.62369023732E+03  0.34432301588E+03  0.35023378132E+03  0.79387256091E+03  0.46999998093E+01 0. -1.
       -5    1    3    3    0  502  0.62369023732E+03 -0.34432301588E+03  0.49925152146E+03  0.86995518452E+03  0.46999998093E+01 0.  1.
</event>
<event>
 5   0  0.6048000E-04  0.1431848E+04  0.7818609E-02  0.8931083E-01
        3   -1    0    0  501    0  0.00000000000E+00  0.00000000000E+00  0.69707799373E+03  0.69707800105E+03  0.10100000352E+00 0. -1.
       -3   -1    0    0    0  501  0.00000000000E+00  0.00000000000E+00 -0.73527943898E+03  0.73527944592E+03  0.10100000352E+00 0.  1.
    10030    2    1    2    0    0  0.00000000000E+00  0.00000000000E+00 -0.38201445248E+02  0.14323574470E+04  0.14318479338E+04 0.  0.
        4    1    3    3  502    0  0.25447878797E+03 -0.30846189348E+03 -0.61314477147E+03  0.73202207408E+03  0.12699999809E+01 0.  1.
       -4    1    3    3    0  502 -0.25447878797E+03  0.30846189348E+03  0.57494332622E+03  0.70033537289E+03  0.12699999809E+01 0. -1.
</event>
<event>
 5   0  0.1605214E-03  0.1400746E+04  0.7818609E-02  0.8953279E-01
       -2   -1    0    0    0  501  0.00000000000E+00  0.00000000000E+00  0.50736609788E+03  0.50736609789E+03  0.25500000920E-02 0.  1.
        2   -1    0    0  501    0  0.00000000000E+00  0.00000000000E+00 -0.96680137202E+03  0.96680137203E+03  0.25500000920E-02 0. -1.
    10030    2    1    2    0    0  0.00000000000E+00  0.00000000000E+00 -0.45943527414E+03  0.14741674699E+04  0.14007458578E+04 0.  0.
        5    1    3    3  502    0 -0.10376454639E+03 -0.66681678995E+03 -0.42685524788E+03  0.79852313999E+03  0.46999998093E+01 0. -1.
       -5    1    3    3    0  502  0.10376454639E+03  0.66681678995E+03 -0.32580026257E+02  0.67564432993E+03  0.46999998093E+01 0.  1.
</event>
<event>
 5   0  0.1648213E-03  0.1337364E+04  0.7818609E-02  0.9000449E-01
       -2   -1    0    0    0  501  0.00000000000E+00  0.00000000000E+00  0.72620864830E+03  0.72620864831E+03  0.25500000920E-02 0.  1.
        2   -1    0    0  501    0  0.00000000000E+00  0.00000000000E+00 -0.61571223515E+03  0.61571223516E+03  0.25500000920E-02 0. -1.
    10030    2    1    2    0    0  0.00000000000E+00  0.00000000000E+00  0.11049641315E+03  0.13419208835E+04  0.13373638997E+04 0.  0.
        4    1    3    3  502    0 -0.85585157669E+02  0.40083469490E+03  0.58538612730E+03  0.71461304409E+03  0.12699999809E+01 0.  1.
       -4    1    3    3    0  502  0.85585157669E+02 -0.40083469490E+03 -0.47488971415E+03  0.62730783938E+03  0.12699999809E+01 0. -1.
</event>
<event>
 5   0  0.1648463E-03  0.1372695E+04  0.7818609E-02  0.8973824E-01
        2   -1    0    0  501    0  0.00000000000E+00  0.00000000000E+00  0.12963872424E+04  0.12963872424E+04  0.25500000920E-02 0.  1.
       -2   -1    0    0    0  501  0.00000000000E+00  0.00000000000E+00 -0.36337361638E+03  0.36337361638E+03  0.25500000920E-02 0. -1.
    10030    2    1    2    0    0  0.00000000000E+00  0.00000000000E+00  0.93301362603E+03  0.16597608588E+04  0.13726950433E+04 0.  0.
        1    1    3    3  502    0 -0.18721987748E+02  0.68138258900E+03  0.36947362738E+03  0.77533444833E+03  0.50400001928E-02 0.  1.
       -1    1    3    3    0  502  0.18721987748E+02 -0.68138258900E+03  0.56353999864E+03  0.88442641046E+03  0.50400001928E-02 0. -1.
</event>
<event>
 5   0  0.1648463E-03  0.1403904E+04  0.7818609E-02  0.8950997E-01
       -2   -1    0    0    0  501  0.00000000000E+00  0.00000000000E+00  0.62550114103E+03  0.62550114104E+03  0.25500000920E-02 0. -1.
        2   -1    0    0  501    0  0.00000000000E+00  0.00000000000E+00 -0.78774721298E+03  0.78774721298E+03  0.25500000920E-02 0.  1.
    10030    2    1    2    0    0  0.00000000000E+00  0.00000000000E+00 -0.16224607194E+03  0.14132483540E+04  0.14039042426E+04 0.  0.
        1    1    3    3  502    0 -0.35849187567E+03  0.23416359836E+03  0.47880545880E+03  0.64234234106E+03  0.50400001928E-02 0. -1.
       -1    1    3    3    0  502  0.35849187567E+03 -0.23416359836E+03 -0.64105153074E+03  0.77090601296E+03  0.50400001928E-02 0.  1.
</event>
<event>
 5   0  0.9007180E-04  0.1362915E+04  0.7818609E-02  0.8981108E-01
       -1   -1    0    0    0  501  0.00000000000E+00  0.00000000000E+00  0.48399637939E+03  0.48399637942E+03  0.50400001928E-02 0.  1.
        1   -1    0    0  501    0  0.00000000000E+00  0.00000000000E+00 -0.95947954695E+03  0.95947954697E+03  0.50400001928E-02 0. -1.
    10030    2    1    2    0    0  0.00000000000E+00  0.00000000000E+00 -0.47548316756E+03  0.14434759264E+04  0.13629154440E+04 0.  0.
        2    1    3    3  502    0  0.18311851419E+03  0.11523892805E+03  0.44665279668E+03  0.49629741241E+03  0.25500000920E-02 0.  1.
       -2    1    3    3    0  502 -0.18311851419E+03 -0.11523892805E+03 -0.92213596424E+03  0.94717851397E+03  0.25500000920E-02 0. -1.
</event>
<event>
 5   0  0.1648463E-03  0.1400297E+04  0.7818609E-02  0.8953604E-01
        2   -1    0    0  501    0  0.00000000000E+00  0.00000000000E+00  0.22324721360E+04  0.22324721360E+04  0.25500000920E-02 0. -1.
       -2   -1    0    0    0  501  0.00000000000E+00  0.00000000000E+00 -0.21958075010E+03  0.21958075011E+03  0.25500000920E-02 0.  1.
    10030    2    1    2    0    0  0.00000000000E+00  0.00000000000E+00  0.20128913859E+04  0.24520528862E+04  0.14002969774E+04 0.  0.
        1    1    3    3  502    0  0.31471457368E+03 -0.19605865547E+03  0.20464304396E+04  0.20797504185E+04  0.50400001928E-02 0. -1.
       -1    1    3    3    0  502 -0.31471457368E+03  0.19605865547E+03 -0.33539053629E+02  0.37230246765E+03  0.50400001928E-02 0.  1.
</event>
<event>
 5   0  0.8609148E-04  0.1402077E+04  0.7818609E-02  0.8952316E-01
        1   -1    0    0  501    0  0.00000000000E+00  0.00000000000E+00  0.15021180076E+04  0.15021180076E+04  0.50400001928E-02 0. -1.
       -1   -1    0    0    0  501  0.00000000000E+00  0.00000000000E+00 -0.32717488327E+03  0.32717488331E+03  0.50400001928E-02 0.  1.
    10030    2    1    2    0    0  0.00000000000E+00  0.00000000000E+00  0.11749431244E+04  0.18292928909E+04  0.14020774356E+04 0.  0.
        5    1    3    3  502    0  0.73047811045E+02 -0.66080117839E+03  0.29737261945E+03  0.72831774993E+03  0.46999998093E+01 0.  1.
       -5    1    3    3    0  502 -0.73047811045E+02  0.66080117839E+03  0.87757050491E+03  0.11009751410E+04  0.46999998093E+01 0. -1.
</event>
<event>
 5   0  0.8673728E-04  0.1396096E+04  0.7818609E-02  0.8956649E-01
       -1   -1    0    0    0  501  0.00000000000E+00  0.00000000000E+00  0.54385154634E+03  0.54385154636E+03  0.50400001928E-02 0.  1.
        1   -1    0    0  501    0  0.00000000000E+00  0.00000000000E+00 -0.89596370945E+03  0.89596370946E+03  0.50400001928E-02 0. -1.
    10030    2    1    2    0    0  0.00000000000E+00  0.00000000000E+00 -0.35211216311E+03  0.14398152558E+04  0.13960963418E+04 0.  0.
        3    1    3    3  502    0  0.50244951288E+03  0.25623395411E+03  0.24811404059E+03  0.61617525070E+03  0.10100000352E+00 0. -1.
       -3    1    3    3    0  502 -0.50244951288E+03 -0.25623395411E+03 -0.60022620370E+03  0.82364000513E+03  0.10100000352E+00 0.  1.
</event>
<event>
 5   0  0.1648213E-03  0.1402683E+04  0.7818609E-02  0.8951879E-01
        2   -1    0    0  501    0  0.00000000000E+00  0.00000000000E+00  0.21550647915E+04  0.21550647915E+04  0.25500000920E-02 0.  1.
       -2   -1    0    0    0  501  0.00000000000E+00  0.00000000000E+00 -0.22824372277E+03  0.22824372279E+03  0.25500000920E-02 0. -1.
    10030    2    1    2    0    0  0.00000000000E+00  0.00000000000E+00  0.19268210687E+04  0.23833085143E+04  0.14026831586E+04 0.  0.
        4    1    3    3  502    0 -0.27681117296E+03  0.29250901850E+03  0.19390181472E+04  0.19803986819E+04  0.12699999809E+01 0.  1.
       -4    1    3    3    0  502  0.27681117296E+03 -0.29250901850E+03 -0.12197078469E+02  0.40290983235E+03  0.12699999809E+01 0. -1.
</event>
<event>
 5   0  0.9639548E-04  0.1407905E+04  0.7818609E-02  0.8948116E-01
        1   -1    0    0  501    0  0.00000000000E+00  0.00000000000E+00  0.68059212349E+03  0.68059212351E+03  0.50400001928E-02 0. -1.
       -1   -1    0    0    0  501  0.00000000000E+00  0.00000000000E+00 -0.72811515368E+03  0.72811515370E+03  0.50400001928E-02 0.  1.
    10030    2    1    2    0    0  0.00000000000E+00  0.00000000000E+00 -0.47523030188E+02  0.14087072772E+04  0.14079054494E+04 0.  0.
        1    1    3    3  502    0  0.60576972915E+03 -0.29961303869E+03  0.17339004082E+03  0.69770269025E+03  0.50400001928E-02 0. -1.
       -1    1    3    3    0  502 -0.60576972915E+03  0.29961303869E+03 -0.22091307101E+03  0.71100458696E+03  0.50400001928E-02 0.  1.
</event>
<event>
 5   0  0.1706986E-03  0.1413347E+04  0.7818609E-02  0.8944213E-01
       -2   -1    0    0    0  501  0.00000000000E+00  0.00000000000E+00  0.37516892795E+03  0.37516892796E+03  0.25500000920E-02 0.  1.
        2   -1    0    0  501    0  0.00000000000E+00  0.00000000000E+00 -0.13311010556E+04  0.13311010556E+04  0.25500000920E-02 0. -1.
    10030    2    1    2    0    0  0.00000000000E+00  0.00000000000E+00 -0.95593212767E+03  0.17062699836E+04  0.14133474535E+04 0.  0.
        3    1    3    3  502    0 -0.61902290495E+02 -0.48949147850E+03 -0.10887389140E+04  0.11953184656E+04  0.10100000352E+00 0. -1.
       -3    1    3    3    0  502  0.61902290495E+02  0.48949147850E+03  0.13280678630E+03  0.51095151804E+03  0.10100000352E+00 0.  1.
</event>
<event>
 5   0  0.1706986E-03  0.1388820E+04  0.7818609E-02  0.8961951E-01
       -2   -1    0    0    0  501  0.00000000000E+00  0.00000000000E+00  0.48661913094E+03  0.48661913095E+03  0.25500000920E-02 0.  1.
        2   -1    0    0  501    0  0.00000000000E+00  0.00000000000E+00 -0.99092939013E+03  0.99092939013E+03  0.25500000920E-02 0. -1.
    10030    2    1    2    0    0  0.00000000000E+00  0.00000000000E+00 -0.50431025919E+03  0.14775485211E+04  0.13888199288E+04 0.  0.
        3    1    3    3  502    0  0.12026380286E+03 -0.31228491103E+03 -0.89948510070E+03  0.95971803386E+03  0.10100000352E+00 0. -1.
       -3    1    3    3    0  502 -0.12026380286E+03  0.31228491103E+03  0.39517484151E+03  0.51783048722E+03  0.10100000352E+00 0.  1.
</event>
<event>
 5   0  0.1706986E-03  0.1387015E+04  0.7818609E-02  0.8963272E-01
       -2   -1    0    0    0  501  0.00000000000E+00  0.00000000000E+00  0.83215860410E+03  0.83215860410E+03  0.25500000920E-02 0. -1.
        2   -1    0    0  501    0  0.00000000000E+00  0.00000000000E+00 -0.57795785358E+03  0.57795785359E+03  0.25500000920E-02 0.  1.
    10030    2    1    2    0    0  0.00000000000E+00  0.00000000000E+00  0.25420075052E+03  0.14101164577E+04  0.13870149252E+04 0.  0.
        3    1    3    3  502    0 -0.49947095329E+03 -0.47403748593E+03  0.21074968909E+03  0.72013763469E+03  0.10100000352E+00 0.  1.
       -3    1    3    3    0  502  0.49947095329E+03  0.47403748593E+03  0.43451061429E+02  0.68997882300E+03  0.10100000352E+00 0. -1.
</event>
<event>
 5   0  0.9007180E-04  0.1379549E+04  0.7818609E-02  0.8968756E-01
        1   -1    0    0  501    0  0.00000000000E+00  0.00000000000E+00  0.18281069241E+04  0.18281069241E+04  0.50400001928E-02 0.  1.
       -1   -1    0    0    0  501  0.00000000000E+00  0.00000000000E+00 -0.26026329423E+03  0.26026329427E+03  0.50400001928E-02 0. -1.
    10030    2    1    2    0    0  0.00000000000E+00  0.00000000000E+00  0.15678436299E+04  0.20883702184E+04  0.13795493907E+04 0.  0.
        2    1    3    3  502    0  0.20651010083E+02  0.68441249507E+03  0.91005195632E+03  0.11388772940E+04  0.25500000920E-02 0.  1.
       -2    1    3    3    0  502 -0.20651010083E+02 -0.68441249507E+03  0.65779167359E+03  0.94949292439E+03  0.25500000920E-02 0. -1.
</event>
<event>
 5   0  0.1605214E-03  0.1472621E+04  0.7818609E-02  0.8902867E-01
       -2   -1    0    0    0  501  0.00000000000E+00  0.00000000000E+00  0.21987437041E+03  0.21987437043E+03  0.25500000920E-02 0. -1.
        2   -1    0    0  501    0  0.00000000000E+00  0.00000000000E+00 -0.24657397537E+04  0.24657397537E+04  0.25500000920E-02 0.  1.
    10030    2    1    2    0    0  0.00000000000E+00  0.00000000000E+00 -0.22458653833E+04  0.26856141241E+04  0.14726207604E+04 0.  0.
        5    1    3    3  502    0 -0.69938420986E+03  0.69816504776E+02 -0.72288875734E+03  0.10082672576E+04  0.46999998093E+01 0. -1.
       -5    1    3    3    0  502  0.69938420986E+03 -0.69816504776E+02 -0.15229766260E+04  0.16773468665E+04  0.46999998093E+01 0.  1.
</event>
<event>
 5   0  0.1605214E-03  0.1397948E+04  0.7818609E-02  0.8955305E-01
        2   -1    0    0  501    0  0.00000000000E+00  0.00000000000E+00  0.11311474520E+04  0.11311474520E+04  0.25500000920E-02 0.  1.
       -2   -1    0    0    0  501  0.00000000000E+00  0.00000000000E+00 -0.43191951067E+03  0.43191951068E+03  0.25500000920E-02 0. -1.
    10030    2    1    2    0    0  0.00000000000E+00  0.00000000000E+00  0.69922794135E+03  0.15630669627E+04  0.13979480019E+04 0.  0.
        5    1    3    3  502    0  0.25469941142E+03 -0.55908459824E+03 -0.23064398197E+02  0.61481821267E+03  0.46999998093E+01 0. -1.
       -5    1    3    3    0  502 -0.25469941142E+03  0.55908459824E+03  0.72229233954E+03  0.94824875003E+03  0.46999998093E+01 0.  1.
</event>
<event>
 5   0  0.1648213E-03  0.1400680E+04  0.7818609E-02  0.8953327E-01
        2   -1    0    0  501    0  0.00000000000E+00  0.00000000000E+00  0.13794103009E+04  0.13794103009E+04  0.25500000920E-02 0. -1.
       -2   -1    0    0    0  501  0.00000000000E+00  0.00000000000E+00 -0.35556936413E+03  0.35556936414E+03  0.25500000920E-02 0.  1.
    10030    2    1    2    0    0  0.00000000000E+00  0.00000000000E+00  0.10238409367E+04  0.17349796650E+04  0.14006798971E+04 0.  0.
        4    1    3    3  502    0 -0.36322823074E+03  0.15323491288E+03  0.12289152119E+04  0.12906005955E+04  0.12699999809E+01 0. -1.
       -4    1    3    3    0  502  0.36322823074E+03 -0.15323491288E+03 -0.20507427521E+03  0.44437906947E+03  0.12699999809E+01 0.  1.
</event>
<event>
 5   0  0.1648213E-03  0.1392914E+04  0.7818609E-02  0.8958964E-01
        2   -1    0    0  501    0  0.00000000000E+00  0.00000000000E+00  0.12206040864E+04  0.12206040864E+04  0.25500000920E-02 0. -1.
       -2   -1    0    0    0  501  0.00000000000E+00  0.00000000000E+00 -0.39738711396E+03  0.39738711397E+03  0.25500000920E-02 0.  1.
    10030    2    1    2    0    0  0.00000000000E+00  0.00000000000E+00  0.82321697239E+03  0.16179912003E+04  0.13929139746E+04 0.  0.
        4    1    3    3  502    0 -0.32650746440E+03  0.29641416588E+03  0.10377700329E+04  0.11275800354E+04  0.12699999809E+01 0. -1.
       -4    1    3    3    0  502  0.32650746440E+03 -0.29641416588E+03 -0.21455306052E+03  0.49041116497E+03  0.12699999809E+01 0.  1.
</event>
<event>
 5   0  0.8502300E-04  0.1395512E+04  0.7818609E-02  0.8957074E-01
       -1   -1    0    0    0  501  0.00000000000E+00  0.00000000000E+00  0.38002681797E+03  0.38002681800E+03  0.50400001928E-02 0.  1.
        1   -1    0    0  501    0  0.00000000000E+00  0.00000000000E+00 -0.12811286538E+04  0.12811286538E+04  0.50400001928E-02 0. -1.
    10030    2    1    2    0    0  0.00000000000E+00  0.00000000000E+00 -0.90110183586E+03  0.16611554718E+04  0.13955117280E+04 0.  0.
        4    1    3    3  502    0 -0.58271775961E+03 -0.38139679782E+03 -0.39951632214E+03  0.80289377211E+03  0.12699999809E+01 0.  1.
       -4    1    3    3    0  502  0.58271775961E+03  0.38139679782E+03 -0.50158551372E+03  0.85826169973E+03  0.12699999809E+01 0. -1.
</event>
<event>
 5   0  0.1706986E-03  0.1417843E+04  0.7818609E-02  0.8941003E-01
        2   -1    0    0  501    0  0.00000000000E+00  0.00000000000E+00  0.68042399512E+03  0.68042399513E+03  0.25500000920E-02 0.  1.
       -2   -1    0    0    0  501  0.00000000000E+00  0.00000000000E+00 -0.73861298912E+03  0.73861298913E+03  0.25500000920E-02 0. -1.
    10030    2    1    2    0    0  0.00000000000E+00  0.00000000000E+00 -0.58188994002E+02  0.14190369843E+04  0.14178434341E+04 0.  0.
        3    1    3    3  502    0 -0.12936830625E+03  0.36894269216E+03  0.56277048326E+03  0.68524849200E+03  0.10100000352E+00 0.  1.
       -3    1    3    3    0  502  0.12936830625E+03 -0.36894269216E+03 -0.62095947727E+03  0.73378849225E+03  0.10100000352E+00 0. -1.
</event>
<event>
 5   0  0.8502300E-04  0.1365871E+04  0.7818609E-02  0.8978900E-01
        1   -1    0    0  501    0  0.00000000000E+00  0.00000000000E+00  0.20266341043E+04  0.20266341043E+04  0.50400001928E-02 0. -1.
       -1   -1    0    0    0  501  0.00000000000E+00  0.00000000000E+00 -0.23013580015E+03  0.23013580021E+03  0.50400001928E-02 0.  1.
    10030    2    1    2    0    0  0.00000000000E+00  0.00000000000E+00  0.17964983042E+04  0.22567699045E+04  0.13658712403E+04 0.  0.
        4    1    3    3  502    0  0.68005271550E+03  0.16120412357E+02  0.99831488164E+03  0.12080421265E+04  0.12699999809E+01 0. -1.
       -4    1    3    3    0  502 -0.68005271550E+03 -0.16120412357E+02  0.79818342252E+03  0.10487277780E+04  0.12699999809E+01 0.  1.
</event>
<event>
 5   0  0.1648463E-03  0.1385318E+04  0.7818609E-02  0.8964515E-01
        2   -1    0    0  501    0  0.00000000000E+00  0.00000000000E+00  0.10205679618E+04  0.10205679618E+04  0.25500000920E-02 0.  1.
       -2   -1    0    0    0  501  0.00000000000E+00  0.00000000000E+00 -0.47010758559E+03  0.47010758560E+03  0.25500000920E-02 0. -1.
    10030    2    1    2    0    0  0.00000000000E+00  0.00000000000E+00  0.55046037622E+03  0.14906755474E+04  0.13853183612E+04 0.  0.
        1    1    3    3  502    0  0.40356831007E+03 -0.54159697277E+03  0.44047376173E+03  0.80635711481E+03  0.50400001928E-02 0. -1.
       -1    1    3    3    0  502 -0.40356831007E+03  0.54159697277E+03  0.10998661449E+03  0.68431843260E+03  0.50400001928E-02 0.  1.
</event>
<event>
 5   0  0.1578965E-03  0.1399007E+04  0.7818609E-02  0.8954538E-01
       -2   -1    0    0    0  501  0.00000000000E+00  0.00000000000E+00  0.67926555878E+03  0.67926555879E+03  0.25500000920E-02 0. -1.
        2   -1    0    0  501    0  0.00000000000E+00  0.00000000000E+00 -0.72034439485E+03  0.72034439485E+03  0.25500000920E-02 0.  1.
    10030    2    1    2    0    0  0.00000000000E+00  0.00000000000E+00 -0.41078836066E+02  0.13996099536E+04  0.13990069877E+04 0.  0.
        2    1    3    3  502    0 -0.43208348166E+03 -0.41701821221E+03 -0.37944857060E+03  0.71033903326E+03  0.25500000920E-02 0.  1.
       -2    1    3    3    0  502  0.43208348166E+03  0.41701821221E+03  0.33836973453E+03  0.68927092038E+03  0.25500000920E-02 0. -1.
</event>
<event>
 5   0  0.8502300E-04  0.1361944E+04  0.7818609E-02  0.8981836E-01
       -1   -1    0    0    0  501  0.00000000000E+00  0.00000000000E+00  0.37666060732E+03  0.37666060735E+03  0.50400001928E-02 0.  1.
        1   -1    0    0  501    0  0.00000000000E+00  0.00000000000E+00 -0.12311420777E+04  0.12311420777E+04  0.50400001928E-02 0. -1.
    10030    2    1    2    0    0  0.00000000000E+00  0.00000000000E+00 -0.85448147036E+03  0.16078026850E+04  0.13619437914E+04 0.  0.
        4    1    3    3  502    0  0.57259676650E+03 -0.35791925891E+03 -0.32332905651E+03  0.74867652868E+03  0.12699999809E+01 0.  1.
       -4    1    3    3    0  502 -0.57259676650E+03  0.35791925891E+03 -0.53115241385E+03  0.85912615636E+03  0.12699999809E+01 0. -1.
</event>
<event>
 5   0  0.9007180E-04  0.1375869E+04  0.7818609E-02  0.8971473E-01
       -1   -1    0    0    0  501  0.00000000000E+00  0.00000000000E+00  0.70725207695E+03  0.70725207697E+03  0.50400001928E-02 0. -1.
        1   -1    0    0  501    0  0.00000000000E+00  0.00000000000E+00 -0.66914481162E+03  0.66914481164E+03  0.50400001928E-02 0.  1.
    10030    2    1    2    0    0  0.00000000000E+00  0.00000000000E+00  0.38107265329E+02  0.13763968886E+04  0.13758692639E+04 0.  0.
        2    1    3    3  502    0  0.14850282737E+03 -0.52492056454E+03  0.43833172675E+03  0.69980668151E+03  0.25500000920E-02 0. -1.
       -2    1    3    3    0  502 -0.14850282737E+03  0.52492056454E+03 -0.40022446142E+03  0.67659020709E+03  0.25500000920E-02 0.  1.
</event>
<event>
 5   0  0.1648213E-03  0.1380413E+04  0.7818609E-02  0.8968120E-01
        2   -1    0    0  501    0  0.00000000000E+00  0.00000000000E+00  0.11561470569E+04  0.11561470569E+04  0.25500000920E-02 0. -1.
       -2   -1    0    0    0  501  0.00000000000E+00  0.00000000000E+00 -0.41204541544E+03  0.41204541545E+03  0.25500000920E-02 0.  1.
    10030    2    1    2    0    0  0.00000000000E+00  0.00000000000E+00  0.74410164142E+03  0.15681924723E+04  0.13804131184E+04 0.  0.
        4    1    3    3  502    0  0.43458415864E+03 -0.32714040251E+03 -0.11059437205E+03  0.55508284240E+03  0.12699999809E+01 0.  1.
       -4    1    3    3    0  502 -0.43458415864E+03  0.32714040251E+03  0.85469601348E+03  0.10131096299E+04  0.12699999809E+01 0. -1.
</event>
<event>
 5   0  0.1648213E-03  0.1389527E+04  0.7818609E-02  0.8961434E-01
       -2   -1    0    0    0  501  0.00000000000E+00  0.00000000000E+00  0.34728370676E+03  0.34728370677E+03  0.25500000920E-02 0.  1.
        2   -1    0    0  501    0  0.00000000000E+00  0.00000000000E+00 -0.13899196576E+04  0.13899196576E+04  0.25500000920E-02 0. -1.
    10030    2    1    2    0    0  0.00000000000E+00  0.00000000000E+00 -0.10426359508E+04  0.17372033644E+04  0.13895271869E+04 0.  0.
        4    1    3    3  502    0  0.36540772395E+03 -0.15683368544E+03  0.19094652419E+03  0.44111426820E+03  0.12699999809E+01 0.  1.
       -4    1    3    3    0  502 -0.36540772395E+03  0.15683368544E+03 -0.12335824750E+04  0.12960890962E+04  0.12699999809E+01 0. -1.
</event>
<event>
 5   0  0.8502300E-04  0.1383089E+04  0.7818609E-02  0.8966151E-01
        1   -1    0    0  501    0  0.00000000000E+00  0.00000000000E+00  0.11873472168E+04  0.11873472168E+04  0.50400001928E-02 0. -1.
       -1   -1    0    0    0  501  0.00000000000E+00  0.00000000000E+00 -0.40277495237E+03  0.40277495240E+03  0.50400001928E-02 0.  1.
    10030    2    1    2    0    0  0.00000000000E+00  0.00000000000E+00  0.78457226440E+03  0.15901221692E+04  0.13830888890E+04 0.  0.
        4    1    3    3  502    0 -0.51874743409E+03 -0.41109167893E+03  0.16195535548E+03  0.68141501226E+03  0.12699999809E+01 0. -1.
       -4    1    3    3    0  502  0.51874743409E+03  0.41109167893E+03  0.62261690891E+03  0.90870715692E+03  0.12699999809E+01 0.  1.
</event>
<event>
 5   0  0.9007180E-04  0.1441050E+04  0.7818609E-02  0.8924629E-01
        1   -1    0    0  501    0  0.00000000000E+00  0.00000000000E+00  0.50326721270E+03  0.50326721273E+03  0.50400001928E-02 0. -1.
       -1   -1    0    0    0  501  0.00000000000E+00  0.00000000000E+00 -0.10315711821E+04  0.10315711822E+04  0.50400001928E-02 0.  1.
    10030    2    1    2    0    0  0.00000000000E+00  0.00000000000E+00 -0.52830396945E+03  0.15348383949E+04  0.14410495530E+04 0.  0.
        2    1    3    3  502    0 -0.35537885376E+03 -0.45942855885E+03  0.18996256585E+03  0.61110924295E+03  0.25500000920E-02 0. -1.
       -2    1    3    3    0  502  0.35537885376E+03  0.45942855885E+03 -0.71826653530E+03  0.92372915193E+03  0.25500000920E-02 0.  1.
</event>
<event>
 5   0  0.1605214E-03  0.1401534E+04  0.7818609E-02  0.8952709E-01
        2   -1    0    0  501    0  0.00000000000E+00  0.00000000000E+00  0.14961638399E+04  0.14961638399E+04  0.25500000920E-02 0.  1.
       -2   -1    0    0    0  501  0.00000000000E+00  0.00000000000E+00 -0.32822251687E+03  0.32822251688E+03  0.25500000920E-02 0. -1.
    10030    2    1    2    0    0  0.00000000000E+00  0.00000000000E+00  0.11679413231E+04  0.18243863568E+04  0.14015343894E+04 0.  0.
        5    1    3    3  502    0 -0.28395747399E+02  0.65776068674E+03  0.27156889175E+03  0.71219884334E+03  0.46999998093E+01 0. -1.
       -5    1    3    3    0  502  0.28395747399E+02 -0.65776068674E+03  0.89637243132E+03  0.11121875135E+04  0.46999998093E+01 0.  1.
</event>
<event>
 5   0  0.6048000E-04  0.1155418E+04  0.7818609E-02  0.9152800E-01
        4   -1    0    0  501    0  0.00000000000E+00  0.00000000000E+00  0.63955871009E+03  0.63955997104E+03  0.12699999809E+01 0. -1.
       -4   -1    0    0    0  501  0.00000000000E+00  0.00000000000E+00 -0.52183759005E+03  0.52183913545E+03  0.12699999809E+01 0.  1.
    10030    2    1    2    0    0  0.00000000000E+00  0.00000000000E+00  0.11772112005E+03  0.11613991065E+04  0.11554175100E+04 0.  0.
        4    1    3    3  502    0 -0.10428571796E+03  0.26804996553E+03  0.56247279306E+03  0.63174642922E+03  0.12699999809E+01 0. -1.
       -4    1    3    3    0  502  0.10428571796E+03 -0.26804996553E+03 -0.44475167302E+03  0.52965267727E+03  0.12699999809E+01 0.  1.
</event>
<event>
 5   0  0.8609148E-04  0.1685128E+04  0.7818609E-02  0.8769892E-01
       -1   -1    0    0    0  501  0.00000000000E+00  0.00000000000E+00  0.85724267356E+03  0.85724267357E+03  0.50400001928E-02 0. -1.
        1   -1    0    0  501    0  0.00000000000E+00  0.00000000000E+00 -0.82813620663E+03  0.82813620665E+03  0.50400001928E-02 0.  1.
    10030    2    1    2    0    0  0.00000000000E+00  0.00000000000E+00  0.29106466928E+02  0.16853788802E+04  0.16851275274E+04 0.  0.
        5    1    3    3  502    0 -0.52267384976E+03  0.51612430173E+03  0.42731245035E+03  0.84981778534E+03  0.46999998093E+01 0. -1.
       -5    1    3    3    0  502  0.52267384976E+03 -0.51612430173E+03 -0.39820598343E+03  0.83556109488E+03  0.46999998093E+01 0.  1.
</event>
<event>
 5   0  0.1578965E-03  0.1094883E+04  0.7818609E-02  0.9210194E-01
        2   -1    0    0  501    0  0.00000000000E+00  0.00000000000E+00  0.23160794406E+03  0.23160794407E+03  0.25500000920E-02 0.  1.
       -2   -1    0    0    0  501  0.00000000000E+00  0.00000000000E+00 -0.12939634409E+04  0.12939634409E+04  0.25500000920E-02 0. -1.
    10030    2    1    2    0    0  0.00000000000E+00  0.00000000000E+00 -0.10623554969E+04  0.15255713850E+04  0.10948830298E+04 0.  0.
        2    1    3    3  502    0 -0.43955204627E+03  0.13838076266E+03 -0.94295645341E+03  0.10495342347E+04  0.25500000920E-02 0. -1.
       -2    1    3    3    0  502  0.43955204627E+03 -0.13838076266E+03 -0.11939904346E+03  0.47603715027E+03  0.25500000920E-02 0.  1.
</event>
<event>
 5   0  0.8502300E-04  0.1399991E+04  0.7818609E-02  0.8953825E-01
        1   -1    0    0  501    0  0.00000000000E+00  0.00000000000E+00  0.13804873220E+04  0.13804873220E+04  0.50400001928E-02 0.  1.
       -1   -1    0    0    0  501  0.00000000000E+00  0.00000000000E+00 -0.35494271902E+03  0.35494271906E+03  0.50400001928E-02 0. -1.
    10030    2    1    2    0    0  0.00000000000E+00  0.00000000000E+00  0.10255446030E+04  0.17354300411E+04  0.13999913195E+04 0.  0.
        4    1    3    3  502    0 -0.63215455554E+03  0.95970417707E+02  0.86592275149E+03  0.10764076958E+04  0.12699999809E+01 0. -1.
       -4    1    3    3    0  502  0.63215455554E+03 -0.95970417707E+02  0.15962185149E+03  0.65902234525E+03  0.12699999809E+01 0.  1.
</event>
<event>
 5   0  0.1706986E-03  0.1396765E+04  0.7818609E-02  0.8956163E-01
       -2   -1    0    0    0  501  0.00000000000E+00  0.00000000000E+00  0.48680180828E+03  0.48680180828E+03  0.25500000920E-02 0.  1.
        2   -1    0    0  501    0  0.00000000000E+00  0.00000000000E+00 -0.10019239877E+04  0.10019239877E+04  0.25500000920E-02 0. -1.
    10030    2    1    2    0    0  0.00000000000E+00  0.00000000000E+00 -0.51512217938E+03  0.14887257959E+04  0.13967654190E+04 0.  0.
        3    1    3    3  502    0  0.15886828494E+03 -0.59772169818E+03  0.88184760773E+02  0.62472947959E+03  0.10100000352E+00 0.  1.
       -3    1    3    3    0  502 -0.15886828494E+03  0.59772169818E+03 -0.60330694015E+03  0.86399631635E+03  0.10100000352E+00 0. -1.
</event>
<event>
 5   0  0.6048000E-04  0.1377919E+04  0.7818609E-02  0.8969959E-01
       -4   -1    0    0    0  501  0.00000000000E+00  0.00000000000E+00  0.24751005838E+03  0.24751331661E+03  0.12699999809E+01 0. -1.
        4   -1    0    0  501    0  0.00000000000E+00  0.00000000000E+00 -0.19177447419E+04  0.19177451625E+04  0.12699999809E+01 0.  1.
    10030    2    1    2    0    0  0.00000000000E+00  0.00000000000E+00 -0.16702346836E+04  0.21652584791E+04  0.13779188594E+04 0.  0.
        3    1    3    3  502    0  0.17681377786E+03 -0.86962495423E+02  0.20229018931E+03  0.28239496905E+03  0.10100000352E+00 0. -1.
       -3    1    3    3    0  502 -0.17681377786E+03  0.86962495423E+02 -0.18725248729E+04  0.18828635100E+04  0.10100000352E+00 0.  1.
</event>
<event>
 5   0  0.1578965E-03  0.1388184E+04  0.7818609E-02  0.8962417E-01
       -2   -1    0    0    0  501  0.00000000000E+00  0.00000000000E+00  0.42639339088E+03  0.42639339088E+03  0.25500000920E-02 0.  1.
        2   -1    0    0  501    0  0.00000000000E+00  0.00000000000E+00 -0.11298566620E+04  0.11298566620E+04  0.25500000920E-02 0. -1.
    10030    2    1    2    0    0  0.00000000000E+00  0.00000000000E+00 -0.70346327112E+03  0.15562500529E+04  0.13881835805E+04 0.  0.
        2    1    3    3  502    0  0.14462665952E+03 -0.24742119805E+03  0.35696624429E+03  0.45777616742E+03  0.25500000920E-02 0.  1.
       -2    1    3    3    0  502 -0.14462665952E+03  0.24742119805E+03 -0.10604295154E+04  0.10984738855E+04  0.25500000920E-02 0. -1.
</event>
<event>
 5   0  0.8673728E-04  0.1332757E+04  0.7818609E-02  0.9003985E-01
        1   -1    0    0  501    0  0.00000000000E+00  0.00000000000E+00  0.74168996898E+03  0.74168996900E+03  0.50400001928E-02 0.  1.
       -1   -1    0    0    0  501  0.00000000000E+00  0.00000000000E+00 -0.59871407142E+03  0.59871407144E+03  0.50400001928E-02 0. -1.
    10030    2    1    2    0    0  0.00000000000E+00  0.00000000000E+00  0.14297589756E+03  0.13404040404E+04  0.13327568737E+04 0.  0.
        3    1    3    3  502    0 -0.19720241968E+02 -0.11985122086E+02  0.74128797699E+03  0.74164709001E+03  0.10100000352E+00 0.  1.
       -3    1    3    3    0  502  0.19720241968E+02  0.11985122086E+02 -0.59831207943E+03  0.59875695043E+03  0.10100000352E+00 0. -1.
</event>
<event>
 5   0  0.1578965E-03  0.1410206E+04  0.7818609E-02  0.8946464E-01
       -2   -1    0    0    0  501  0.00000000000E+00  0.00000000000E+00  0.47551177522E+03  0.47551177522E+03  0.25500000920E-02 0. -1.
        2   -1    0    0  501    0  0.00000000000E+00  0.00000000000E+00 -0.10455479082E+04  0.10455479082E+04  0.25500000920E-02 0.  1.
    10030    2    1    2    0    0  0.00000000000E+00  0.00000000000E+00 -0.57003613299E+03  0.15210596834E+04  0.14102061437E+04 0.  0.
        2    1    3    3  502    0  0.48202560209E+03  0.13259062686E+03  0.25130223664E+03  0.55953710292E+03  0.25500000920E-02 0. -1.
       -2    1    3    3    0  502 -0.48202560209E+03 -0.13259062686E+03 -0.82133836963E+03  0.96152258051E+03  0.25500000920E-02 0.  1.
</event>
<event>
 5   0  0.8609148E-04  0.1394349E+04  0.7818609E-02  0.8957919E-01
        1   -1    0    0  501    0  0.00000000000E+00  0.00000000000E+00  0.82909049749E+03  0.82909049751E+03  0.50400001928E-02 0. -1.
       -1   -1    0    0    0  501  0.00000000000E+00  0.00000000000E+00 -0.58624759007E+03  0.58624759009E+03  0.50400001928E-02 0.  1.
    10030    2    1    2    0    0  0.00000000000E+00  0.00000000000E+00  0.24284290742E+03  0.14153380876E+04  0.13943490325E+04 0.  0.
        5    1    3    3  502    0  0.49347823517E+03  0.47615640031E+03  0.24894915210E+03  0.72955017406E+03  0.46999998093E+01 0. -1.
       -5    1    3    3    0  502 -0.49347823517E+03 -0.47615640031E+03 -0.61062446785E+01  0.68578791354E+03  0.46999998093E+01 0.  1.
</event>
<event>
 5   0  0.8502300E-04  0.1408122E+04  0.7818609E-02  0.8947960E-01
        1   -1    0    0  501    0  0.00000000000E+00  0.00000000000E+00  0.81388076615E+03  0.81388076617E+03  0.50400001928E-02 0.  1.
       -1   -1    0    0    0  501  0.00000000000E+00  0.00000000000E+00 -0.60905980557E+03  0.60905980559E+03  0.50400001928E-02 0. -1.
    10030    2    1    2    0    0  0.00000000000E+00  0.00000000000E+00  0.20482096058E+03  0.14229405718E+04  0.14081222407E+04 0.  0.
        4    1    3    3  502    0 -0.23706633431E+03  0.47456195740E+03 -0.36537670398E+03  0.64413604696E+03  0.12699999809E+01 0. -1.
       -4    1    3    3    0  502  0.23706633431E+03 -0.47456195740E+03  0.57019766456E+03  0.77880452480E+03  0.12699999809E+01 0.  1.
</event>
<event>
 5   0  0.1706986E-03  0.1403172E+04  0.7818609E-02  0.8951526E-01
        2   -1    0    0  501    0  0.00000000000E+00  0.00000000000E+00  0.83467523830E+03  0.83467523831E+03  0.25500000920E-02 0.  1.
       -2   -1    0    0    0  501  0.00000000000E+00  0.00000000000E+00 -0.58971775880E+03  0.58971775881E+03  0.25500000920E-02 0. -1.
    10030    2    1    2    0    0  0.00000000000E+00  0.00000000000E+00  0.24495747950E+03  0.14243929971E+04  0.14031718510E+04 0.  0.
        3    1    3    3  502    0 -0.75192610833E+02  0.66318991413E+03  0.34196155848E+03  0.74994167013E+03  0.10100000352E+00 0.  1.
       -3    1    3    3    0  502  0.75192610833E+02 -0.66318991413E+03 -0.97004078974E+02  0.67445132698E+03  0.10100000352E+00 0. -1.
</event>
<event>
 5   0  0.8673728E-04  0.1405034E+04  0.7818609E-02  0.8950183E-01
       -1   -1    0    0    0  501  0.00000000000E+00  0.00000000000E+00  0.17451984863E+04  0.17451984863E+04  0.50400001928E-02 0.  1.
        1   -1    0    0  501    0  0.00000000000E+00  0.00000000000E+00 -0.28279298269E+03  0.28279298274E+03  0.50400001928E-02 0. -1.
    10030    2    1    2    0    0  0.00000000000E+00  0.00000000000E+00  0.14624055036E+04  0.20279914690E+04  0.14050336443E+04 0.  0.
        3    1    3    3  502    0  0.41719212568E+02  0.39026839131E+03 -0.10977881064E+03  0.40755528143E+03  0.10100000352E+00 0. -1.
       -3    1    3    3    0  502 -0.41719212568E+02 -0.39026839131E+03  0.15721843142E+04  0.16204361876E+04  0.10100000352E+00 0.  1.
</event>
<event>
 5   0  0.9007180E-04  0.1399092E+04  0.7818609E-02  0.8954476E-01
        1   -1    0    0  501    0  0.00000000000E+00  0.00000000000E+00  0.11803194895E+04  0.11803194895E+04  0.50400001928E-02 0.  1.
       -1   -1    0    0    0  501  0.00000000000E+00  0.00000000000E+00 -0.41460363928E+03  0.41460363931E+03  0.50400001928E-02 0. -1.
    10030    2    1    2    0    0  0.00000000000E+00  0.00000000000E+00  0.76571585021E+03  0.15949231288E+04  0.13990922141E+04 0.  0.
        2    1    3    3  502    0  0.42165410440E+03 -0.46657083341E+03  0.73215081031E+03  0.96515560165E+03  0.25500000920E-02 0.  1.
       -2    1    3    3    0  502 -0.42165410440E+03  0.46657083341E+03  0.33565039901E+02  0.62976752716E+03  0.25500000920E-02 0. -1.
</event>
<event>
 5   0  0.9007180E-04  0.1393328E+04  0.7818609E-02  0.8958662E-01
        1   -1    0    0  501    0  0.00000000000E+00  0.00000000000E+00  0.10864349719E+04  0.10864349719E+04  0.50400001928E-02 0.  1.
       -1   -1    0    0    0  501  0.00000000000E+00  0.00000000000E+00 -0.44672809346E+03  0.44672809349E+03  0.50400001928E-02 0. -1.
    10030    2    1    2    0    0  0.00000000000E+00  0.00000000000E+00  0.63970687846E+03  0.15331630654E+04  0.13933284232E+04 0.  0.
        2    1    3    3  502    0  0.67760283907E+03 -0.69609954156E+02  0.48063360567E+03  0.83366648976E+03  0.25500000920E-02 0.  1.
       -2    1    3    3    0  502 -0.67760283907E+03  0.69609954156E+02  0.15907327278E+03  0.69949657566E+03  0.25500000920E-02 0. -1.
</event>
<event>
 5   0  0.1648213E-03  0.1428743E+04  0.7818609E-02  0.8933272E-01
        2   -1    0    0  501    0  0.00000000000E+00  0.00000000000E+00  0.17328348426E+04  0.17328348426E+04  0.25500000920E-02 0. -1.
       -2   -1    0    0    0  501  0.00000000000E+00  0.00000000000E+00 -0.29450393158E+03  0.29450393159E+03  0.25500000920E-02 0.  1.
    10030    2    1    2    0    0  0.00000000000E+00  0.00000000000E+00  0.14383309110E+04  0.20273387741E+04  0.14287430475E+04 0.  0.
        4    1    3    3  502    0 -0.27476546360E+03  0.54849269304E+03  0.19976789107E+03  0.64517371111E+03  0.12699999809E+01 0.  1.
       -4    1    3    3    0  502  0.27476546360E+03 -0.54849269304E+03  0.12385630199E+04  0.13821650630E+04  0.12699999809E+01 0. -1.
</event>
<event>
 5   0  0.9639548E-04  0.1449552E+04  0.7818609E-02  0.8918711E-01
       -1   -1    0    0    0  501  0.00000000000E+00  0.00000000000E+00  0.35771700522E+03  0.35771700526E+03  0.50400001928E-02 0. -1.
        1   -1    0    0  501    0  0.00000000000E+00  0.00000000000E+00 -0.14684792743E+04  0.14684792743E+04  0.50400001928E-02 0.  1.
    10030    2    1    2    0    0  0.00000000000E+00  0.00000000000E+00 -0.11107622691E+04  0.18261962796E+04  0.14495516662E+04 0.  0.
        1    1    3    3  502    0  0.20485560528E+03 -0.52687232002E+03 -0.11268240536E+04  0.12606715307E+04  0.50400001928E-02 0.  1.
       -1    1    3    3    0  502 -0.20485560528E+03  0.52687232002E+03  0.16061784497E+02  0.56552474885E+03  0.50400001928E-02 0. -1.
</event>
<event>
 5   0  0.9639548E-04  0.1401553E+04  0.7818609E-02  0.8952696E-01
        1   -1    0    0  501    0  0.00000000000E+00  0.00000000000E+00  0.49101025034E+03  0.49101025037E+03  0.50400001928E-02 0. -1.
       -1   -1    0    0    0  501  0.00000000000E+00  0.00000000000E+00 -0.10001570591E+04  0.10001570591E+04  0.50400001928E-02 0.  1.
    10030    2    1    2    0    0  0.00000000000E+00  0.00000000000E+00 -0.50914680875E+03  0.14911673095E+04  0.14015525220E+04 0.  0.
        1    1    3    3  502    0 -0.12091913367E+03 -0.38851251403E+03 -0.86160105684E+03  0.95284825215E+03  0.50400001928E-02 0.  1.
       -1    1    3    3    0  502  0.12091913367E+03  0.38851251403E+03  0.35245424810E+03  0.53831905732E+03  0.50400001928E-02 0. -1.
</event>
<event>
 5   0  0.1605214E-03  0.1441928E+04  0.7818609E-02  0.8924016E-01
       -2   -1    0    0    0  501  0.00000000000E+00  0.00000000000E+00  0.72428508193E+03  0.72428508193E+03  0.25500000920E-02 0.  1.
        2   -1    0    0  501    0  0.00000000000E+00  0.00000000000E+00 -0.71765773770E+03  0.71765773771E+03  0.25500000920E-02 0. -1.
    10030    2    1    2    0    0  0.00000000000E+00  0.00000000000E+00  0.66273442220E+01  0.14419428196E+04  0.14419275895E+04 0.  0.
        5    1    3    3  502    0 -0.19055834284E+03 -0.40058407190E+03 -0.56501145112E+03  0.71835931857E+03  0.46999998093E+01 0. -1.
       -5    1    3    3    0  502  0.19055834284E+03  0.40058407190E+03  0.57163879534E+03  0.72358350107E+03  0.46999998093E+01 0.  1.
</event>
<event>
 5   0  0.1648463E-03  0.1411136E+04  0.7818609E-02  0.8945797E-01
        2   -1    0    0  501    0  0.00000000000E+00  0.00000000000E+00  0.11532070464E+04  0.11532070464E+04  0.25500000920E-02 0.  1.
       -2   -1    0    0    0  501  0.00000000000E+00  0.00000000000E+00 -0.43168830108E+03  0.43168830109E+03  0.25500000920E-02 0. -1.
    10030    2    1    2    0    0  0.00000000000E+00  0.00000000000E+00  0.72151874528E+03  0.15848953475E+04  0.14111356996E+04 0.  0.
        1    1    3    3  502    0  0.19850022582E+03 -0.28929850025E+03  0.10482884332E+04  0.11054431696E+04  0.50400001928E-02 0.  1.
       -1    1    3    3    0  502 -0.19850022582E+03  0.28929850025E+03 -0.32676968795E+03  0.47945217789E+03  0.50400001928E-02 0. -1.
</event>
<event>
 5   0  0.1648463E-03  0.1346602E+04  0.7818609E-02  0.8993404E-01
       -2   -1    0    0    0  501  0.00000000000E+00  0.00000000000E+00  0.30004239413E+03  0.30004239414E+03  0.25500000920E-02 0. -1.
        2   -1    0    0  501    0  0.00000000000E+00  0.00000000000E+00 -0.15109001913E+04  0.15109001913E+04  0.25500000920E-02 0.  1.
    10030    2    1    2    0    0  0.00000000000E+00  0.00000000000E+00 -0.12108577972E+04  0.18109425854E+04  0.13466018130E+04 0.  0.
        1    1    3    3  502    0 -0.39045324742E+03 -0.34060431498E+03 -0.27202895347E+02  0.51884972328E+03  0.50400001928E-02 0. -1.
       -1    1    3    3    0  502  0.39045324742E+03  0.34060431498E+03 -0.11836549018E+04  0.12920928621E+04  0.50400001928E-02 0.  1.
</event>
<event>
 5   0  0.8673728E-04  0.1408723E+04  0.7818609E-02  0.8947528E-01
       -1   -1    0    0    0  501  0.00000000000E+00  0.00000000000E+00  0.11027199564E+04  0.11027199565E+04  0.50400001928E-02 0. -1.
        1   -1    0    0  501    0  0.00000000000E+00  0.00000000000E+00 -0.44991050258E+03  0.44991050261E+03  0.50400001928E-02 0.  1.
    10030    2    1    2    0    0  0.00000000000E+00  0.00000000000E+00  0.65280945386E+03  0.15526304591E+04  0.14087232373E+04 0.  0.
        3    1    3    3  502    0 -0.57689944786E+03  0.29580192620E+03  0.62987473377E+03  0.90391036221E+03  0.10100000352E+00 0. -1.
       -3    1    3    3    0  502  0.57689944786E+03 -0.29580192620E+03  0.22934720093E+02  0.64872009686E+03  0.10100000352E+00 0.  1.
</event>
<event>
 5   0  0.1605214E-03  0.1420192E+04  0.7818609E-02  0.8939331E-01
        2   -1    0    0  501    0  0.00000000000E+00  0.00000000000E+00  0.88641666777E+03  0.88641666777E+03  0.25500000920E-02 0. -1.
       -2   -1    0    0    0  501  0.00000000000E+00  0.00000000000E+00 -0.56884782599E+03  0.56884782600E+03  0.25500000920E-02 0.  1.
    10030    2    1    2    0    0  0.00000000000E+00  0.00000000000E+00  0.31756884177E+03  0.14552644938E+04  0.14201918101E+04 0.  0.
        5    1    3    3  502    0 -0.10867635293E+03  0.16913657673E+03 -0.53905998844E+03  0.57534814887E+03  0.46999998093E+01 0.  1.
       -5    1    3    3    0  502  0.10867635293E+03 -0.16913657673E+03  0.85662883021E+03  0.87991634490E+03  0.46999998093E+01 0. -1.
</event>
<event>
 5   0  0.1578965E-03  0.1374230E+04  0.7818609E-02  0.8972686E-01
       -2   -1    0    0    0  501  0.00000000000E+00  0.00000000000E+00  0.74412528416E+03  0.74412528417E+03  0.25500000920E-02 0. -1.
        2   -1    0    0  501    0  0.00000000000E+00  0.00000000000E+00 -0.63447254185E+03  0.63447254185E+03  0.25500000920E-02 0.  1.
    10030    2    1    2    0    0  0.00000000000E+00  0.00000000000E+00  0.10965274231E+03  0.13785978260E+04  0.13742300543E+04 0.  0.
        2    1    3    3  502    0 -0.25339186284E+03 -0.39873895510E+03 -0.44568510086E+03  0.64948856772E+03  0.25500000920E-02 0.  1.
       -2    1    3    3    0  502  0.25339186284E+03  0.39873895510E+03  0.55533784317E+03  0.72910925830E+03  0.25500000920E-02 0. -1.
</event>
<event>
 5   0  0.8609148E-04  0.1418615E+04  0.7818609E-02  0.8940453E-01
        1   -1    0    0  501    0  0.00000000000E+00  0.00000000000E+00  0.29253974757E+03  0.29253974761E+03  0.50400001928E-02 0. -1.
       -1   -1    0    0    0  501  0.00000000000E+00  0.00000000000E+00 -0.17198251002E+04  0.17198251002E+04  0.50400001928E-02 0.  1.
    10030    2    1    2    0    0  0.00000000000E+00  0.00000000000E+00 -0.14272853527E+04  0.20123648478E+04  0.14186151003E+04 0.  0.
        5    1    3    3  502    0 -0.67826625595E+03  0.18090386357E+03 -0.56951024843E+03  0.90395538323E+03  0.46999998093E+01 0. -1.
       -5    1    3    3    0  502  0.67826625595E+03 -0.18090386357E+03 -0.85777510423E+03  0.11084094646E+04  0.46999998093E+01 0.  1.
</event>
<event>
 5   0  0.1648463E-03  0.1422758E+04  0.7818609E-02  0.8937508E-01
        2   -1    0    0  501    0  0.00000000000E+00  0.00000000000E+00  0.70649897206E+03  0.70649897207E+03  0.25500000920E-02 0.  1.
       -2   -1    0    0    0  501  0.00000000000E+00  0.00000000000E+00 -0.71629320621E+03  0.71629320621E+03  0.25500000920E-02 0. -1.
    10030    2    1    2    0    0  0.00000000000E+00  0.00000000000E+00 -0.97942341446E+01  0.14227921783E+04  0.14227584670E+04 0.  0.
        1    1    3    3  502    0 -0.54947601292E+03 -0.27018375493E+02 -0.45591393685E+03  0.71450080422E+03  0.50400001928E-02 0. -1.
       -1    1    3    3    0  502  0.54947601292E+03  0.27018375493E+02  0.44611970271E+03  0.70829137406E+03  0.50400001928E-02 0.  1.
</event>
<event>
 5   0  0.1648213E-03  0.1388564E+04  0.7818609E-02  0.8962139E-01
       -2   -1    0    0    0  501  0.00000000000E+00  0.00000000000E+00  0.85405791919E+03  0.85405791920E+03  0.25500000920E-02 0.  1.
        2   -1    0    0  501    0  0.00000000000E+00  0.00000000000E+00 -0.56439634097E+03  0.56439634097E+03  0.25500000920E-02 0. -1.
    10030    2    1    2    0    0  0.00000000000E+00  0.00000000000E+00  0.28966157823E+03  0.14184542602E+04  0.13885635233E+04 0.  0.
        4    1    3    3  502    0  0.12387404370E+03 -0.67288193876E+03  0.26531318609E+03  0.73383075830E+03  0.12699999809E+01 0.  1.
       -4    1    3    3    0  502 -0.12387404370E+03  0.67288193876E+03  0.24348392140E+02  0.68462350187E+03  0.12699999809E+01 0. -1.
</event>
<event>
 5   0  0.1648463E-03  0.1439004E+04  0.7818609E-02  0.8926060E-01
        2   -1    0    0  501    0  0.00000000000E+00  0.00000000000E+00  0.10871838152E+04  0.10871838152E+04  0.25500000920E-02 0.  1.
       -2   -1    0    0    0  501  0.00000000000E+00  0.00000000000E+00 -0.47616867827E+03  0.47616867828E+03  0.25500000920E-02 0. -1.
    10030    2    1    2    0    0  0.00000000000E+00  0.00000000000E+00  0.61101513696E+03  0.15633524935E+04  0.14390036558E+04 0.  0.
        1    1    3    3  502    0  0.35102489286E+03  0.25568515112E+02  0.98727891551E+03  0.10481373390E+04  0.50400001928E-02 0.  1.
       -1    1    3    3    0  502 -0.35102489286E+03 -0.25568515112E+02 -0.37626377855E+03  0.51521515452E+03  0.50400001928E-02 0. -1.
</event>
<event>
 5   0  0.1578965E-03  0.1398838E+04  0.7818609E-02  0.8954660E-01
       -2   -1    0    0    0  501  0.00000000000E+00  0.00000000000E+00  0.37802016438E+03  0.37802016439E+03  0.25500000920E-02 0.  1.
        2   -1    0    0  501    0  0.00000000000E+00  0.00000000000E+00 -0.12940764911E+04  0.12940764911E+04  0.25500000920E-02 0. -1.
    10030    2    1    2    0    0  0.00000000000E+00  0.00000000000E+00 -0.91605632674E+03  0.16720966555E+04  0.13988381006E+04 0.  0.
        2    1    3    3  502    0 -0.53481016190E+03  0.23915234950E+02  0.80001616953E+02  0.54128930015E+03  0.25500000920E-02 0.  1.
       -2    1    3    3    0  502  0.53481016190E+03 -0.23915234950E+02 -0.99605794370E+03  0.11308073554E+04  0.25500000920E-02 0. -1.
</event>
<event>
 5   0  0.9007180E-04  0.1418624E+04  0.7818609E-02  0.8940447E-01
        1   -1    0    0  501    0  0.00000000000E+00  0.00000000000E+00  0.90604220617E+03  0.90604220618E+03  0.50400001928E-02 0. -1.
       -1   -1    0    0    0  501  0.00000000000E+00  0.00000000000E+00 -0.55529782101E+03  0.55529782104E+03  0.50400001928E-02 0.  1.
    10030    2    1    2    0    0  0.00000000000E+00  0.00000000000E+00  0.35074438515E+03  0.14613400272E+04  0.14186236469E+04 0.  0.
        2    1    3    3  502    0 -0.27193234115E+03 -0.12950803564E+03 -0.48615146391E+03  0.57189402456E+03  0.25500000920E-02 0.  1.
       -2    1    3    3    0  502  0.27193234115E+03  0.12950803564E+03  0.83689584906E+03  0.88944600266E+03  0.25500000920E-02 0. -1.
</event>
<event>
 5   0  0.9007180E-04  0.1362009E+04  0.7818609E-02  0.8981787E-01
        1   -1    0    0  501    0  0.00000000000E+00  0.00000000000E+00  0.71756169722E+03  0.71756169724E+03  0.50400001928E-02 0.  1.
       -1   -1    0    0    0  501  0.00000000000E+00  0.00000000000E+00 -0.64630942159E+03  0.64630942161E+03  0.50400001928E-02 0. -1.
    10030    2    1    2    0    0  0.00000000000E+00  0.00000000000E+00  0.71252275636E+02  0.13638711188E+04  0.13620086424E+04 0.  0.
        2    1    3    3  502    0 -0.46705331524E+03  0.25071623104E+03  0.46372619044E+03  0.70430065135E+03  0.25500000920E-02 0. -1.
       -2    1    3    3    0  502  0.46705331524E+03 -0.25071623104E+03 -0.39247391481E+03  0.65957046750E+03  0.25500000920E-02 0.  1.
</event>
<event>
 5   0  0.1648463E-03  0.1356405E+04  0.7818609E-02  0.8985994E-01
       -2   -1    0    0    0  501  0.00000000000E+00  0.00000000000E+00  0.50307119595E+03  0.50307119596E+03  0.25500000920E-02 0.  1.
        2   -1    0    0  501    0  0.00000000000E+00  0.00000000000E+00 -0.91430071425E+03  0.91430071425E+03  0.25500000920E-02 0. -1.
    10030    2    1    2    0    0  0.00000000000E+00  0.00000000000E+00 -0.41122951830E+03  0.14173719102E+04  0.13564045912E+04 0.  0.
        1    1    3    3  502    0 -0.20350485462E+03 -0.20196680169E+03 -0.84785696324E+03  0.89502304159E+03  0.50400001928E-02 0. -1.
       -1    1    3    3    0  502  0.20350485462E+03  0.20196680169E+03  0.43662744495E+03  0.52234886861E+03  0.50400001928E-02 0.  1.
</event>
<event>
 5   0  0.8673728E-04  0.1399552E+04  0.7818609E-02  0.8954143E-01
       -1   -1    0    0    0  501  0.00000000000E+00  0.00000000000E+00  0.48089950984E+03  0.48089950987E+03  0.50400001928E-02 0.  1.
        1   -1    0    0  501    0  0.00000000000E+00  0.00000000000E+00 -0.10182720510E+04  0.10182720510E+04  0.50400001928E-02 0. -1.
    10030    2    1    2    0    0  0.00000000000E+00  0.00000000000E+00 -0.53737254114E+03  0.14991715609E+04  0.13995521144E+04 0.  0.
        3    1    3    3  502    0 -0.41855647600E+03  0.68322762917E+02 -0.86492926673E+03  0.96330689304E+03  0.10100000352E+00 0. -1.
       -3    1    3    3    0  502  0.41855647600E+03 -0.68322762917E+02  0.32755672559E+03  0.53586466782E+03  0.10100000352E+00 0.  1.
</event>
<event>
 5   0  0.8609148E-04  0.1439471E+04  0.7818609E-02  0.8925733E-01
        1   -1    0    0  501    0  0.00000000000E+00  0.00000000000E+00  0.50896880270E+03  0.50896880272E+03  0.50400001928E-02 0. -1.
       -1   -1    0    0    0  501  0.00000000000E+00  0.00000000000E+00 -0.10177812989E+04  0.10177812989E+04  0.50400001928E-02 0.  1.
    10030    2    1    2    0    0  0.00000000000E+00  0.00000000000E+00 -0.50881249623E+03  0.15267501017E+04  0.14394706376E+04 0.  0.
        5    1    3    3  502    0 -0.80170107701E+02  0.69976651099E+03 -0.97459712043E+02  0.71107025078E+03  0.46999998093E+01 0. -1.
       -5    1    3    3    0  502  0.80170107701E+02 -0.69976651099E+03 -0.41135278418E+03  0.81567985088E+03  0.46999998093E+01 0.  1.
</event>
<event>
 5   0  0.1706986E-03  0.1407694E+04  0.7818609E-02  0.8948268E-01
       -2   -1    0    0    0  501  0.00000000000E+00  0.00000000000E+00  0.78448504087E+03  0.78448504088E+03  0.25500000920E-02 0.  1.
        2   -1    0    0  501    0  0.00000000000E+00  0.00000000000E+00 -0.63149788690E+03  0.63149788690E+03  0.25500000920E-02 0. -1.
    10030    2    1    2    0    0  0.00000000000E+00  0.00000000000E+00  0.15298715397E+03  0.14159829278E+04  0.14076940657E+04 0.  0.
        3    1    3    3  502    0 -0.62711452031E+03  0.29366186347E+03 -0.50307101312E+02  0.69429152831E+03  0.10100000352E+00 0. -1.
       -3    1    3    3    0  502  0.62711452031E+03 -0.29366186347E+03  0.20329425529E+03  0.72169139947E+03  0.10100000352E+00 0.  1.
</event>
<event>
 5   0  0.8502300E-04  0.1394060E+04  0.7818609E-02  0.8958129E-01
        1   -1    0    0  501    0  0.00000000000E+00  0.00000000000E+00  0.12043695653E+04  0.12043695653E+04  0.50400001928E-02 0.  1.
       -1   -1    0    0    0  501  0.00000000000E+00  0.00000000000E+00 -0.40340681596E+03  0.40340681599E+03  0.50400001928E-02 0. -1.
    10030    2    1    2    0    0  0.00000000000E+00  0.00000000000E+00  0.80096274938E+03  0.16077763813E+04  0.13940601015E+04 0.  0.
        4    1    3    3  502    0  0.19358982363E+03 -0.39786130684E+03 -0.22067653765E+03  0.49443946693E+03  0.12699999809E+01 0. -1.
       -4    1    3    3    0  502 -0.19358982363E+03  0.39786130684E+03  0.10216392870E+04  0.11133369144E+04  0.12699999809E+01 0.  1.
</event>
<event>
 5   0  0.1578965E-03  0.1440974E+04  0.7818609E-02  0.8924682E-01
       -2   -1    0    0    0  501  0.00000000000E+00  0.00000000000E+00  0.22493837420E+03  0.22493837421E+03  0.25500000920E-02 0. -1.
        2   -1    0    0  501    0  0.00000000000E+00  0.00000000000E+00 -0.23077514908E+04  0.23077514908E+04  0.25500000920E-02 0.  1.
    10030    2    1    2    0    0  0.00000000000E+00  0.00000000000E+00 -0.20828131166E+04  0.25326898650E+04  0.14409744875E+04 0.  0.
        2    1    3    3  502    0 -0.14592993739E+03  0.31463410569E+03  0.68559418762E+02  0.35354004157E+03  0.25500000920E-02 0. -1.
       -2    1    3    3    0  502  0.14592993739E+03 -0.31463410569E+03 -0.21513725354E+04  0.21791498235E+04  0.25500000920E-02 0.  1.
</event>
<event>
 5   0  0.8502300E-04  0.1402482E+04  0.7818609E-02  0.8952024E-01
       -1   -1    0    0    0  501  0.00000000000E+00  0.00000000000E+00  0.11766712823E+04  0.11766712823E+04  0.50400001928E-02 0.  1.
        1   -1    0    0  501    0  0.00000000000E+00  0.00000000000E+00 -0.41790653360E+03  0.41790653363E+03  0.50400001928E-02 0. -1.
    10030    2    1    2    0    0  0.00000000000E+00  0.00000000000E+00  0.75876474872E+03  0.15945778160E+04  0.14024815390E+04 0.  0.
        4    1    3    3  502    0  0.30334695415E+03 -0.61913093160E+03  0.23380365241E+03  0.72801665217E+03  0.12699999809E+01 0. -1.
       -4    1    3    3    0  502 -0.30334695415E+03  0.61913093160E+03  0.52496109631E+03  0.86656116379E+03  0.12699999809E+01 0.  1.
</event>
<event>
 5   0  0.9639548E-04  0.1405563E+04  0.7818609E-02  0.8949802E-01
        1   -1    0    0  501    0  0.00000000000E+00  0.00000000000E+00  0.85677328863E+03  0.85677328864E+03  0.50400001928E-02 0. -1.
       -1   -1    0    0    0  501  0.00000000000E+00  0.00000000000E+00 -0.57646708441E+03  0.57646708444E+03  0.50400001928E-02 0.  1.
    10030    2    1    2    0    0  0.00000000000E+00  0.00000000000E+00  0.28030620421E+03  0.14332403731E+04  0.14055626627E+04 0.  0.
        1    1    3    3  502    0  0.11165930738E+03  0.55608102788E+03 -0.28299762438E+03  0.63386241877E+03  0.50400001928E-02 0.  1.
       -1    1    3    3    0  502 -0.11165930738E+03 -0.55608102788E+03  0.56330382860E+03  0.79937795431E+03  0.50400001928E-02 0. -1.
</event>
<event>
 5   0  0.1605214E-03  0.1403883E+04  0.7818609E-02  0.8951013E-01
       -2   -1    0    0    0  501  0.00000000000E+00  0.00000000000E+00  0.41682784442E+03  0.41682784443E+03  0.25500000920E-02 0.  1.
        2   -1    0    0  501    0  0.00000000000E+00  0.00000000000E+00 -0.11820753761E+04  0.11820753761E+04  0.25500000920E-02 0. -1.
    10030    2    1    2    0    0  0.00000000000E+00  0.00000000000E+00 -0.76524753171E+03  0.15989032206E+04  0.14038830877E+04 0.  0.
        5    1    3    3  502    0 -0.33858649169E+03  0.57434535376E+03 -0.13261590125E+03  0.67979589952E+03  0.46999998093E+01 0.  1.
       -5    1    3    3    0  502  0.33858649169E+03 -0.57434535376E+03 -0.63263163046E+03  0.91910732104E+03  0.46999998093E+01 0. -1.
</event>
<event>
 5   0  0.8673728E-04  0.1419967E+04  0.7818609E-02  0.8939491E-01
       -1   -1    0    0    0  501  0.00000000000E+00  0.00000000000E+00  0.50342299469E+03  0.50342299472E+03  0.50400001928E-02 0.  1.
        1   -1    0    0  501    0  0.00000000000E+00  0.00000000000E+00 -0.10012977411E+04  0.10012977411E+04  0.50400001928E-02 0. -1.
    10030    2    1    2    0    0  0.00000000000E+00  0.00000000000E+00 -0.49787474639E+03  0.15047207358E+04  0.14199666298E+04 0.  0.
        3    1    3    3  502    0  0.52273757726E+03  0.73492132581E+02  0.25418611898E+03  0.58588929118E+03  0.10100000352E+00 0.  1.
       -3    1    3    3    0  502 -0.52273757726E+03 -0.73492132581E+02 -0.75206086537E+03  0.91883144464E+03  0.10100000352E+00 0. -1.
</event>
<event>
 5   0  0.8609148E-04  0.1356381E+04  0.7818609E-02  0.8986012E-01
        1   -1    0    0  501    0  0.00000000000E+00  0.00000000000E+00  0.16020325178E+04  0.16020325178E+04  0.50400001928E-02 0.  1.
       -1   -1    0    0    0  501  0.00000000000E+00  0.00000000000E+00 -0.28709935255E+03  0.28709935260E+03  0.50400001928E-02 0. -1.
    10030    2    1    2    0    0  0.00000000000E+00  0.00000000000E+00  0.13149331652E+04  0.18891318704E+04  0.13563812129E+04 0.  0.
        5    1    3    3  502    0  0.49567307929E+03  0.50078948739E+02  0.16608042957E+02  0.49849535578E+03  0.46999998093E+01 0. -1.
       -5    1    3    3    0  502 -0.49567307929E+03 -0.50078948739E+02  0.12983251223E+04  0.13906365146E+04  0.46999998093E+01 0.  1.
</event>
<event>
 5   0  0.1578965E-03  0.1395603E+04  0.7818609E-02  0.8957007E-01
        2   -1    0    0  501    0  0.00000000000E+00  0.00000000000E+00  0.84547598172E+03  0.84547598173E+03  0.25500000920E-02 0.  1.
       -2   -1    0    0    0  501  0.00000000000E+00  0.00000000000E+00 -0.57592071317E+03  0.57592071318E+03  0.25500000920E-02 0. -1.
    10030    2    1    2    0    0  0.00000000000E+00  0.00000000000E+00  0.26955526855E+03  0.14213966949E+04  0.13956032823E+04 0.  0.
        2    1    3    3  502    0 -0.34908949494E+03 -0.34542913924E+03 -0.37010837417E+03  0.61495119672E+03  0.25500000920E-02 0. -1.
       -2    1    3    3    0  502  0.34908949494E+03  0.34542913924E+03  0.63966364272E+03  0.80644549818E+03  0.25500000920E-02 0.  1.
</event>
<event>
 5   0  0.1648213E-03  0.1333508E+04  0.7818609E-02  0.9003407E-01
        2   -1    0    0  501    0  0.00000000000E+00  0.00000000000E+00  0.10708897664E+04  0.10708897664E+04  0.25500000920E-02 0. -1.
       -2   -1    0    0    0  501  0.00000000000E+00  0.00000000000E+00 -0.41513230434E+03  0.41513230435E+03  0.25500000920E-02 0.  1.
    10030    2    1    2    0    0  0.00000000000E+00  0.00000000000E+00  0.65575746204E+03  0.14860220707E+04  0.13335080598E+04 0.  0.
        4    1    3    3  502    0 -0.57321437899E+00 -0.53687709302E+03  0.76847380886E+03  0.93743850432E+03  0.12699999809E+01 0. -1.
       -4    1    3    3    0  502  0.57321437899E+00  0.53687709302E+03 -0.11271634682E+03  0.54858356640E+03  0.12699999809E+01 0.  1.
</event>
<event>
 5   0  0.8673728E-04  0.1446027E+04  0.7818609E-02  0.8921160E-01
       -1   -1    0    0    0  501  0.00000000000E+00  0.00000000000E+00  0.26805458178E+03  0.26805458183E+03  0.50400001928E-02 0. -1.
        1   -1    0    0  501    0  0.00000000000E+00  0.00000000000E+00 -0.19501565778E+04  0.19501565778E+04  0.50400001928E-02 0.  1.
    10030    2    1    2    0    0  0.00000000000E+00  0.00000000000E+00 -0.16821019960E+04  0.22182111597E+04  0.14460268406E+04 0.  0.
        3    1    3    3  502    0  0.13983544403E+03  0.70876726570E+03 -0.79650125182E+03  0.10753228551E+04  0.10100000352E+00 0. -1.
       -3    1    3    3    0  502 -0.13983544403E+03 -0.70876726570E+03 -0.88560074423E+03  0.11428883046E+04  0.10100000352E+00 0.  1.
</event>
<event>
 5   0  0.1578965E-03  0.1380555E+04  0.7818609E-02  0.8968015E-01
       -2   -1    0    0    0  501  0.00000000000E+00  0.00000000000E+00  0.42375851742E+03  0.42375851743E+03  0.25500000920E-02 0. -1.
        2   -1    0    0  501    0  0.00000000000E+00  0.00000000000E+00 -0.11244212861E+04  0.11244212861E+04  0.25500000920E-02 0.  1.
    10030    2    1    2    0    0  0.00000000000E+00  0.00000000000E+00 -0.70066276871E+03  0.15481798036E+04  0.13805551017E+04 0.  0.
        2    1    3    3  502    0 -0.21054368254E+03  0.12900223288E+03 -0.10732008780E+04  0.11012403656E+04  0.25500000920E-02 0.  1.
       -2    1    3    3    0  502  0.21054368254E+03 -0.12900223288E+03  0.37253810927E+03  0.44693943796E+03  0.25500000920E-02 0. -1.
</event>
<event>
 5   0  0.1648213E-03  0.1394516E+04  0.7818609E-02  0.8957798E-01
       -2   -1    0    0    0  501  0.00000000000E+00  0.00000000000E+00  0.19484424953E+03  0.19484424954E+03  0.25500000920E-02 0. -1.
        2   -1    0    0  501    0  0.00000000000E+00  0.00000000000E+00 -0.24951662456E+04  0.24951662456E+04  0.25500000920E-02 0.  1.
    10030    2    1    2    0    0  0.00000000000E+00  0.00000000000E+00 -0.23003219961E+04  0.26900104951E+04  0.13945161090E+04 0.  0.
        4    1    3    3  502    0  0.37270595529E+02 -0.53849792598E+02  0.18889616376E+03  0.19993066558E+03  0.12699999809E+01 0. -1.
       -4    1    3    3    0  502 -0.37270595529E+02  0.53849792598E+02 -0.24892181598E+04  0.24900798296E+04  0.12699999809E+01 0.  1.
</event>
<event>
 5   0  0.1706986E-03  0.1432427E+04  0.7818609E-02  0.8930675E-01
       -2   -1    0    0    0  501  0.00000000000E+00  0.00000000000E+00  0.10988265420E+04  0.10988265420E+04  0.25500000920E-02 0. -1.
        2   -1    0    0  501    0  0.00000000000E+00  0.00000000000E+00 -0.46682679523E+03  0.46682679524E+03  0.25500000920E-02 0.  1.
    10030    2    1    2    0    0  0.00000000000E+00  0.00000000000E+00  0.63199974674E+03  0.15656533372E+04  0.14324268541E+04 0.  0.
        3    1    3    3  502    0  0.39129596292E+03 -0.47638405363E+03  0.71447175346E+03  0.94367589449E+03  0.10100000352E+00 0. -1.
       -3    1    3    3    0  502 -0.39129596292E+03  0.47638405363E+03 -0.82472006718E+02  0.62197744272E+03  0.10100000352E+00 0.  1.
</event>
<event>
 5   0  0.8609148E-04  0.1400106E+04  0.7818609E-02  0.8953742E-01
        1   -1    0    0  501    0  0.00000000000E+00  0.00000000000E+00  0.13309191213E+04  0.13309191213E+04  0.50400001928E-02 0. -1.
       -1   -1    0    0    0  501  0.00000000000E+00  0.00000000000E+00 -0.36822239048E+03  0.36822239051E+03  0.50400001928E-02 0.  1.
    10030    2    1    2    0    0  0.00000000000E+00  0.00000000000E+00  0.96269673085E+03  0.16991415118E+04  0.14001060252E+04 0.  0.
        5    1    3    3  502    0 -0.17816984041E+03 -0.47273543465E+03 -0.10674238503E+03  0.51637129081E+03  0.46999998093E+01 0. -1.
       -5    1    3    3    0  502  0.17816984041E+03  0.47273543465E+03  0.10694391159E+04  0.11827702210E+04  0.46999998093E+01 0.  1.
</event>
<event>
 5   0  0.1578965E-03  0.1393336E+04  0.7818609E-02  0.8958656E-01
        2   -1    0    0  501    0  0.00000000000E+00  0.00000000000E+00  0.14252713252E+04  0.14252713252E+04  0.25500000920E-02 0. -1.
       -2   -1    0    0    0  501  0.00000000000E+00  0.00000000000E+00 -0.34052923485E+03  0.34052923486E+03  0.25500000920E-02 0.  1.
    10030    2    1    2    0    0  0.00000000000E+00  0.00000000000E+00  0.10847420904E+04  0.17658005601E+04  0.13933363612E+04 0.  0.
        2    1    3    3  502    0 -0.61453751299E+03 -0.23389167637E+03  0.83408799769E+03  0.10621037892E+04  0.25500000920E-02 0. -1.
       -2    1    3    3    0  502  0.61453751299E+03  0.23389167637E+03  0.25065409268E+03  0.70369677087E+03  0.25500000920E-02 0.  1.
</event>
<event>
 5   0  0.6048000E-04  0.1411795E+04  0.7818609E-02  0.8945325E-01
        3   -1    0    0  501    0  0.00000000000E+00  0.00000000000E+00  0.12072131181E+04  0.12072131223E+04  0.10100000352E+00 0. -1.
       -3   -1    0    0    0  501  0.00000000000E+00  0.00000000000E+00 -0.41276164497E+03  0.41276165733E+03  0.10100000352E+00 0.  1.
    10030    2    1    2    0    0  0.00000000000E+00  0.00000000000E+00  0.79445147311E+03  0.16199747796E+04  0.14117950076E+04 0.  0.
        4    1    3    3  502    0  0.36499533512E+03  0.51715424717E+03  0.75573884622E+03  0.98580572458E+03  0.12699999809E+01 0. -1.
       -4    1    3    3    0  502 -0.36499533512E+03 -0.51715424717E+03  0.38712626892E+02  0.63416905507E+03  0.12699999809E+01 0.  1.
</event>
<event>
 5   0  0.8502300E-04  0.1396929E+04  0.7818609E-02  0.8956045E-01
       -1   -1    0    0    0  501  0.00000000000E+00  0.00000000000E+00  0.43910069067E+03  0.43910069070E+03  0.50400001928E-02 0. -1.
        1   -1    0    0  501    0  0.00000000000E+00  0.00000000000E+00 -0.11110261301E+04  0.11110261301E+04  0.50400001928E-02 0.  1.
    10030    2    1    2    0    0  0.00000000000E+00  0.00000000000E+00 -0.67192543942E+03  0.15501268208E+04  0.13969285466E+04 0.  0.
        4    1    3    3  502    0 -0.55358784028E+03 -0.42520211023E+03 -0.36301670537E+03  0.78679036136E+03  0.12699999809E+01 0.  1.
       -4    1    3    3    0  502  0.55358784028E+03  0.42520211023E+03 -0.30890873406E+03  0.76333645945E+03  0.12699999809E+01 0. -1.
</event>
<event>
 5   0  0.1578965E-03  0.1425353E+04  0.7818609E-02  0.8935669E-01
       -2   -1    0    0    0  501  0.00000000000E+00  0.00000000000E+00  0.69180766934E+03  0.69180766934E+03  0.25500000920E-02 0.  1.
        2   -1    0    0  501    0  0.00000000000E+00  0.00000000000E+00 -0.73417463196E+03  0.73417463196E+03  0.25500000920E-02 0. -1.
    10030    2    1    2    0    0  0.00000000000E+00  0.00000000000E+00 -0.42366962620E+02  0.14259823013E+04  0.14253527858E+04 0.  0.
        2    1    3    3  502    0 -0.49220827373E+03  0.32819302454E+03  0.37639358719E+03  0.70117884920E+03  0.25500000920E-02 0.  1.
       -2    1    3    3    0  502  0.49220827373E+03 -0.32819302454E+03 -0.41876054981E+03  0.72480345210E+03  0.25500000920E-02 0. -1.
</event>
<event>
 5   0  0.8609148E-04  0.1408252E+04  0.7818609E-02  0.8947867E-01
       -1   -1    0    0    0  501  0.00000000000E+00  0.00000000000E+00  0.45632105133E+03  0.45632105136E+03  0.50400001928E-02 0. -1.
        1   -1    0    0  501    0  0.00000000000E+00  0.00000000000E+00 -0.10865005987E+04  0.10865005987E+04  0.50400001928E-02 0.  1.
    10030    2    1    2    0    0  0.00000000000E+00  0.00000000000E+00 -0.63017954735E+03  0.15428216501E+04  0.14082515336E+04 0.  0.
        5    1    3    3  502    0 -0.49220521027E+03  0.36175098526E+03  0.68576651555E+02  0.61469878110E+03  0.46999998093E+01 0. -1.
       -5    1    3    3    0  502  0.49220521027E+03 -0.36175098526E+03 -0.69875619891E+03  0.92812286895E+03  0.46999998093E+01 0.  1.
</event>
<event>
 5   0  0.8609148E-04  0.1371932E+04  0.7818609E-02  0.8974390E-01
       -1   -1    0    0    0  501  0.00000000000E+00  0.00000000000E+00  0.13635162765E+04  0.13635162765E+04  0.50400001928E-02 0. -1.
        1   -1    0    0  501    0  0.00000000000E+00  0.00000000000E+00 -0.34509973407E+03  0.34509973411E+03  0.50400001928E-02 0.  1.
    10030    2    1    2    0    0  0.00000000000E+00  0.00000000000E+00  0.10184165424E+04  0.17086160106E+04  0.13719316375E+04 0.  0.
        5    1    3    3  502    0  0.39418201928E+02 -0.22969307705E+02 -0.34318810871E+03  0.34623915390E+03  0.46999998093E+01 0.  1.
       -5    1    3    3    0  502 -0.39418201928E+02  0.22969307705E+02  0.13616046511E+04  0.13623768567E+04  0.46999998093E+01 0. -1.
</event>
<event>
 5   0  0.8673728E-04  0.1389665E+04  0.7818609E-02  0.8961334E-01
       -1   -1    0    0    0  501  0.00000000000E+00  0.00000000000E+00  0.41506380229E+03  0.41506380233E+03  0.50400001928E-02 0.  1.
        1   -1    0    0  501    0  0.00000000000E+00  0.00000000000E+00 -0.11631762750E+04  0.11631762750E+04  0.50400001928E-02 0. -1.
    10030    2    1    2    0    0  0.00000000000E+00  0.00000000000E+00 -0.74811247270E+03  0.15782400773E+04  0.13896652366E+04 0.  0.
        3    1    3    3  502    0  0.37058971026E+03  0.56563915966E+03 -0.55544099022E+03  0.87509947784E+03  0.10100000352E+00 0. -1.
       -3    1    3    3    0  502 -0.37058971026E+03 -0.56563915966E+03 -0.19267148248E+03  0.70314059949E+03  0.10100000352E+00 0.  1.
</event>
<event>
 5   0  0.9007180E-04  0.1291989E+04  0.7818609E-02  0.9035942E-01
        1   -1    0    0  501    0  0.00000000000E+00  0.00000000000E+00  0.87090049308E+03  0.87090049309E+03  0.50400001928E-02 0.  1.
       -1   -1    0    0    0  501  0.00000000000E+00  0.00000000000E+00 -0.47916959389E+03  0.47916959391E+03  0.50400001928E-02 0. -1.
    10030    2    1    2    0    0  0.00000000000E+00  0.00000000000E+00  0.39173089919E+03  0.13500700870E+04  0.12919892192E+04 0.  0.
        2    1    3    3  502    0  0.18866187598E+02  0.50798351823E+03 -0.22068476729E+03  0.55417051018E+03  0.25500000920E-02 0. -1.
       -2    1    3    3    0  502 -0.18866187598E+02 -0.50798351823E+03  0.61241566648E+03  0.79589957683E+03  0.25500000920E-02 0.  1.
</event>
<event>
 5   0  0.1605214E-03  0.1428836E+04  0.7818609E-02  0.8933206E-01
       -2   -1    0    0    0  501  0.00000000000E+00  0.00000000000E+00  0.25891477206E+03  0.25891477207E+03  0.25500000920E-02 0.  1.
        2   -1    0    0  501    0  0.00000000000E+00  0.00000000000E+00 -0.19712778940E+04  0.19712778940E+04  0.25500000920E-02 0. -1.
    10030    2    1    2    0    0  0.00000000000E+00  0.00000000000E+00 -0.17123631219E+04  0.22301926660E+04  0.14288358431E+04 0.  0.
        5    1    3    3  502    0 -0.65653569391E+03  0.12072438901E+01 -0.41655937608E+03  0.77755024186E+03  0.46999998093E+01 0.  1.
       -5    1    3    3    0  502  0.65653569391E+03 -0.12072438901E+01 -0.12958037458E+04  0.14526424242E+04  0.46999998093E+01 0. -1.
</event>
<event>
 5   0  0.8502300E-04  0.1361965E+04  0.7818609E-02  0.8981820E-01
        1   -1    0    0  501    0  0.00000000000E+00  0.00000000000E+00  0.54765578343E+03  0.54765578346E+03  0.50400001928E-02 0.  1.
       -1   -1    0    0    0  501  0.00000000000E+00  0.00000000000E+00 -0.84676751312E+03  0.84676751313E+03  0.50400001928E-02 0. -1.
    10030    2    1    2    0    0  0.00000000000E+00  0.00000000000E+00 -0.29911172968E+03  0.13944232966E+04  0.13619649420E+04 0.  0.
        4    1    3    3  502    0  0.28682264368E+03  0.47409430285E+03 -0.55484707488E+03  0.78414891846E+03  0.12699999809E+01 0. -1.
       -4    1    3    3    0  502 -0.28682264368E+03 -0.47409430285E+03  0.25573534519E+03  0.61027437813E+03  0.12699999809E+01 0.  1.
</event>
<event>
 5   0  0.8609148E-04  0.1408650E+04  0.7818609E-02  0.8947581E-01
        1   -1    0    0  501    0  0.00000000000E+00  0.00000000000E+00  0.18631188360E+04  0.18631188360E+04  0.50400001928E-02 0. -1.
       -1   -1    0    0    0  501  0.00000000000E+00  0.00000000000E+00 -0.26625981802E+03  0.26625981807E+03  0.50400001928E-02 0.  1.
    10030    2    1    2    0    0  0.00000000000E+00  0.00000000000E+00  0.15968590179E+04  0.21293786540E+04  0.14086499669E+04 0.  0.
        5    1    3    3  502    0 -0.48731932148E+03  0.18057081255E+03  0.15170027197E+04  0.16035601894E+04  0.46999998093E+01 0. -1.
       -5    1    3    3    0  502  0.48731932148E+03 -0.18057081255E+03  0.79856298276E+02  0.52581846468E+03  0.46999998093E+01 0.  1.
</event>
<event>
 5   0  0.1578965E-03  0.1400937E+04  0.7818609E-02  0.8953140E-01
       -2   -1    0    0    0  501  0.00000000000E+00  0.00000000000E+00  0.68012892502E+03  0.68012892503E+03  0.25500000920E-02 0. -1.
        2   -1    0    0  501    0  0.00000000000E+00  0.00000000000E+00 -0.72141668563E+03  0.72141668563E+03  0.25500000920E-02 0.  1.
    10030    2    1    2    0    0  0.00000000000E+00  0.00000000000E+00 -0.41287760607E+02  0.14015456107E+04  0.14009373361E+04 0.  0.
        2    1    3    3  502    0  0.68388991322E+03  0.38897585110E+02  0.12583662934E+03  0.69645767483E+03  0.25500000920E-02 0. -1.
       -2    1    3    3    0  502 -0.68388991322E+03 -0.38897585110E+02 -0.16712438995E+03  0.70508793583E+03  0.25500000920E-02 0.  1.
</event>
<event>
 5   0  0.9007180E-04  0.1392303E+04  0.7818609E-02  0.8959409E-01
        1   -1    0    0  501    0  0.00000000000E+00  0.00000000000E+00  0.12812466845E+04  0.12812466845E+04  0.50400001928E-02 0. -1.
       -1   -1    0    0    0  501  0.00000000000E+00  0.00000000000E+00 -0.37824610182E+03  0.37824610185E+03  0.50400001928E-02 0.  1.
    10030    2    1    2    0    0  0.00000000000E+00  0.00000000000E+00  0.90300058269E+03  0.16594927864E+04  0.13923025015E+04 0.  0.
        2    1    3    3  502    0 -0.55523608076E+03  0.17431996346E+03 -0.38512426694E+01  0.58197026308E+03  0.25500000920E-02 0.  1.
       -2    1    3    3    0  502  0.55523608076E+03 -0.17431996346E+03  0.90685182536E+03  0.10775225233E+04  0.25500000920E-02 0. -1.
</event>
<event>
 5   0  0.1605214E-03  0.1388684E+04  0.7818609E-02  0.8962051E-01
       -2   -1    0    0    0  501  0.00000000000E+00  0.00000000000E+00  0.22427765677E+03  0.22427765679E+03  0.25500000920E-02 0.  1.
        2   -1    0    0  501    0  0.00000000000E+00  0.00000000000E+00 -0.21496156671E+04  0.21496156671E+04  0.25500000920E-02 0. -1.
    10030    2    1    2    0    0  0.00000000000E+00  0.00000000000E+00 -0.19253380103E+04  0.23738933239E+04  0.13886839306E+04 0.  0.
        5    1    3    3  502    0  0.21699673685E+03  0.41962646089E+03 -0.18325025732E+04  0.18924221836E+04  0.46999998093E+01 0. -1.
       -5    1    3    3    0  502 -0.21699673685E+03 -0.41962646089E+03 -0.92835437148E+02  0.48147114023E+03  0.46999998093E+01 0.  1.
</event>
<event>
 5   0  0.9639548E-04  0.1411290E+04  0.7818609E-02  0.8945686E-01
        1   -1    0    0  501    0  0.00000000000E+00  0.00000000000E+00  0.44360381493E+03  0.44360381496E+03  0.50400001928E-02 0.  1.
       -1   -1    0    0    0  501  0.00000000000E+00  0.00000000000E+00 -0.11224769611E+04  0.11224769611E+04  0.50400001928E-02 0. -1.
    10030    2    1    2    0    0  0.00000000000E+00  0.00000000000E+00 -0.67887314619E+03  0.15660807761E+04  0.14112902779E+04 0.  0.
        1    1    3    3  502    0  0.34134755228E+03 -0.59452427722E+03 -0.15389157004E+03  0.70260933883E+03  0.50400001928E-02 0.  1.
       -1    1    3    3    0  502 -0.34134755228E+03  0.59452427722E+03 -0.52498157615E+03  0.86347143727E+03  0.50400001928E-02 0. -1.
</event>
<event>
 5   0  0.1706986E-03  0.1395747E+04  0.7818609E-02  0.8956903E-01
       -2   -1    0    0    0  501  0.00000000000E+00  0.00000000000E+00  0.38617743844E+03  0.38617743844E+03  0.25500000920E-02 0. -1.
        2   -1    0    0  501    0  0.00000000000E+00  0.00000000000E+00 -0.12611493727E+04  0.12611493727E+04  0.25500000920E-02 0.  1.
    10030    2    1    2    0    0  0.00000000000E+00  0.00000000000E+00 -0.87497193429E+03  0.16473268112E+04  0.13957470176E+04 0.  0.
        3    1    3    3  502    0  0.10230534332E+02 -0.69462549309E+03 -0.51593633527E+03  0.86533204710E+03  0.10100000352E+00 0.  1.
       -3    1    3    3    0  502 -0.10230534332E+02  0.69462549309E+03 -0.35903559902E+03  0.78199476407E+03  0.10100000352E+00 0. -1.
</event>
<event>
 5   0  0.1605214E-03  0.1368234E+04  0.7818609E-02  0.8977139E-01
       -2   -1    0    0    0  501  0.00000000000E+00  0.00000000000E+00  0.11379910342E+04  0.11379910342E+04  0.25500000920E-02 0.  1.
        2   -1    0    0  501    0  0.00000000000E+00  0.00000000000E+00 -0.41126529105E+03  0.41126529105E+03  0.25500000920E-02 0. -1.
    10030    2    1    2    0    0  0.00000000000E+00  0.00000000000E+00  0.72672574316E+03  0.15492563253E+04  0.13682342108E+04 0.  0.
        5    1    3    3  502    0 -0.46041624354E+03 -0.49711965015E+03  0.25664328579E+03  0.72456809896E+03  0.46999998093E+01 0. -1.
       -5    1    3    3    0  502  0.46041624354E+03  0.49711965015E+03  0.47008245738E+03  0.82468822631E+03  0.46999998093E+01 0.  1.
</event>
<event>
 5   0  0.9639548E-04  0.1325357E+04  0.7818609E-02  0.9009695E-01
       -1   -1    0    0    0  501  0.00000000000E+00  0.00000000000E+00  0.43534020933E+03  0.43534020935E+03  0.50400001928E-02 0. -1.
        1   -1    0    0  501    0  0.00000000000E+00  0.00000000000E+00 -0.10087339857E+04  0.10087339857E+04  0.50400001928E-02 0.  1.
    10030    2    1    2    0    0  0.00000000000E+00  0.00000000000E+00 -0.57339377634E+03  0.14440741950E+04  0.13253565022E+04 0.  0.
        1    1    3    3  502    0 -0.12536594228E+03  0.17604363728E+03  0.39586239079E+03  0.45101553652E+03  0.50400001928E-02 0. -1.
       -1    1    3    3    0  502  0.12536594228E+03 -0.17604363728E+03 -0.96925616713E+03  0.99305865852E+03  0.50400001928E-02 0.  1.
</event>
<event>
 5   0  0.1578965E-03  0.1419894E+04  0.7818609E-02  0.8939543E-01
        2   -1    0    0  501    0  0.00000000000E+00  0.00000000000E+00  0.70973135372E+03  0.70973135373E+03  0.25500000920E-02 0.  1.
       -2   -1    0    0    0  501  0.00000000000E+00  0.00000000000E+00 -0.71016267638E+03  0.71016267638E+03  0.25500000920E-02 0. -1.
    10030    2    1    2    0    0  0.00000000000E+00  0.00000000000E+00 -0.43132265362E+00  0.14198940301E+04  0.14198939646E+04 0.  0.
        2    1    3    3  502    0  0.17114319087E+02  0.10462676801E+03  0.70177087889E+03  0.70973377189E+03  0.25500000920E-02 0.  1.
       -2    1    3    3    0  502 -0.17114319087E+02 -0.10462676801E+03 -0.70220220154E+03  0.71016025822E+03  0.25500000920E-02 0. -1.
</event>
<event>
 5   0  0.1605214E-03  0.1322897E+04  0.7818609E-02  0.9011603E-01
        2   -1    0    0  501    0  0.00000000000E+00  0.00000000000E+00  0.48171544749E+03  0.48171544750E+03  0.25500000920E-02 0. -1.
       -2   -1    0    0    0  501  0.00000000000E+00  0.00000000000E+00 -0.90824116874E+03  0.90824116874E+03  0.25500000920E-02 0.  1.
    10030    2    1    2    0    0  0.00000000000E+00  0.00000000000E+00 -0.42652572125E+03  0.13899566162E+04  0.13228965206E+04 0.  0.
        5    1    3    3  502    0  0.48219033512E+03 -0.26560493595E+03  0.17198189134E+03  0.57676109633E+03  0.46999998093E+01 0. -1.
       -5    1    3    3    0  502 -0.48219033512E+03  0.26560493595E+03 -0.59850761259E+03  0.81319551992E+03  0.46999998093E+01 0.  1.
</event>
<event>
 5   0  0.9007180E-04  0.1406350E+04  0.7818609E-02  0.8949235E-01
       -1   -1    0    0    0  501  0.00000000000E+00  0.00000000000E+00  0.58515883766E+03  0.58515883769E+03  0.50400001928E-02 0.  1.
        1   -1    0    0  501    0  0.00000000000E+00  0.00000000000E+00 -0.84499307019E+03  0.84499307020E+03  0.50400001928E-02 0. -1.
    10030    2    1    2    0    0  0.00000000000E+00  0.00000000000E+00 -0.25983423252E+03  0.14301519079E+04  0.14063501169E+04 0.  0.
        2    1    3    3  502    0 -0.19383788708E+03 -0.15103266187E+03  0.54007422162E+03  0.59334994420E+03  0.25500000920E-02 0.  1.
       -2    1    3    3    0  502  0.19383788708E+03  0.15103266187E+03 -0.79990845414E+03  0.83680196369E+03  0.25500000920E-02 0. -1.
</event>
<event>
 5   0  0.1605214E-03  0.1349679E+04  0.7818609E-02  0.8991071E-01
        2   -1    0    0  501    0  0.00000000000E+00  0.00000000000E+00  0.53838003546E+03  0.53838003547E+03  0.25500000920E-02 0.  1.
       -2   -1    0    0    0  501  0.00000000000E+00  0.00000000000E+00 -0.84588583011E+03  0.84588583012E+03  0.25500000920E-02 0. -1.
    10030    2    1    2    0    0  0.00000000000E+00  0.00000000000E+00 -0.30750579465E+03  0.13842658656E+04  0.13496785443E+04 0.  0.
        5    1    3    3  502    0 -0.14209753790E+03  0.63555586247E+03  0.27591612565E+02  0.65184841158E+03  0.46999998093E+01 0.  1.
       -5    1    3    3    0  502  0.14209753790E+03 -0.63555586247E+03 -0.33509740722E+03  0.73241745400E+03  0.46999998093E+01 0. -1.
</event>
<event>
 5   0  0.8502300E-04  0.1397519E+04  0.7818609E-02  0.8955616E-01
        1   -1    0    0  501    0  0.00000000000E+00  0.00000000000E+00  0.14058764645E+04  0.14058764645E+04  0.50400001928E-02 0. -1.
       -1   -1    0    0    0  501  0.00000000000E+00  0.00000000000E+00 -0.34730299871E+03  0.34730299875E+03  0.50400001928E-02 0.  1.
    10030    2    1    2    0    0  0.00000000000E+00  0.00000000000E+00  0.10585734658E+04  0.17531794633E+04  0.13975193909E+04 0.  0.
        4    1    3    3  502    0  0.10291276075E+03 -0.47865113087E+02  0.13942339823E+04  0.13988467092E+04  0.12699999809E+01 0. -1.
       -4    1    3    3    0  502 -0.10291276075E+03  0.47865113087E+02 -0.33566051653E+03  0.35433275410E+03  0.12699999809E+01 0.  1.
</event>
<event>
 5   0  0.8609148E-04  0.1510691E+04  0.7818609E-02  0.8877375E-01
       -1   -1    0    0    0  501  0.00000000000E+00  0.00000000000E+00  0.67585424187E+03  0.67585424189E+03  0.50400001928E-02 0.  1.
        1   -1    0    0  501    0  0.00000000000E+00  0.00000000000E+00 -0.84418619291E+03  0.84418619293E+03  0.50400001928E-02 0. -1.
    10030    2    1    2    0    0  0.00000000000E+00  0.00000000000E+00 -0.16833195104E+03  0.15200404348E+04  0.15106909935E+04 0.  0.
        5    1    3    3  502    0  0.53954409261E+03 -0.24490011531E+02  0.44713331448E+03  0.70118319964E+03  0.46999998093E+01 0.  1.
       -5    1    3    3    0  502 -0.53954409261E+03  0.24490011531E+02 -0.61546526552E+03  0.81885723518E+03  0.46999998093E+01 0. -1.
</event>
<event>
 5   0  0.8609148E-04  0.1387520E+04  0.7818609E-02  0.8962902E-01
        1   -1    0    0  501    0  0.00000000000E+00  0.00000000000E+00  0.26089388806E+04  0.26089388806E+04  0.50400001928E-02 0.  1.
       -1   -1    0    0    0  501  0.00000000000E+00  0.00000000000E+00 -0.18448230758E+03  0.18448230765E+03  0.50400001928E-02 0. -1.
    10030    2    1    2    0    0  0.00000000000E+00  0.00000000000E+00  0.24244565730E+04  0.27934211883E+04  0.13875201838E+04 0.  0.
        5    1    3    3  502    0 -0.18771636536E+03  0.20464582828E+03 -0.67670791856E+02  0.28586495925E+03  0.46999998093E+01 0. -1.
       -5    1    3    3    0  502  0.18771636536E+03 -0.20464582828E+03  0.24921273649E+04  0.25075562290E+04  0.46999998093E+01 0.  1.
</event>
<event>
 5   0  0.6048000E-04  0.1402587E+04  0.7818609E-02  0.8951948E-01
        3   -1    0    0  501    0  0.00000000000E+00  0.00000000000E+00  0.84368403048E+03  0.84368403653E+03  0.10100000352E+00 0. -1.
       -3   -1    0    0    0  501  0.00000000000E+00  0.00000000000E+00 -0.58293440082E+03  0.58293440956E+03  0.10100000352E+00 0.  1.
    10030    2    1    2    0    0  0.00000000000E+00  0.00000000000E+00  0.26074962967E+03  0.14266184461E+04  0.14025868320E+04 0.  0.
        1    1    3    3  502    0  0.22472586461E+03 -0.55313280251E+03 -0.24383483192E+03  0.64491320092E+03  0.50400001928E-02 0.  1.
       -1    1    3    3    0  502 -0.22472586461E+03  0.55313280251E+03  0.50458446159E+03  0.78170524518E+03  0.50400001928E-02 0. -1.
</event>
<event>
 5   0  0.1706986E-03  0.1388378E+04  0.7818609E-02  0.8962275E-01
       -2   -1    0    0    0  501  0.00000000000E+00  0.00000000000E+00  0.45381305033E+03  0.45381305034E+03  0.25500000920E-02 0. -1.
        2   -1    0    0  501    0  0.00000000000E+00  0.00000000000E+00 -0.10618867652E+04  0.10618867652E+04  0.25500000920E-02 0.  1.
    10030    2    1    2    0    0  0.00000000000E+00  0.00000000000E+00 -0.60807371487E+03  0.15156998155E+04  0.13883775741E+04 0.  0.
        3    1    3    3  502    0  0.30574373317E+03 -0.57653145604E+03 -0.56245150494E+03  0.86152159333E+03  0.10100000352E+00 0.  1.
       -3    1    3    3    0  502 -0.30574373317E+03  0.57653145604E+03 -0.45622209938E+02  0.65417822221E+03  0.10100000352E+00 0. -1.
</event>
<event>
 5   0  0.8609148E-04  0.1413668E+04  0.7818609E-02  0.8943984E-01
       -1   -1    0    0    0  501  0.00000000000E+00  0.00000000000E+00  0.42154026097E+03  0.42154026100E+03  0.50400001928E-02 0. -1.
        1   -1    0    0  501    0  0.00000000000E+00  0.00000000000E+00 -0.11852109963E+04  0.11852109963E+04  0.50400001928E-02 0.  1.
    10030    2    1    2    0    0  0.00000000000E+00  0.00000000000E+00 -0.76367073534E+03  0.16067512573E+04  0.14136677866E+04 0.  0.
        5    1    3    3  502    0 -0.87665849729E+02 -0.16214016843E+03 -0.11573961739E+04  0.11719909252E+04  0.46999998093E+01 0.  1.
       -5    1    3    3    0  502  0.87665849729E+02  0.16214016843E+03  0.39372543854E+03  0.43476033212E+03  0.46999998093E+01 0. -1.
</event>
<event>
 5   0  0.8609148E-04  0.1407431E+04  0.7818609E-02  0.8948457E-01
        1   -1    0    0  501    0  0.00000000000E+00  0.00000000000E+00  0.67323639022E+03  0.67323639024E+03  0.50400001928E-02 0.  1.
       -1   -1    0    0    0  501  0.00000000000E+00  0.00000000000E+00 -0.73557492811E+03  0.73557492813E+03  0.50400001928E-02 0. -1.
    10030    2    1    2    0    0  0.00000000000E+00  0.00000000000E+00 -0.62338537894E+02  0.14088113184E+04  0.14074314326E+04 0.  0.
        5    1    3    3  502    0 -0.53724361192E+02  0.70000441877E+03 -0.79187397493E+02  0.70653041492E+03  0.46999998093E+01 0.  1.
       -5    1    3    3    0  502  0.53724361192E+02 -0.70000441877E+03  0.16848859599E+02  0.70228090345E+03  0.46999998093E+01 0. -1.
</event>
<event>
 5   0  0.1706986E-03  0.1395978E+04  0.7818609E-02  0.8956735E-01
       -2   -1    0    0    0  501  0.00000000000E+00  0.00000000000E+00  0.10322223585E+04  0.10322223585E+04  0.25500000920E-02 0. -1.
        2   -1    0    0  501    0  0.00000000000E+00  0.00000000000E+00 -0.47198015108E+03  0.47198015109E+03  0.25500000920E-02 0.  1.
    10030    2    1    2    0    0  0.00000000000E+00  0.00000000000E+00  0.56024220743E+03  0.15042025096E+04  0.13959777430E+04 0.  0.
        3    1    3    3  502    0  0.85473292023E+02  0.46835108557E+03  0.83011353226E+03  0.95694665977E+03  0.10100000352E+00 0. -1.
       -3    1    3    3    0  502 -0.85473292023E+02 -0.46835108557E+03 -0.26987132483E+03  0.54725584983E+03  0.10100000352E+00 0.  1.
</event>
<event>
 5   0  0.1648463E-03  0.1388304E+04  0.7818609E-02  0.8962328E-01
        2   -1    0    0  501    0  0.00000000000E+00  0.00000000000E+00  0.13995460899E+04  0.13995460899E+04  0.25500000920E-02 0.  1.
       -2   -1    0    0    0  501  0.00000000000E+00  0.00000000000E+00 -0.34428828088E+03  0.34428828089E+03  0.25500000920E-02 0. -1.
    10030    2    1    2    0    0  0.00000000000E+00  0.00000000000E+00  0.10552578090E+04  0.17438343708E+04  0.13883044584E+04 0.  0.
        1    1    3    3  502    0  0.56023630492E+02 -0.35295158207E+03  0.12751169233E+04  0.13242494609E+04  0.50400001928E-02 0.  1.
       -1    1    3    3    0  502 -0.56023630492E+02  0.35295158207E+03 -0.21985911431E+03  0.41958490992E+03  0.50400001928E-02 0. -1.
</event>
<event>
 5   0  0.1648213E-03  0.1410833E+04  0.7818609E-02  0.8946015E-01
       -2   -1    0    0    0  501  0.00000000000E+00  0.00000000000E+00  0.30977427553E+03  0.30977427554E+03  0.25500000920E-02 0.  1.
        2   -1    0    0  501    0  0.00000000000E+00  0.00000000000E+00 -0.16063700750E+04  0.16063700750E+04  0.25500000920E-02 0. -1.
    10030    2    1    2    0    0  0.00000000000E+00  0.00000000000E+00 -0.12965957994E+04  0.19161443505E+04  0.14108325573E+04 0.  0.
        4    1    3    3  502    0  0.38216845257E+03 -0.12246699814E+03 -0.14362208583E+04  0.14912353464E+04  0.12699999809E+01 0. -1.
       -4    1    3    3    0  502 -0.38216845257E+03  0.12246699814E+03  0.13962505886E+03  0.42490900407E+03  0.12699999809E+01 0.  1.
</event>
<event>
 5   0  0.9007180E-04  0.1575889E+04  0.7818609E-02  0.8835499E-01
       -1   -1    0    0    0  501  0.00000000000E+00  0.00000000000E+00  0.42574928413E+03  0.42574928416E+03  0.50400001928E-02 0.  1.
        1   -1    0    0  501    0  0.00000000000E+00  0.00000000000E+00 -0.14582684253E+04  0.14582684253E+04  0.50400001928E-02 0. -1.
    10030    2    1    2    0    0  0.00000000000E+00  0.00000000000E+00 -0.10325191412E+04  0.18840177095E+04  0.15758892578E+04 0.  0.
        2    1    3    3  502    0  0.45319610566E+03  0.42296042378E+03  0.65231778900E+02  0.62332769492E+03  0.25500000920E-02 0.  1.
       -2    1    3    3    0  502 -0.45319610566E+03 -0.42296042378E+03 -0.10977509201E+04  0.12606900146E+04  0.25500000920E-02 0. -1.
</event>
<event>
 5   0  0.6048000E-04  0.1433828E+04  0.7818609E-02  0.8929689E-01
       -4   -1    0    0    0  501  0.00000000000E+00  0.00000000000E+00  0.55622335770E+03  0.55622480757E+03  0.12699999809E+01 0. -1.
        4   -1    0    0  501    0  0.00000000000E+00  0.00000000000E+00 -0.92402499042E+03  0.92402586318E+03  0.12699999809E+01 0.  1.
    10030    2    1    2    0    0  0.00000000000E+00  0.00000000000E+00 -0.36780163272E+03  0.14802506708E+04  0.14338284441E+04 0.  0.
        2    1    3    3  502    0 -0.64806586286E+03 -0.18526966603E+02 -0.49980359811E+03  0.81861849954E+03  0.25500000920E-02 0.  1.
       -2    1    3    3    0  502  0.64806586286E+03  0.18526966603E+02  0.13200196539E+03  0.66163217121E+03  0.25500000920E-02 0. -1.
</event>
<event>
 5   0  0.8502300E-04  0.1389802E+04  0.7818609E-02  0.8961234E-01
        1   -1    0    0  501    0  0.00000000000E+00  0.00000000000E+00  0.22634448797E+04  0.22634448797E+04  0.50400001928E-02 0. -1.
       -1   -1    0    0    0  501  0.00000000000E+00  0.00000000000E+00 -0.21334171443E+03  0.21334171449E+03  0.50400001928E-02 0.  1.
    10030    2    1    2    0    0  0.00000000000E+00  0.00000000000E+00  0.20501031653E+04  0.24767865942E+04  0.13898017286E+04 0.  0.
        4    1    3    3  502    0  0.47992069069E+03  0.36457041282E+02  0.13180009406E+03  0.49902491211E+03  0.12699999809E+01 0.  1.
       -4    1    3    3    0  502 -0.47992069069E+03 -0.36457041282E+02  0.19183030712E+04  0.19777616821E+04  0.12699999809E+01 0. -1.
</event>
<event>
 5   0  0.1648463E-03  0.1390648E+04  0.7818609E-02  0.8960616E-01
       -2   -1    0    0    0  501  0.00000000000E+00  0.00000000000E+00  0.28059069515E+03  0.28059069516E+03  0.25500000920E-02 0. -1.
        2   -1    0    0  501    0  0.00000000000E+00  0.00000000000E+00 -0.17230631755E+04  0.17230631755E+04  0.25500000920E-02 0.  1.
    10030    2    1    2    0    0  0.00000000000E+00  0.00000000000E+00 -0.14424724804E+04  0.20036538707E+04  0.13906480420E+04 0.  0.
        1    1    3    3  502    0  0.18646655803E+03 -0.32592014103E+03  0.12195135014E+03  0.39479848964E+03  0.50400001928E-02 0. -1.
       -1    1    3    3    0  502 -0.18646655803E+03  0.32592014103E+03 -0.15644238305E+04  0.16088553810E+04  0.50400001928E-02 0.  1.
</event>
<event>
 5   0  0.6048000E-04  0.1407423E+04  0.7818609E-02  0.8948463E-01
        4   -1    0    0  501    0  0.00000000000E+00  0.00000000000E+00  0.10823431863E+04  0.10823439314E+04  0.12699999809E+01 0. -1.
       -4   -1    0    0    0  501  0.00000000000E+00  0.00000000000E+00 -0.45753336904E+03  0.45753513164E+03  0.12699999809E+01 0.  1.
    10030    2    1    2    0    0  0.00000000000E+00  0.00000000000E+00  0.62480981731E+03  0.15398790631E+04  0.14074232559E+04 0.  0.
        4    1    3    3  502    0  0.60806976358E+03 -0.32377035629E+03  0.15524695717E+03  0.70617229598E+03  0.12699999809E+01 0.  1.
       -4    1    3    3    0  502 -0.60806976358E+03  0.32377035629E+03  0.46956286014E+03  0.83370676711E+03  0.12699999809E+01 0. -1.
</event>
<event>
 5   0  0.1578965E-03  0.1415809E+04  0.7818609E-02  0.8942454E-01
        2   -1    0    0  501    0  0.00000000000E+00  0.00000000000E+00  0.20264669012E+04  0.20264669012E+04  0.25500000920E-02 0. -1.
       -2   -1    0    0    0  501  0.00000000000E+00  0.00000000000E+00 -0.24729193623E+03  0.24729193624E+03  0.25500000920E-02 0.  1.
    10030    2    1    2    0    0  0.00000000000E+00  0.00000000000E+00  0.17791749650E+04  0.22737588374E+04  0.14158092014E+04 0.  0.
        2    1    3    3  502    0 -0.56972869100E+03 -0.21818469966E+03  0.31292368318E+03  0.68565047657E+03  0.25500000920E-02 0.  1.
       -2    1    3    3    0  502  0.56972869100E+03  0.21818469966E+03  0.14662512818E+04  0.15881083609E+04  0.25500000920E-02 0. -1.
</event>
<event>
 5   0  0.9639548E-04  0.1410593E+04  0.7818609E-02  0.8946186E-01
        1   -1    0    0  501    0  0.00000000000E+00  0.00000000000E+00  0.56410406187E+03  0.56410406190E+03  0.50400001928E-02 0. -1.
       -1   -1    0    0    0  501  0.00000000000E+00  0.00000000000E+00 -0.88182926656E+03  0.88182926657E+03  0.50400001928E-02 0.  1.
    10030    2    1    2    0    0  0.00000000000E+00  0.00000000000E+00 -0.31772520468E+03  0.14459333285E+04  0.14105934512E+04 0.  0.
        1    1    3    3  502    0 -0.35756063725E+03  0.60794226152E+03 -0.15859434941E+03  0.72290771911E+03  0.50400001928E-02 0.  1.
       -1    1    3    3    0  502  0.35756063725E+03 -0.60794226152E+03 -0.15913085527E+03  0.72302560935E+03  0.50400001928E-02 0. -1.
</event>
<event>
 5   0  0.8502300E-04  0.1405873E+04  0.7818609E-02  0.8949578E-01
       -1   -1    0    0    0  501  0.00000000000E+00  0.00000000000E+00  0.46095125936E+03  0.46095125938E+03  0.50400001928E-02 0. -1.
        1   -1    0    0  501    0  0.00000000000E+00  0.00000000000E+00 -0.10719570470E+04  0.10719570470E+04  0.50400001928E-02 0.  1.
    10030    2    1    2    0    0  0.00000000000E+00  0.00000000000E+00 -0.61100578763E+03  0.15329083064E+04  0.14058733240E+04 0.  0.
        4    1    3    3  502    0  0.23085147396E+03 -0.16250827095E+03  0.39641896422E+03  0.48667334964E+03  0.12699999809E+01 0. -1.
       -4    1    3    3    0  502 -0.23085147396E+03  0.16250827095E+03 -0.10074247519E+04  0.10462349567E+04  0.12699999809E+01 0.  1.
</event>
<event>
 5   0  0.1578965E-03  0.1388869E+04  0.7818609E-02  0.8961916E-01
       -2   -1    0    0    0  501  0.00000000000E+00  0.00000000000E+00  0.63869233063E+03  0.63869233064E+03  0.25500000920E-02 0. -1.
        2   -1    0    0  501    0  0.00000000000E+00  0.00000000000E+00 -0.75504126096E+03  0.75504126096E+03  0.25500000920E-02 0.  1.
    10030    2    1    2    0    0  0.00000000000E+00  0.00000000000E+00 -0.11634893033E+03  0.13937335916E+04  0.13888686946E+04 0.  0.
        2    1    3    3  502    0 -0.25936305570E+03  0.55077731750E+03  0.27708290367E+03  0.66887949860E+03  0.25500000920E-02 0. -1.
       -2    1    3    3    0  502  0.25936305570E+03 -0.55077731750E+03 -0.39343183400E+03  0.72485409300E+03  0.25500000920E-02 0.  1.
</event>
<event>
 5   0  0.1605214E-03  0.1382634E+04  0.7818609E-02  0.8966486E-01
        2   -1    0    0  501    0  0.00000000000E+00  0.00000000000E+00  0.91555111709E+03  0.91555111709E+03  0.25500000920E-02 0.  1.
       -2   -1    0    0    0  501  0.00000000000E+00  0.00000000000E+00 -0.52200164296E+03  0.52200164297E+03  0.25500000920E-02 0. -1.
    10030    2    1    2    0    0  0.00000000000E+00  0.00000000000E+00  0.39354947413E+03  0.14375527601E+04  0.13826339897E+04 0.  0.
        5    1    3    3  502    0 -0.19255287660E+03 -0.61207627746E+03 -0.70704560741E+02  0.64555031145E+03  0.46999998093E+01 0. -1.
       -5    1    3    3    0  502  0.19255287660E+03  0.61207627746E+03  0.46425403487E+03  0.79200244861E+03  0.46999998093E+01 0.  1.
</event>
<event>
 5   0  0.8502300E-04  0.1421992E+04  0.7818609E-02  0.8938052E-01
       -1   -1    0    0    0  501  0.00000000000E+00  0.00000000000E+00  0.22728697450E+03  0.22728697456E+03  0.50400001928E-02 0.  1.
        1   -1    0    0  501    0  0.00000000000E+00  0.00000000000E+00 -0.22241281286E+04  0.22241281286E+04  0.50400001928E-02 0. -1.
    10030    2    1    2    0    0  0.00000000000E+00  0.00000000000E+00 -0.19968411541E+04  0.24514151032E+04  0.14219920581E+04 0.  0.
        4    1    3    3  502    0  0.47949918332E+03 -0.84551420100E+02 -0.18916183139E+04  0.19532767003E+04  0.12699999809E+01 0. -1.
       -4    1    3    3    0  502 -0.47949918332E+03  0.84551420100E+02 -0.10522284022E+03  0.49813840291E+03  0.12699999809E+01 0.  1.
</event>
<event>
 5   0  0.9007180E-04  0.1413118E+04  0.7818609E-02  0.8944377E-01
        1   -1    0    0  501    0  0.00000000000E+00  0.00000000000E+00  0.10305284466E+04  0.10305284466E+04  0.50400001928E-02 0.  1.
       -1   -1    0    0    0  501  0.00000000000E+00  0.00000000000E+00 -0.48443655764E+03  0.48443655767E+03  0.50400001928E-02 0. -1.
    10030    2    1    2    0    0  0.00000000000E+00  0.00000000000E+00  0.54609188899E+03  0.15149650043E+04  0.14131180464E+04 0.  0.
        2    1    3    3  502    0  0.32866518412E+03 -0.60248122530E+03  0.45314526517E+03  0.82240200720E+03  0.25500000920E-02 0.  1.
       -2    1    3    3    0  502 -0.32866518412E+03  0.60248122530E+03  0.92946623824E+02  0.69256299712E+03  0.25500000920E-02 0. -1.
</event>
<event>
 5   0  0.1648213E-03  0.1404950E+04  0.7818609E-02  0.8950243E-01
        2   -1    0    0  501    0  0.00000000000E+00  0.00000000000E+00  0.43955686798E+03  0.43955686799E+03  0.25500000920E-02 0. -1.
       -2   -1    0    0    0  501  0.00000000000E+00  0.00000000000E+00 -0.11226562939E+04  0.11226562939E+04  0.25500000920E-02 0.  1.
    10030    2    1    2    0    0  0.00000000000E+00  0.00000000000E+00 -0.68309942587E+03  0.15622131618E+04  0.14049502260E+04 0.  0.
        4    1    3    3  502    0 -0.25932639364E+03  0.61528839816E+03 -0.58424635767E+03  0.88722906326E+03  0.12699999809E+01 0.  1.
       -4    1    3    3    0  502  0.25932639364E+03 -0.61528839816E+03 -0.98853068196E+02  0.67498409858E+03  0.12699999809E+01 0. -1.
</event>
<event>
 5   0  0.6048000E-04  0.1447010E+04  0.7818609E-02  0.8920476E-01
       -3   -1    0    0    0  501  0.00000000000E+00  0.00000000000E+00  0.38892497680E+03  0.38892498991E+03  0.10100000352E+00 0.  1.
        3   -1    0    0  501    0  0.00000000000E+00  0.00000000000E+00 -0.13459137189E+04  0.13459137226E+04  0.10100000352E+00 0. -1.
    10030    2    1    2    0    0  0.00000000000E+00  0.00000000000E+00 -0.95698874206E+03  0.17348387126E+04  0.14470099883E+04 0.  0.
        2    1    3    3  502    0 -0.45095894552E+03 -0.29192662926E+03 -0.10595334873E+04  0.11879378512E+04  0.25500000920E-02 0. -1.
       -2    1    3    3    0  502  0.45095894552E+03  0.29192662926E+03  0.10254474528E+03  0.54690086140E+03  0.25500000920E-02 0.  1.
</event>
<event>
 5   0  0.1648213E-03  0.1411782E+04  0.7818609E-02  0.8945334E-01
        2   -1    0    0  501    0  0.00000000000E+00  0.00000000000E+00  0.65064547164E+03  0.65064547164E+03  0.25500000920E-02 0.  1.
       -2   -1    0    0    0  501  0.00000000000E+00  0.00000000000E+00 -0.76582788620E+03  0.76582788620E+03  0.25500000920E-02 0. -1.
    10030    2    1    2    0    0  0.00000000000E+00  0.00000000000E+00 -0.11518241456E+03  0.14164733578E+04  0.14117824850E+04 0.  0.
        4    1    3    3  502    0  0.63019895528E+03 -0.74452594215E+02 -0.36778982464E+03  0.73346089196E+03  0.12699999809E+01 0. -1.
       -4    1    3    3    0  502 -0.63019895528E+03  0.74452594215E+02  0.25260741008E+03  0.68301246588E+03  0.12699999809E+01 0.  1.
</event>
<event>
 5   0  0.1648213E-03  0.1386495E+04  0.7818609E-02  0.8963652E-01
       -2   -1    0    0    0  501  0.00000000000E+00  0.00000000000E+00  0.78194853859E+03  0.78194853859E+03  0.25500000920E-02 0. -1.
        2   -1    0    0  501    0  0.00000000000E+00  0.00000000000E+00 -0.61460862625E+03  0.61460862626E+03  0.25500000920E-02 0.  1.
    10030    2    1    2    0    0  0.00000000000E+00  0.00000000000E+00  0.16733991233E+03  0.13965571649E+04  0.13864953186E+04 0.  0.
        4    1    3    3  502    0 -0.53007935063E+03  0.37633790027E+03  0.32620015548E+03  0.72733932073E+03  0.12699999809E+01 0. -1.
       -4    1    3    3    0  502  0.53007935063E+03 -0.37633790027E+03 -0.15886024315E+03  0.66921784412E+03  0.12699999809E+01 0.  1.
</event>
<event>
 5   0  0.1605214E-03  0.1405209E+04  0.7818609E-02  0.8950057E-01
        2   -1    0    0  501    0  0.00000000000E+00  0.00000000000E+00  0.62583862978E+03  0.62583862978E+03  0.25500000920E-02 0. -1.
       -2   -1    0    0    0  501  0.00000000000E+00  0.00000000000E+00 -0.78878649012E+03  0.78878649012E+03  0.25500000920E-02 0.  1.
    10030    2    1    2    0    0  0.00000000000E+00  0.00000000000E+00 -0.16294786034E+03  0.14146251199E+04  0.14052089612E+04 0.  0.
        5    1    3    3  502    0 -0.57050192263E+03 -0.39905959485E+03 -0.17649904124E+03  0.71825831392E+03  0.46999998093E+01 0. -1.
       -5    1    3    3    0  502  0.57050192263E+03  0.39905959485E+03  0.13551180901E+02  0.69636680598E+03  0.46999998093E+01 0.  1.
</event>
<event>
 5   0  0.9007180E-04  0.1285760E+04  0.7818609E-02  0.9040934E-01
        1   -1    0    0  501    0  0.00000000000E+00  0.00000000000E+00  0.88016963029E+03  0.88016963031E+03  0.50400001928E-02 0.  1.
       -1   -1    0    0    0  501  0.00000000000E+00  0.00000000000E+00 -0.46956257957E+03  0.46956257959E+03  0.50400001928E-02 0. -1.
    10030    2    1    2    0    0  0.00000000000E+00  0.00000000000E+00  0.41060705073E+03  0.13497322099E+04  0.12857600431E+04 0.  0.
        2    1    3    3  502    0  0.36772580732E+02  0.39208142069E+03 -0.32812733057E+03  0.51258912222E+03  0.25500000920E-02 0. -1.
       -2    1    3    3    0  502 -0.36772580732E+02 -0.39208142069E+03  0.73873438129E+03  0.83714308768E+03  0.25500000920E-02 0.  1.
</event>
<event>
 5   0  0.9639548E-04  0.1400979E+04  0.7818609E-02  0.8953110E-01
        1   -1    0    0  501    0  0.00000000000E+00  0.00000000000E+00  0.77737140437E+03  0.77737140439E+03  0.50400001928E-02 0.  1.
       -1   -1    0    0    0  501  0.00000000000E+00  0.00000000000E+00 -0.63121160560E+03  0.63121160562E+03  0.50400001928E-02 0. -1.
    10030    2    1    2    0    0  0.00000000000E+00  0.00000000000E+00  0.14615979877E+03  0.14085830100E+04  0.14009794464E+04 0.  0.
        1    1    3    3  502    0  0.16490903857E+03  0.59780861744E+03 -0.25444214846E+03  0.67030660226E+03  0.50400001928E-02 0. -1.
       -1    1    3    3    0  502 -0.16490903857E+03 -0.59780861744E+03  0.40060194724E+03  0.73827640775E+03  0.50400001928E-02 0.  1.
</event>
<event>
 5   0  0.8609148E-04  0.1419887E+04  0.7818609E-02  0.8939548E-01
       -1   -1    0    0    0  501  0.00000000000E+00  0.00000000000E+00  0.90772036474E+03  0.90772036476E+03  0.50400001928E-02 0. -1.
        1   -1    0    0  501    0  0.00000000000E+00  0.00000000000E+00 -0.55525862566E+03  0.55525862568E+03  0.50400001928E-02 0.  1.
    10030    2    1    2    0    0  0.00000000000E+00  0.00000000000E+00  0.35246173908E+03  0.14629789904E+04  0.14198867029E+04 0.  0.
        5    1    3    3  502    0  0.15699911936E+02 -0.21641795824E+03  0.87269980406E+03  0.89928319115E+03  0.46999998093E+01 0. -1.
       -5    1    3    3    0  502 -0.15699911936E+02  0.21641795824E+03 -0.52023806498E+03  0.56369579929E+03  0.46999998093E+01 0.  1.
</event>
<event>
 5   0  0.1648463E-03  0.1380494E+04  0.7818609E-02  0.8968060E-01
       -2   -1    0    0    0  501  0.00000000000E+00  0.00000000000E+00  0.38823704451E+03  0.38823704452E+03  0.25500000920E-02 0. -1.
        2   -1    0    0  501    0  0.00000000000E+00  0.00000000000E+00 -0.12271915240E+04  0.12271915240E+04  0.25500000920E-02 0.  1.
    10030    2    1    2    0    0  0.00000000000E+00  0.00000000000E+00 -0.83895447950E+03  0.16154285685E+04  0.13804944192E+04 0.  0.
        1    1    3    3  502    0 -0.46201283646E+03  0.42763312041E+03 -0.88261675473E+02  0.63570124281E+03  0.50400001928E-02 0. -1.
       -1    1    3    3    0  502  0.46201283646E+03 -0.42763312041E+03 -0.75069280403E+03  0.97972732573E+03  0.50400001928E-02 0.  1.
</event>
<event>
 5   0  0.6048000E-04  0.1384829E+04  0.7818609E-02  0.8964874E-01
        4   -1    0    0  501    0  0.00000000000E+00  0.00000000000E+00  0.69240035711E+03  0.69240152182E+03  0.12699999809E+01 0.  1.
       -4   -1    0    0    0  501  0.00000000000E+00  0.00000000000E+00 -0.69242648203E+03  0.69242764670E+03  0.12699999809E+01 0. -1.
    10030    2    1    2    0    0  0.00000000000E+00  0.00000000000E+00 -0.26124922153E-01  0.13848291685E+04  0.13848291683E+04 0.  0.
        4    1    3    3  502    0 -0.72090497328E+02  0.48574565791E+03 -0.48816310039E+03  0.69242379326E+03  0.12699999809E+01 0. -1.
       -4    1    3    3    0  502  0.72090497328E+02 -0.48574565791E+03  0.48813697547E+03  0.69240537527E+03  0.12699999809E+01 0.  1.
</event>
<event>
 5   0  0.1648213E-03  0.1391846E+04  0.7818609E-02  0.8959742E-01
        2   -1    0    0  501    0  0.00000000000E+00  0.00000000000E+00  0.10356131741E+04  0.10356131741E+04  0.25500000920E-02 0.  1.
       -2   -1    0    0    0  501  0.00000000000E+00  0.00000000000E+00 -0.46765426143E+03  0.46765426144E+03  0.25500000920E-02 0. -1.
    10030    2    1    2    0    0  0.00000000000E+00  0.00000000000E+00  0.56795891264E+03  0.15032674355E+04  0.13918461324E+04 0.  0.
        4    1    3    3  502    0 -0.88644648683E+02  0.68748607216E+03  0.21729261417E+03  0.72643834303E+03  0.12699999809E+01 0. -1.
       -4    1    3    3    0  502  0.88644648683E+02 -0.68748607216E+03  0.35066629847E+03  0.77682909248E+03  0.12699999809E+01 0.  1.
</event>
<event>
 5   0  0.8609148E-04  0.1395081E+04  0.7818609E-02  0.8957387E-01
       -1   -1    0    0    0  501  0.00000000000E+00  0.00000000000E+00  0.59533585166E+03  0.59533585168E+03  0.50400001928E-02 0.  1.
        1   -1    0    0  501    0  0.00000000000E+00  0.00000000000E+00 -0.81729128992E+03  0.81729128994E+03  0.50400001928E-02 0. -1.
    10030    2    1    2    0    0  0.00000000000E+00  0.00000000000E+00 -0.22195543826E+03  0.14126271416E+04  0.13950810818E+04 0.  0.
        5    1    3    3  502    0 -0.11396619493E+03 -0.28942674256E+03  0.52120180597E+03  0.60698397461E+03  0.46999998093E+01 0.  1.
       -5    1    3    3    0  502  0.11396619493E+03  0.28942674256E+03 -0.74315724423E+03  0.80564316701E+03  0.46999998093E+01 0. -1.
</event>
<event>
 5   0  0.8673728E-04  0.1400714E+04  0.7818609E-02  0.8953302E-01
        1   -1    0    0  501    0  0.00000000000E+00  0.00000000000E+00  0.71620606211E+03  0.71620606213E+03  0.50400001928E-02 0.  1.
       -1   -1    0    0    0  501  0.00000000000E+00  0.00000000000E+00 -0.68485913980E+03  0.68485913981E+03  0.50400001928E-02 0. -1.
    10030    2    1    2    0    0  0.00000000000E+00  0.00000000000E+00  0.31346922319E+02  0.14010652019E+04  0.14007144857E+04 0.  0.
        3    1    3    3  502    0  0.32171748049E+03 -0.24273827815E+03 -0.55724936002E+03  0.68771423453E+03  0.10100000352E+00 0. -1.
       -3    1    3    3    0  502 -0.32171748049E+03  0.24273827815E+03  0.58859628234E+03  0.71335096742E+03  0.10100000352E+00 0.  1.
</event>
<event>
 5   0  0.9007180E-04  0.1372967E+04  0.7818609E-02  0.8973622E-01
       -1   -1    0    0    0  501  0.00000000000E+00  0.00000000000E+00  0.66593786190E+03  0.66593786192E+03  0.50400001928E-02 0.  1.
        1   -1    0    0  501    0  0.00000000000E+00  0.00000000000E+00 -0.70766265850E+03  0.70766265852E+03  0.50400001928E-02 0. -1.
    10030    2    1    2    0    0  0.00000000000E+00  0.00000000000E+00 -0.41724796600E+02  0.13736005204E+04  0.13729666533E+04 0.  0.
        2    1    3    3  502    0 -0.28884399409E+03  0.62232286647E+03  0.24454542592E+01  0.68609225568E+03  0.25500000920E-02 0.  1.
       -2    1    3    3    0  502  0.28884399409E+03 -0.62232286647E+03 -0.44170250859E+02  0.68750826476E+03  0.25500000920E-02 0. -1.
</event>
<event>
 5   0  0.9007180E-04  0.1414518E+04  0.7818609E-02  0.8943376E-01
       -1   -1    0    0    0  501  0.00000000000E+00  0.00000000000E+00  0.41653501511E+03  0.41653501514E+03  0.50400001928E-02 0. -1.
        1   -1    0    0  501    0  0.00000000000E+00  0.00000000000E+00 -0.12008968631E+04  0.12008968631E+04  0.50400001928E-02 0.  1.
    10030    2    1    2    0    0  0.00000000000E+00  0.00000000000E+00 -0.78436184797E+03  0.16174318782E+04  0.14145184241E+04 0.  0.
        2    1    3    3  502    0 -0.29864992991E+03  0.64103458128E+03 -0.40352807958E+03  0.81421865985E+03  0.25500000920E-02 0.  1.
       -2    1    3    3    0  502  0.29864992991E+03 -0.64103458128E+03 -0.38083376839E+03  0.80321321838E+03  0.25500000920E-02 0. -1.
</event>
<event>
 5   0  0.8609148E-04  0.1405334E+04  0.7818609E-02  0.8949967E-01
       -1   -1    0    0    0  501  0.00000000000E+00  0.00000000000E+00  0.59726915541E+03  0.59726915543E+03  0.50400001928E-02 0.  1.
        1   -1    0    0  501    0  0.00000000000E+00  0.00000000000E+00 -0.82666349707E+03  0.82666349708E+03  0.50400001928E-02 0. -1.
    10030    2    1    2    0    0  0.00000000000E+00  0.00000000000E+00 -0.22939434166E+03  0.14239326525E+04  0.14053335671E+04 0.  0.
        5    1    3    3  502    0 -0.21156739598E+03 -0.37348768104E+03 -0.67835506441E+03  0.80277113447E+03  0.46999998093E+01 0. -1.
       -5    1    3    3    0  502  0.21156739598E+03  0.37348768104E+03  0.44896072275E+03  0.62116151805E+03  0.46999998093E+01 0.  1.
</event>
<event>
 5   0  0.1648463E-03  0.1392685E+04  0.7818609E-02  0.8959130E-01
        2   -1    0    0  501    0  0.00000000000E+00  0.00000000000E+00  0.22625367092E+04  0.22625367092E+04  0.25500000920E-02 0. -1.
       -2   -1    0    0    0  501  0.00000000000E+00  0.00000000000E+00 -0.21431391252E+03  0.21431391254E+03  0.25500000920E-02 0.  1.
    10030    2    1    2    0    0  0.00000000000E+00  0.00000000000E+00  0.20482227967E+04  0.24768506218E+04  0.13926853118E+04 0.  0.
        1    1    3    3  502    0  0.28407006357E+03  0.53734222290E+03  0.16284269619E+04  0.17381619130E+04  0.50400001928E-02 0. -1.
       -1    1    3    3    0  502 -0.28407006357E+03 -0.53734222290E+03  0.41979583482E+03  0.73868870878E+03  0.50400001928E-02 0.  1.
</event>
<event>
 5   0  0.8502300E-04  0.1406659E+04  0.7818609E-02  0.8949013E-01
        1   -1    0    0  501    0  0.00000000000E+00  0.00000000000E+00  0.92427789265E+03  0.92427789266E+03  0.50400001928E-02 0.  1.
       -1   -1    0    0    0  501  0.00000000000E+00  0.00000000000E+00 -0.53519864147E+03  0.53519864149E+03  0.50400001928E-02 0. -1.
    10030    2    1    2    0    0  0.00000000000E+00  0.00000000000E+00  0.38907925118E+03  0.14594765341E+04  0.14066588392E+04 0.  0.
        4    1    3    3  502    0 -0.10633196042E+03  0.20853167436E+03 -0.49359721747E+03  0.54628909106E+03  0.12699999809E+01 0. -1.
       -4    1    3    3    0  502  0.10633196042E+03 -0.20853167436E+03  0.88267646865E+03  0.91318744309E+03  0.12699999809E+01 0.  1.
</event>
<event>
 5   0  0.9639548E-04  0.1252658E+04  0.7818609E-02  0.9067974E-01
       -1   -1    0    0    0  501  0.00000000000E+00  0.00000000000E+00  0.35685716869E+03  0.35685716873E+03  0.50400001928E-02 0.  1.
        1   -1    0    0  501    0  0.00000000000E+00  0.00000000000E+00 -0.10992850769E+04  0.10992850769E+04  0.50400001928E-02 0. -1.
    10030    2    1    2    0    0  0.00000000000E+00  0.00000000000E+00 -0.74242790822E+03  0.14561422456E+04  0.12526575911E+04 0.  0.
        1    1    3    3  502    0  0.72654688905E+02 -0.24519484749E+03 -0.10358306959E+04  0.10669322601E+04  0.50400001928E-02 0. -1.
       -1    1    3    3    0  502 -0.72654688905E+02  0.24519484749E+03  0.29340278764E+03  0.38920998558E+03  0.50400001928E-02 0.  1.
</event>
<event>
 5   0  0.1648213E-03  0.1277090E+04  0.7818609E-02  0.9047933E-01
       -2   -1    0    0    0  501  0.00000000000E+00  0.00000000000E+00  0.53772599122E+03  0.53772599122E+03  0.25500000920E-02 0. -1.
        2   -1    0    0  501    0  0.00000000000E+00  0.00000000000E+00 -0.75826650894E+03  0.75826650894E+03  0.25500000920E-02 0.  1.
    10030    2    1    2    0    0  0.00000000000E+00  0.00000000000E+00 -0.22054051772E+03  0.12959925002E+04  0.12770898326E+04 0.  0.
        4    1    3    3  502    0  0.59563015813E+03  0.94167898515E+02  0.10282623282E+03  0.61173337773E+03  0.12699999809E+01 0. -1.
       -4    1    3    3    0  502 -0.59563015813E+03 -0.94167898515E+02 -0.32336675053E+03  0.68425912243E+03  0.12699999809E+01 0.  1.
</event>
<event>
 5   0  0.8609148E-04  0.1366384E+04  0.7818609E-02  0.8978517E-01
        1   -1    0    0  501    0  0.00000000000E+00  0.00000000000E+00  0.16366261645E+04  0.16366261645E+04  0.50400001928E-02 0. -1.
       -1   -1    0    0    0  501  0.00000000000E+00  0.00000000000E+00 -0.28519116132E+03  0.28519116136E+03  0.50400001928E-02 0.  1.
    10030    2    1    2    0    0  0.00000000000E+00  0.00000000000E+00  0.13514350032E+04  0.19218173259E+04  0.13663840113E+04 0.  0.
        5    1    3    3  502    0  0.37926467706E+03 -0.30669370532E+03  0.29074142555E+01  0.48778403747E+03  0.46999998093E+01 0.  1.
       -5    1    3    3    0  502 -0.37926467706E+03  0.30669370532E+03  0.13485275890E+04  0.14340332884E+04  0.46999998093E+01 0. -1.
</event>
<event>
 5   0  0.8609148E-04  0.1214950E+04  0.7818609E-02  0.9099871E-01
        1   -1    0    0  501    0  0.00000000000E+00  0.00000000000E+00  0.86115085779E+03  0.86115085780E+03  0.50400001928E-02 0.  1.
       -1   -1    0    0    0  501  0.00000000000E+00  0.00000000000E+00 -0.42852608052E+03  0.42852608055E+03  0.50400001928E-02 0. -1.
    10030    2    1    2    0    0  0.00000000000E+00  0.00000000000E+00  0.43262477727E+03  0.12896769384E+04  0.12149495493E+04 0.  0.
        5    1    3    3  502    0 -0.71667366704E+02 -0.39270377863E+03 -0.26972670577E+03  0.48179565690E+03  0.46999998093E+01 0. -1.
       -5    1    3    3    0  502  0.71667366704E+02  0.39270377863E+03  0.70235148304E+03  0.80788128146E+03  0.46999998093E+01 0.  1.
</event>
<event>
 5   0  0.9007180E-04  0.1396403E+04  0.7818609E-02  0.8956426E-01
       -1   -1    0    0    0  501  0.00000000000E+00  0.00000000000E+00  0.51571650326E+03  0.51571650329E+03  0.50400001928E-02 0.  1.
        1   -1    0    0  501    0  0.00000000000E+00  0.00000000000E+00 -0.94525841036E+03  0.94525841037E+03  0.50400001928E-02 0. -1.
    10030    2    1    2    0    0  0.00000000000E+00  0.00000000000E+00 -0.42954190709E+03  0.14609749137E+04  0.13964030394E+04 0.  0.
        2    1    3    3  502    0  0.34387930851E+03  0.41202870114E+02 -0.84905114921E+03  0.91697246922E+03  0.25500000920E-02 0. -1.
       -2    1    3    3    0  502 -0.34387930851E+03 -0.41202870114E+02  0.41950924212E+03  0.54400244444E+03  0.25500000920E-02 0.  1.
</event>
<event>
 5   0  0.1648463E-03  0.1448753E+04  0.7818609E-02  0.8919265E-01
        2   -1    0    0  501    0  0.00000000000E+00  0.00000000000E+00  0.22860180993E+04  0.22860180993E+04  0.25500000920E-02 0.  1.
       -2   -1    0    0    0  501  0.00000000000E+00  0.00000000000E+00 -0.22953520066E+03  0.22953520068E+03  0.25500000920E-02 0. -1.
    10030    2    1    2    0    0  0.00000000000E+00  0.00000000000E+00  0.20564828986E+04  0.25155533000E+04  0.14487534271E+04 0.  0.
        1    1    3    3  502    0 -0.45221551812E+03  0.37711268955E+03  0.17608293543E+04  0.18566725264E+04  0.50400001928E-02 0. -1.
       -1    1    3    3    0  502  0.45221551812E+03 -0.37711268955E+03  0.29565354436E+03  0.65888077356E+03  0.50400001928E-02 0.  1.
</event>
<event>
 5   0  0.8502300E-04  0.1410521E+04  0.7818609E-02  0.8946238E-01
        1   -1    0    0  501    0  0.00000000000E+00  0.00000000000E+00  0.13439929767E+04  0.13439929767E+04  0.50400001928E-02 0.  1.
       -1   -1    0    0    0  501  0.00000000000E+00  0.00000000000E+00 -0.37008540028E+03  0.37008540031E+03  0.50400001928E-02 0. -1.
    10030    2    1    2    0    0  0.00000000000E+00  0.00000000000E+00  0.97390757644E+03  0.17140783770E+04  0.14105207248E+04 0.  0.
        4    1    3    3  502    0  0.52219835508E+03 -0.12257067754E+03 -0.69495299220E+02  0.54087512658E+03  0.12699999809E+01 0. -1.
       -4    1    3    3    0  502 -0.52219835508E+03  0.12257067754E+03  0.10434028757E+04  0.11732032505E+04  0.12699999809E+01 0.  1.
</event>
<event>
 5   0  0.1648463E-03  0.1349612E+04  0.7818609E-02  0.8991122E-01
        2   -1    0    0  501    0  0.00000000000E+00  0.00000000000E+00  0.80042905853E+03  0.80042905853E+03  0.25500000920E-02 0. -1.
       -2   -1    0    0    0  501  0.00000000000E+00  0.00000000000E+00 -0.56889885533E+03  0.56889885533E+03  0.25500000920E-02 0.  1.
    10030    2    1    2    0    0  0.00000000000E+00  0.00000000000E+00  0.23153020320E+03  0.13693279139E+04  0.13496120556E+04 0.  0.
        1    1    3    3  502    0  0.58528611425E+03  0.32461271373E+03  0.20322133073E+03  0.69945132692E+03  0.50400001928E-02 0. -1.
       -1    1    3    3    0  502 -0.58528611425E+03 -0.32461271373E+03  0.28308872472E+02  0.66987658694E+03  0.50400001928E-02 0.  1.
</event>
<event>
 5   0  0.1706986E-03  0.1401876E+04  0.7818609E-02  0.8952462E-01
       -2   -1    0    0    0  501  0.00000000000E+00  0.00000000000E+00  0.85492749411E+03  0.85492749411E+03  0.25500000920E-02 0.  1.
        2   -1    0    0  501    0  0.00000000000E+00  0.00000000000E+00 -0.57468511058E+03  0.57468511059E+03  0.25500000920E-02 0. -1.
    10030    2    1    2    0    0  0.00000000000E+00  0.00000000000E+00  0.28024238353E+03  0.14296126047E+04  0.14018760309E+04 0.  0.
        3    1    3    3  502    0 -0.39913963537E+03  0.26611162210E+03  0.66129659508E+03  0.81697064868E+03  0.10100000352E+00 0.  1.
       -3    1    3    3    0  502  0.39913963537E+03 -0.26611162210E+03 -0.38105421155E+03  0.61264195602E+03  0.10100000352E+00 0. -1.
</event>
<event>
 5   0  0.1706986E-03  0.1370981E+04  0.7818609E-02  0.8975096E-01
       -2   -1    0    0    0  501  0.00000000000E+00  0.00000000000E+00  0.90113162531E+03  0.90113162531E+03  0.25500000920E-02 0.  1.
        2   -1    0    0  501    0  0.00000000000E+00  0.00000000000E+00 -0.52145270828E+03  0.52145270829E+03  0.25500000920E-02 0. -1.
    10030    2    1    2    0    0  0.00000000000E+00  0.00000000000E+00  0.37967891702E+03  0.14225843336E+04  0.13709814390E+04 0.  0.
        3    1    3    3  502    0 -0.41453197232E+03  0.24210834800E+03  0.69758802434E+03  0.84680710327E+03  0.10100000352E+00 0.  1.
       -3    1    3    3    0  502  0.41453197232E+03 -0.24210834800E+03 -0.31790910732E+03  0.57577723033E+03  0.10100000352E+00 0. -1.
</event>
<event>
 5   0  0.9639548E-04  0.1401041E+04  0.7818609E-02  0.8953065E-01
       -1   -1    0    0    0  501  0.00000000000E+00  0.00000000000E+00  0.24980052647E+03  0.24980052652E+03  0.50400001928E-02 0. -1.
        1   -1    0    0  501    0  0.00000000000E+00  0.00000000000E+00 -0.19644842822E+04  0.19644842822E+04  0.50400001928E-02 0.  1.
    10030    2    1    2    0    0  0.00000000000E+00  0.00000000000E+00 -0.17146837557E+04  0.22142848087E+04  0.14010413384E+04 0.  0.
        1    1    3    3  502    0 -0.66243969500E+03 -0.10269244928E+03 -0.53593314588E+03  0.85825195924E+03  0.50400001928E-02 0. -1.
       -1    1    3    3    0  502  0.66243969500E+03  0.10269244928E+03 -0.11787506098E+04  0.13560328495E+04  0.50400001928E-02 0.  1.
</event>
<event>
 5   0  0.8609148E-04  0.1359220E+04  0.7818609E-02  0.8983878E-01
        1   -1    0    0  501    0  0.00000000000E+00  0.00000000000E+00  0.52891933441E+03  0.52891933444E+03  0.50400001928E-02 0.  1.
       -1   -1    0    0    0  501  0.00000000000E+00  0.00000000000E+00 -0.87323346887E+03  0.87323346889E+03  0.50400001928E-02 0. -1.
    10030    2    1    2    0    0  0.00000000000E+00  0.00000000000E+00 -0.34431413446E+03  0.14021528033E+04  0.13592204607E+04 0.  0.
        5    1    3    3  502    0  0.54099606200E+03  0.25940874284E+03  0.15710854142E+03  0.62022158842E+03  0.46999998093E+01 0.  1.
       -5    1    3    3    0  502 -0.54099606200E+03 -0.25940874284E+03 -0.50142267587E+03  0.78193121490E+03  0.46999998093E+01 0. -1.
</event>
<event>
 5   0  0.1706986E-03  0.1374405E+04  0.7818609E-02  0.8972557E-01
        2   -1    0    0  501    0  0.00000000000E+00  0.00000000000E+00  0.95769046264E+03  0.95769046265E+03  0.25500000920E-02 0. -1.
       -2   -1    0    0    0  501  0.00000000000E+00  0.00000000000E+00 -0.49311048777E+03  0.49311048778E+03  0.25500000920E-02 0.  1.
    10030    2    1    2    0    0  0.00000000000E+00  0.00000000000E+00  0.46457997487E+03  0.14508009504E+04  0.13744049057E+04 0.  0.
        3    1    3    3  502    0 -0.35971980763E+02 -0.24377359345E+03 -0.44487211754E+03  0.50855752814E+03  0.10100000352E+00 0.  1.
       -3    1    3    3    0  502  0.35971980763E+02  0.24377359345E+03  0.90945209241E+03  0.94224342229E+03  0.10100000352E+00 0. -1.
</event>
<event>
 5   0  0.8609148E-04  0.1401789E+04  0.7818609E-02  0.8952524E-01
        1   -1    0    0  501    0  0.00000000000E+00  0.00000000000E+00  0.62160251679E+03  0.62160251681E+03  0.50400001928E-02 0. -1.
       -1   -1    0    0    0  501  0.00000000000E+00  0.00000000000E+00 -0.79030152117E+03  0.79030152118E+03  0.50400001928E-02 0.  1.
    10030    2    1    2    0    0  0.00000000000E+00  0.00000000000E+00 -0.16869900438E+03  0.14119040380E+04  0.14017894487E+04 0.  0.
        5    1    3    3  502    0  0.42564293381E+03  0.24939287663E+03  0.41710080693E+03  0.64603706330E+03  0.46999998093E+01 0. -1.
       -5    1    3    3    0  502 -0.42564293381E+03 -0.24939287663E+03 -0.58579981131E+03  0.76586697470E+03  0.46999998093E+01 0.  1.
</event>
<event>
 5   0  0.1578965E-03  0.1389850E+04  0.7818609E-02  0.8961199E-01
       -2   -1    0    0    0  501  0.00000000000E+00  0.00000000000E+00  0.31878468924E+03  0.31878468925E+03  0.25500000920E-02 0.  1.
        2   -1    0    0  501    0  0.00000000000E+00  0.00000000000E+00 -0.15148803872E+04  0.15148803872E+04  0.25500000920E-02 0. -1.
    10030    2    1    2    0    0  0.00000000000E+00  0.00000000000E+00 -0.11960956980E+04  0.18336650764E+04  0.13898498818E+04 0.  0.
        2    1    3    3  502    0 -0.42812681208E+03  0.42539721090E+03 -0.14356863514E+03  0.62037674623E+03  0.25500000920E-02 0.  1.
       -2    1    3    3    0  502  0.42812681208E+03 -0.42539721090E+03 -0.10525270628E+04  0.12132883302E+04  0.25500000920E-02 0. -1.
</event>
<event>
 5   0  0.8673728E-04  0.1390748E+04  0.7818609E-02  0.8960543E-01
       -1   -1    0    0    0  501  0.00000000000E+00  0.00000000000E+00  0.43211003933E+03  0.43211003936E+03  0.50400001928E-02 0. -1.
        1   -1    0    0  501    0  0.00000000000E+00  0.00000000000E+00 -0.11190326319E+04  0.11190326319E+04  0.50400001928E-02 0.  1.
    10030    2    1    2    0    0  0.00000000000E+00  0.00000000000E+00 -0.68692259259E+03  0.15511426713E+04  0.13907483376E+04 0.  0.
        3    1    3    3  502    0  0.40945202683E+03 -0.40976857675E+03 -0.77251389930E+03  0.96557702105E+03  0.10100000352E+00 0.  1.
       -3    1    3    3    0  502 -0.40945202683E+03  0.40976857675E+03  0.85591306705E+02  0.58556565025E+03  0.10100000352E+00 0. -1.
</event>
<event>
 5   0  0.8673728E-04  0.1379824E+04  0.7818609E-02  0.8968554E-01
       -1   -1    0    0    0  501  0.00000000000E+00  0.00000000000E+00  0.44830058393E+03  0.44830058396E+03  0.50400001928E-02 0. -1.
        1   -1    0    0  501    0  0.00000000000E+00  0.00000000000E+00 -0.10617396415E+04  0.10617396415E+04  0.50400001928E-02 0.  1.
    10030    2    1    2    0    0  0.00000000000E+00  0.00000000000E+00 -0.61343905755E+03  0.15100402255E+04  0.13798239037E+04 0.  0.
        3    1    3    3  502    0 -0.30293943051E+03 -0.31781629318E+03 -0.88910523472E+03  0.99160860392E+03  0.10100000352E+00 0.  1.
       -3    1    3    3    0  502  0.30293943051E+03  0.31781629318E+03  0.27566617716E+03  0.51843162153E+03  0.10100000352E+00 0. -1.
</event>
<event>
 5   0  0.8502300E-04  0.1397685E+04  0.7818609E-02  0.8955496E-01
        1   -1    0    0  501    0  0.00000000000E+00  0.00000000000E+00  0.85059470300E+03  0.85059470301E+03  0.50400001928E-02 0.  1.
       -1   -1    0    0    0  501  0.00000000000E+00  0.00000000000E+00 -0.57416438209E+03  0.57416438211E+03  0.50400001928E-02 0. -1.
    10030    2    1    2    0    0  0.00000000000E+00  0.00000000000E+00  0.27643032091E+03  0.14247590851E+04  0.13976854898E+04 0.  0.
        4    1    3    3  502    0  0.35624601526E+03 -0.54410350647E+03 -0.12251202657E+03  0.66179351666E+03  0.12699999809E+01 0. -1.
       -4    1    3    3    0  502 -0.35624601526E+03  0.54410350647E+03  0.39894234747E+03  0.76296556846E+03  0.12699999809E+01 0.  1.
</event>
<event>
 5   0  0.1648213E-03  0.1432271E+04  0.7818609E-02  0.8930785E-01
       -2   -1    0    0    0  501  0.00000000000E+00  0.00000000000E+00  0.45557482500E+03  0.45557482501E+03  0.25500000920E-02 0. -1.
        2   -1    0    0  501    0  0.00000000000E+00  0.00000000000E+00 -0.11257201433E+04  0.11257201433E+04  0.25500000920E-02 0.  1.
    10030    2    1    2    0    0  0.00000000000E+00  0.00000000000E+00 -0.67014531834E+03  0.15812949683E+04  0.14322705852E+04 0.  0.
        4    1    3    3  502    0  0.35408225661E+03  0.44895371939E+03 -0.81111370253E+03  0.99239142375E+03  0.12699999809E+01 0.  1.
       -4    1    3    3    0  502 -0.35408225661E+03 -0.44895371939E+03  0.14096838419E+03  0.58890354460E+03  0.12699999809E+01 0. -1.
</event>
<event>
 5   0  0.8673728E-04  0.1419318E+04  0.7818609E-02  0.8939953E-01
       -1   -1    0    0    0  501  0.00000000000E+00  0.00000000000E+00  0.71395076149E+03  0.71395076151E+03  0.50400001928E-02 0. -1.
        1   -1    0    0  501    0  0.00000000000E+00  0.00000000000E+00 -0.70539255286E+03  0.70539255288E+03  0.50400001928E-02 0.  1.
    10030    2    1    2    0    0  0.00000000000E+00  0.00000000000E+00  0.85582086330E+01  0.14193433144E+04  0.14193175125E+04 0.  0.
        3    1    3    3  502    0  0.10681730779E+03 -0.27953441187E+03  0.64777049530E+03  0.71355171463E+03  0.10100000352E+00 0. -1.
       -3    1    3    3    0  502 -0.10681730779E+03  0.27953441187E+03 -0.63921228667E+03  0.70579159976E+03  0.10100000352E+00 0.  1.
</event>
<event>
 5   0  0.8609148E-04  0.1397966E+04  0.7818609E-02  0.8955292E-01
        1   -1    0    0  501    0  0.00000000000E+00  0.00000000000E+00  0.54046609832E+03  0.54046609835E+03  0.50400001928E-02 0.  1.
       -1   -1    0    0    0  501  0.00000000000E+00  0.00000000000E+00 -0.90399223237E+03  0.90399223239E+03  0.50400001928E-02 0. -1.
    10030    2    1    2    0    0  0.00000000000E+00  0.00000000000E+00 -0.36352613405E+03  0.14444583307E+04  0.13979658862E+04 0.  0.
        5    1    3    3  502    0  0.41650811516E+02  0.63120908712E+03  0.12543832982E+03  0.64491593743E+03  0.46999998093E+01 0.  1.
       -5    1    3    3    0  502 -0.41650811516E+02 -0.63120908712E+03 -0.48896446387E+03  0.79954239330E+03  0.46999998093E+01 0. -1.
</event>
<event>
 5   0  0.8502300E-04  0.1390141E+04  0.7818609E-02  0.8960986E-01
        1   -1    0    0  501    0  0.00000000000E+00  0.00000000000E+00  0.66011008875E+03  0.66011008876E+03  0.50400001928E-02 0. -1.
       -1   -1    0    0    0  501  0.00000000000E+00  0.00000000000E+00 -0.73188284353E+03  0.73188284354E+03  0.50400001928E-02 0.  1.
    10030    2    1    2    0    0  0.00000000000E+00  0.00000000000E+00 -0.71772754780E+02  0.13919929323E+04  0.13901413580E+04 0.  0.
        4    1    3    3  502    0  0.58217303928E+03  0.10466843190E+02  0.34420665907E+03  0.67639843252E+03  0.12699999809E+01 0. -1.
       -4    1    3    3    0  502 -0.58217303928E+03 -0.10466843190E+02 -0.41597941385E+03  0.71559449978E+03  0.12699999809E+01 0.  1.
</event>
<event>
 5   0  0.1578965E-03  0.1405516E+04  0.7818609E-02  0.8949835E-01
       -2   -1    0    0    0  501  0.00000000000E+00  0.00000000000E+00  0.23834731357E+03  0.23834731358E+03  0.25500000920E-02 0.  1.
        2   -1    0    0  501    0  0.00000000000E+00  0.00000000000E+00 -0.20720560377E+04  0.20720560377E+04  0.25500000920E-02 0. -1.
    10030    2    1    2    0    0  0.00000000000E+00  0.00000000000E+00 -0.18337087241E+04  0.23104033512E+04  0.14055162613E+04 0.  0.
        2    1    3    3  502    0  0.38642572591E+03  0.85043606003E+02 -0.18715559734E+04  0.19129242061E+04  0.25500000920E-02 0. -1.
       -2    1    3    3    0  502 -0.38642572591E+03 -0.85043606003E+02  0.37847249312E+02  0.39747914518E+03  0.25500000920E-02 0.  1.
</event>
<event>
 5   0  0.1648213E-03  0.1446049E+04  0.7818609E-02  0.8921144E-01
       -2   -1    0    0    0  501  0.00000000000E+00  0.00000000000E+00  0.62712537259E+03  0.62712537260E+03  0.25500000920E-02 0. -1.
        2   -1    0    0  501    0  0.00000000000E+00  0.00000000000E+00 -0.83358847461E+03  0.83358847462E+03  0.25500000920E-02 0.  1.
    10030    2    1    2    0    0  0.00000000000E+00  0.00000000000E+00 -0.20646310202E+03  0.14607138472E+04  0.14460490763E+04 0.  0.
        4    1    3    3  502    0 -0.13467061979E+03  0.22336036639E+03 -0.78441201495E+03  0.82663767832E+03  0.12699999809E+01 0.  1.
       -4    1    3    3    0  502  0.13467061979E+03 -0.22336036639E+03  0.57794891293E+03  0.63407616890E+03  0.12699999809E+01 0. -1.
</event>
<event>
 5   0  0.1648213E-03  0.1396944E+04  0.7818609E-02  0.8956033E-01
       -2   -1    0    0    0  501  0.00000000000E+00  0.00000000000E+00  0.54114698437E+03  0.54114698437E+03  0.25500000920E-02 0. -1.
        2   -1    0    0  501    0  0.00000000000E+00  0.00000000000E+00 -0.90153576842E+03  0.90153576842E+03  0.25500000920E-02 0.  1.
    10030    2    1    2    0    0  0.00000000000E+00  0.00000000000E+00 -0.36038878405E+03  0.14426827528E+04  0.13969443259E+04 0.  0.
        4    1    3    3  502    0 -0.14307761190E+03  0.10792963611E+03 -0.87738438514E+03  0.89550264185E+03  0.12699999809E+01 0.  1.
       -4    1    3    3    0  502  0.14307761190E+03 -0.10792963611E+03  0.51699560108E+03  0.54718011095E+03  0.12699999809E+01 0. -1.
</event>
<event>
 5   0  0.8502300E-04  0.1328665E+04  0.7818609E-02  0.9007137E-01
       -1   -1    0    0    0  501  0.00000000000E+00  0.00000000000E+00  0.44559629382E+03  0.44559629385E+03  0.50400001928E-02 0.  1.
        1   -1    0    0  501    0  0.00000000000E+00  0.00000000000E+00 -0.99044298184E+03  0.99044298185E+03  0.50400001928E-02 0. -1.
    10030    2    1    2    0    0  0.00000000000E+00  0.00000000000E+00 -0.54484668802E+03  0.14360392757E+04  0.13286650774E+04 0.  0.
        4    1    3    3  502    0  0.14823538118E+02  0.42496986733E+02  0.44394523577E+03  0.44622272066E+03  0.12699999809E+01 0.  1.
       -4    1    3    3    0  502 -0.14823538118E+02 -0.42496986733E+02 -0.98879192380E+03  0.98981655504E+03  0.12699999809E+01 0. -1.
</event>
<event>
 5   0  0.1578965E-03  0.1330255E+04  0.7818609E-02  0.9005911E-01
       -2   -1    0    0    0  501  0.00000000000E+00  0.00000000000E+00  0.71103420098E+03  0.71103420099E+03  0.25500000920E-02 0. -1.
        2   -1    0    0  501    0  0.00000000000E+00  0.00000000000E+00 -0.62218478814E+03  0.62218478815E+03  0.25500000920E-02 0.  1.
    10030    2    1    2    0    0  0.00000000000E+00  0.00000000000E+00  0.88849412842E+02  0.13332189891E+04  0.13302551089E+04 0.  0.
        2    1    3    3  502    0 -0.26029509675E+03  0.34260918240E+03  0.55276291098E+03  0.70048656305E+03  0.25500000920E-02 0. -1.
       -2    1    3    3    0  502  0.26029509675E+03 -0.34260918240E+03 -0.46391349814E+03  0.63273242608E+03  0.25500000920E-02 0.  1.
</event>
<event>
 5   0  0.1648213E-03  0.1393601E+04  0.7818609E-02  0.8958464E-01
        2   -1    0    0  501    0  0.00000000000E+00  0.00000000000E+00  0.84217040491E+03  0.84217040491E+03  0.25500000920E-02 0.  1.
       -2   -1    0    0    0  501  0.00000000000E+00  0.00000000000E+00 -0.57652297815E+03  0.57652297815E+03  0.25500000920E-02 0. -1.
    10030    2    1    2    0    0  0.00000000000E+00  0.00000000000E+00  0.26564742676E+03  0.14186933831E+04  0.13936005022E+04 0.  0.
        4    1    3    3  502    0 -0.27067528788E+03 -0.43554535296E+03  0.61308526138E+03  0.79927468155E+03  0.12699999809E+01 0.  1.
       -4    1    3    3    0  502  0.27067528788E+03  0.43554535296E+03 -0.34743783462E+03  0.61941870151E+03  0.12699999809E+01 0. -1.
</event>
<event>
 5   0  0.1605214E-03  0.1449823E+04  0.7818609E-02  0.8918523E-01
        2   -1    0    0  501    0  0.00000000000E+00  0.00000000000E+00  0.10710034567E+04  0.10710034567E+04  0.25500000920E-02 0.  1.
       -2   -1    0    0    0  501  0.00000000000E+00  0.00000000000E+00 -0.49065828506E+03  0.49065828506E+03  0.25500000920E-02 0. -1.
    10030    2    1    2    0    0  0.00000000000E+00  0.00000000000E+00  0.58034517163E+03  0.15616617418E+04  0.14498230504E+04 0.  0.
        5    1    3    3  502    0  0.17640201629E+03 -0.66118037567E+03  0.32563974882E+02  0.68509828710E+03  0.46999998093E+01 0. -1.
       -5    1    3    3    0  502 -0.17640201629E+03  0.66118037567E+03  0.54778119675E+03  0.87656345465E+03  0.46999998093E+01 0.  1.
</event>
<event>
 5   0  0.9007180E-04  0.1440417E+04  0.7818609E-02  0.8925071E-01
       -1   -1    0    0    0  501  0.00000000000E+00  0.00000000000E+00  0.30238337487E+03  0.30238337491E+03  0.50400001928E-02 0. -1.
        1   -1    0    0  501    0  0.00000000000E+00  0.00000000000E+00 -0.17153735156E+04  0.17153735156E+04  0.50400001928E-02 0.  1.
    10030    2    1    2    0    0  0.00000000000E+00  0.00000000000E+00 -0.14129901407E+04  0.20177568905E+04  0.14404172074E+04 0.  0.
        2    1    3    3  502    0 -0.26273226787E+03  0.45123966447E+03 -0.14013539223E+04  0.14954725992E+04  0.25500000920E-02 0.  1.
       -2    1    3    3    0  502  0.26273226787E+03 -0.45123966447E+03 -0.11636218410E+02  0.52228429132E+03  0.25500000920E-02 0. -1.
</event>
<event>
 5   0  0.1605214E-03  0.1427083E+04  0.7818609E-02  0.8934445E-01
       -2   -1    0    0    0  501  0.00000000000E+00  0.00000000000E+00  0.33417395725E+03  0.33417395726E+03  0.25500000920E-02 0. -1.
        2   -1    0    0  501    0  0.00000000000E+00  0.00000000000E+00 -0.15235820709E+04  0.15235820709E+04  0.25500000920E-02 0.  1.
    10030    2    1    2    0    0  0.00000000000E+00  0.00000000000E+00 -0.11894081136E+04  0.18577560282E+04  0.14270829686E+04 0.  0.
        5    1    3    3  502    0 -0.36109934316E+03 -0.43541160579E+03 -0.11608586087E+04  0.12913523150E+04  0.46999998093E+01 0.  1.
       -5    1    3    3    0  502  0.36109934316E+03  0.43541160579E+03 -0.28549504983E+02  0.56640371319E+03  0.46999998093E+01 0. -1.
</event>
<event>
 5   0  0.6048000E-04  0.1364145E+04  0.7818609E-02  0.8980189E-01
        3   -1    0    0  501    0  0.00000000000E+00  0.00000000000E+00  0.15761241120E+04  0.15761241153E+04  0.10100000352E+00 0. -1.
       -3   -1    0    0    0  501  0.00000000000E+00  0.00000000000E+00 -0.29516892479E+03  0.29516894207E+03  0.10100000352E+00 0.  1.
    10030    2    1    2    0    0  0.00000000000E+00  0.00000000000E+00  0.12809551872E+04  0.18712930573E+04  0.13641449757E+04 0.  0.
        2    1    3    3  502    0  0.52138505076E+03  0.20657823777E+03  0.10794467070E+03  0.57111206555E+03  0.25500000920E-02 0.  1.
       -2    1    3    3    0  502 -0.52138505076E+03 -0.20657823777E+03  0.11730105166E+04  0.13001809918E+04  0.25500000920E-02 0. -1.
</event>
<event>
 5   0  0.9007180E-04  0.1395745E+04  0.7818609E-02  0.8956904E-01
       -1   -1    0    0    0  501  0.00000000000E+00  0.00000000000E+00  0.16886667494E+04  0.16886667494E+04  0.50400001928E-02 0. -1.
        1   -1    0    0  501    0  0.00000000000E+00  0.00000000000E+00 -0.28840870195E+03  0.28840870199E+03  0.50400001928E-02 0.  1.
    10030    2    1    2    0    0  0.00000000000E+00  0.00000000000E+00  0.14002580475E+04  0.19770754514E+04  0.13957452279E+04 0.  0.
        2    1    3    3  502    0  0.38606992086E+03 -0.54016582450E+03  0.10045849075E+04  0.12041677367E+04  0.25500000920E-02 0.  1.
       -2    1    3    3    0  502 -0.38606992086E+03  0.54016582450E+03  0.39567313996E+03  0.77290771470E+03  0.25500000920E-02 0. -1.
</event>
<event>
 5   0  0.1648463E-03  0.1394658E+04  0.7818609E-02  0.8957695E-01
        2   -1    0    0  501    0  0.00000000000E+00  0.00000000000E+00  0.26202929559E+04  0.26202929559E+04  0.25500000920E-02 0.  1.
       -2   -1    0    0    0  501  0.00000000000E+00  0.00000000000E+00 -0.18557756865E+03  0.18557756867E+03  0.25500000920E-02 0. -1.
    10030    2    1    2    0    0  0.00000000000E+00  0.00000000000E+00  0.24347153873E+04  0.28058705246E+04  0.13946578017E+04 0.  0.
        1    1    3    3  502    0 -0.34484789068E+03  0.56198361627E+03  0.16740209653E+04  0.17991919978E+04  0.50400001928E-02 0.  1.
       -1    1    3    3    0  502  0.34484789068E+03 -0.56198361627E+03  0.76069442195E+03  0.10066785268E+04  0.50400001928E-02 0. -1.
</event>
<event>
 5   0  0.8502300E-04  0.1273655E+04  0.7818609E-02  0.9050722E-01
       -1   -1    0    0    0  501  0.00000000000E+00  0.00000000000E+00  0.65359597929E+03  0.65359597931E+03  0.50400001928E-02 0.  1.
        1   -1    0    0  501    0  0.00000000000E+00  0.00000000000E+00 -0.62048922555E+03  0.62048922557E+03  0.50400001928E-02 0. -1.
    10030    2    1    2    0    0  0.00000000000E+00  0.00000000000E+00  0.33106753735E+02  0.12740852049E+04  0.12736549973E+04 0.  0.
        4    1    3    3  502    0  0.39003748346E+03 -0.20459948181E+03  0.47666249984E+03  0.64899841149E+03  0.12699999809E+01 0.  1.
       -4    1    3    3    0  502 -0.39003748346E+03  0.20459948181E+03 -0.44355574611E+03  0.62508679339E+03  0.12699999809E+01 0. -1.
</event>
<event>
 5   0  0.1706986E-03  0.1352463E+04  0.7818609E-02  0.8988966E-01
        2   -1    0    0  501    0  0.00000000000E+00  0.00000000000E+00  0.95915162400E+03  0.95915162401E+03  0.25500000920E-02 0.  1.
       -2   -1    0    0    0  501  0.00000000000E+00  0.00000000000E+00 -0.47676396577E+03  0.47676396578E+03  0.25500000920E-02 0. -1.
    10030    2    1    2    0    0  0.00000000000E+00  0.00000000000E+00  0.48238765823E+03  0.14359155898E+04  0.13524628380E+04 0.  0.
        3    1    3    3  502    0  0.21376713657E+03  0.64112576131E+03  0.21628806257E+03  0.70959084458E+03  0.10100000352E+00 0. -1.
       -3    1    3    3    0  502 -0.21376713657E+03 -0.64112576131E+03  0.26609959566E+03  0.72632474521E+03  0.10100000352E+00 0.  1.
</event>
<event>
 5   0  0.8609148E-04  0.1387189E+04  0.7818609E-02  0.8963145E-01
        1   -1    0    0  501    0  0.00000000000E+00  0.00000000000E+00  0.16893026958E+04  0.16893026958E+04  0.50400001928E-02 0. -1.
       -1   -1    0    0    0  501  0.00000000000E+00  0.00000000000E+00 -0.28477618173E+03  0.28477618177E+03  0.50400001928E-02 0.  1.
    10030    2    1    2    0    0  0.00000000000E+00  0.00000000000E+00  0.14045265140E+04  0.19740788776E+04  0.13871887709E+04 0.  0.
        5    1    3    3  502    0  0.54506622903E+03 -0.22998777166E+03  0.18707825557E+03  0.62049329799E+03  0.46999998093E+01 0.  1.
       -5    1    3    3    0  502 -0.54506622903E+03  0.22998777166E+03  0.12174482585E+04  0.13535855796E+04  0.46999998093E+01 0. -1.
</event>
<event>
 5   0  0.8673728E-04  0.1395642E+04  0.7818609E-02  0.8956979E-01
       -1   -1    0    0    0  501  0.00000000000E+00  0.00000000000E+00  0.44602615427E+03  0.44602615430E+03  0.50400001928E-02 0.  1.
        1   -1    0    0  501    0  0.00000000000E+00  0.00000000000E+00 -0.10917618753E+04  0.10917618753E+04  0.50400001928E-02 0. -1.
    10030    2    1    2    0    0  0.00000000000E+00  0.00000000000E+00 -0.64573572104E+03  0.15377880296E+04  0.13956422903E+04 0.  0.
        3    1    3    3  502    0 -0.39143520663E+03  0.57575387598E+03 -0.27071539562E+03  0.74699456646E+03  0.10100000352E+00 0.  1.
       -3    1    3    3    0  502  0.39143520663E+03 -0.57575387598E+03 -0.37502032542E+03  0.79079346316E+03  0.10100000352E+00 0. -1.
</event>
<event>
 5   0  0.6048000E-04  0.1513713E+04  0.7818609E-02  0.8875385E-01
       -3   -1    0    0    0  501  0.00000000000E+00  0.00000000000E+00  0.41617072021E+03  0.41617073247E+03  0.10100000352E+00 0.  1.
        3   -1    0    0  501    0  0.00000000000E+00  0.00000000000E+00 -0.13764345027E+04  0.13764345064E+04  0.10100000352E+00 0. -1.
    10030    2    1    2    0    0  0.00000000000E+00  0.00000000000E+00 -0.96026378252E+03  0.17926052389E+04  0.15137129882E+04 0.  0.
        1    1    3    3  502    0  0.26520492398E+03 -0.29909314043E+03 -0.12412252161E+04  0.13040055197E+04  0.50400001928E-02 0. -1.
       -1    1    3    3    0  502 -0.26520492398E+03  0.29909314043E+03  0.28096143361E+03  0.48859971915E+03  0.50400001928E-02 0.  1.
</event>
<event>
 5   0  0.1578965E-03  0.1431445E+04  0.7818609E-02  0.8931366E-01
        2   -1    0    0  501    0  0.00000000000E+00  0.00000000000E+00  0.12829730396E+04  0.12829730396E+04  0.25500000920E-02 0.  1.
       -2   -1    0    0    0  501  0.00000000000E+00  0.00000000000E+00 -0.39927472468E+03  0.39927472468E+03  0.25500000920E-02 0. -1.
    10030    2    1    2    0    0  0.00000000000E+00  0.00000000000E+00  0.88369831490E+03  0.16822477643E+04  0.14314450142E+04 0.  0.
        2    1    3    3  502    0 -0.46241401320E+03  0.49818094442E+03  0.17841412345E+03  0.70273933463E+03  0.25500000920E-02 0.  1.
       -2    1    3    3    0  502  0.46241401320E+03 -0.49818094442E+03  0.70528419145E+03  0.97950842963E+03  0.25500000920E-02 0. -1.
</event>
<event>
 5   0  0.1605214E-03  0.1362680E+04  0.7818609E-02  0.8981284E-01
       -2   -1    0    0    0  501  0.00000000000E+00  0.00000000000E+00  0.37662859028E+03  0.37662859029E+03  0.25500000920E-02 0. -1.
        2   -1    0    0  501    0  0.00000000000E+00  0.00000000000E+00 -0.12325791121E+04  0.12325791121E+04  0.25500000920E-02 0.  1.
    10030    2    1    2    0    0  0.00000000000E+00  0.00000000000E+00 -0.85595052178E+03  0.16092077024E+04  0.13626804958E+04 0.  0.
        5    1    3    3  502    0 -0.41976460662E+02  0.20757419069E+03  0.33675475082E+03  0.39783780626E+03  0.46999998093E+01 0. -1.
       -5    1    3    3    0  502  0.41976460662E+02 -0.20757419069E+03 -0.11927052726E+04  0.12113698961E+04  0.46999998093E+01 0.  1.
</event>
<event>
 5   0  0.8502300E-04  0.1403492E+04  0.7818609E-02  0.8951295E-01
       -1   -1    0    0    0  501  0.00000000000E+00  0.00000000000E+00  0.26734998801E+03  0.26734998805E+03  0.50400001928E-02 0. -1.
        1   -1    0    0  501    0  0.00000000000E+00  0.00000000000E+00 -0.18419579797E+04  0.18419579797E+04  0.50400001928E-02 0.  1.
    10030    2    1    2    0    0  0.00000000000E+00  0.00000000000E+00 -0.15746079917E+04  0.21093079677E+04  0.14034919933E+04 0.  0.
        4    1    3    3  502    0  0.16958000708E+03 -0.67520886916E+03 -0.91987846738E+03  0.11536214299E+04  0.12699999809E+01 0. -1.
       -4    1    3    3    0  502 -0.16958000708E+03  0.67520886916E+03 -0.65472952428E+03  0.95568653786E+03  0.12699999809E+01 0.  1.
</event>
<event>
 5   0  0.1648213E-03  0.1392606E+04  0.7818609E-02  0.8959188E-01
       -2   -1    0    0    0  501  0.00000000000E+00  0.00000000000E+00  0.72344295564E+03  0.72344295565E+03  0.25500000920E-02 0.  1.
        2   -1    0    0  501    0  0.00000000000E+00  0.00000000000E+00 -0.67018104368E+03  0.67018104368E+03  0.25500000920E-02 0. -1.
    10030    2    1    2    0    0  0.00000000000E+00  0.00000000000E+00  0.53261911968E+02  0.13936239993E+04  0.13926058381E+04 0.  0.
        4    1    3    3  502    0  0.44305718744E+03  0.39625554055E+03  0.38955022865E+03  0.71068214998E+03  0.12699999809E+01 0.  1.
       -4    1    3    3    0  502 -0.44305718744E+03 -0.39625554055E+03 -0.33628831669E+03  0.68294184935E+03  0.12699999809E+01 0. -1.
</event>
<event>
 5   0  0.8609148E-04  0.1409312E+04  0.7818609E-02  0.8947105E-01
       -1   -1    0    0    0  501  0.00000000000E+00  0.00000000000E+00  0.72506807196E+03  0.72506807198E+03  0.50400001928E-02 0.  1.
        1   -1    0    0  501    0  0.00000000000E+00  0.00000000000E+00 -0.68481868350E+03  0.68481868352E+03  0.50400001928E-02 0. -1.
    10030    2    1    2    0    0  0.00000000000E+00  0.00000000000E+00  0.40249388462E+02  0.14098867555E+04  0.14093121195E+04 0.  0.
        5    1    3    3  502    0 -0.54377064627E+03  0.27791259898E+02 -0.42733746179E+03  0.69216924673E+03  0.46999998093E+01 0. -1.
       -5    1    3    3    0  502  0.54377064627E+03 -0.27791259898E+02  0.46758685025E+03  0.71771750877E+03  0.46999998093E+01 0.  1.
</event>
<event>
 5   0  0.1578965E-03  0.1410480E+04  0.7818609E-02  0.8946268E-01
       -2   -1    0    0    0  501  0.00000000000E+00  0.00000000000E+00  0.49881629052E+03  0.49881629052E+03  0.25500000920E-02 0. -1.
        2   -1    0    0  501    0  0.00000000000E+00  0.00000000000E+00 -0.99708699315E+03  0.99708699316E+03  0.25500000920E-02 0.  1.
    10030    2    1    2    0    0  0.00000000000E+00  0.00000000000E+00 -0.49827070264E+03  0.14959032837E+04  0.14104796847E+04 0.  0.
        2    1    3    3  502    0  0.26093319642E+03  0.32512913154E+03 -0.85241623389E+03  0.94889858308E+03  0.25500000920E-02 0.  1.
       -2    1    3    3    0  502 -0.26093319642E+03 -0.32512913154E+03  0.35414553125E+03  0.54700470060E+03  0.25500000920E-02 0. -1.
</event>
<event>
 5   0  0.1706986E-03  0.1380237E+04  0.7818609E-02  0.8968250E-01
       -2   -1    0    0    0  501  0.00000000000E+00  0.00000000000E+00  0.24406509829E+03  0.24406509831E+03  0.25500000920E-02 0. -1.
        2   -1    0    0  501    0  0.00000000000E+00  0.00000000000E+00 -0.19513790852E+04  0.19513790852E+04  0.25500000920E-02 0.  1.
    10030    2    1    2    0    0  0.00000000000E+00  0.00000000000E+00 -0.17073139869E+04  0.21954441835E+04  0.13802369771E+04 0.  0.
        3    1    3    3  502    0 -0.12288965754E+03  0.37431162433E+03 -0.17549307837E+04  0.17986086639E+04  0.10100000352E+00 0.  1.
       -3    1    3    3    0  502  0.12288965754E+03 -0.37431162433E+03  0.47616796852E+02  0.39683551956E+03  0.10100000352E+00 0. -1.
</event>
<event>
 5   0  0.9007180E-04  0.1213423E+04  0.7818609E-02  0.9101188E-01
       -1   -1    0    0    0  501  0.00000000000E+00  0.00000000000E+00  0.54730335574E+03  0.54730335577E+03  0.50400001928E-02 0. -1.
        1   -1    0    0  501    0  0.00000000000E+00  0.00000000000E+00 -0.67256847463E+03  0.67256847465E+03  0.50400001928E-02 0.  1.
    10030    2    1    2    0    0  0.00000000000E+00  0.00000000000E+00 -0.12526511889E+03  0.12198718304E+04  0.12134232290E+04 0.  0.
        2    1    3    3  502    0  0.70822425947E+02  0.45304586341E+02 -0.66668402403E+03  0.67196421740E+03  0.25500000920E-02 0.  1.
       -2    1    3    3    0  502 -0.70822425947E+02 -0.45304586341E+02  0.54141890514E+03  0.54790761302E+03  0.25500000920E-02 0. -1.
</event>
<event>
 5   0  0.8609148E-04  0.1495265E+04  0.7818609E-02  0.8887608E-01
        1   -1    0    0  501    0  0.00000000000E+00  0.00000000000E+00  0.92496409111E+03  0.92496409112E+03  0.50400001928E-02 0.  1.
       -1   -1    0    0    0  501  0.00000000000E+00  0.00000000000E+00 -0.60429826914E+03  0.60429826916E+03  0.50400001928E-02 0. -1.
    10030    2    1    2    0    0  0.00000000000E+00  0.00000000000E+00  0.32066582197E+03  0.15292623603E+04  0.14952647917E+04 0.  0.
        5    1    3    3  502    0 -0.27975134614E+03 -0.69203693471E+03  0.11747334766E+03  0.75564410411E+03  0.46999998093E+01 0. -1.
       -5    1    3    3    0  502  0.27975134614E+03  0.69203693471E+03  0.20319247430E+03  0.77361825617E+03  0.46999998093E+01 0.  1.
</event>
<event>
 5   0  0.1706986E-03  0.1399569E+04  0.7818609E-02  0.8954131E-01
        2   -1    0    0  501    0  0.00000000000E+00  0.00000000000E+00  0.10191791052E+04  0.10191791052E+04  0.25500000920E-02 0. -1.
       -2   -1    0    0    0  501  0.00000000000E+00  0.00000000000E+00 -0.48048303016E+03  0.48048303016E+03  0.25500000920E-02 0.  1.
    10030    2    1    2    0    0  0.00000000000E+00  0.00000000000E+00  0.53869607502E+03  0.14996621353E+04  0.13995688832E+04 0.  0.
        3    1    3    3  502    0 -0.31928944356E+03  0.58272428097E+03  0.34138617652E+02  0.66534110937E+03  0.10100000352E+00 0. -1.
       -3    1    3    3    0  502  0.31928944356E+03 -0.58272428097E+03  0.50455745737E+03  0.83432102597E+03  0.10100000352E+00 0.  1.
</event>
<event>
 5   0  0.1706986E-03  0.1224856E+04  0.7818609E-02  0.9091374E-01
        2   -1    0    0  501    0  0.00000000000E+00  0.00000000000E+00  0.51935330733E+03  0.51935330733E+03  0.25500000920E-02 0.  1.
       -2   -1    0    0    0  501  0.00000000000E+00  0.00000000000E+00 -0.72218252954E+03  0.72218252954E+03  0.25500000920E-02 0. -1.
    10030    2    1    2    0    0  0.00000000000E+00  0.00000000000E+00 -0.20282922221E+03  0.12415358369E+04  0.12248557225E+04 0.  0.
        3    1    3    3  502    0 -0.32082652063E+03  0.29817253028E+03 -0.53529920325E+03  0.69165147390E+03  0.10100000352E+00 0. -1.
       -3    1    3    3    0  502  0.32082652063E+03 -0.29817253028E+03  0.33246998104E+03  0.54988436298E+03  0.10100000352E+00 0.  1.
</event>
<event>
 5   0  0.1578965E-03  0.1422050E+04  0.7818609E-02  0.8938010E-01
       -2   -1    0    0    0  501  0.00000000000E+00  0.00000000000E+00  0.33642213786E+03  0.33642213787E+03  0.25500000920E-02 0. -1.
        2   -1    0    0  501    0  0.00000000000E+00  0.00000000000E+00 -0.15027453750E+04  0.15027453750E+04  0.25500000920E-02 0.  1.
    10030    2    1    2    0    0  0.00000000000E+00  0.00000000000E+00 -0.11663232372E+04  0.18391675129E+04  0.14220503672E+04 0.  0.
        2    1    3    3  502    0 -0.50775738101E+03 -0.20571415333E+02 -0.12263415381E+04  0.13274616037E+04  0.25500000920E-02 0.  1.
       -2    1    3    3    0  502  0.50775738101E+03  0.20571415333E+02  0.60018300939E+02  0.51170590925E+03  0.25500000920E-02 0. -1.
</event>
<event>
 5   0  0.9639548E-04  0.1400270E+04  0.7818609E-02  0.8953623E-01
       -1   -1    0    0    0  501  0.00000000000E+00  0.00000000000E+00  0.67037048652E+03  0.67037048653E+03  0.50400001928E-02 0. -1.
        1   -1    0    0  501    0  0.00000000000E+00  0.00000000000E+00 -0.73122057596E+03  0.73122057597E+03  0.50400001928E-02 0.  1.
    10030    2    1    2    0    0  0.00000000000E+00  0.00000000000E+00 -0.60850089441E+02  0.14015910625E+04  0.14002695359E+04 0.  0.
        1    1    3    3  502    0 -0.55217767367E+03 -0.17917902623E+03 -0.42218091445E+03  0.71780361610E+03  0.50400001928E-02 0.  1.
       -1    1    3    3    0  502  0.55217767367E+03  0.17917902623E+03  0.36133082501E+03  0.68378744641E+03  0.50400001928E-02 0. -1.
</event>
<event>
 5   0  0.1648213E-03  0.1400066E+04  0.7818609E-02  0.8953771E-01
       -2   -1    0    0    0  501  0.00000000000E+00  0.00000000000E+00  0.66097917356E+03  0.66097917357E+03  0.25500000920E-02 0. -1.
        2   -1    0    0  501    0  0.00000000000E+00  0.00000000000E+00 -0.74139390326E+03  0.74139390326E+03  0.25500000920E-02 0.  1.
    10030    2    1    2    0    0  0.00000000000E+00  0.00000000000E+00 -0.80414729696E+02  0.14023730768E+04  0.14000656120E+04 0.  0.
        4    1    3    3  502    0 -0.40330174545E+03 -0.50764409818E+03 -0.30463011296E+03  0.71634903987E+03  0.12699999809E+01 0.  1.
       -4    1    3    3    0  502  0.40330174545E+03  0.50764409818E+03  0.22421538326E+03  0.68602403696E+03  0.12699999809E+01 0. -1.
</event>
<event>
 5   0  0.1706986E-03  0.1218749E+04  0.7818609E-02  0.9096602E-01
       -2   -1    0    0    0  501  0.00000000000E+00  0.00000000000E+00  0.52353126451E+03  0.52353126452E+03  0.25500000920E-02 0.  1.
        2   -1    0    0  501    0  0.00000000000E+00  0.00000000000E+00 -0.70929395913E+03  0.70929395913E+03  0.25500000920E-02 0. -1.
    10030    2    1    2    0    0  0.00000000000E+00  0.00000000000E+00 -0.18576269461E+03  0.12328252237E+04  0.12187494629E+04 0.  0.
        3    1    3    3  502    0  0.26223275153E+03 -0.42372547922E+01  0.46352006575E+03  0.53257378067E+03  0.10100000352E+00 0.  1.
       -3    1    3    3    0  502 -0.26223275153E+03  0.42372547922E+01 -0.64928276036E+03  0.70025144299E+03  0.10100000352E+00 0. -1.
</event>
<event>
 5   0  0.9007180E-04  0.1384723E+04  0.7818609E-02  0.8964952E-01
       -1   -1    0    0    0  501  0.00000000000E+00  0.00000000000E+00  0.45406413626E+03  0.45406413629E+03  0.50400001928E-02 0. -1.
        1   -1    0    0  501    0  0.00000000000E+00  0.00000000000E+00 -0.10557190461E+04  0.10557190461E+04  0.50400001928E-02 0.  1.
    10030    2    1    2    0    0  0.00000000000E+00  0.00000000000E+00 -0.60165490985E+03  0.15097831824E+04  0.13847225814E+04 0.  0.
        2    1    3    3  502    0 -0.14206907210E+03  0.42196045877E+02  0.43656706024E+03  0.46103679423E+03  0.25500000920E-02 0. -1.
       -2    1    3    3    0  502  0.14206907210E+03 -0.42196045877E+02 -0.10382219701E+04  0.10487463882E+04  0.25500000920E-02 0.  1.
</event>
<event>
 5   0  0.9639548E-04  0.1410585E+04  0.7818609E-02  0.8946192E-01
       -1   -1    0    0    0  501  0.00000000000E+00  0.00000000000E+00  0.83227709154E+03  0.83227709156E+03  0.50400001928E-02 0.  1.
        1   -1    0    0  501    0  0.00000000000E+00  0.00000000000E+00 -0.59768232854E+03  0.59768232856E+03  0.50400001928E-02 0. -1.
    10030    2    1    2    0    0  0.00000000000E+00  0.00000000000E+00  0.23459476300E+03  0.14299594201E+04  0.14105847158E+04 0.  0.
        1    1    3    3  502    0  0.20416283933E+03  0.46955931677E+03 -0.37441007470E+03  0.63431169072E+03  0.50400001928E-02 0. -1.
       -1    1    3    3    0  502 -0.20416283933E+03 -0.46955931677E+03  0.60900483770E+03  0.79564772940E+03  0.50400001928E-02 0.  1.
</event>
<event>
 5   0  0.1648463E-03  0.1335217E+04  0.7818609E-02  0.9002095E-01
       -2   -1    0    0    0  501  0.00000000000E+00  0.00000000000E+00  0.55362895823E+03  0.55362895823E+03  0.25500000920E-02 0. -1.
        2   -1    0    0  501    0  0.00000000000E+00  0.00000000000E+00 -0.80505360834E+03  0.80505360834E+03  0.25500000920E-02 0.  1.
    10030    2    1    2    0    0  0.00000000000E+00  0.00000000000E+00 -0.25142465011E+03  0.13586825666E+04  0.13352168221E+04 0.  0.
        1    1    3    3  502    0  0.42739325033E+03  0.38246206827E+03  0.22199269151E+03  0.61499835707E+03  0.50400001928E-02 0. -1.
       -1    1    3    3    0  502 -0.42739325033E+03 -0.38246206827E+03 -0.47341734161E+03  0.74368420950E+03  0.50400001928E-02 0.  1.
</event>
<event>
 5   0  0.8609148E-04  0.1408598E+04  0.7818609E-02  0.8947618E-01
       -1   -1    0    0    0  501  0.00000000000E+00  0.00000000000E+00  0.73559595279E+03  0.73559595281E+03  0.50400001928E-02 0.  1.
        1   -1    0    0  501    0  0.00000000000E+00  0.00000000000E+00 -0.67433351489E+03  0.67433351491E+03  0.50400001928E-02 0. -1.
    10030    2    1    2    0    0  0.00000000000E+00  0.00000000000E+00  0.61262437904E+02  0.14099294677E+04  0.14085978907E+04 0.  0.
        5    1    3    3  502    0 -0.56297324271E+03  0.11686722300E+03 -0.37646949190E+03  0.68727591850E+03  0.46999998093E+01 0. -1.
       -5    1    3    3    0  502  0.56297324271E+03 -0.11686722300E+03  0.43773192981E+03  0.72265354921E+03  0.46999998093E+01 0.  1.
</event>
<event>
 5   0  0.9639548E-04  0.1394899E+04  0.7818609E-02  0.8957519E-01
       -1   -1    0    0    0  501  0.00000000000E+00  0.00000000000E+00  0.25360739149E+03  0.25360739154E+03  0.50400001928E-02 0.  1.
        1   -1    0    0  501    0  0.00000000000E+00  0.00000000000E+00 -0.19180657573E+04  0.19180657573E+04  0.50400001928E-02 0. -1.
    10030    2    1    2    0    0  0.00000000000E+00  0.00000000000E+00 -0.16644583658E+04  0.21716731489E+04  0.13948987827E+04 0.  0.
        1    1    3    3  502    0  0.66177178142E+03  0.19891288512E+02 -0.49078814002E+03  0.82414231323E+03  0.50400001928E-02 0.  1.
       -1    1    3    3    0  502 -0.66177178142E+03 -0.19891288512E+02 -0.11736702258E+04  0.13475308356E+04  0.50400001928E-02 0. -1.
</event>
<event>
 5   0  0.1706986E-03  0.1402628E+04  0.7818609E-02  0.8951918E-01
        2   -1    0    0  501    0  0.00000000000E+00  0.00000000000E+00  0.17551751465E+04  0.17551751465E+04  0.25500000920E-02 0.  1.
       -2   -1    0    0    0  501  0.00000000000E+00  0.00000000000E+00 -0.28022348441E+03  0.28022348442E+03  0.25500000920E-02 0. -1.
    10030    2    1    2    0    0  0.00000000000E+00  0.00000000000E+00  0.14749516621E+04  0.20353986309E+04  0.14026279554E+04 0.  0.
        3    1    3    3  502    0  0.19583976280E+02 -0.29209612881E+03 -0.18731515724E+03  0.34754950572E+03  0.10100000352E+00 0. -1.
       -3    1    3    3    0  502 -0.19583976280E+02  0.29209612881E+03  0.16622668193E+04  0.16878491252E+04  0.10100000352E+00 0.  1.
</event>
<event>
 5   0  0.9639548E-04  0.1390267E+04  0.7818609E-02  0.8960894E-01
       -1   -1    0    0    0  501  0.00000000000E+00  0.00000000000E+00  0.32835001425E+03  0.32835001428E+03  0.50400001928E-02 0. -1.
        1   -1    0    0  501    0  0.00000000000E+00  0.00000000000E+00 -0.14716324127E+04  0.14716324127E+04  0.50400001928E-02 0.  1.
    10030    2    1    2    0    0  0.00000000000E+00  0.00000000000E+00 -0.11432823985E+04  0.17999824270E+04  0.13902669150E+04 0.  0.
        1    1    3    3  502    0  0.62149421607E+03  0.26414561352E+03 -0.35818182169E+03  0.76440969589E+03  0.50400001928E-02 0. -1.
       -1    1    3    3    0  502 -0.62149421607E+03 -0.26414561352E+03 -0.78510057678E+03  0.10355727311E+04  0.50400001928E-02 0.  1.
</event>
<event>
 5   0  0.9639548E-04  0.1401806E+04  0.7818609E-02  0.8952513E-01
       -1   -1    0    0    0  501  0.00000000000E+00  0.00000000000E+00  0.80502788597E+03  0.80502788598E+03  0.50400001928E-02 0. -1.
        1   -1    0    0  501    0  0.00000000000E+00  0.00000000000E+00 -0.61024558829E+03  0.61024558831E+03  0.50400001928E-02 0.  1.
    10030    2    1    2    0    0  0.00000000000E+00  0.00000000000E+00  0.19478229768E+03  0.14152734743E+04  0.14018055727E+04 0.  0.
        1    1    3    3  502    0 -0.67590702687E+03  0.17856861521E+03  0.46632317260E+02  0.70065086337E+03  0.50400001928E-02 0.  1.
       -1    1    3    3    0  502  0.67590702687E+03 -0.17856861521E+03  0.14814998042E+03  0.71462261092E+03  0.50400001928E-02 0. -1.
</event>
<event>
 5   0  0.9007180E-04  0.1390096E+04  0.7818609E-02  0.8961019E-01
       -1   -1    0    0    0  501  0.00000000000E+00  0.00000000000E+00  0.87612701425E+03  0.87612701427E+03  0.50400001928E-02 0. -1.
        1   -1    0    0  501    0  0.00000000000E+00  0.00000000000E+00 -0.55139471673E+03  0.55139471675E+03  0.50400001928E-02 0.  1.
    10030    2    1    2    0    0  0.00000000000E+00  0.00000000000E+00  0.32473229753E+03  0.14275217310E+04  0.13900961217E+04 0.  0.
        2    1    3    3  502    0  0.64780138359E+03 -0.15671957060E+03 -0.40133467244E+02  0.66769630192E+03  0.25500000920E-02 0.  1.
       -2    1    3    3    0  502 -0.64780138359E+03  0.15671957060E+03  0.36486576477E+03  0.75982542910E+03  0.25500000920E-02 0. -1.
</event>
<event>
 5   0  0.1648463E-03  0.1408781E+04  0.7818609E-02  0.8947487E-01
        2   -1    0    0  501    0  0.00000000000E+00  0.00000000000E+00  0.94874901917E+03  0.94874901917E+03  0.25500000920E-02 0. -1.
       -2   -1    0    0    0  501  0.00000000000E+00  0.00000000000E+00 -0.52296861122E+03  0.52296861122E+03  0.25500000920E-02 0.  1.
    10030    2    1    2    0    0  0.00000000000E+00  0.00000000000E+00  0.42578040795E+03  0.14717176304E+04  0.14087809723E+04 0.  0.
        1    1    3    3  502    0 -0.14089952059E+03  0.50523730781E+03 -0.27827189367E+03  0.59376144952E+03  0.50400001928E-02 0.  1.
       -1    1    3    3    0  502  0.14089952059E+03 -0.50523730781E+03  0.70405230162E+03  0.87795618088E+03  0.50400001928E-02 0. -1.
</event>
<event>
 5   0  0.6048000E-04  0.1278411E+04  0.7818609E-02  0.9046863E-01
        3   -1    0    0  501    0  0.00000000000E+00  0.00000000000E+00  0.88208823622E+03  0.88208824200E+03  0.10100000352E+00 0. -1.
       -3   -1    0    0    0  501  0.00000000000E+00  0.00000000000E+00 -0.46320041562E+03  0.46320042663E+03  0.10100000352E+00 0.  1.
    10030    2    1    2    0    0  0.00000000000E+00  0.00000000000E+00  0.41888782060E+03  0.13452886686E+04  0.12784109651E+04 0.  0.
        1    1    3    3  502    0 -0.29482773110E+03 -0.44545963248E+03 -0.15995543929E+03  0.55762300686E+03  0.50400001928E-02 0.  1.
       -1    1    3    3    0  502  0.29482773110E+03  0.44545963248E+03  0.57884325989E+03  0.78766566178E+03  0.50400001928E-02 0. -1.
</event>
<event>
 5   0  0.1706986E-03  0.1416285E+04  0.7818609E-02  0.8942115E-01
       -2   -1    0    0    0  501  0.00000000000E+00  0.00000000000E+00  0.35024341135E+03  0.35024341136E+03  0.25500000920E-02 0. -1.
        2   -1    0    0  501    0  0.00000000000E+00  0.00000000000E+00 -0.14317628010E+04  0.14317628010E+04  0.25500000920E-02 0.  1.
    10030    2    1    2    0    0  0.00000000000E+00  0.00000000000E+00 -0.10815193897E+04  0.17820062124E+04  0.14162845585E+04 0.  0.
        3    1    3    3  502    0  0.54831576952E+03  0.26278542846E+03 -0.99747863770E+03  0.11681909122E+04  0.10100000352E+00 0.  1.
       -3    1    3    3    0  502 -0.54831576952E+03 -0.26278542846E+03 -0.84040751958E+02  0.61381530015E+03  0.10100000352E+00 0. -1.
</event>
<event>
 5   0  0.1578965E-03  0.1409327E+04  0.7818609E-02  0.8947095E-01
        2   -1    0    0  501    0  0.00000000000E+00  0.00000000000E+00  0.15695016162E+04  0.15695016162E+04  0.25500000920E-02 0.  1.
       -2   -1    0    0    0  501  0.00000000000E+00  0.00000000000E+00 -0.31637461833E+03  0.31637461834E+03  0.25500000920E-02 0. -1.
    10030    2    1    2    0    0  0.00000000000E+00  0.00000000000E+00  0.12531269978E+04  0.18858762345E+04  0.14093267539E+04 0.  0.
        2    1    3    3  502    0 -0.13853039530E+03 -0.69015208309E+03  0.58320474228E+03  0.91412709162E+03  0.25500000920E-02 0.  1.
       -2    1    3    3    0  502  0.13853039530E+03  0.69015208309E+03  0.66992225557E+03  0.97174914290E+03  0.25500000920E-02 0. -1.
</event>
<event>
 5   0  0.1648463E-03  0.1438328E+04  0.7818609E-02  0.8926533E-01
       -2   -1    0    0    0  501  0.00000000000E+00  0.00000000000E+00  0.29073273531E+03  0.29073273532E+03  0.25500000920E-02 0.  1.
        2   -1    0    0  501    0  0.00000000000E+00  0.00000000000E+00 -0.17789418548E+04  0.17789418548E+04  0.25500000920E-02 0. -1.
    10030    2    1    2    0    0  0.00000000000E+00  0.00000000000E+00 -0.14882091195E+04  0.20696745901E+04  0.14383276837E+04 0.  0.
        1    1    3    3  502    0  0.70482705596E+03 -0.63231791693E+02 -0.92847601416E+03  0.11674104450E+04  0.50400001928E-02 0. -1.
       -1    1    3    3    0  502 -0.70482705596E+03  0.63231791693E+02 -0.55973310536E+03  0.90226414511E+03  0.50400001928E-02 0.  1.
</event>
<event>
 5   0  0.1706986E-03  0.1392424E+04  0.7818609E-02  0.8959321E-01
       -2   -1    0    0    0  501  0.00000000000E+00  0.00000000000E+00  0.84955139286E+03  0.84955139286E+03  0.25500000920E-02 0. -1.
        2   -1    0    0  501    0  0.00000000000E+00  0.00000000000E+00 -0.57054967421E+03  0.57054967422E+03  0.25500000920E-02 0.  1.
    10030    2    1    2    0    0  0.00000000000E+00  0.00000000000E+00  0.27900171865E+03  0.14201010671E+04  0.13924241745E+04 0.  0.
        3    1    3    3  502    0  0.47714373620E+03 -0.44340055930E+03 -0.11123343133E+03  0.66078974525E+03  0.10100000352E+00 0.  1.
       -3    1    3    3    0  502 -0.47714373620E+03  0.44340055930E+03  0.39023514998E+03  0.75931132183E+03  0.10100000352E+00 0. -1.
</event>
<event>
 5   0  0.9639548E-04  0.1386868E+04  0.7818609E-02  0.8963380E-01
        1   -1    0    0  501    0  0.00000000000E+00  0.00000000000E+00  0.57027346024E+03  0.57027346027E+03  0.50400001928E-02 0.  1.
       -1   -1    0    0    0  501  0.00000000000E+00  0.00000000000E+00 -0.84319290675E+03  0.84319290677E+03  0.50400001928E-02 0. -1.
    10030    2    1    2    0    0  0.00000000000E+00  0.00000000000E+00 -0.27291944651E+03  0.14134663670E+04  0.13868677466E+04 0.  0.
        1    1    3    3  502    0  0.41966996654E+03  0.52505506140E+03  0.37234314952E+02  0.67319543414E+03  0.50400001928E-02 0.  1.
       -1    1    3    3    0  502 -0.41966996654E+03 -0.52505506140E+03 -0.31015376146E+03  0.74027093289E+03  0.50400001928E-02 0. -1.
</event>
<event>
 5   0  0.6048000E-04  0.1389955E+04  0.7818609E-02  0.8961122E-01
       -3   -1    0    0    0  501  0.00000000000E+00  0.00000000000E+00  0.33454558229E+03  0.33454559753E+03  0.10100000352E+00 0. -1.
        3   -1    0    0  501    0  0.00000000000E+00  0.00000000000E+00 -0.14437309787E+04  0.14437309823E+04  0.10100000352E+00 0.  1.
    10030    2    1    2    0    0  0.00000000000E+00  0.00000000000E+00 -0.11091853964E+04  0.17782765798E+04  0.13899551613E+04 0.  0.
        1    1    3    3  502    0  0.34563296711E+03 -0.18040550361E+03  0.18145003820E+03  0.43003768448E+03  0.50400001928E-02 0. -1.
       -1    1    3    3    0  502 -0.34563296711E+03  0.18040550361E+03 -0.12906354346E+04  0.13482388953E+04  0.50400001928E-02 0.  1.
</event>
<event>
 5   0  0.6048000E-04  0.1409055E+04  0.7818609E-02  0.8947290E-01
        3   -1    0    0  501    0  0.00000000000E+00  0.00000000000E+00  0.69129960838E+03  0.69129961576E+03  0.10100000352E+00 0. -1.
       -3   -1    0    0    0  501  0.00000000000E+00  0.00000000000E+00 -0.71800895951E+03  0.71800896661E+03  0.10100000352E+00 0.  1.
    10030    2    1    2    0    0  0.00000000000E+00  0.00000000000E+00 -0.26709351129E+02  0.14093085824E+04  0.14090554605E+04 0.  0.
        5    1    3    3  502    0  0.31773089437E+03 -0.18386639660E+03  0.58806645679E+03  0.69325610033E+03  0.46999998093E+01 0. -1.
       -5    1    3    3    0  502 -0.31773089437E+03  0.18386639660E+03 -0.61477580792E+03  0.71605248204E+03  0.46999998093E+01 0.  1.
</event>
<event>
 5   0  0.1648213E-03  0.1345635E+04  0.7818609E-02  0.8994139E-01
       -2   -1    0    0    0  501  0.00000000000E+00  0.00000000000E+00  0.41238503696E+03  0.41238503697E+03  0.25500000920E-02 0.  1.
        2   -1    0    0  501    0  0.00000000000E+00  0.00000000000E+00 -0.10977200712E+04  0.10977200712E+04  0.25500000920E-02 0. -1.
    10030    2    1    2    0    0  0.00000000000E+00  0.00000000000E+00 -0.68533503420E+03  0.15101051081E+04  0.13456349165E+04 0.  0.
        4    1    3    3  502    0 -0.45147850055E+03 -0.44431312437E+03 -0.88155576525E+02  0.63954672036E+03  0.12699999809E+01 0.  1.
       -4    1    3    3    0  502  0.45147850055E+03  0.44431312437E+03 -0.59717945767E+03  0.87055838777E+03  0.12699999809E+01 0. -1.
</event>
<event>
 5   0  0.1578965E-03  0.1390468E+04  0.7818609E-02  0.8960747E-01
       -2   -1    0    0    0  501  0.00000000000E+00  0.00000000000E+00  0.31918614546E+03  0.31918614547E+03  0.25500000920E-02 0. -1.
        2   -1    0    0  501    0  0.00000000000E+00  0.00000000000E+00 -0.15143211641E+04  0.15143211641E+04  0.25500000920E-02 0.  1.
    10030    2    1    2    0    0  0.00000000000E+00  0.00000000000E+00 -0.11951350187E+04  0.18335073096E+04  0.13904680297E+04 0.  0.
        2    1    3    3  502    0 -0.26723402541E+03 -0.23360021696E+03  0.19070977690E+03  0.40293089323E+03  0.25500000920E-02 0. -1.
       -2    1    3    3    0  502  0.26723402541E+03  0.23360021696E+03 -0.13858447956E+04  0.14305764164E+04  0.25500000920E-02 0.  1.
</event>
<event>
 5   0  0.9007180E-04  0.1356216E+04  0.7818609E-02  0.8986136E-01
        1   -1    0    0  501    0  0.00000000000E+00  0.00000000000E+00  0.16358860921E+04  0.16358860921E+04  0.50400001928E-02 0.  1.
       -1   -1    0    0    0  501  0.00000000000E+00  0.00000000000E+00 -0.28108947238E+03  0.28108947243E+03  0.50400001928E-02 0. -1.
    10030    2    1    2    0    0  0.00000000000E+00  0.00000000000E+00  0.13547966197E+04  0.19169755646E+04  0.13562158509E+04 0.  0.
        2    1    3    3  502    0  0.39406541340E+03 -0.36117235146E+03  0.87626744303E+02  0.54167468449E+03  0.25500000920E-02 0. -1.
       -2    1    3    3    0  502 -0.39406541340E+03  0.36117235146E+03  0.12671698754E+04  0.13753008801E+04  0.25500000920E-02 0.  1.
</event>
<event>
 5   0  0.9007180E-04  0.1394813E+04  0.7818609E-02  0.8957582E-01
       -1   -1    0    0    0  501  0.00000000000E+00  0.00000000000E+00  0.50500445349E+03  0.50500445351E+03  0.50400001928E-02 0. -1.
        1   -1    0    0  501    0  0.00000000000E+00  0.00000000000E+00 -0.96311197993E+03  0.96311197994E+03  0.50400001928E-02 0.  1.
    10030    2    1    2    0    0  0.00000000000E+00  0.00000000000E+00 -0.45810752644E+03  0.14681164335E+04  0.13948130184E+04 0.  0.
        2    1    3    3  502    0  0.31159859218E+03 -0.37480846489E+02 -0.88458246786E+03  0.93860781957E+03  0.25500000920E-02 0.  1.
       -2    1    3    3    0  502 -0.31159859218E+03  0.37480846489E+02  0.42647494143E+03  0.52950861388E+03  0.25500000920E-02 0. -1.
</event>
<event>
 5   0  0.1648463E-03  0.1393684E+04  0.7818609E-02  0.8958403E-01
       -2   -1    0    0    0  501  0.00000000000E+00  0.00000000000E+00  0.45489914910E+03  0.45489914910E+03  0.25500000920E-02 0.  1.
        2   -1    0    0  501    0  0.00000000000E+00  0.00000000000E+00 -0.10674650456E+04  0.10674650456E+04  0.25500000920E-02 0. -1.
    10030    2    1    2    0    0  0.00000000000E+00  0.00000000000E+00 -0.61256589646E+03  0.15223641947E+04  0.13936842410E+04 0.  0.
        1    1    3    3  502    0 -0.62456470907E+02 -0.25463913577E+03  0.39896613940E+03  0.47740536302E+03  0.50400001928E-02 0.  1.
       -1    1    3    3    0  502  0.62456470907E+02  0.25463913577E+03 -0.10115320359E+04  0.10449588316E+04  0.50400001928E-02 0. -1.
</event>
<event>
 5   0  0.9639548E-04  0.1402612E+04  0.7818609E-02  0.8951930E-01
        1   -1    0    0  501    0  0.00000000000E+00  0.00000000000E+00  0.19950910892E+04  0.19950910892E+04  0.50400001928E-02 0.  1.
       -1   -1    0    0    0  501  0.00000000000E+00  0.00000000000E+00 -0.24652009766E+03  0.24652009771E+03  0.50400001928E-02 0. -1.
    10030    2    1    2    0    0  0.00000000000E+00  0.00000000000E+00  0.17485709916E+04  0.22416111869E+04  0.14026119210E+04 0.  0.
        1    1    3    3  502    0 -0.46698256679E+03 -0.24439763031E+03  0.13492341338E+03  0.54406548033E+03  0.50400001928E-02 0. -1.
       -1    1    3    3    0  502  0.46698256679E+03  0.24439763031E+03  0.16136475782E+04  0.16975457066E+04  0.50400001928E-02 0.  1.
</event>
<event>
 5   0  0.8609148E-04  0.1410676E+04  0.7818609E-02  0.8946127E-01
       -1   -1    0    0    0  501  0.00000000000E+00  0.00000000000E+00  0.54860409491E+03  0.54860409493E+03  0.50400001928E-02 0. -1.
        1   -1    0    0  501    0  0.00000000000E+00  0.00000000000E+00 -0.90685013902E+03  0.90685013904E+03  0.50400001928E-02 0.  1.
    10030    2    1    2    0    0  0.00000000000E+00  0.00000000000E+00 -0.35824604411E+03  0.14554542340E+04  0.14106760078E+04 0.  0.
        5    1    3    3  502    0  0.66959981469E+03 -0.20056291199E+03 -0.81842154107E+02  0.70378236812E+03  0.46999998093E+01 0. -1.
       -5    1    3    3    0  502 -0.66959981469E+03  0.20056291199E+03 -0.27640389001E+03  0.75167186585E+03  0.46999998093E+01 0.  1.
</event>
<event>
 5   0  0.9639548E-04  0.1406722E+04  0.7818609E-02  0.8948967E-01
        1   -1    0    0  501    0  0.00000000000E+00  0.00000000000E+00  0.14129764485E+04  0.14129764485E+04  0.50400001928E-02 0. -1.
       -1   -1    0    0    0  501  0.00000000000E+00  0.00000000000E+00 -0.35012387319E+03  0.35012387323E+03  0.50400001928E-02 0.  1.
    10030    2    1    2    0    0  0.00000000000E+00  0.00000000000E+00  0.10628525753E+04  0.17631003218E+04  0.14067221288E+04 0.  0.
        1    1    3    3  502    0 -0.30050115398E+03 -0.53715914363E+03  0.10478266200E+03  0.62435590444E+03  0.50400001928E-02 0.  1.
       -1    1    3    3    0  502  0.30050115398E+03  0.53715914363E+03  0.95806991334E+03  0.11387444173E+04  0.50400001928E-02 0. -1.
</event>
<event>
 5   0  0.8673728E-04  0.1426071E+04  0.7818609E-02  0.8935160E-01
       -1   -1    0    0    0  501  0.00000000000E+00  0.00000000000E+00  0.27948298081E+03  0.27948298086E+03  0.50400001928E-02 0. -1.
        1   -1    0    0  501    0  0.00000000000E+00  0.00000000000E+00 -0.18191428858E+04  0.18191428858E+04  0.50400001928E-02 0.  1.
    10030    2    1    2    0    0  0.00000000000E+00  0.00000000000E+00 -0.15396599050E+04  0.20986258667E+04  0.14260707925E+04 0.  0.
        3    1    3    3  502    0  0.93474046393E+02 -0.54518323978E+03 -0.10767343089E+03  0.56352084274E+03  0.10100000352E+00 0. -1.
       -3    1    3    3    0  502 -0.93474046393E+02  0.54518323978E+03 -0.14319864741E+04  0.15351050239E+04  0.10100000352E+00 0.  1.
</event>
<event>
 5   0  0.1706986E-03  0.1572488E+04  0.7818609E-02  0.8837630E-01
       -2   -1    0    0    0  501  0.00000000000E+00  0.00000000000E+00  0.32145005055E+03  0.32145005056E+03  0.25500000920E-02 0.  1.
        2   -1    0    0  501    0  0.00000000000E+00  0.00000000000E+00 -0.19230959600E+04  0.19230959600E+04  0.25500000920E-02 0. -1.
    10030    2    1    2    0    0  0.00000000000E+00  0.00000000000E+00 -0.16016459095E+04  0.22445460106E+04  0.15724875753E+04 0.  0.
        3    1    3    3  502    0  0.28591056182E+03  0.61586859382E+03 -0.23499409920E+03  0.71851319478E+03  0.10100000352E+00 0.  1.
       -3    1    3    3    0  502 -0.28591056182E+03 -0.61586859382E+03 -0.13666518103E+04  0.15260328158E+04  0.10100000352E+00 0. -1.
</event>
<event>
 5   0  0.1648463E-03  0.1389982E+04  0.7818609E-02  0.8961102E-01
       -2   -1    0    0    0  501  0.00000000000E+00  0.00000000000E+00  0.10460091074E+04  0.10460091074E+04  0.25500000920E-02 0. -1.
        2   -1    0    0  501    0  0.00000000000E+00  0.00000000000E+00 -0.46176712483E+03  0.46176712484E+03  0.25500000920E-02 0.  1.
    10030    2    1    2    0    0  0.00000000000E+00  0.00000000000E+00  0.58424198254E+03  0.15077762322E+04  0.13899821841E+04 0.  0.
        1    1    3    3  502    0  0.44429795392E+02  0.69297010687E+03  0.32339180806E+03  0.76600511570E+03  0.50400001928E-02 0.  1.
       -1    1    3    3    0  502 -0.44429795392E+02 -0.69297010687E+03  0.26085017448E+03  0.74177111651E+03  0.50400001928E-02 0. -1.
</event>
<event>
 5   0  0.6048000E-04  0.1383660E+04  0.7818609E-02  0.8965732E-01
       -3   -1    0    0    0  501  0.00000000000E+00  0.00000000000E+00  0.95561026629E+03  0.95561027163E+03  0.10100000352E+00 0. -1.
        3   -1    0    0  501    0  0.00000000000E+00  0.00000000000E+00 -0.50086169914E+03  0.50086170933E+03  0.10100000352E+00 0.  1.
    10030    2    1    2    0    0  0.00000000000E+00  0.00000000000E+00  0.45474856715E+03  0.14564719810E+04  0.13836597747E+04 0.  0.
        3    1    3    3  502    0 -0.80772559698E+02  0.26329062476E+03  0.89542290796E+03  0.93681820744E+03  0.10100000352E+00 0. -1.
       -3    1    3    3    0  502  0.80772559698E+02 -0.26329062476E+03 -0.44067434081E+03  0.51965377352E+03  0.10100000352E+00 0.  1.
</event>
<event>
 5   0  0.1648213E-03  0.1414825E+04  0.7818609E-02  0.8943157E-01
       -2   -1    0    0    0  501  0.00000000000E+00  0.00000000000E+00  0.47052989677E+03  0.47052989678E+03  0.25500000920E-02 0.  1.
        2   -1    0    0  501    0  0.00000000000E+00  0.00000000000E+00 -0.10635510671E+04  0.10635510671E+04  0.25500000920E-02 0. -1.
    10030    2    1    2    0    0  0.00000000000E+00  0.00000000000E+00 -0.59302117037E+03  0.15340809639E+04  0.14148251819E+04 0.  0.
        4    1    3    3  502    0  0.56958657222E+03  0.11902583365E+02  0.15819423759E+03  0.59126776037E+03  0.12699999809E+01 0.  1.
       -4    1    3    3    0  502 -0.56958657222E+03 -0.11902583365E+02 -0.75121540796E+03  0.94281320355E+03  0.12699999809E+01 0. -1.
</event>
<event>
 5   0  0.9007180E-04  0.1377413E+04  0.7818609E-02  0.8970332E-01
       -1   -1    0    0    0  501  0.00000000000E+00  0.00000000000E+00  0.34390370542E+03  0.34390370545E+03  0.50400001928E-02 0. -1.
        1   -1    0    0  501    0  0.00000000000E+00  0.00000000000E+00 -0.13792136215E+04  0.13792136215E+04  0.50400001928E-02 0.  1.
    10030    2    1    2    0    0  0.00000000000E+00  0.00000000000E+00 -0.10353099161E+04  0.17231173269E+04  0.13774130463E+04 0.  0.
        2    1    3    3  502    0  0.42430541923E+03  0.48760960060E+03 -0.81505829099E+03  0.10402491188E+04  0.25500000920E-02 0.  1.
       -2    1    3    3    0  502 -0.42430541923E+03 -0.48760960060E+03 -0.22025162508E+03  0.68286820818E+03  0.25500000920E-02 0. -1.
</event>
<event>
 5   0  0.1605214E-03  0.1390040E+04  0.7818609E-02  0.8961059E-01
       -2   -1    0    0    0  501  0.00000000000E+00  0.00000000000E+00  0.30235042229E+03  0.30235042231E+03  0.25500000920E-02 0. -1.
        2   -1    0    0  501    0  0.00000000000E+00  0.00000000000E+00 -0.15976597777E+04  0.15976597777E+04  0.25500000920E-02 0.  1.
    10030    2    1    2    0    0  0.00000000000E+00  0.00000000000E+00 -0.12953093554E+04  0.19000102000E+04  0.13900404433E+04 0.  0.
        5    1    3    3  502    0  0.43541995826E+03 -0.54027120023E+03 -0.70142529694E+03  0.98666258013E+03  0.46999998093E+01 0.  1.
       -5    1    3    3    0  502 -0.43541995826E+03  0.54027120023E+03 -0.59388405847E+03  0.91334761988E+03  0.46999998093E+01 0. -1.
</event>
<event>
 5   0  0.1605214E-03  0.1396004E+04  0.7818609E-02  0.8956716E-01
        2   -1    0    0  501    0  0.00000000000E+00  0.00000000000E+00  0.10588099238E+04  0.10588099238E+04  0.25500000920E-02 0. -1.
       -2   -1    0    0    0  501  0.00000000000E+00  0.00000000000E+00 -0.46014557003E+03  0.46014557004E+03  0.25500000920E-02 0.  1.
    10030    2    1    2    0    0  0.00000000000E+00  0.00000000000E+00  0.59866435372E+03  0.15189554938E+04  0.13960038624E+04 0.  0.
        5    1    3    3  502    0  0.15851818032E+03 -0.13821377960E+03 -0.42483280383E+03  0.47406335397E+03  0.46999998093E+01 0.  1.
       -5    1    3    3    0  502 -0.15851818032E+03  0.13821377960E+03  0.10234971576E+04  0.10448921398E+04  0.46999998093E+01 0. -1.
</event>
<event>
 5   0  0.1706986E-03  0.1386754E+04  0.7818609E-02  0.8963463E-01
        2   -1    0    0  501    0  0.00000000000E+00  0.00000000000E+00  0.81555256336E+03  0.81555256337E+03  0.25500000920E-02 0. -1.
       -2   -1    0    0    0  501  0.00000000000E+00  0.00000000000E+00 -0.58950392991E+03  0.58950392991E+03  0.25500000920E-02 0.  1.
    10030    2    1    2    0    0  0.00000000000E+00  0.00000000000E+00  0.22604863345E+03  0.14050564933E+04  0.13867536784E+04 0.  0.
        3    1    3    3  502    0  0.15623731805E+03  0.26626294580E+03  0.74207718414E+03  0.80373167990E+03  0.10100000352E+00 0. -1.
       -3    1    3    3    0  502 -0.15623731805E+03 -0.26626294580E+03 -0.51602855068E+03  0.60132481338E+03  0.10100000352E+00 0.  1.
</event>
<event>
 5   0  0.1605214E-03  0.1371198E+04  0.7818609E-02  0.8974935E-01
       -2   -1    0    0    0  501  0.00000000000E+00  0.00000000000E+00  0.28864239805E+03  0.28864239806E+03  0.25500000920E-02 0.  1.
        2   -1    0    0  501    0  0.00000000000E+00  0.00000000000E+00 -0.16284724894E+04  0.16284724894E+04  0.25500000920E-02 0. -1.
    10030    2    1    2    0    0  0.00000000000E+00  0.00000000000E+00 -0.13398300913E+04  0.19171148874E+04  0.13711983146E+04 0.  0.
        5    1    3    3  502    0 -0.47108943531E+03  0.46076802023E+03 -0.93442314291E+03  0.11434164266E+04  0.46999998093E+01 0. -1.
       -5    1    3    3    0  502  0.47108943531E+03 -0.46076802023E+03 -0.40540694841E+03  0.77369846087E+03  0.46999998093E+01 0.  1.
</event>
<event>
 5   0  0.1578965E-03  0.1195934E+04  0.7818609E-02  0.9116423E-01
        2   -1    0    0  501    0  0.00000000000E+00  0.00000000000E+00  0.12474893062E+04  0.12474893062E+04  0.25500000920E-02 0.  1.
       -2   -1    0    0    0  501  0.00000000000E+00  0.00000000000E+00 -0.28662736439E+03  0.28662736440E+03  0.25500000920E-02 0. -1.
    10030    2    1    2    0    0  0.00000000000E+00  0.00000000000E+00  0.96086194186E+03  0.15341166707E+04  0.11959340650E+04 0.  0.
        2    1    3    3  502    0 -0.27422857095E+03 -0.28816308355E+02  0.11610682260E+04  0.11933612672E+04  0.25500000920E-02 0.  1.
       -2    1    3    3    0  502  0.27422857095E+03  0.28816308355E+02 -0.20020628412E+03  0.34075540342E+03  0.25500000920E-02 0. -1.
</event>
<event>
 5   0  0.1605214E-03  0.1395895E+04  0.7818609E-02  0.8956795E-01
       -2   -1    0    0    0  501  0.00000000000E+00  0.00000000000E+00  0.22785262772E+03  0.22785262773E+03  0.25500000920E-02 0. -1.
        2   -1    0    0  501    0  0.00000000000E+00  0.00000000000E+00 -0.21379197479E+04  0.21379197479E+04  0.25500000920E-02 0.  1.
    10030    2    1    2    0    0  0.00000000000E+00  0.00000000000E+00 -0.19100671202E+04  0.23657723757E+04  0.13958948849E+04 0.  0.
        5    1    3    3  502    0  0.66587944899E+03  0.19567241809E+03 -0.10798685665E+04  0.12836749381E+04  0.46999998093E+01 0.  1.
       -5    1    3    3    0  502 -0.66587944899E+03 -0.19567241809E+03 -0.83019855366E+03  0.10820974375E+04  0.46999998093E+01 0. -1.
</event>
<event>
 5   0  0.1578965E-03  0.1385535E+04  0.7818609E-02  0.8964356E-01
        2   -1    0    0  501    0  0.00000000000E+00  0.00000000000E+00  0.96535389312E+03  0.96535389312E+03  0.25500000920E-02 0. -1.
       -2   -1    0    0    0  501  0.00000000000E+00  0.00000000000E+00 -0.49715131922E+03  0.49715131923E+03  0.25500000920E-02 0.  1.
    10030    2    1    2    0    0  0.00000000000E+00  0.00000000000E+00  0.46820257390E+03  0.14625052123E+04  0.13855352200E+04 0.  0.
        2    1    3    3  502    0 -0.60662094032E+03 -0.33456642715E+03  0.23601939474E+03  0.73186666416E+03  0.25500000920E-02 0.  1.
       -2    1    3    3    0  502  0.60662094032E+03  0.33456642715E+03  0.23218317916E+03  0.73063854819E+03  0.25500000920E-02 0. -1.
</event>
<event>
 5   0  0.1648213E-03  0.1402776E+04  0.7818609E-02  0.8951812E-01
        2   -1    0    0  501    0  0.00000000000E+00  0.00000000000E+00  0.14253959186E+04  0.14253959186E+04  0.25500000920E-02 0. -1.
       -2   -1    0    0    0  501  0.00000000000E+00  0.00000000000E+00 -0.34512875535E+03  0.34512875536E+03  0.25500000920E-02 0.  1.
    10030    2    1    2    0    0  0.00000000000E+00  0.00000000000E+00  0.10802671633E+04  0.17705246740E+04  0.14027759896E+04 0.  0.
        4    1    3    3  502    0 -0.26938579474E+03  0.55056262047E+03  0.97048238764E+03  0.11478351724E+04  0.12699999809E+01 0.  1.
       -4    1    3    3    0  502  0.26938579474E+03 -0.55056262047E+03  0.10978477564E+03  0.62268950155E+03  0.12699999809E+01 0. -1.
</event>
<event>
 5   0  0.1648463E-03  0.1400770E+04  0.7818609E-02  0.8953262E-01
       -2   -1    0    0    0  501  0.00000000000E+00  0.00000000000E+00  0.21259432670E+03  0.21259432672E+03  0.25500000920E-02 0.  1.
        2   -1    0    0  501    0  0.00000000000E+00  0.00000000000E+00 -0.23073944763E+04  0.23073944763E+04  0.25500000920E-02 0. -1.
    10030    2    1    2    0    0  0.00000000000E+00  0.00000000000E+00 -0.20948001496E+04  0.25199888030E+04  0.14007697529E+04 0.  0.
        1    1    3    3  502    0 -0.48752991308E+03  0.23370382541E+03 -0.24641724329E+03  0.59415852428E+03  0.50400001928E-02 0.  1.
       -1    1    3    3    0  502  0.48752991308E+03 -0.23370382541E+03 -0.18483829063E+04  0.19258302787E+04  0.50400001928E-02 0. -1.
</event>
<event>
 5   0  0.9639548E-04  0.1257844E+04  0.7818609E-02  0.9063680E-01
        1   -1    0    0  501    0  0.00000000000E+00  0.00000000000E+00  0.43252368652E+03  0.43252368655E+03  0.50400001928E-02 0.  1.
       -1   -1    0    0    0  501  0.00000000000E+00  0.00000000000E+00 -0.91450046082E+03  0.91450046084E+03  0.50400001928E-02 0. -1.
    10030    2    1    2    0    0  0.00000000000E+00  0.00000000000E+00 -0.48197677430E+03  0.13470241474E+04  0.12578443635E+04 0.  0.
        1    1    3    3  502    0 -0.59889628173E+03 -0.13518559912E+03 -0.94971770880E+02  0.62126607808E+03  0.50400001928E-02 0.  1.
       -1    1    3    3    0  502  0.59889628173E+03  0.13518559912E+03 -0.38700500342E+03  0.72575806931E+03  0.50400001928E-02 0. -1.
</event>
<event>
 5   0  0.8609148E-04  0.1402149E+04  0.7818609E-02  0.8952265E-01
        1   -1    0    0  501    0  0.00000000000E+00  0.00000000000E+00  0.17159218225E+03  0.17159218233E+03  0.50400001928E-02 0.  1.
       -1   -1    0    0    0  501  0.00000000000E+00  0.00000000000E+00 -0.28643797863E+04  0.28643797863E+04  0.50400001928E-02 0. -1.
    10030    2    1    2    0    0  0.00000000000E+00  0.00000000000E+00 -0.26927876041E+04  0.30359719687E+04  0.14021486062E+04 0.  0.
        5    1    3    3  502    0  0.21050517719E+03 -0.61606550775E+03 -0.78329307819E+03  0.10185378127E+04  0.46999998093E+01 0.  1.
       -5    1    3    3    0  502 -0.21050517719E+03  0.61606550775E+03 -0.19094945259E+04  0.20174341560E+04  0.46999998093E+01 0. -1.
</event>
<event>
 5   0  0.9007180E-04  0.1403796E+04  0.7818609E-02  0.8951075E-01
        1   -1    0    0  501    0  0.00000000000E+00  0.00000000000E+00  0.69710793244E+03  0.69710793246E+03  0.50400001928E-02 0.  1.
       -1   -1    0    0    0  501  0.00000000000E+00  0.00000000000E+00 -0.70672125417E+03  0.70672125419E+03  0.50400001928E-02 0. -1.
    10030    2    1    2    0    0  0.00000000000E+00  0.00000000000E+00 -0.96133217224E+01  0.14038291866E+04  0.14037962706E+04 0.  0.
        2    1    3    3  502    0  0.66826946272E+03 -0.21379240072E+03  0.14422074315E+02  0.70178291632E+03  0.25500000920E-02 0.  1.
       -2    1    3    3    0  502 -0.66826946272E+03  0.21379240072E+03 -0.24035396038E+02  0.70204627033E+03  0.25500000920E-02 0. -1.
</event>
<event>
 5   0  0.8609148E-04  0.1417958E+04  0.7818609E-02  0.8940921E-01
        1   -1    0    0  501    0  0.00000000000E+00  0.00000000000E+00  0.69409141370E+03  0.69409141372E+03  0.50400001928E-02 0.  1.
       -1   -1    0    0    0  501  0.00000000000E+00  0.00000000000E+00 -0.72418633922E+03  0.72418633923E+03  0.50400001928E-02 0. -1.
    10030    2    1    2    0    0  0.00000000000E+00  0.00000000000E+00 -0.30094925513E+02  0.14182777530E+04  0.14179584197E+04 0.  0.
        5    1    3    3  502    0  0.29935525194E+03  0.34792288902E+03 -0.55550749479E+03  0.72060708457E+03  0.46999998093E+01 0. -1.
       -5    1    3    3    0  502 -0.29935525194E+03 -0.34792288902E+03  0.52541256927E+03  0.69767066838E+03  0.46999998093E+01 0.  1.
</event>
<event>
 5   0  0.1648463E-03  0.1402059E+04  0.7818609E-02  0.8952330E-01
       -2   -1    0    0    0  501  0.00000000000E+00  0.00000000000E+00  0.86890831216E+03  0.86890831217E+03  0.25500000920E-02 0.  1.
        2   -1    0    0  501    0  0.00000000000E+00  0.00000000000E+00 -0.56558576479E+03  0.56558576479E+03  0.25500000920E-02 0. -1.
    10030    2    1    2    0    0  0.00000000000E+00  0.00000000000E+00  0.30332254738E+03  0.14344940770E+04  0.14020587324E+04 0.  0.
        1    1    3    3  502    0 -0.35632357926E+03  0.26496086280E+03 -0.40335612219E+03  0.59988908416E+03  0.50400001928E-02 0. -1.
       -1    1    3    3    0  502  0.35632357926E+03 -0.26496086280E+03  0.70667866957E+03  0.83460499280E+03  0.50400001928E-02 0.  1.
</event>
<event>
 5   0  0.1648213E-03  0.1409973E+04  0.7818609E-02  0.8946631E-01
        2   -1    0    0  501    0  0.00000000000E+00  0.00000000000E+00  0.14387654440E+04  0.14387654440E+04  0.25500000920E-02 0. -1.
       -2   -1    0    0    0  501  0.00000000000E+00  0.00000000000E+00 -0.34543920783E+03  0.34543920784E+03  0.25500000920E-02 0.  1.
    10030    2    1    2    0    0  0.00000000000E+00  0.00000000000E+00  0.10933262362E+04  0.17842046518E+04  0.14099730426E+04 0.  0.
        4    1    3    3  502    0  0.90222424742E+02  0.58969794208E+02  0.14282758743E+04  0.14323376378E+04  0.12699999809E+01 0. -1.
       -4    1    3    3    0  502 -0.90222424742E+02 -0.58969794208E+02 -0.33494963818E+03  0.35186701404E+03  0.12699999809E+01 0.  1.
</event>
<event>
 5   0  0.8502300E-04  0.1471235E+04  0.7818609E-02  0.8903810E-01
       -1   -1    0    0    0  501  0.00000000000E+00  0.00000000000E+00  0.76383636414E+03  0.76383636415E+03  0.50400001928E-02 0.  1.
        1   -1    0    0  501    0  0.00000000000E+00  0.00000000000E+00 -0.70844153027E+03  0.70844153029E+03  0.50400001928E-02 0. -1.
    10030    2    1    2    0    0  0.00000000000E+00  0.00000000000E+00  0.55394833869E+02  0.14722778944E+04  0.14712354029E+04 0.  0.
        4    1    3    3  502    0  0.24690236706E+03  0.59301290570E+03  0.38642974656E+03  0.74963634325E+03  0.12699999809E+01 0.  1.
       -4    1    3    3    0  502 -0.24690236706E+03 -0.59301290570E+03 -0.33103491269E+03  0.72264155119E+03  0.12699999809E+01 0. -1.
</event>
<event>
 5   0  0.9007180E-04  0.1404206E+04  0.7818609E-02  0.8950780E-01
       -1   -1    0    0    0  501  0.00000000000E+00  0.00000000000E+00  0.74676258774E+03  0.74676258776E+03  0.50400001928E-02 0. -1.
        1   -1    0    0  501    0  0.00000000000E+00  0.00000000000E+00 -0.66011431955E+03  0.66011431957E+03  0.50400001928E-02 0.  1.
    10030    2    1    2    0    0  0.00000000000E+00  0.00000000000E+00  0.86648268190E+02  0.14068769073E+04  0.14042060782E+04 0.  0.
        2    1    3    3  502    0 -0.66240878742E+03  0.17534165674E+03  0.19664650435E+03  0.71288143889E+03  0.25500000920E-02 0.  1.
       -2    1    3    3    0  502  0.66240878742E+03 -0.17534165674E+03 -0.10999823616E+03  0.69399546843E+03  0.25500000920E-02 0. -1.
</event>
<event>
 5   0  0.9007180E-04  0.1381719E+04  0.7818609E-02  0.8967159E-01
        1   -1    0    0  501    0  0.00000000000E+00  0.00000000000E+00  0.10961875809E+04  0.10961875809E+04  0.50400001928E-02 0.  1.
       -1   -1    0    0    0  501  0.00000000000E+00  0.00000000000E+00 -0.43540612548E+03  0.43540612551E+03  0.50400001928E-02 0. -1.
    10030    2    1    2    0    0  0.00000000000E+00  0.00000000000E+00  0.66078145544E+03  0.15315937064E+04  0.13817189113E+04 0.  0.
        2    1    3    3  502    0 -0.20909402806E+03  0.55108414608E+03  0.72985953324E+03  0.93814124038E+03  0.25500000920E-02 0.  1.
       -2    1    3    3    0  502  0.20909402806E+03 -0.55108414608E+03 -0.69078077800E+02  0.59345246606E+03  0.25500000920E-02 0. -1.
</event>
<event>
 5   0  0.1578965E-03  0.1348104E+04  0.7818609E-02  0.8992264E-01
       -2   -1    0    0    0  501  0.00000000000E+00  0.00000000000E+00  0.10634744599E+04  0.10634744599E+04  0.25500000920E-02 0.  1.
        2   -1    0    0  501    0  0.00000000000E+00  0.00000000000E+00 -0.42722811985E+03  0.42722811986E+03  0.25500000920E-02 0. -1.
    10030    2    1    2    0    0  0.00000000000E+00  0.00000000000E+00  0.63624634004E+03  0.14907025798E+04  0.13481041414E+04 0.  0.
        2    1    3    3  502    0  0.58267363308E+03  0.24347575254E+03  0.57485194841E+02  0.63410847053E+03  0.25500000920E-02 0. -1.
       -2    1    3    3    0  502 -0.58267363308E+03 -0.24347575254E+03  0.57876114520E+03  0.85659410923E+03  0.25500000920E-02 0.  1.
</event>
<event>
 5   0  0.9639548E-04  0.1450697E+04  0.7818609E-02  0.8917917E-01
       -1   -1    0    0    0  501  0.00000000000E+00  0.00000000000E+00  0.33169185008E+03  0.33169185012E+03  0.50400001928E-02 0.  1.
        1   -1    0    0  501    0  0.00000000000E+00  0.00000000000E+00 -0.15862030241E+04  0.15862030241E+04  0.50400001928E-02 0. -1.
    10030    2    1    2    0    0  0.00000000000E+00  0.00000000000E+00 -0.12545111740E+04  0.19178948743E+04  0.14506972334E+04 0.  0.
        1    1    3    3  502    0 -0.24344781927E+03 -0.58108251076E+03 -0.11024713670E+04  0.12697900772E+04  0.50400001928E-02 0.  1.
       -1    1    3    3    0  502  0.24344781927E+03  0.58108251076E+03 -0.15203980701E+03  0.64810479705E+03  0.50400001928E-02 0. -1.
</event>
<event>
 5   0  0.8502300E-04  0.1445551E+04  0.7818609E-02  0.8921491E-01
        1   -1    0    0  501    0  0.00000000000E+00  0.00000000000E+00  0.11217736394E+04  0.11217736394E+04  0.50400001928E-02 0.  1.
       -1   -1    0    0    0  501  0.00000000000E+00  0.00000000000E+00 -0.46569519279E+03  0.46569519282E+03  0.50400001928E-02 0. -1.
    10030    2    1    2    0    0  0.00000000000E+00  0.00000000000E+00  0.65607844660E+03  0.15874688322E+04  0.14455512323E+04 0.  0.
        4    1    3    3  502    0  0.14555496297E+03 -0.45265672445E+03  0.92583272663E+03  0.10407940277E+04  0.12699999809E+01 0.  1.
       -4    1    3    3    0  502 -0.14555496297E+03  0.45265672445E+03 -0.26975428003E+03  0.54667480455E+03  0.12699999809E+01 0. -1.
</event>
<event>
 5   0  0.8673728E-04  0.1382376E+04  0.7818609E-02  0.8966675E-01
       -1   -1    0    0    0  501  0.00000000000E+00  0.00000000000E+00  0.50024392945E+03  0.50024392947E+03  0.50400001928E-02 0.  1.
        1   -1    0    0  501    0  0.00000000000E+00  0.00000000000E+00 -0.95501634292E+03  0.95501634293E+03  0.50400001928E-02 0. -1.
    10030    2    1    2    0    0  0.00000000000E+00  0.00000000000E+00 -0.45477241347E+03  0.14552602724E+04  0.13823764004E+04 0.  0.
        3    1    3    3  502    0  0.16139397564E+03  0.66850543460E+03 -0.15450011829E+03  0.70485305434E+03  0.10100000352E+00 0. -1.
       -3    1    3    3    0  502 -0.16139397564E+03 -0.66850543460E+03 -0.30027229518E+03  0.75040721806E+03  0.10100000352E+00 0.  1.
</event>
<event>
 5   0  0.8502300E-04  0.1423051E+04  0.7818609E-02  0.8937300E-01
        1   -1    0    0  501    0  0.00000000000E+00  0.00000000000E+00  0.10458247390E+04  0.10458247390E+04  0.50400001928E-02 0. -1.
       -1   -1    0    0    0  501  0.00000000000E+00  0.00000000000E+00 -0.48408540732E+03  0.48408540735E+03  0.50400001928E-02 0.  1.
    10030    2    1    2    0    0  0.00000000000E+00  0.00000000000E+00  0.56173933167E+03  0.15299101464E+04  0.14230509405E+04 0.  0.
        4    1    3    3  502    0  0.53478171894E+03 -0.39180120516E+03  0.55866637367E+03  0.86695409408E+03  0.12699999809E+01 0. -1.
       -4    1    3    3    0  502 -0.53478171894E+03  0.39180120516E+03  0.30729580074E+01  0.66295605227E+03  0.12699999809E+01 0.  1.
</event>
<event>
 5   0  0.1648213E-03  0.1392690E+04  0.7818609E-02  0.8959127E-01
        2   -1    0    0  501    0  0.00000000000E+00  0.00000000000E+00  0.73618133864E+03  0.73618133864E+03  0.25500000920E-02 0. -1.
       -2   -1    0    0    0  501  0.00000000000E+00  0.00000000000E+00 -0.65866421105E+03  0.65866421106E+03  0.25500000920E-02 0.  1.
    10030    2    1    2    0    0  0.00000000000E+00  0.00000000000E+00  0.77517127589E+02  0.13948455497E+04  0.13926899161E+04 0.  0.
        4    1    3    3  502    0 -0.66401342796E+03  0.11272148320E+03  0.21587889758E+03  0.70726605787E+03  0.12699999809E+01 0. -1.
       -4    1    3    3    0  502  0.66401342796E+03 -0.11272148320E+03 -0.13836177000E+03  0.68757949183E+03  0.12699999809E+01 0.  1.
</event>
<event>
 5   0  0.1578965E-03  0.1246102E+04  0.7818609E-02  0.9073434E-01
        2   -1    0    0  501    0  0.00000000000E+00  0.00000000000E+00  0.12156613416E+04  0.12156613416E+04  0.25500000920E-02 0. -1.
       -2   -1    0    0    0  501  0.00000000000E+00  0.00000000000E+00 -0.31932627102E+03  0.31932627103E+03  0.25500000920E-02 0.  1.
    10030    2    1    2    0    0  0.00000000000E+00  0.00000000000E+00  0.89633507059E+03  0.15349876126E+04  0.12461020874E+04 0.  0.
        2    1    3    3  502    0  0.58141129192E+03 -0.21908006655E+03  0.50538390835E+03  0.80090452662E+03  0.25500000920E-02 0. -1.
       -2    1    3    3    0  502 -0.58141129192E+03  0.21908006655E+03  0.39095116223E+03  0.73408308603E+03  0.25500000920E-02 0.  1.
</event>
<event>
 5   0  0.1605214E-03  0.1395295E+04  0.7818609E-02  0.8957231E-01
        2   -1    0    0  501    0  0.00000000000E+00  0.00000000000E+00  0.13202765833E+04  0.13202765833E+04  0.25500000920E-02 0.  1.
       -2   -1    0    0    0  501  0.00000000000E+00  0.00000000000E+00 -0.36864412977E+03  0.36864412977E+03  0.25500000920E-02 0. -1.
    10030    2    1    2    0    0  0.00000000000E+00  0.00000000000E+00  0.95163245352E+03  0.16889207131E+04  0.13952952549E+04 0.  0.
        5    1    3    3  502    0  0.53472065316E+03 -0.20921789696E+03 -0.37865096379E+01  0.57422533293E+03  0.46999998093E+01 0. -1.
       -5    1    3    3    0  502 -0.53472065316E+03  0.20921789696E+03  0.95541896315E+03  0.11146953801E+04  0.46999998093E+01 0.  1.
</event>
<event>
 5   0  0.1706986E-03  0.1449260E+04  0.7818609E-02  0.8918913E-01
        2   -1    0    0  501    0  0.00000000000E+00  0.00000000000E+00  0.14192520698E+04  0.14192520698E+04  0.25500000920E-02 0. -1.
       -2   -1    0    0    0  501  0.00000000000E+00  0.00000000000E+00 -0.36997581933E+03  0.36997581934E+03  0.25500000920E-02 0.  1.
    10030    2    1    2    0    0  0.00000000000E+00  0.00000000000E+00  0.10492762505E+04  0.17892278892E+04  0.14492604285E+04 0.  0.
        3    1    3    3  502    0 -0.21837523199E+03  0.30081263193E+03  0.12925755994E+04  0.13449638181E+04  0.10100000352E+00 0. -1.
       -3    1    3    3    0  502  0.21837523199E+03 -0.30081263193E+03 -0.24329934893E+03  0.44426407110E+03  0.10100000352E+00 0.  1.
</event>
<event>
 5   0  0.1648463E-03  0.1399650E+04  0.7818609E-02  0.8954072E-01
       -2   -1    0    0    0  501  0.00000000000E+00  0.00000000000E+00  0.81943509255E+03  0.81943509255E+03  0.25500000920E-02 0. -1.
        2   -1    0    0  501    0  0.00000000000E+00  0.00000000000E+00 -0.59767435000E+03  0.59767435001E+03  0.25500000920E-02 0.  1.
    10030    2    1    2    0    0  0.00000000000E+00  0.00000000000E+00  0.22176074254E+03  0.14171094426E+04  0.13996504368E+04 0.  0.
        1    1    3    3  502    0 -0.26557098472E+03  0.31793736264E+03 -0.46019725444E+03  0.61918787739E+03  0.50400001928E-02 0.  1.
       -1    1    3    3    0  502  0.26557098472E+03 -0.31793736264E+03  0.68195799699E+03  0.79792156517E+03  0.50400001928E-02 0. -1.
</event>
<event>
 5   0  0.8673728E-04  0.1360155E+04  0.7818609E-02  0.8983176E-01
        1   -1    0    0  501    0  0.00000000000E+00  0.00000000000E+00  0.38729460540E+03  0.38729460543E+03  0.50400001928E-02 0. -1.
       -1   -1    0    0    0  501  0.00000000000E+00  0.00000000000E+00 -0.11941948939E+04  0.11941948939E+04  0.50400001928E-02 0.  1.
    10030    2    1    2    0    0  0.00000000000E+00  0.00000000000E+00 -0.80690028846E+03  0.15814894993E+04  0.13601547562E+04 0.  0.
        3    1    3    3  502    0  0.20027923537E+03 -0.49371363597E+03  0.87986698495E+02  0.54000610717E+03  0.10100000352E+00 0. -1.
       -3    1    3    3    0  502 -0.20027923537E+03  0.49371363597E+03 -0.89488698696E+03  0.10414833921E+04  0.10100000352E+00 0.  1.
</event>
<event>
 5   0  0.8673728E-04  0.1447325E+04  0.7818609E-02  0.8920257E-01
        1   -1    0    0  501    0  0.00000000000E+00  0.00000000000E+00  0.22087500460E+04  0.22087500460E+04  0.50400001928E-02 0.  1.
       -1   -1    0    0    0  501  0.00000000000E+00  0.00000000000E+00 -0.23709680155E+03  0.23709680161E+03  0.50400001928E-02 0. -1.
    10030    2    1    2    0    0  0.00000000000E+00  0.00000000000E+00  0.19716532444E+04  0.24458468476E+04  0.14473252176E+04 0.  0.
        3    1    3    3  502    0 -0.60590770767E+03 -0.19647441671E+03  0.40541948027E+03  0.75504391383E+03  0.10100000352E+00 0. -1.
       -3    1    3    3    0  502  0.60590770767E+03  0.19647441671E+03  0.15662337641E+04  0.16908029338E+04  0.10100000352E+00 0.  1.
</event>
<event>
 5   0  0.1605214E-03  0.1408072E+04  0.7818609E-02  0.8947996E-01
       -2   -1    0    0    0  501  0.00000000000E+00  0.00000000000E+00  0.60710457008E+03  0.60710457009E+03  0.25500000920E-02 0. -1.
        2   -1    0    0  501    0  0.00000000000E+00  0.00000000000E+00 -0.81644334529E+03  0.81644334529E+03  0.25500000920E-02 0.  1.
    10030    2    1    2    0    0  0.00000000000E+00  0.00000000000E+00 -0.20933877520E+03  0.14235479154E+04  0.14080717114E+04 0.  0.
        5    1    3    3  502    0 -0.19183126011E+03  0.44536230558E+03  0.41132997272E+03  0.63589405725E+03  0.46999998093E+01 0. -1.
       -5    1    3    3    0  502  0.19183126011E+03 -0.44536230558E+03 -0.62066874792E+03  0.78765385813E+03  0.46999998093E+01 0.  1.
</event>
<event>
 5   0  0.8502300E-04  0.1428789E+04  0.7818609E-02  0.8933239E-01
       -1   -1    0    0    0  501  0.00000000000E+00  0.00000000000E+00  0.40124531680E+03  0.40124531683E+03  0.50400001928E-02 0.  1.
        1   -1    0    0  501    0  0.00000000000E+00  0.00000000000E+00 -0.12719386512E+04  0.12719386512E+04  0.50400001928E-02 0. -1.
    10030    2    1    2    0    0  0.00000000000E+00  0.00000000000E+00 -0.87069333442E+03  0.16731839681E+04  0.14287888957E+04 0.  0.
        4    1    3    3  502    0 -0.10045073004E+02  0.67859583871E+03 -0.17410894997E+03  0.70064881015E+03  0.12699999809E+01 0.  1.
       -4    1    3    3    0  502  0.10045073004E+02 -0.67859583871E+03 -0.69658438444E+03  0.97253515790E+03  0.12699999809E+01 0. -1.
</event>
<event>
 5   0  0.1648463E-03  0.1403989E+04  0.7818609E-02  0.8950936E-01
       -2   -1    0    0    0  501  0.00000000000E+00  0.00000000000E+00  0.23721789861E+03  0.23721789862E+03  0.25500000920E-02 0.  1.
        2   -1    0    0  501    0  0.00000000000E+00  0.00000000000E+00 -0.20773988965E+04  0.20773988965E+04  0.25500000920E-02 0. -1.
    10030    2    1    2    0    0  0.00000000000E+00  0.00000000000E+00 -0.18401809979E+04  0.23146167951E+04  0.14039888900E+04 0.  0.
        1    1    3    3  502    0 -0.69623514312E+03 -0.40907262103E+02 -0.10517663401E+04  0.12619941413E+04  0.50400001928E-02 0.  1.
       -1    1    3    3    0  502  0.69623514312E+03  0.40907262103E+02 -0.78841465782E+03  0.10526226538E+04  0.50400001928E-02 0. -1.
</event>
<event>
 5   0  0.1706986E-03  0.1225385E+04  0.7818609E-02  0.9090923E-01
       -2   -1    0    0    0  501  0.00000000000E+00  0.00000000000E+00  0.34386935736E+03  0.34386935737E+03  0.25500000920E-02 0. -1.
        2   -1    0    0  501    0  0.00000000000E+00  0.00000000000E+00 -0.10916700415E+04  0.10916700415E+04  0.25500000920E-02 0.  1.
    10030    2    1    2    0    0  0.00000000000E+00  0.00000000000E+00 -0.74780068410E+03  0.14355393988E+04  0.12253846345E+04 0.  0.
        3    1    3    3  502    0  0.39710419428E+03 -0.14097959649E+03  0.14715414361E+03  0.44634217806E+03  0.10100000352E+00 0. -1.
       -3    1    3    3    0  502 -0.39710419428E+03  0.14097959649E+03 -0.89495482770E+03  0.98919722077E+03  0.10100000352E+00 0.  1.
</event>
<event>
 5   0  0.8673728E-04  0.1478477E+04  0.7818609E-02  0.8898893E-01
        1   -1    0    0  501    0  0.00000000000E+00  0.00000000000E+00  0.80053404965E+03  0.80053404967E+03  0.50400001928E-02 0. -1.
       -1   -1    0    0    0  501  0.00000000000E+00  0.00000000000E+00 -0.68263626030E+03  0.68263626032E+03  0.50400001928E-02 0.  1.
    10030    2    1    2    0    0  0.00000000000E+00  0.00000000000E+00  0.11789778935E+03  0.14831703100E+04  0.14784770136E+04 0.  0.
        3    1    3    3  502    0  0.28034561979E+03 -0.31181311314E+03 -0.55179607554E+03  0.69303679790E+03  0.10100000352E+00 0.  1.
       -3    1    3    3    0  502 -0.28034561979E+03  0.31181311314E+03  0.66969386489E+03  0.79013351209E+03  0.10100000352E+00 0. -1.
</event>
<event>
 5   0  0.1706986E-03  0.1400535E+04  0.7818609E-02  0.8953431E-01
        2   -1    0    0  501    0  0.00000000000E+00  0.00000000000E+00  0.19099721157E+04  0.19099721157E+04  0.25500000920E-02 0. -1.
       -2   -1    0    0    0  501  0.00000000000E+00  0.00000000000E+00 -0.25674438069E+03  0.25674438070E+03  0.25500000920E-02 0.  1.
    10030    2    1    2    0    0  0.00000000000E+00  0.00000000000E+00  0.16532277350E+04  0.21667164964E+04  0.14005350520E+04 0.  0.
        3    1    3    3  502    0  0.63909055087E+02 -0.58787263408E+03  0.24631866889E+03  0.64058683882E+03  0.10100000352E+00 0.  1.
       -3    1    3    3    0  502 -0.63909055087E+02  0.58787263408E+03  0.14069090661E+04  0.15261296576E+04  0.10100000352E+00 0. -1.
</event>
<event>
 5   0  0.1648463E-03  0.1389770E+04  0.7818609E-02  0.8961257E-01
       -2   -1    0    0    0  501  0.00000000000E+00  0.00000000000E+00  0.33531124336E+03  0.33531124337E+03  0.25500000920E-02 0. -1.
        2   -1    0    0  501    0  0.00000000000E+00  0.00000000000E+00 -0.14400501097E+04  0.14400501097E+04  0.25500000920E-02 0.  1.
    10030    2    1    2    0    0  0.00000000000E+00  0.00000000000E+00 -0.11047388664E+04  0.17753613531E+04  0.13897697547E+04 0.  0.
        1    1    3    3  502    0  0.40094132696E+02 -0.69230106646E+03 -0.49557407771E+03  0.85233911832E+03  0.50400001928E-02 0. -1.
       -1    1    3    3    0  502 -0.40094132696E+02  0.69230106646E+03 -0.60916478865E+03  0.92302223476E+03  0.50400001928E-02 0.  1.
</event>
<event>
 5   0  0.9007180E-04  0.1372733E+04  0.7818609E-02  0.8973796E-01
        1   -1    0    0  501    0  0.00000000000E+00  0.00000000000E+00  0.65985344455E+03  0.65985344457E+03  0.50400001928E-02 0. -1.
       -1   -1    0    0    0  501  0.00000000000E+00  0.00000000000E+00 -0.71394458368E+03  0.71394458370E+03  0.50400001928E-02 0.  1.
    10030    2    1    2    0    0  0.00000000000E+00  0.00000000000E+00 -0.54091139132E+02  0.13737980283E+04  0.13727327384E+04 0.  0.
        2    1    3    3  502    0 -0.30096333539E+03 -0.61179221752E+03 -0.10603809771E+03  0.69000922083E+03  0.25500000920E-02 0. -1.
       -2    1    3    3    0  502  0.30096333539E+03  0.61179221752E+03  0.51946958579E+02  0.68378880744E+03  0.25500000920E-02 0.  1.
</event>
<event>
 5   0  0.1648213E-03  0.1362278E+04  0.7818609E-02  0.8981586E-01
        2   -1    0    0  501    0  0.00000000000E+00  0.00000000000E+00  0.16226120969E+04  0.16226120969E+04  0.25500000920E-02 0.  1.
       -2   -1    0    0    0  501  0.00000000000E+00  0.00000000000E+00 -0.28592790506E+03  0.28592790507E+03  0.25500000920E-02 0. -1.
    10030    2    1    2    0    0  0.00000000000E+00  0.00000000000E+00  0.13366841918E+04  0.19085400019E+04  0.13622776187E+04 0.  0.
        4    1    3    3  502    0 -0.23277895085E+03  0.52243087676E+03  0.15011063382E+03  0.59131622355E+03  0.12699999809E+01 0. -1.
       -4    1    3    3    0  502  0.23277895085E+03 -0.52243087676E+03  0.11865735580E+04  0.13172237784E+04  0.12699999809E+01 0.  1.
</event>
<event>
 5   0  0.1578965E-03  0.1363050E+04  0.7818609E-02  0.8981008E-01
        2   -1    0    0  501    0  0.00000000000E+00  0.00000000000E+00  0.12665348420E+04  0.12665348420E+04  0.25500000920E-02 0.  1.
       -2   -1    0    0    0  501  0.00000000000E+00  0.00000000000E+00 -0.36672997531E+03  0.36672997532E+03  0.25500000920E-02 0. -1.
    10030    2    1    2    0    0  0.00000000000E+00  0.00000000000E+00  0.89980486666E+03  0.16332648173E+04  0.13630499497E+04 0.  0.
        2    1    3    3  502    0  0.60533750844E+03  0.28323041162E+03  0.60987267939E+03  0.90476386437E+03  0.25500000920E-02 0.  1.
       -2    1    3    3    0  502 -0.60533750844E+03 -0.28323041162E+03  0.28993218726E+03  0.72850095292E+03  0.25500000920E-02 0. -1.
</event>
<event>
 5   0  0.8673728E-04  0.1433042E+04  0.7818609E-02  0.8930242E-01
       -1   -1    0    0    0  501  0.00000000000E+00  0.00000000000E+00  0.26637194396E+03  0.26637194401E+03  0.50400001928E-02 0.  1.
        1   -1    0    0  501    0  0.00000000000E+00  0.00000000000E+00 -0.19273898046E+04  0.19273898046E+04  0.50400001928E-02 0. -1.
    10030    2    1    2    0    0  0.00000000000E+00  0.00000000000E+00 -0.16610178606E+04  0.21937617486E+04  0.14330423149E+04 0.  0.
        3    1    3    3  502    0  0.62563795845E+03  0.31057598507E+03 -0.10750715179E+04  0.12820526808E+04  0.10100000352E+00 0.  1.
       -3    1    3    3    0  502 -0.62563795845E+03 -0.31057598507E+03 -0.58594634272E+03  0.91170906780E+03  0.10100000352E+00 0. -1.
</event>
<event>
 5   0  0.8502300E-04  0.1403924E+04  0.7818609E-02  0.8950983E-01
        1   -1    0    0  501    0  0.00000000000E+00  0.00000000000E+00  0.17655100547E+04  0.17655100547E+04  0.50400001928E-02 0.  1.
       -1   -1    0    0    0  501  0.00000000000E+00  0.00000000000E+00 -0.27909831220E+03  0.27909831225E+03  0.50400001928E-02 0. -1.
    10030    2    1    2    0    0  0.00000000000E+00  0.00000000000E+00  0.14864117425E+04  0.20446083670E+04  0.14039243235E+04 0.  0.
        4    1    3    3  502    0 -0.48439434596E+03 -0.43876116117E+03  0.11162141205E+04  0.12934777983E+04  0.12699999809E+01 0.  1.
       -4    1    3    3    0  502  0.48439434596E+03  0.43876116117E+03  0.37019762200E+03  0.75113056867E+03  0.12699999809E+01 0. -1.
</event>
<event>
 5   0  0.8609148E-04  0.1386351E+04  0.7818609E-02  0.8963758E-01
       -1   -1    0    0    0  501  0.00000000000E+00  0.00000000000E+00  0.48133637287E+03  0.48133637289E+03  0.50400001928E-02 0.  1.
        1   -1    0    0  501    0  0.00000000000E+00  0.00000000000E+00 -0.99824632826E+03  0.99824632827E+03  0.50400001928E-02 0. -1.
    10030    2    1    2    0    0  0.00000000000E+00  0.00000000000E+00 -0.51690995539E+03  0.14795827012E+04  0.13863509900E+04 0.  0.
        5    1    3    3  502    0 -0.62136460136E+01  0.38113098051E+03  0.35941785389E+03  0.52393006918E+03  0.46999998093E+01 0.  1.
       -5    1    3    3    0  502  0.62136460136E+01 -0.38113098051E+03 -0.87632780928E+03  0.95565263198E+03  0.46999998093E+01 0. -1.
</event>
<event>
 5   0  0.8502300E-04  0.1369090E+04  0.7818609E-02  0.8976502E-01
        1   -1    0    0  501    0  0.00000000000E+00  0.00000000000E+00  0.20303205696E+04  0.20303205696E+04  0.50400001928E-02 0. -1.
       -1   -1    0    0    0  501  0.00000000000E+00  0.00000000000E+00 -0.23080187117E+03  0.23080187123E+03  0.50400001928E-02 0.  1.
    10030    2    1    2    0    0  0.00000000000E+00  0.00000000000E+00  0.17995186984E+04  0.22611224408E+04  0.13690898971E+04 0.  0.
        4    1    3    3  502    0  0.59828261762E+02 -0.36253003381E+03  0.18536539741E+04  0.18897201155E+04  0.12699999809E+01 0. -1.
       -4    1    3    3    0  502 -0.59828261762E+02  0.36253003381E+03 -0.54135275640E+02  0.37140232537E+03  0.12699999809E+01 0.  1.
</event>
<event>
 5   0  0.9639548E-04  0.1397785E+04  0.7818609E-02  0.8955423E-01
       -1   -1    0    0    0  501  0.00000000000E+00  0.00000000000E+00  0.87139140173E+03  0.87139140174E+03  0.50400001928E-02 0.  1.
        1   -1    0    0  501    0  0.00000000000E+00  0.00000000000E+00 -0.56054141055E+03  0.56054141058E+03  0.50400001928E-02 0. -1.
    10030    2    1    2    0    0  0.00000000000E+00  0.00000000000E+00  0.31084999117E+03  0.14319328123E+04  0.13977853419E+04 0.  0.
        1    1    3    3  502    0 -0.58496339144E+03  0.37495566901E+03  0.78238161358E+02  0.69921036388E+03  0.50400001928E-02 0.  1.
       -1    1    3    3    0  502  0.58496339144E+03 -0.37495566901E+03  0.23261182982E+03  0.73272244843E+03  0.50400001928E-02 0. -1.
</event>
<event>
 5   0  0.1605214E-03  0.1370738E+04  0.7818609E-02  0.8975277E-01
       -2   -1    0    0    0  501  0.00000000000E+00  0.00000000000E+00  0.59764560485E+03  0.59764560486E+03  0.25500000920E-02 0. -1.
        2   -1    0    0  501    0  0.00000000000E+00  0.00000000000E+00 -0.78596818886E+03  0.78596818886E+03  0.25500000920E-02 0.  1.
    10030    2    1    2    0    0  0.00000000000E+00  0.00000000000E+00 -0.18832258401E+03  0.13836137937E+04  0.13707376607E+04 0.  0.
        5    1    3    3  502    0  0.15730965380E+03 -0.66491612680E+03 -0.14803455528E+03  0.69913954430E+03  0.46999998093E+01 0.  1.
       -5    1    3    3    0  502 -0.15730965380E+03  0.66491612680E+03 -0.40288028730E+02  0.68447424941E+03  0.46999998093E+01 0. -1.
</event>
<event>
 5   0  0.8502300E-04  0.1293456E+04  0.7818609E-02  0.9034771E-01
       -1   -1    0    0    0  501  0.00000000000E+00  0.00000000000E+00  0.24471412457E+03  0.24471412462E+03  0.50400001928E-02 0. -1.
        1   -1    0    0  501    0  0.00000000000E+00  0.00000000000E+00 -0.17091661902E+04  0.17091661902E+04  0.50400001928E-02 0.  1.
    10030    2    1    2    0    0  0.00000000000E+00  0.00000000000E+00 -0.14644520656E+04  0.19538803148E+04  0.12934560032E+04 0.  0.
        4    1    3    3  502    0 -0.38248499841E+03 -0.43119608182E+03 -0.11752966237E+04  0.13090258216E+04  0.12699999809E+01 0.  1.
       -4    1    3    3    0  502  0.38248499841E+03  0.43119608182E+03 -0.28915544196E+03  0.64485449328E+03  0.12699999809E+01 0. -1.
</event>
<event>
 5   0  0.6048000E-04  0.1389078E+04  0.7818609E-02  0.8961763E-01
       -4   -1    0    0    0  501  0.00000000000E+00  0.00000000000E+00  0.56982695141E+03  0.56982836666E+03  0.12699999809E+01 0.  1.
        4   -1    0    0  501    0  0.00000000000E+00  0.00000000000E+00 -0.84654217600E+03  0.84654312864E+03  0.12699999809E+01 0. -1.
    10030    2    1    2    0    0  0.00000000000E+00  0.00000000000E+00 -0.27671522459E+03  0.14163714953E+04  0.13890777146E+04 0.  0.
        3    1    3    3  502    0 -0.18080247300E+03  0.19484241346E+03  0.51591309638E+03  0.58036146800E+03  0.10100000352E+00 0.  1.
       -3    1    3    3    0  502  0.18080247300E+03 -0.19484241346E+03 -0.79262832098E+03  0.83601002730E+03  0.10100000352E+00 0. -1.
</event>
<event>
 5   0  0.1706986E-03  0.1413178E+04  0.7818609E-02  0.8944335E-01
        2   -1    0    0  501    0  0.00000000000E+00  0.00000000000E+00  0.15263514370E+04  0.15263514370E+04  0.25500000920E-02 0. -1.
       -2   -1    0    0    0  501  0.00000000000E+00  0.00000000000E+00 -0.32709896313E+03  0.32709896314E+03  0.25500000920E-02 0.  1.
    10030    2    1    2    0    0  0.00000000000E+00  0.00000000000E+00  0.11992524739E+04  0.18534504001E+04  0.14131779399E+04 0.  0.
        3    1    3    3  502    0  0.33293702058E+03 -0.37720669493E+03 -0.51060116878E+02  0.50570653161E+03  0.10100000352E+00 0.  1.
       -3    1    3    3    0  502 -0.33293702058E+03  0.37720669493E+03  0.12503125907E+04  0.13477438685E+04  0.10100000352E+00 0. -1.
</event>
<event>
 5   0  0.1706986E-03  0.1428889E+04  0.7818609E-02  0.8933169E-01
        2   -1    0    0  501    0  0.00000000000E+00  0.00000000000E+00  0.74834762885E+03  0.74834762885E+03  0.25500000920E-02 0. -1.
       -2   -1    0    0    0  501  0.00000000000E+00  0.00000000000E+00 -0.68207716872E+03  0.68207716873E+03  0.25500000920E-02 0.  1.
    10030    2    1    2    0    0  0.00000000000E+00  0.00000000000E+00  0.66270460128E+02  0.14304247976E+04  0.14288888437E+04 0.  0.
        3    1    3    3  502    0  0.36544723126E+03 -0.47914908684E+03  0.41733847002E+03  0.73301223387E+03  0.10100000352E+00 0.  1.
       -3    1    3    3    0  502 -0.36544723126E+03  0.47914908684E+03 -0.35106800989E+03  0.69741256371E+03  0.10100000352E+00 0. -1.
</event>
<event>
 5   0  0.8609148E-04  0.1323071E+04  0.7818609E-02  0.9011467E-01
       -1   -1    0    0    0  501  0.00000000000E+00  0.00000000000E+00  0.14329054622E+04  0.14329054622E+04  0.50400001928E-02 0.  1.
        1   -1    0    0  501    0  0.00000000000E+00  0.00000000000E+00 -0.30541376698E+03  0.30541376702E+03  0.50400001928E-02 0. -1.
    10030    2    1    2    0    0  0.00000000000E+00  0.00000000000E+00  0.11274916952E+04  0.17383192292E+04  0.13230707539E+04 0.  0.
        5    1    3    3  502    0 -0.44517799221E+03  0.11436261351E+03 -0.61328450556E+02  0.46373000869E+03  0.46999998093E+01 0.  1.
       -5    1    3    3    0  502  0.44517799221E+03 -0.11436261351E+03  0.11888201457E+04  0.12745892205E+04  0.46999998093E+01 0. -1.
</event>
<event>
 5   0  0.1605214E-03  0.1404808E+04  0.7818609E-02  0.8950346E-01
        2   -1    0    0  501    0  0.00000000000E+00  0.00000000000E+00  0.17271530928E+04  0.17271530928E+04  0.25500000920E-02 0.  1.
       -2   -1    0    0    0  501  0.00000000000E+00  0.00000000000E+00 -0.28565566593E+03  0.28565566595E+03  0.25500000920E-02 0. -1.
    10030    2    1    2    0    0  0.00000000000E+00  0.00000000000E+00  0.14414974269E+04  0.20128087588E+04  0.14048075554E+04 0.  0.
        5    1    3    3  502    0  0.40983417496E+03  0.55190625095E+03  0.51418473308E+03  0.85847107728E+03  0.46999998093E+01 0.  1.
       -5    1    3    3    0  502 -0.40983417496E+03 -0.55190625095E+03  0.92731269382E+03  0.11543376815E+04  0.46999998093E+01 0. -1.
</event>
<event>
 5   0  0.1706986E-03  0.1378400E+04  0.7818609E-02  0.8969604E-01
        2   -1    0    0  501    0  0.00000000000E+00  0.00000000000E+00  0.12079810169E+04  0.12079810169E+04  0.25500000920E-02 0. -1.
       -2   -1    0    0    0  501  0.00000000000E+00  0.00000000000E+00 -0.39321553159E+03  0.39321553160E+03  0.25500000920E-02 0.  1.
    10030    2    1    2    0    0  0.00000000000E+00  0.00000000000E+00  0.81476548529E+03  0.16011965485E+04  0.13784003739E+04 0.  0.
        3    1    3    3  502    0 -0.91865742924E+02  0.52359422029E+03  0.91692395883E+03  0.10598772470E+04  0.10100000352E+00 0. -1.
       -3    1    3    3    0  502  0.91865742924E+02 -0.52359422029E+03 -0.10215847354E+03  0.54131930148E+03  0.10100000352E+00 0.  1.
</event>
<event>
 5   0  0.8673728E-04  0.1407136E+04  0.7818609E-02  0.8948670E-01
        1   -1    0    0  501    0  0.00000000000E+00  0.00000000000E+00  0.57720919343E+03  0.57720919345E+03  0.50400001928E-02 0. -1.
       -1   -1    0    0    0  501  0.00000000000E+00  0.00000000000E+00 -0.85758783163E+03  0.85758783164E+03  0.50400001928E-02 0.  1.
    10030    2    1    2    0    0  0.00000000000E+00  0.00000000000E+00 -0.28037863820E+03  0.14347970251E+04  0.14071355025E+04 0.  0.
        3    1    3    3  502    0  0.79104905604E+02  0.46251585241E+02 -0.85147719759E+03  0.85639373156E+03  0.10100000352E+00 0.  1.
       -3    1    3    3    0  502 -0.79104905604E+02 -0.46251585241E+02  0.57109855939E+03  0.57840329353E+03  0.10100000352E+00 0. -1.
</event>
<event>
 5   0  0.8673728E-04  0.1380917E+04  0.7818609E-02  0.8967748E-01
       -1   -1    0    0    0  501  0.00000000000E+00  0.00000000000E+00  0.19669069424E+03  0.19669069430E+03  0.50400001928E-02 0. -1.
        1   -1    0    0  501    0  0.00000000000E+00  0.00000000000E+00 -0.24237713890E+04  0.24237713890E+04  0.50400001928E-02 0.  1.
    10030    2    1    2    0    0  0.00000000000E+00  0.00000000000E+00 -0.22270806948E+04  0.26204620833E+04  0.13809174882E+04 0.  0.
        3    1    3    3  502    0  0.37681605808E+03  0.55923544752E+03 -0.83208593362E+03  0.10710283089E+04  0.10100000352E+00 0.  1.
       -3    1    3    3    0  502 -0.37681605808E+03 -0.55923544752E+03 -0.13949947612E+04  0.15494337744E+04  0.10100000352E+00 0. -1.
</event>
<event>
 5   0  0.8502300E-04  0.1383699E+04  0.7818609E-02  0.8965704E-01
       -1   -1    0    0    0  501  0.00000000000E+00  0.00000000000E+00  0.52803485510E+03  0.52803485512E+03  0.50400001928E-02 0.  1.
        1   -1    0    0  501    0  0.00000000000E+00  0.00000000000E+00 -0.90648467750E+03  0.90648467751E+03  0.50400001928E-02 0. -1.
    10030    2    1    2    0    0  0.00000000000E+00  0.00000000000E+00 -0.37844982240E+03  0.14345195326E+04  0.13836986744E+04 0.  0.
        4    1    3    3  502    0 -0.21484645982E+03  0.47409571605E+03 -0.66173665914E+03  0.84191612897E+03  0.12699999809E+01 0. -1.
       -4    1    3    3    0  502  0.21484645982E+03 -0.47409571605E+03  0.28328683674E+03  0.59260340367E+03  0.12699999809E+01 0.  1.
</event>
<event>
 5   0  0.1648463E-03  0.1413924E+04  0.7818609E-02  0.8943801E-01
       -2   -1    0    0    0  501  0.00000000000E+00  0.00000000000E+00  0.45628171454E+03  0.45628171455E+03  0.25500000920E-02 0. -1.
        2   -1    0    0  501    0  0.00000000000E+00  0.00000000000E+00 -0.10953649272E+04  0.10953649272E+04  0.25500000920E-02 0.  1.
    10030    2    1    2    0    0  0.00000000000E+00  0.00000000000E+00 -0.63908321262E+03  0.15516466417E+04  0.14139236005E+04 0.  0.
        1    1    3    3  502    0  0.64168470794E+03 -0.28081194810E+03 -0.21439457112E+03  0.73251597030E+03  0.50400001928E-02 0. -1.
       -1    1    3    3    0  502 -0.64168470794E+03  0.28081194810E+03 -0.42468864150E+03  0.81913067141E+03  0.50400001928E-02 0.  1.
</event>
<event>
 5   0  0.6048000E-04  0.1404244E+04  0.7818609E-02  0.8950752E-01
       -4   -1    0    0    0  501  0.00000000000E+00  0.00000000000E+00  0.10713171864E+04  0.10713179391E+04  0.12699999809E+01 0. -1.
        4   -1    0    0  501    0  0.00000000000E+00  0.00000000000E+00 -0.46015612049E+03  0.46015787304E+03  0.12699999809E+01 0.  1.
    10030    2    1    2    0    0  0.00000000000E+00  0.00000000000E+00  0.61116106589E+03  0.15314758122E+04  0.14042436807E+04 0.  0.
        3    1    3    3  502    0  0.44964671334E+03  0.42203292963E+03 -0.60513978795E+02  0.61964176129E+03  0.10100000352E+00 0.  1.
       -3    1    3    3    0  502 -0.44964671334E+03 -0.42203292963E+03  0.67167504468E+03  0.91183405089E+03  0.10100000352E+00 0. -1.
</event>
<event>
 5   0  0.1578965E-03  0.1416517E+04  0.7818609E-02  0.8941948E-01
        2   -1    0    0  501    0  0.00000000000E+00  0.00000000000E+00  0.12992244791E+04  0.12992244791E+04  0.25500000920E-02 0.  1.
       -2   -1    0    0    0  501  0.00000000000E+00  0.00000000000E+00 -0.38609988215E+03  0.38609988215E+03  0.25500000920E-02 0. -1.
    10030    2    1    2    0    0  0.00000000000E+00  0.00000000000E+00  0.91312459694E+03  0.16853243612E+04  0.14165174454E+04 0.  0.
        2    1    3    3  502    0 -0.14495197439E+03  0.67688210468E+03  0.63482864106E+03  0.93924856243E+03  0.25500000920E-02 0. -1.
       -2    1    3    3    0  502  0.14495197439E+03 -0.67688210468E+03  0.27829595589E+03  0.74607579882E+03  0.25500000920E-02 0.  1.
</event>
<event>
 5   0  0.1706986E-03  0.1395733E+04  0.7818609E-02  0.8956913E-01
        2   -1    0    0  501    0  0.00000000000E+00  0.00000000000E+00  0.22645045031E+04  0.22645045031E+04  0.25500000920E-02 0.  1.
       -2   -1    0    0    0  501  0.00000000000E+00  0.00000000000E+00 -0.21506599688E+03  0.21506599689E+03  0.25500000920E-02 0. -1.
    10030    2    1    2    0    0  0.00000000000E+00  0.00000000000E+00  0.20494385063E+04  0.24795705000E+04  0.13957333820E+04 0.  0.
        3    1    3    3  502    0  0.35428067671E+03 -0.26391982381E+03  0.64979630394E+02  0.44653200765E+03  0.10100000352E+00 0. -1.
       -3    1    3    3    0  502 -0.35428067671E+03  0.26391982381E+03  0.19844588759E+04  0.20330384924E+04  0.10100000352E+00 0.  1.
</event>
<event>
 5   0  0.9007180E-04  0.1402644E+04  0.7818609E-02  0.8951907E-01
       -1   -1    0    0    0  501  0.00000000000E+00  0.00000000000E+00  0.24273231640E+03  0.24273231645E+03  0.50400001928E-02 0.  1.
        1   -1    0    0  501    0  0.00000000000E+00  0.00000000000E+00 -0.20263160860E+04  0.20263160860E+04  0.50400001928E-02 0. -1.
    10030    2    1    2    0    0  0.00000000000E+00  0.00000000000E+00 -0.17835837696E+04  0.22690484025E+04  0.14026437857E+04 0.  0.
        2    1    3    3  502    0  0.15380282475E+02  0.52929146477E+03 -0.16356961411E+04  0.17192695756E+04  0.25500000920E-02 0. -1.
       -2    1    3    3    0  502 -0.15380282475E+02 -0.52929146477E+03 -0.14788762857E+03  0.54977882686E+03  0.25500000920E-02 0.  1.
</event>
<event>
 5   0  0.9639548E-04  0.1403394E+04  0.7818609E-02  0.8951365E-01
        1   -1    0    0  501    0  0.00000000000E+00  0.00000000000E+00  0.47772374734E+03  0.47772374737E+03  0.50400001928E-02 0.  1.
       -1   -1    0    0    0  501  0.00000000000E+00  0.00000000000E+00 -0.10306772254E+04  0.10306772254E+04  0.50400001928E-02 0. -1.
    10030    2    1    2    0    0  0.00000000000E+00  0.00000000000E+00 -0.55295347806E+03  0.15084009728E+04  0.14033944370E+04 0.  0.
        1    1    3    3  502    0  0.45617738658E+03  0.26834615459E+03  0.21872586268E+03  0.57266785290E+03  0.50400001928E-02 0.  1.
       -1    1    3    3    0  502 -0.45617738658E+03 -0.26834615459E+03 -0.77167934073E+03  0.93573311989E+03  0.50400001928E-02 0. -1.
</event>
<event>
 5   0  0.1706986E-03  0.1394063E+04  0.7818609E-02  0.8958127E-01
        2   -1    0    0  501    0  0.00000000000E+00  0.00000000000E+00  0.26615408088E+04  0.26615408088E+04  0.25500000920E-02 0.  1.
       -2   -1    0    0    0  501  0.00000000000E+00  0.00000000000E+00 -0.18254569989E+03  0.18254569991E+03  0.25500000920E-02 0. -1.
    10030    2    1    2    0    0  0.00000000000E+00  0.00000000000E+00  0.24789951089E+04  0.28440865087E+04  0.13940628820E+04 0.  0.
        3    1    3    3  502    0 -0.26394315079E+03  0.18719518399E+02 -0.76095875362E+02  0.27533070963E+03  0.10100000352E+00 0. -1.
       -3    1    3    3    0  502  0.26394315079E+03 -0.18719518399E+02  0.25550909843E+04  0.25687557991E+04  0.10100000352E+00 0.  1.
</event>
<event>
 5   0  0.1605214E-03  0.1324522E+04  0.7818609E-02  0.9010342E-01
        2   -1    0    0  501    0  0.00000000000E+00  0.00000000000E+00  0.15364494775E+04  0.15364494775E+04  0.25500000920E-02 0. -1.
       -2   -1    0    0    0  501  0.00000000000E+00  0.00000000000E+00 -0.28545659272E+03  0.28545659273E+03  0.25500000920E-02 0.  1.
    10030    2    1    2    0    0  0.00000000000E+00  0.00000000000E+00  0.12509928848E+04  0.18219060703E+04  0.13245220010E+04 0.  0.
        5    1    3    3  502    0 -0.46321609416E+03 -0.22300883770E+03  0.11997086931E+04  0.13052299145E+04  0.46999998093E+01 0. -1.
       -5    1    3    3    0  502  0.46321609416E+03  0.22300883770E+03  0.51284191755E+02  0.51667615574E+03  0.46999998093E+01 0.  1.
</event>
<event>
 5   0  0.8673728E-04  0.1405555E+04  0.7818609E-02  0.8949808E-01
       -1   -1    0    0    0  501  0.00000000000E+00  0.00000000000E+00  0.64137874041E+03  0.64137874043E+03  0.50400001928E-02 0. -1.
        1   -1    0    0  501    0  0.00000000000E+00  0.00000000000E+00 -0.77005358716E+03  0.77005358717E+03  0.50400001928E-02 0.  1.
    10030    2    1    2    0    0  0.00000000000E+00  0.00000000000E+00 -0.12867484675E+03  0.14114323276E+04  0.14055546945E+04 0.  0.
        3    1    3    3  502    0 -0.43411190428E+03 -0.23156658263E+03  0.43957749391E+03  0.65977618249E+03  0.10100000352E+00 0. -1.
       -3    1    3    3    0  502  0.43411190428E+03  0.23156658263E+03 -0.56825234066E+03  0.75165614512E+03  0.10100000352E+00 0.  1.
</event>
<event>
 5   0  0.8502300E-04  0.1402508E+04  0.7818609E-02  0.8952005E-01
       -1   -1    0    0    0  501  0.00000000000E+00  0.00000000000E+00  0.39600437753E+03  0.39600437757E+03  0.50400001928E-02 0. -1.
        1   -1    0    0  501    0  0.00000000000E+00  0.00000000000E+00 -0.12417968850E+04  0.12417968851E+04  0.50400001928E-02 0.  1.
    10030    2    1    2    0    0  0.00000000000E+00  0.00000000000E+00 -0.84579250751E+03  0.16378012626E+04  0.14025077576E+04 0.  0.
        4    1    3    3  502    0  0.44275639005E+03 -0.53947641231E+03 -0.50284663024E+03  0.86018856468E+03  0.12699999809E+01 0.  1.
       -4    1    3    3    0  502 -0.44275639005E+03  0.53947641231E+03 -0.34294587727E+03  0.77761269794E+03  0.12699999809E+01 0. -1.
</event>
<event>
 5   0  0.9007180E-04  0.1369467E+04  0.7818609E-02  0.8976221E-01
       -1   -1    0    0    0  501  0.00000000000E+00  0.00000000000E+00  0.11729073823E+04  0.11729073823E+04  0.50400001928E-02 0. -1.
        1   -1    0    0  501    0  0.00000000000E+00  0.00000000000E+00 -0.39974158288E+03  0.39974158291E+03  0.50400001928E-02 0.  1.
    10030    2    1    2    0    0  0.00000000000E+00  0.00000000000E+00  0.77316579940E+03  0.15726489652E+04  0.13694668358E+04 0.  0.
        2    1    3    3  502    0 -0.56276251454E+03 -0.87840279514E+02 -0.49860025876E+02  0.57175482916E+03  0.25500000920E-02 0.  1.
       -2    1    3    3    0  502  0.56276251454E+03  0.87840279514E+02  0.82302582527E+03  0.10008941360E+04  0.25500000920E-02 0. -1.
</event>
<event>
 5   0  0.1648213E-03  0.1547467E+04  0.7818609E-02  0.8853487E-01
       -2   -1    0    0    0  501  0.00000000000E+00  0.00000000000E+00  0.50725518499E+03  0.50725518500E+03  0.25500000920E-02 0. -1.
        2   -1    0    0  501    0  0.00000000000E+00  0.00000000000E+00 -0.11802021676E+04  0.11802021676E+04  0.25500000920E-02 0.  1.
    10030    2    1    2    0    0  0.00000000000E+00  0.00000000000E+00 -0.67294698265E+03  0.16874573526E+04  0.15474671808E+04 0.  0.
        4    1    3    3  502    0 -0.46097106038E+03  0.66752077574E+02  0.33724614710E+03  0.57505368011E+03  0.12699999809E+01 0. -1.
       -4    1    3    3    0  502  0.46097106038E+03 -0.66752077574E+02 -0.10101931298E+04  0.11124036725E+04  0.12699999809E+01 0.  1.
</event>
<event>
 5   0  0.8609148E-04  0.1423905E+04  0.7818609E-02  0.8936695E-01
       -1   -1    0    0    0  501  0.00000000000E+00  0.00000000000E+00  0.41687229928E+03  0.41687229931E+03  0.50400001928E-02 0.  1.
        1   -1    0    0  501    0  0.00000000000E+00  0.00000000000E+00 -0.12159023933E+04  0.12159023933E+04  0.50400001928E-02 0. -1.
    10030    2    1    2    0    0  0.00000000000E+00  0.00000000000E+00 -0.79903009400E+03  0.16327746926E+04  0.14239045283E+04 0.  0.
        5    1    3    3  502    0  0.60754875029E+03 -0.27025902517E+03 -0.69118556613E+03  0.95912199510E+03  0.46999998093E+01 0. -1.
       -5    1    3    3    0  502 -0.60754875029E+03  0.27025902517E+03 -0.10784452787E+03  0.67365269750E+03  0.46999998093E+01 0.  1.
</event>
<event>
 5   0  0.1605214E-03  0.1407499E+04  0.7818609E-02  0.8948408E-01
       -2   -1    0    0    0  501  0.00000000000E+00  0.00000000000E+00  0.10959485409E+04  0.10959485409E+04  0.25500000920E-02 0. -1.
        2   -1    0    0  501    0  0.00000000000E+00  0.00000000000E+00 -0.45190403264E+03  0.45190403265E+03  0.25500000920E-02 0.  1.
    10030    2    1    2    0    0  0.00000000000E+00  0.00000000000E+00  0.64404450825E+03  0.15478525735E+04  0.14074992934E+04 0.  0.
        5    1    3    3  502    0 -0.38618975672E+03  0.45449475509E+03  0.73281294857E+03  0.94485179694E+03  0.46999998093E+01 0. -1.
       -5    1    3    3    0  502  0.38618975672E+03 -0.45449475509E+03 -0.88768440311E+02  0.60300077661E+03  0.46999998093E+01 0.  1.
</event>
<event>
 5   0  0.9007180E-04  0.1386905E+04  0.7818609E-02  0.8963353E-01
       -1   -1    0    0    0  501  0.00000000000E+00  0.00000000000E+00  0.31185544389E+03  0.31185544393E+03  0.50400001928E-02 0.  1.
        1   -1    0    0  501    0  0.00000000000E+00  0.00000000000E+00 -0.15419838926E+04  0.15419838926E+04  0.50400001928E-02 0. -1.
    10030    2    1    2    0    0  0.00000000000E+00  0.00000000000E+00 -0.12301284487E+04  0.18538393365E+04  0.13869045696E+04 0.  0.
        2    1    3    3  502    0  0.35876277191E+03 -0.18998772122E+03 -0.13665437621E+04  0.14255693300E+04  0.25500000920E-02 0. -1.
       -2    1    3    3    0  502 -0.35876277191E+03  0.18998772122E+03  0.13641531347E+03  0.42827000651E+03  0.25500000920E-02 0.  1.
</event>
<event>
 5   0  0.1648463E-03  0.1458572E+04  0.7818609E-02  0.8912479E-01
       -2   -1    0    0    0  501  0.00000000000E+00  0.00000000000E+00  0.40996976282E+03  0.40996976283E+03  0.25500000920E-02 0.  1.
        2   -1    0    0  501    0  0.00000000000E+00  0.00000000000E+00 -0.12973108835E+04  0.12973108835E+04  0.25500000920E-02 0. -1.
    10030    2    1    2    0    0  0.00000000000E+00  0.00000000000E+00 -0.88734112064E+03  0.17072806463E+04  0.14585722268E+04 0.  0.
        1    1    3    3  502    0  0.69117176528E+03 -0.21926082204E+03 -0.53482443235E+03  0.90101658734E+03  0.50400001928E-02 0. -1.
       -1    1    3    3    0  502 -0.69117176528E+03  0.21926082204E+03 -0.35251668829E+03  0.80626405895E+03  0.50400001928E-02 0.  1.
</event>
<event>
 5   0  0.8609148E-04  0.1122358E+04  0.7818609E-02  0.9183670E-01
        1   -1    0    0  501    0  0.00000000000E+00  0.00000000000E+00  0.54475575804E+03  0.54475575807E+03  0.50400001928E-02 0. -1.
       -1   -1    0    0    0  501  0.00000000000E+00  0.00000000000E+00 -0.57809771857E+03  0.57809771860E+03  0.50400001928E-02 0.  1.
    10030    2    1    2    0    0  0.00000000000E+00  0.00000000000E+00 -0.33341960529E+02  0.11228534767E+04  0.11223583402E+04 0.  0.
        5    1    3    3  502    0 -0.54602963775E+03  0.12935424113E+03 -0.12300308207E+02  0.56129695579E+03  0.46999998093E+01 0.  1.
       -5    1    3    3    0  502  0.54602963775E+03 -0.12935424113E+03 -0.21041652323E+02  0.56155652087E+03  0.46999998093E+01 0. -1.
</event>
<event>
 5   0  0.9007180E-04  0.1398536E+04  0.7818609E-02  0.8954879E-01
        1   -1    0    0  501    0  0.00000000000E+00  0.00000000000E+00  0.13399419448E+04  0.13399419448E+04  0.50400001928E-02 0. -1.
       -1   -1    0    0    0  501  0.00000000000E+00  0.00000000000E+00 -0.36492310662E+03  0.36492310665E+03  0.50400001928E-02 0.  1.
    10030    2    1    2    0    0  0.00000000000E+00  0.00000000000E+00  0.97501883816E+03  0.17048650514E+04  0.13985360592E+04 0.  0.
        2    1    3    3  502    0  0.44121365146E+02  0.12134919559E+03  0.13252834632E+04  0.13315587031E+04  0.25500000920E-02 0. -1.
       -2    1    3    3    0  502 -0.44121365146E+02 -0.12134919559E+03 -0.35026462502E+03  0.37330634830E+03  0.25500000920E-02 0.  1.
</event>
<event>
 5   0  0.1578965E-03  0.1469650E+04  0.7818609E-02  0.8904890E-01
       -2   -1    0    0    0  501  0.00000000000E+00  0.00000000000E+00  0.10580988889E+04  0.10580988889E+04  0.25500000920E-02 0. -1.
        2   -1    0    0  501    0  0.00000000000E+00  0.00000000000E+00 -0.51031887103E+03  0.51031887104E+03  0.25500000920E-02 0.  1.
    10030    2    1    2    0    0  0.00000000000E+00  0.00000000000E+00  0.54778001789E+03  0.15684177600E+04  0.14696500678E+04 0.  0.
        2    1    3    3  502    0  0.18937295121E+03  0.68883454403E+03  0.90241790978E+02  0.72006855545E+03  0.25500000920E-02 0. -1.
       -2    1    3    3    0  502 -0.18937295121E+03 -0.68883454403E+03  0.45753822691E+03  0.84834920451E+03  0.25500000920E-02 0.  1.
</event>
<event>
 5   0  0.1578965E-03  0.1404561E+04  0.7818609E-02  0.8950524E-01
       -2   -1    0    0    0  501  0.00000000000E+00  0.00000000000E+00  0.84245473656E+03  0.84245473656E+03  0.25500000920E-02 0.  1.
        2   -1    0    0  501    0  0.00000000000E+00  0.00000000000E+00 -0.58542946240E+03  0.58542946240E+03  0.25500000920E-02 0. -1.
    10030    2    1    2    0    0  0.00000000000E+00  0.00000000000E+00  0.25702527416E+03  0.14278841990E+04  0.14045608901E+04 0.  0.
        2    1    3    3  502    0 -0.15064783936E+03  0.13560359416E+03 -0.55504751631E+03  0.59089834288E+03  0.25500000920E-02 0. -1.
       -2    1    3    3    0  502  0.15064783936E+03 -0.13560359416E+03  0.81207279047E+03  0.83698585608E+03  0.25500000920E-02 0.  1.
</event>
<event>
 5   0  0.1648213E-03  0.1456553E+04  0.7818609E-02  0.8913870E-01
       -2   -1    0    0    0  501  0.00000000000E+00  0.00000000000E+00  0.38929753261E+03  0.38929753262E+03  0.25500000920E-02 0. -1.
        2   -1    0    0  501    0  0.00000000000E+00  0.00000000000E+00 -0.13624195740E+04  0.13624195740E+04  0.25500000920E-02 0.  1.
    10030    2    1    2    0    0  0.00000000000E+00  0.00000000000E+00 -0.97312204136E+03  0.17517171066E+04  0.14565528875E+04 0.  0.
        4    1    3    3  502    0 -0.60582473797E+03 -0.17676721950E+03 -0.92369371362E+03  0.11186965417E+04  0.12699999809E+01 0.  1.
       -4    1    3    3    0  502  0.60582473797E+03  0.17676721950E+03 -0.49428327736E+02  0.63302056484E+03  0.12699999809E+01 0. -1.
</event>
<event>
 5   0  0.1578965E-03  0.1499154E+04  0.7818609E-02  0.8885016E-01
        2   -1    0    0  501    0  0.00000000000E+00  0.00000000000E+00  0.79878323373E+03  0.79878323374E+03  0.25500000920E-02 0. -1.
       -2   -1    0    0    0  501  0.00000000000E+00  0.00000000000E+00 -0.70340202663E+03  0.70340202664E+03  0.25500000920E-02 0.  1.
    10030    2    1    2    0    0  0.00000000000E+00  0.00000000000E+00  0.95381207097E+02  0.15021852604E+04  0.14991540888E+04 0.  0.
        2    1    3    3  502    0 -0.56694672061E+03 -0.12833105643E+02  0.53885766187E+03  0.78227926751E+03  0.25500000920E-02 0. -1.
       -2    1    3    3    0  502  0.56694672061E+03  0.12833105643E+02 -0.44347645478E+03  0.71990599286E+03  0.25500000920E-02 0.  1.
</event>
<event>
 5   0  0.1578965E-03  0.1390753E+04  0.7818609E-02  0.8960539E-01
        2   -1    0    0  501    0  0.00000000000E+00  0.00000000000E+00  0.13503882914E+04  0.13503882914E+04  0.25500000920E-02 0. -1.
       -2   -1    0    0    0  501  0.00000000000E+00  0.00000000000E+00 -0.35808114927E+03  0.35808114928E+03  0.25500000920E-02 0.  1.
    10030    2    1    2    0    0  0.00000000000E+00  0.00000000000E+00  0.99230714210E+03  0.17084694406E+04  0.13907531648E+04 0.  0.
        2    1    3    3  502    0 -0.13530486908E+03 -0.42339440144E+03 -0.16078346574E+03  0.47267488788E+03  0.25500000920E-02 0.  1.
       -2    1    3    3    0  502  0.13530486908E+03  0.42339440144E+03  0.11530906078E+04  0.12357945528E+04  0.25500000920E-02 0. -1.
</event>
<event>
 5   0  0.1706986E-03  0.1402825E+04  0.7818609E-02  0.8951776E-01
       -2   -1    0    0    0  501  0.00000000000E+00  0.00000000000E+00  0.32441113071E+03  0.32441113072E+03  0.25500000920E-02 0. -1.
        2   -1    0    0  501    0  0.00000000000E+00  0.00000000000E+00 -0.15165315046E+04  0.15165315046E+04  0.25500000920E-02 0.  1.
    10030    2    1    2    0    0  0.00000000000E+00  0.00000000000E+00 -0.11921203739E+04  0.18409426353E+04  0.14028252923E+04 0.  0.
        3    1    3    3  502    0  0.33897621735E+03 -0.33896450565E+03 -0.12680066782E+04  0.13555968273E+04  0.10100000352E+00 0.  1.
       -3    1    3    3    0  502 -0.33897621735E+03  0.33896450565E+03  0.75886304280E+02  0.48534580806E+03  0.10100000352E+00 0. -1.
</event>
<event>
 5   0  0.8502300E-04  0.1352587E+04  0.7818609E-02  0.8988872E-01
       -1   -1    0    0    0  501  0.00000000000E+00  0.00000000000E+00  0.44063200995E+03  0.44063200998E+03  0.50400001928E-02 0.  1.
        1   -1    0    0  501    0  0.00000000000E+00  0.00000000000E+00 -0.10379930596E+04  0.10379930596E+04  0.50400001928E-02 0. -1.
    10030    2    1    2    0    0  0.00000000000E+00  0.00000000000E+00 -0.59736104967E+03  0.14786250696E+04  0.13525871036E+04 0.  0.
        4    1    3    3  502    0 -0.65808348329E+03 -0.13114617008E+03 -0.20657919285E+03  0.70210381336E+03  0.12699999809E+01 0. -1.
       -4    1    3    3    0  502  0.65808348329E+03  0.13114617008E+03 -0.39078185681E+03  0.77652125626E+03  0.12699999809E+01 0.  1.
</event>
<event>
 5   0  0.9639548E-04  0.1395634E+04  0.7818609E-02  0.8956985E-01
       -1   -1    0    0    0  501  0.00000000000E+00  0.00000000000E+00  0.10250776891E+04  0.10250776891E+04  0.50400001928E-02 0. -1.
        1   -1    0    0  501    0  0.00000000000E+00  0.00000000000E+00 -0.47503585770E+03  0.47503585773E+03  0.50400001928E-02 0.  1.
    10030    2    1    2    0    0  0.00000000000E+00  0.00000000000E+00  0.55004183140E+03  0.15001135468E+04  0.13956341344E+04 0.  0.
        1    1    3    3  502    0  0.52379351837E+03 -0.12449512070E+03  0.75220375454E+03  0.92502387717E+03  0.50400001928E-02 0. -1.
       -1    1    3    3    0  502 -0.52379351837E+03  0.12449512070E+03 -0.20216192315E+03  0.57508966967E+03  0.50400001928E-02 0.  1.
</event>
<event>
 5   0  0.8673728E-04  0.1421964E+04  0.7818609E-02  0.8938072E-01
        1   -1    0    0  501    0  0.00000000000E+00  0.00000000000E+00  0.74316634943E+03  0.74316634945E+03  0.50400001928E-02 0.  1.
       -1   -1    0    0    0  501  0.00000000000E+00  0.00000000000E+00 -0.68019102953E+03  0.68019102954E+03  0.50400001928E-02 0. -1.
    10030    2    1    2    0    0  0.00000000000E+00  0.00000000000E+00  0.62975319903E+02  0.14233573790E+04  0.14219635500E+04 0.  0.
        3    1    3    3  502    0 -0.24677021415E+02 -0.85574376355E+02 -0.67458532493E+03  0.68043904950E+03  0.10100000352E+00 0. -1.
       -3    1    3    3    0  502  0.24677021415E+02  0.85574376355E+02  0.73756064484E+03  0.74291832949E+03  0.10100000352E+00 0.  1.
</event>
<event>
 5   0  0.9007180E-04  0.1380667E+04  0.7818609E-02  0.8967933E-01
        1   -1    0    0  501    0  0.00000000000E+00  0.00000000000E+00  0.20192051788E+03  0.20192051795E+03  0.50400001928E-02 0.  1.
       -1   -1    0    0    0  501  0.00000000000E+00  0.00000000000E+00 -0.23601375868E+04  0.23601375868E+04  0.50400001928E-02 0. -1.
    10030    2    1    2    0    0  0.00000000000E+00  0.00000000000E+00 -0.21582170689E+04  0.25620581047E+04  0.13806668010E+04 0.  0.
        2    1    3    3  502    0 -0.11093734923E+03  0.23556790586E+03 -0.22655184023E+04  0.22804326267E+04  0.25500000920E-02 0. -1.
       -2    1    3    3    0  502  0.11093734923E+03 -0.23556790586E+03  0.10730133340E+03  0.28162547804E+03  0.25500000920E-02 0.  1.
</event>
<event>
 5   0  0.8673728E-04  0.1411414E+04  0.7818609E-02  0.8945598E-01
       -1   -1    0    0    0  501  0.00000000000E+00  0.00000000000E+00  0.12931705335E+04  0.12931705335E+04  0.50400001928E-02 0. -1.
        1   -1    0    0  501    0  0.00000000000E+00  0.00000000000E+00 -0.38511741292E+03  0.38511741296E+03  0.50400001928E-02 0.  1.
    10030    2    1    2    0    0  0.00000000000E+00  0.00000000000E+00  0.90805312055E+03  0.16782879464E+04  0.14114141708E+04 0.  0.
        3    1    3    3  502    0  0.44844959405E+03 -0.49729080163E+02  0.10992530975E+04  0.11882497222E+04  0.10100000352E+00 0. -1.
       -3    1    3    3    0  502 -0.44844959405E+03  0.49729080163E+02 -0.19119997693E+03  0.49003822422E+03  0.10100000352E+00 0.  1.
</event>
<event>
 5   0  0.1648213E-03  0.1405736E+04  0.7818609E-02  0.8949677E-01
       -2   -1    0    0    0  501  0.00000000000E+00  0.00000000000E+00  0.24588595116E+03  0.24588595117E+03  0.25500000920E-02 0.  1.
        2   -1    0    0  501    0  0.00000000000E+00  0.00000000000E+00 -0.20091571028E+04  0.20091571028E+04  0.25500000920E-02 0. -1.
    10030    2    1    2    0    0  0.00000000000E+00  0.00000000000E+00 -0.17632711516E+04  0.22550430539E+04  0.14057361136E+04 0.  0.
        4    1    3    3  502    0  0.49868381075E+03  0.31222523899E+02 -0.16746250632E+04  0.17475786404E+04  0.12699999809E+01 0. -1.
       -4    1    3    3    0  502 -0.49868381075E+03 -0.31222523899E+02 -0.88646088369E+02  0.50746441352E+03  0.12699999809E+01 0.  1.
</event>
<event>
 5   0  0.1648213E-03  0.1322128E+04  0.7818609E-02  0.9012199E-01
        2   -1    0    0  501    0  0.00000000000E+00  0.00000000000E+00  0.16002225103E+04  0.16002225103E+04  0.25500000920E-02 0. -1.
       -2   -1    0    0    0  501  0.00000000000E+00  0.00000000000E+00 -0.27309071632E+03  0.27309071634E+03  0.25500000920E-02 0.  1.
    10030    2    1    2    0    0  0.00000000000E+00  0.00000000000E+00  0.13271317940E+04  0.18733132267E+04  0.13221284531E+04 0.  0.
        4    1    3    3  502    0 -0.62371665248E+03 -0.72896509280E+01  0.35337106381E+03  0.71690189234E+03  0.12699999809E+01 0.  1.
       -4    1    3    3    0  502  0.62371665248E+03  0.72896509280E+01  0.97376073018E+03  0.11564113343E+04  0.12699999809E+01 0. -1.
</event>
<event>
 5   0  0.1578965E-03  0.1222391E+04  0.7818609E-02  0.9093480E-01
        2   -1    0    0  501    0  0.00000000000E+00  0.00000000000E+00  0.94216089673E+03  0.94216089673E+03  0.25500000920E-02 0.  1.
       -2   -1    0    0    0  501  0.00000000000E+00  0.00000000000E+00 -0.39649275074E+03  0.39649275075E+03  0.25500000920E-02 0. -1.
    10030    2    1    2    0    0  0.00000000000E+00  0.00000000000E+00  0.54566814599E+03  0.13386536475E+04  0.12223910431E+04 0.  0.
        2    1    3    3  502    0  0.23681968920E+03 -0.51239447434E+03  0.16175273955E+02  0.56470638567E+03  0.25500000920E-02 0. -1.
       -2    1    3    3    0  502 -0.23681968920E+03  0.51239447434E+03  0.52949287204E+03  0.77394726181E+03  0.25500000920E-02 0.  1.
</event>
<event>
 5   0  0.6048000E-04  0.1419721E+04  0.7818609E-02  0.8939666E-01
        3   -1    0    0  501    0  0.00000000000E+00  0.00000000000E+00  0.86392085642E+03  0.86392086233E+03  0.10100000352E+00 0.  1.
       -3   -1    0    0    0  501  0.00000000000E+00  0.00000000000E+00 -0.58327339117E+03  0.58327339992E+03  0.10100000352E+00 0. -1.
    10030    2    1    2    0    0  0.00000000000E+00  0.00000000000E+00  0.28064746525E+03  0.14471942622E+04  0.14197211814E+04 0.  0.
        4    1    3    3  502    0 -0.38533708152E+03 -0.40748917714E+03  0.58390936102E+03  0.80961957156E+03  0.12699999809E+01 0.  1.
       -4    1    3    3    0  502  0.38533708152E+03  0.40748917714E+03 -0.30326189577E+03  0.63757469068E+03  0.12699999809E+01 0. -1.
</event>
<event>
 5   0  0.8502300E-04  0.1386632E+04  0.7818609E-02  0.8963552E-01
       -1   -1    0    0    0  501  0.00000000000E+00  0.00000000000E+00  0.34651629280E+03  0.34651629284E+03  0.50400001928E-02 0.  1.
        1   -1    0    0  501    0  0.00000000000E+00  0.00000000000E+00 -0.13871986848E+04  0.13871986848E+04  0.50400001928E-02 0. -1.
    10030    2    1    2    0    0  0.00000000000E+00  0.00000000000E+00 -0.10406823920E+04  0.17337149776E+04  0.13866318122E+04 0.  0.
        4    1    3    3  502    0 -0.50629863645E+03 -0.33573634600E+03 -0.10260379037E+03  0.61610579773E+03  0.12699999809E+01 0.  1.
       -4    1    3    3    0  502  0.50629863645E+03  0.33573634600E+03 -0.93807860162E+03  0.11176091799E+04  0.12699999809E+01 0. -1.
</event>
<event>
 5   0  0.8673728E-04  0.1400366E+04  0.7818609E-02  0.8953554E-01
        1   -1    0    0  501    0  0.00000000000E+00  0.00000000000E+00  0.25108253080E+03  0.25108253085E+03  0.50400001928E-02 0. -1.
       -1   -1    0    0    0  501  0.00000000000E+00  0.00000000000E+00 -0.19525696202E+04  0.19525696202E+04  0.50400001928E-02 0.  1.
    10030    2    1    2    0    0  0.00000000000E+00  0.00000000000E+00 -0.17014870894E+04  0.22036521511E+04  0.14003658406E+04 0.  0.
        3    1    3    3  502    0  0.38813027053E+03  0.50099230425E+03 -0.13191919979E+04  0.14635251735E+04  0.10100000352E+00 0.  1.
       -3    1    3    3    0  502 -0.38813027053E+03 -0.50099230425E+03 -0.38229509155E+03  0.74012697764E+03  0.10100000352E+00 0. -1.
</event>
<event>
 5   0  0.8502300E-04  0.1389204E+04  0.7818609E-02  0.8961670E-01
       -1   -1    0    0    0  501  0.00000000000E+00  0.00000000000E+00  0.32759675301E+03  0.32759675305E+03  0.50400001928E-02 0.  1.
        1   -1    0    0  501    0  0.00000000000E+00  0.00000000000E+00 -0.14727618692E+04  0.14727618692E+04  0.50400001928E-02 0. -1.
    10030    2    1    2    0    0  0.00000000000E+00  0.00000000000E+00 -0.11451651162E+04  0.18003586222E+04  0.13892040978E+04 0.  0.
        4    1    3    3  502    0 -0.62883434003E+02 -0.14464744683E+02  0.32370271851E+03  0.33007365538E+03  0.12699999809E+01 0.  1.
       -4    1    3    3    0  502  0.62883434003E+02  0.14464744683E+02 -0.14688678347E+04  0.14702849668E+04  0.12699999809E+01 0. -1.
</event>
<event>
 5   0  0.8502300E-04  0.1400992E+04  0.7818609E-02  0.8953101E-01
        1   -1    0    0  501    0  0.00000000000E+00  0.00000000000E+00  0.12223296611E+04  0.12223296611E+04  0.50400001928E-02 0. -1.
       -1   -1    0    0    0  501  0.00000000000E+00  0.00000000000E+00 -0.40144226167E+03  0.40144226170E+03  0.50400001928E-02 0.  1.
    10030    2    1    2    0    0  0.00000000000E+00  0.00000000000E+00  0.82088739939E+03  0.16237719228E+04  0.14009921965E+04 0.  0.
        4    1    3    3  502    0  0.48782993180E+03  0.44118645922E+03  0.68973915279E+03  0.95308197231E+03  0.12699999809E+01 0. -1.
       -4    1    3    3    0  502 -0.48782993180E+03 -0.44118645922E+03  0.13114824659E+03  0.67068995045E+03  0.12699999809E+01 0.  1.
</event>
<event>
 5   0  0.1648463E-03  0.1411557E+04  0.7818609E-02  0.8945495E-01
        2   -1    0    0  501    0  0.00000000000E+00  0.00000000000E+00  0.70725473919E+03  0.70725473919E+03  0.25500000920E-02 0. -1.
       -2   -1    0    0    0  501  0.00000000000E+00  0.00000000000E+00 -0.70430536658E+03  0.70430536658E+03  0.25500000920E-02 0.  1.
    10030    2    1    2    0    0  0.00000000000E+00  0.00000000000E+00  0.29493726097E+01  0.14115601058E+04  0.14115570245E+04 0.  0.
        1    1    3    3  502    0 -0.34798806506E+03  0.31364002417E+03 -0.52640670823E+03  0.70467707547E+03  0.50400001928E-02 0.  1.
       -1    1    3    3    0  502  0.34798806506E+03 -0.31364002417E+03  0.52935608084E+03  0.70688303031E+03  0.50400001928E-02 0. -1.
</event>
<event>
 5   0  0.1578965E-03  0.1407325E+04  0.7818609E-02  0.8948533E-01
       -2   -1    0    0    0  501  0.00000000000E+00  0.00000000000E+00  0.40086746784E+03  0.40086746785E+03  0.25500000920E-02 0.  1.
        2   -1    0    0  501    0  0.00000000000E+00  0.00000000000E+00 -0.12351740790E+04  0.12351740790E+04  0.25500000920E-02 0. -1.
    10030    2    1    2    0    0  0.00000000000E+00  0.00000000000E+00 -0.83430661117E+03  0.16360415469E+04  0.14073252721E+04 0.  0.
        2    1    3    3  502    0 -0.22775805413E+03 -0.19689185723E+03 -0.11565195614E+04  0.11950638604E+04  0.25500000920E-02 0. -1.
       -2    1    3    3    0  502  0.22775805413E+03  0.19689185723E+03  0.32221295019E+03  0.44097768644E+03  0.25500000920E-02 0.  1.
</event>
<event>
 5   0  0.1706986E-03  0.1440352E+04  0.7818609E-02  0.8925116E-01
        2   -1    0    0  501    0  0.00000000000E+00  0.00000000000E+00  0.77761312187E+03  0.77761312187E+03  0.25500000920E-02 0. -1.
       -2   -1    0    0    0  501  0.00000000000E+00  0.00000000000E+00 -0.66698168654E+03  0.66698168654E+03  0.25500000920E-02 0.  1.
    10030    2    1    2    0    0  0.00000000000E+00  0.00000000000E+00  0.11063143533E+03  0.14445948084E+04  0.14403523340E+04 0.  0.
        3    1    3    3  502    0  0.48053972786E+02 -0.32376206916E+03 -0.58807408799E+03  0.67302466886E+03  0.10100000352E+00 0.  1.
       -3    1    3    3    0  502 -0.48053972786E+02  0.32376206916E+03  0.69870552332E+03  0.77157013955E+03  0.10100000352E+00 0. -1.
</event>
<event>
 5   0  0.1605214E-03  0.1427648E+04  0.7818609E-02  0.8934045E-01
        2   -1    0    0  501    0  0.00000000000E+00  0.00000000000E+00  0.13521716565E+04  0.13521716565E+04  0.25500000920E-02 0.  1.
       -2   -1    0    0    0  501  0.00000000000E+00  0.00000000000E+00 -0.37683422763E+03  0.37683422764E+03  0.25500000920E-02 0. -1.
    10030    2    1    2    0    0  0.00000000000E+00  0.00000000000E+00  0.97533742890E+03  0.17290058842E+04  0.14276478023E+04 0.  0.
        5    1    3    3  502    0 -0.60644980679E+03 -0.28827454918E+03  0.19439829995E+03  0.69906821762E+03  0.46999998093E+01 0. -1.
       -5    1    3    3    0  502  0.60644980679E+03  0.28827454918E+03  0.78093912895E+03  0.10299376666E+04  0.46999998093E+01 0.  1.
</event>
<event>
 5   0  0.8609148E-04  0.1382671E+04  0.7818609E-02  0.8966458E-01
        1   -1    0    0  501    0  0.00000000000E+00  0.00000000000E+00  0.36673766369E+03  0.36673766372E+03  0.50400001928E-02 0. -1.
       -1   -1    0    0    0  501  0.00000000000E+00  0.00000000000E+00 -0.13032337698E+04  0.13032337698E+04  0.50400001928E-02 0.  1.
    10030    2    1    2    0    0  0.00000000000E+00  0.00000000000E+00 -0.93649610609E+03  0.16699714335E+04  0.13826711945E+04 0.  0.
        5    1    3    3  502    0 -0.50030593452E+03 -0.90773435015E+02 -0.10339473607E+04  0.11522218013E+04  0.46999998093E+01 0.  1.
       -5    1    3    3    0  502  0.50030593452E+03  0.90773435015E+02  0.97451254651E+02  0.51774963221E+03  0.46999998093E+01 0. -1.
</event>
<event>
 5   0  0.9007180E-04  0.1394788E+04  0.7818609E-02  0.8957600E-01
        1   -1    0    0  501    0  0.00000000000E+00  0.00000000000E+00  0.43876644983E+03  0.43876644986E+03  0.50400001928E-02 0.  1.
       -1   -1    0    0    0  501  0.00000000000E+00  0.00000000000E+00 -0.11084681186E+04  0.11084681186E+04  0.50400001928E-02 0. -1.
    10030    2    1    2    0    0  0.00000000000E+00  0.00000000000E+00 -0.66970166876E+03  0.15472345685E+04  0.13947883297E+04 0.  0.
        2    1    3    3  502    0  0.36995199055E+02  0.56043016484E+03  0.12374389546E+03  0.57512013188E+03  0.25500000920E-02 0.  1.
       -2    1    3    3    0  502 -0.36995199055E+02 -0.56043016484E+03 -0.79344556421E+03  0.97211443657E+03  0.25500000920E-02 0. -1.
</event>
<event>
 5   0  0.8609148E-04  0.1624392E+04  0.7818609E-02  0.8805702E-01
        1   -1    0    0  501    0  0.00000000000E+00  0.00000000000E+00  0.96513082544E+03  0.96513082545E+03  0.50400001928E-02 0.  1.
       -1   -1    0    0    0  501  0.00000000000E+00  0.00000000000E+00 -0.68349521965E+03  0.68349521967E+03  0.50400001928E-02 0. -1.
    10030    2    1    2    0    0  0.00000000000E+00  0.00000000000E+00  0.28163560579E+03  0.16486260451E+04  0.16243919546E+04 0.  0.
        5    1    3    3  502    0 -0.40193739847E+03  0.51875306266E+03  0.62647721782E+03  0.90727846153E+03  0.46999998093E+01 0.  1.
       -5    1    3    3    0  502  0.40193739847E+03 -0.51875306266E+03 -0.34484161203E+03  0.74134758359E+03  0.46999998093E+01 0. -1.
</event>
<event>
 5   0  0.1578965E-03  0.1422540E+04  0.7818609E-02  0.8937662E-01
        2   -1    0    0  501    0  0.00000000000E+00  0.00000000000E+00  0.45250671591E+03  0.45250671592E+03  0.25500000920E-02 0. -1.
       -2   -1    0    0    0  501  0.00000000000E+00  0.00000000000E+00 -0.11180062551E+04  0.11180062551E+04  0.25500000920E-02 0.  1.
    10030    2    1    2    0    0  0.00000000000E+00  0.00000000000E+00 -0.66549953921E+03  0.15705129710E+04  0.14225404583E+04 0.  0.
        2    1    3    3  502    0 -0.46355671801E+03  0.87416604380E+02  0.25495689259E+03  0.53621778282E+03  0.25500000920E-02 0. -1.
       -2    1    3    3    0  502  0.46355671801E+03 -0.87416604380E+02 -0.92045643180E+03  0.10342951882E+04  0.25500000920E-02 0.  1.
</event>
<event>
 5   0  0.1648463E-03  0.1410688E+04  0.7818609E-02  0.8946118E-01
       -2   -1    0    0    0  501  0.00000000000E+00  0.00000000000E+00  0.38213355801E+03  0.38213355802E+03  0.25500000920E-02 0.  1.
        2   -1    0    0  501    0  0.00000000000E+00  0.00000000000E+00 -0.13019279240E+04  0.13019279240E+04  0.25500000920E-02 0. -1.
    10030    2    1    2    0    0  0.00000000000E+00  0.00000000000E+00 -0.91979436595E+03  0.16840614820E+04  0.14106882715E+04 0.  0.
        1    1    3    3  502    0  0.24204722057E+03 -0.38020037490E+03 -0.11075981157E+04  0.11957896002E+04  0.50400001928E-02 0. -1.
       -1    1    3    3    0  502 -0.24204722057E+03  0.38020037490E+03  0.18780374977E+03  0.48827188175E+03  0.50400001928E-02 0.  1.
</event>
<event>
 5   0  0.1648463E-03  0.1414669E+04  0.7818609E-02  0.8943268E-01
       -2   -1    0    0    0  501  0.00000000000E+00  0.00000000000E+00  0.34144089419E+03  0.34144089420E+03  0.25500000920E-02 0.  1.
        2   -1    0    0  501    0  0.00000000000E+00  0.00000000000E+00 -0.14653260007E+04  0.14653260007E+04  0.25500000920E-02 0. -1.
    10030    2    1    2    0    0  0.00000000000E+00  0.00000000000E+00 -0.11238851065E+04  0.18067668949E+04  0.14146691768E+04 0.  0.
        1    1    3    3  502    0  0.70217787381E+02 -0.50414419481E+03  0.65339949494E+02  0.51318731069E+03  0.50400001928E-02 0.  1.
       -1    1    3    3    0  502 -0.70217787381E+02  0.50414419481E+03 -0.11892250560E+04  0.12935795842E+04  0.50400001928E-02 0. -1.
</event>
<event>
 5   0  0.1706986E-03  0.1028242E+04  0.7818609E-02  0.9278100E-01
        2   -1    0    0  501    0  0.00000000000E+00  0.00000000000E+00  0.59713924142E+03  0.59713924143E+03  0.25500000920E-02 0. -1.
       -2   -1    0    0    0  501  0.00000000000E+00  0.00000000000E+00 -0.44264481416E+03  0.44264481417E+03  0.25500000920E-02 0.  1.
    10030    2    1    2    0    0  0.00000000000E+00  0.00000000000E+00  0.15449442726E+03  0.10397840556E+04  0.10282423616E+04 0.  0.
        3    1    3    3  502    0  0.49145696188E+03 -0.54069002940E+02 -0.65285886050E+02  0.49871400580E+03  0.10100000352E+00 0.  1.
       -3    1    3    3    0  502 -0.49145696188E+03  0.54069002940E+02  0.21978031331E+03  0.54107004979E+03  0.10100000352E+00 0. -1.
</event>
<event>
 5   0  0.8502300E-04  0.1433787E+04  0.7818609E-02  0.8929718E-01
       -1   -1    0    0    0  501  0.00000000000E+00  0.00000000000E+00  0.12514892727E+04  0.12514892727E+04  0.50400001928E-02 0. -1.
        1   -1    0    0  501    0  0.00000000000E+00  0.00000000000E+00 -0.41065975708E+03  0.41065975712E+03  0.50400001928E-02 0.  1.
    10030    2    1    2    0    0  0.00000000000E+00  0.00000000000E+00  0.84082951560E+03  0.16621490298E+04  0.14337869866E+04 0.  0.
        4    1    3    3  502    0  0.20529375762E+03 -0.28835118747E+03 -0.30228948146E+03  0.46548091017E+03  0.12699999809E+01 0.  1.
       -4    1    3    3    0  502 -0.20529375762E+03  0.28835118747E+03  0.11431189971E+04  0.11966681196E+04  0.12699999809E+01 0. -1.
</event>
<event>
 5   0  0.1706986E-03  0.1396765E+04  0.7818609E-02  0.8956163E-01
        2   -1    0    0  501    0  0.00000000000E+00  0.00000000000E+00  0.10386852168E+04  0.10386852168E+04  0.25500000920E-02 0.  1.
       -2   -1    0    0    0  501  0.00000000000E+00  0.00000000000E+00 -0.46957281570E+03  0.46957281570E+03  0.25500000920E-02 0. -1.
    10030    2    1    2    0    0  0.00000000000E+00  0.00000000000E+00  0.56911240107E+03  0.15082580325E+04  0.13967653230E+04 0.  0.
        3    1    3    3  502    0  0.48397125751E+03  0.14815671923E+03  0.80417365285E+03  0.95019675104E+03  0.10100000352E+00 0.  1.
       -3    1    3    3    0  502 -0.48397125751E+03 -0.14815671923E+03 -0.23506125178E+03  0.55806128143E+03  0.10100000352E+00 0. -1.
</event>
<event>
 5   0  0.9007180E-04  0.1384482E+04  0.7818609E-02  0.8965128E-01
        1   -1    0    0  501    0  0.00000000000E+00  0.00000000000E+00  0.75943463037E+03  0.75943463039E+03  0.50400001928E-02 0.  1.
       -1   -1    0    0    0  501  0.00000000000E+00  0.00000000000E+00 -0.63099263772E+03  0.63099263774E+03  0.50400001928E-02 0. -1.
    10030    2    1    2    0    0  0.00000000000E+00  0.00000000000E+00  0.12844199265E+03  0.13904272681E+04  0.13844820846E+04 0.  0.
        2    1    3    3  502    0 -0.10333089457E+03  0.62783737745E+02  0.74874791525E+03  0.75844743529E+03  0.25500000920E-02 0.  1.
       -2    1    3    3    0  502  0.10333089457E+03 -0.62783737745E+02 -0.62030592259E+03  0.63197983284E+03  0.25500000920E-02 0. -1.
</event>
<event>
 5   0  0.6048000E-04  0.1406716E+04  0.7818609E-02  0.8948971E-01
        4   -1    0    0  501    0  0.00000000000E+00  0.00000000000E+00  0.30833276514E+03  0.30833538065E+03  0.12699999809E+01 0. -1.
       -4   -1    0    0    0  501  0.00000000000E+00  0.00000000000E+00 -0.16044666444E+04  0.16044671470E+04  0.12699999809E+01 0.  1.
    10030    2    1    2    0    0  0.00000000000E+00  0.00000000000E+00 -0.12961338793E+04  0.19128025277E+04  0.14067162034E+04 0.  0.
        1    1    3    3  502    0  0.84566563767E+02 -0.37694067080E+02  0.30001188616E+03  0.31397369040E+03  0.50400001928E-02 0. -1.
       -1    1    3    3    0  502 -0.84566563767E+02  0.37694067080E+02 -0.15961457654E+04  0.15988288373E+04  0.50400001928E-02 0.  1.
</event>
<event>
 5   0  0.1706986E-03  0.1437636E+04  0.7818609E-02  0.8927017E-01
        2   -1    0    0  501    0  0.00000000000E+00  0.00000000000E+00  0.93026392579E+03  0.93026392579E+03  0.25500000920E-02 0. -1.
       -2   -1    0    0    0  501  0.00000000000E+00  0.00000000000E+00 -0.55543299382E+03  0.55543299383E+03  0.25500000920E-02 0.  1.
    10030    2    1    2    0    0  0.00000000000E+00  0.00000000000E+00  0.37483093196E+03  0.14856969196E+04  0.14376359447E+04 0.  0.
        3    1    3    3  502    0 -0.61695133738E+03 -0.60663175484E+02  0.56343410469E+03  0.83771532998E+03  0.10100000352E+00 0. -1.
       -3    1    3    3    0  502  0.61695133738E+03  0.60663175484E+02 -0.18860317273E+03  0.64798158964E+03  0.10100000352E+00 0.  1.
</event>
<event>
 5   0  0.9007180E-04  0.1398324E+04  0.7818609E-02  0.8955033E-01
       -1   -1    0    0    0  501  0.00000000000E+00  0.00000000000E+00  0.11272920548E+04  0.11272920549E+04  0.50400001928E-02 0.  1.
        1   -1    0    0  501    0  0.00000000000E+00  0.00000000000E+00 -0.43362969801E+03  0.43362969804E+03  0.50400001928E-02 0. -1.
    10030    2    1    2    0    0  0.00000000000E+00  0.00000000000E+00  0.69366235684E+03  0.15609217529E+04  0.13983237298E+04 0.  0.
        2    1    3    3  502    0  0.26078105833E+03  0.68412900243E+02 -0.37326955888E+03  0.46045330805E+03  0.25500000920E-02 0. -1.
       -2    1    3    3    0  502 -0.26078105833E+03 -0.68412900243E+02  0.10669319157E+04  0.11004684448E+04  0.25500000920E-02 0.  1.
</event>
<event>
 5   0  0.9007180E-04  0.1408606E+04  0.7818609E-02  0.8947612E-01
       -1   -1    0    0    0  501  0.00000000000E+00  0.00000000000E+00  0.28766255987E+03  0.28766255992E+03  0.50400001928E-02 0.  1.
        1   -1    0    0  501    0  0.00000000000E+00  0.00000000000E+00 -0.17243914405E+04  0.17243914405E+04  0.50400001928E-02 0. -1.
    10030    2    1    2    0    0  0.00000000000E+00  0.00000000000E+00 -0.14367288807E+04  0.20120540005E+04  0.14086061991E+04 0.  0.
        2    1    3    3  502    0  0.53991313258E+03  0.26978771375E+02 -0.73510266879E+02  0.54556191599E+03  0.25500000920E-02 0.  1.
       -2    1    3    3    0  502 -0.53991313258E+03 -0.26978771375E+02 -0.13632186138E+04  0.14664920845E+04  0.25500000920E-02 0. -1.
</event>
<event>
 5   0  0.6048000E-04  0.1166477E+04  0.7818609E-02  0.9142716E-01
        3   -1    0    0  501    0  0.00000000000E+00  0.00000000000E+00  0.78922142075E+03  0.78922142721E+03  0.10100000352E+00 0. -1.
       -3   -1    0    0    0  501  0.00000000000E+00  0.00000000000E+00 -0.43101582049E+03  0.43101583233E+03  0.10100000352E+00 0.  1.
    10030    2    1    2    0    0  0.00000000000E+00  0.00000000000E+00  0.35820560025E+03  0.12202372595E+04  0.11664766254E+04 0.  0.
        2    1    3    3  502    0  0.45745122083E+01  0.57835906361E+03  0.25771126576E+03  0.63319446391E+03  0.25500000920E-02 0. -1.
       -2    1    3    3    0  502 -0.45745122083E+01 -0.57835906361E+03  0.10049433449E+03  0.58704279562E+03  0.25500000920E-02 0.  1.
</event>
<event>
 5   0  0.1578965E-03  0.1392998E+04  0.7818609E-02  0.8958903E-01
        2   -1    0    0  501    0  0.00000000000E+00  0.00000000000E+00  0.96703031984E+03  0.96703031984E+03  0.25500000920E-02 0. -1.
       -2   -1    0    0    0  501  0.00000000000E+00  0.00000000000E+00 -0.50164981274E+03  0.50164981274E+03  0.25500000920E-02 0.  1.
    10030    2    1    2    0    0  0.00000000000E+00  0.00000000000E+00  0.46538050710E+03  0.14686801326E+04  0.13929976007E+04 0.  0.
        2    1    3    3  502    0  0.13354559733E+03 -0.21678592037E+03  0.91620237730E+03  0.95092447545E+03  0.25500000920E-02 0. -1.
       -2    1    3    3    0  502 -0.13354559733E+03  0.21678592037E+03 -0.45082187020E+03  0.51775565713E+03  0.25500000920E-02 0.  1.
</event>
<event>
 5   0  0.1578965E-03  0.1446786E+04  0.7818609E-02  0.8920631E-01
       -2   -1    0    0    0  501  0.00000000000E+00  0.00000000000E+00  0.92459822300E+03  0.92459822300E+03  0.25500000920E-02 0. -1.
        2   -1    0    0  501    0  0.00000000000E+00  0.00000000000E+00 -0.56597314630E+03  0.56597314631E+03  0.25500000920E-02 0.  1.
    10030    2    1    2    0    0  0.00000000000E+00  0.00000000000E+00  0.35862507670E+03  0.14905713693E+04  0.14467864602E+04 0.  0.
        2    1    3    3  502    0 -0.58207107941E+03 -0.38918724593E+03  0.36653813580E+03  0.79033136018E+03  0.25500000920E-02 0. -1.
       -2    1    3    3    0  502  0.58207107941E+03  0.38918724593E+03 -0.79130591016E+01  0.70024000913E+03  0.25500000920E-02 0.  1.
</event>
<event>
 5   0  0.8673728E-04  0.1405417E+04  0.7818609E-02  0.8949907E-01
        1   -1    0    0  501    0  0.00000000000E+00  0.00000000000E+00  0.89494354519E+03  0.89494354520E+03  0.50400001928E-02 0.  1.
       -1   -1    0    0    0  501  0.00000000000E+00  0.00000000000E+00 -0.55176546107E+03  0.55176546109E+03  0.50400001928E-02 0. -1.
    10030    2    1    2    0    0  0.00000000000E+00  0.00000000000E+00  0.34317808412E+03  0.14467090063E+04  0.14054165758E+04 0.  0.
        3    1    3    3  502    0 -0.26633770953E+03  0.51645950974E+02  0.83885964488E+03  0.88163971881E+03  0.10100000352E+00 0.  1.
       -3    1    3    3    0  502  0.26633770953E+03 -0.51645950974E+02 -0.49568156076E+03  0.56506928748E+03  0.10100000352E+00 0. -1.
</event>
<event>
 5   0  0.1648213E-03  0.1347182E+04  0.7818609E-02  0.8992964E-01
        2   -1    0    0  501    0  0.00000000000E+00  0.00000000000E+00  0.11524391014E+04  0.11524391014E+04  0.25500000920E-02 0. -1.
       -2   -1    0    0    0  501  0.00000000000E+00  0.00000000000E+00 -0.39370815340E+03  0.39370815341E+03  0.25500000920E-02 0.  1.
    10030    2    1    2    0    0  0.00000000000E+00  0.00000000000E+00  0.75873094795E+03  0.15461472548E+04  0.13471817554E+04 0.  0.
        4    1    3    3  502    0 -0.54729293676E+03 -0.39260230917E+03  0.37070624306E+03  0.76882433841E+03  0.12699999809E+01 0. -1.
       -4    1    3    3    0  502  0.54729293676E+03  0.39260230917E+03  0.38802470489E+03  0.77732291636E+03  0.12699999809E+01 0.  1.
</event>
<event>
 5   0  0.9639548E-04  0.1401998E+04  0.7818609E-02  0.8952373E-01
       -1   -1    0    0    0  501  0.00000000000E+00  0.00000000000E+00  0.41278621463E+03  0.41278621466E+03  0.50400001928E-02 0.  1.
        1   -1    0    0  501    0  0.00000000000E+00  0.00000000000E+00 -0.11904463837E+04  0.11904463837E+04  0.50400001928E-02 0. -1.
    10030    2    1    2    0    0  0.00000000000E+00  0.00000000000E+00 -0.77766016907E+03  0.16032325984E+04  0.14019983687E+04 0.  0.
        1    1    3    3  502    0 -0.58811221435E+03 -0.37406884034E+03 -0.47437667797E+03  0.84311132516E+03  0.50400001928E-02 0. -1.
       -1    1    3    3    0  502  0.58811221435E+03  0.37406884034E+03 -0.30328349110E+03  0.76012127321E+03  0.50400001928E-02 0.  1.
</event>
<event>
 5   0  0.1578965E-03  0.1393206E+04  0.7818609E-02  0.8958751E-01
        2   -1    0    0  501    0  0.00000000000E+00  0.00000000000E+00  0.53025813687E+03  0.53025813688E+03  0.25500000920E-02 0.  1.
       -2   -1    0    0    0  501  0.00000000000E+00  0.00000000000E+00 -0.91513058280E+03  0.91513058280E+03  0.25500000920E-02 0. -1.
    10030    2    1    2    0    0  0.00000000000E+00  0.00000000000E+00 -0.38487244592E+03  0.14453887197E+04  0.13932055668E+04 0.  0.
        2    1    3    3  502    0 -0.41728748744E+03  0.53435934825E+03 -0.26486547155E+02  0.67850593028E+03  0.25500000920E-02 0.  1.
       -2    1    3    3    0  502  0.41728748744E+03 -0.53435934825E+03 -0.35838589877E+03  0.76688278940E+03  0.25500000920E-02 0. -1.
</event>
<event>
 5   0  0.8609148E-04  0.1370422E+04  0.7818609E-02  0.8975512E-01
        1   -1    0    0  501    0  0.00000000000E+00  0.00000000000E+00  0.90184559557E+03  0.90184559559E+03  0.50400001928E-02 0.  1.
       -1   -1    0    0    0  501  0.00000000000E+00  0.00000000000E+00 -0.52061444548E+03  0.52061444550E+03  0.50400001928E-02 0. -1.
    10030    2    1    2    0    0  0.00000000000E+00  0.00000000000E+00  0.38123115009E+03  0.14224600411E+04  0.13704216062E+04 0.  0.
        5    1    3    3  502    0  0.67475670072E+03 -0.81561979183E+02  0.28076271958E+03  0.73539020684E+03  0.46999998093E+01 0.  1.
       -5    1    3    3    0  502 -0.67475670072E+03  0.81561979183E+02  0.10046843051E+03  0.68706983425E+03  0.46999998093E+01 0. -1.
</event>
<event>
 5   0  0.1648463E-03  0.1451782E+04  0.7818609E-02  0.8917166E-01
        2   -1    0    0  501    0  0.00000000000E+00  0.00000000000E+00  0.11636998416E+04  0.11636998416E+04  0.25500000920E-02 0.  1.
       -2   -1    0    0    0  501  0.00000000000E+00  0.00000000000E+00 -0.45279504294E+03  0.45279504295E+03  0.25500000920E-02 0. -1.
    10030    2    1    2    0    0  0.00000000000E+00  0.00000000000E+00  0.71090479865E+03  0.16164948845E+04  0.14517816912E+04 0.  0.
        1    1    3    3  502    0  0.40709659018E+03 -0.22640513328E+03 -0.26442421046E+03  0.53563707976E+03  0.50400001928E-02 0. -1.
       -1    1    3    3    0  502 -0.40709659018E+03  0.22640513328E+03  0.97532900911E+03  0.10808578048E+04  0.50400001928E-02 0.  1.
</event>
<event>
 5   0  0.6048000E-04  0.1406820E+04  0.7818609E-02  0.8948897E-01
       -4   -1    0    0    0  501  0.00000000000E+00  0.00000000000E+00  0.12694923933E+04  0.12694930285E+04  0.12699999809E+01 0. -1.
        4   -1    0    0  501    0  0.00000000000E+00  0.00000000000E+00 -0.38974876632E+03  0.38975083546E+03  0.12699999809E+01 0.  1.
    10030    2    1    2    0    0  0.00000000000E+00  0.00000000000E+00  0.87974362694E+03  0.16592438640E+04  0.14068195872E+04 0.  0.
        1    1    3    3  502    0 -0.38661804222E+03  0.25704695581E+02 -0.25253549883E+03  0.46250234609E+03  0.50400001928E-02 0.  1.
       -1    1    3    3    0  502  0.38661804222E+03 -0.25704695581E+02  0.11322791258E+04  0.11967415179E+04  0.50400001928E-02 0. -1.
</event>
<event>
 5   0  0.9639548E-04  0.1401969E+04  0.7818609E-02  0.8952395E-01
       -1   -1    0    0    0  501  0.00000000000E+00  0.00000000000E+00  0.58768724585E+03  0.58768724587E+03  0.50400001928E-02 0.  1.
        1   -1    0    0  501    0  0.00000000000E+00  0.00000000000E+00 -0.83612328991E+03  0.83612328992E+03  0.50400001928E-02 0. -1.
    10030    2    1    2    0    0  0.00000000000E+00  0.00000000000E+00 -0.24843604406E+03  0.14238105358E+04  0.14019686066E+04 0.  0.
        1    1    3    3  502    0  0.33068568210E+03  0.86186525356E+01 -0.75186888819E+03  0.82142201491E+03  0.50400001928E-02 0. -1.
       -1    1    3    3    0  502 -0.33068568210E+03 -0.86186525356E+01  0.50343284413E+03  0.60238852088E+03  0.50400001928E-02 0.  1.
</event>
<event>
 5   0  0.8502300E-04  0.1399290E+04  0.7818609E-02  0.8954333E-01
       -1   -1    0    0    0  501  0.00000000000E+00  0.00000000000E+00  0.84302464002E+03  0.84302464003E+03  0.50400001928E-02 0.  1.
        1   -1    0    0  501    0  0.00000000000E+00  0.00000000000E+00 -0.58065077718E+03  0.58065077720E+03  0.50400001928E-02 0. -1.
    10030    2    1    2    0    0  0.00000000000E+00  0.00000000000E+00  0.26237386284E+03  0.14236754172E+04  0.13992896947E+04 0.  0.
        4    1    3    3  502    0 -0.59708181254E+03 -0.58039107636E+02 -0.23512370444E+03  0.64432910703E+03  0.12699999809E+01 0. -1.
       -4    1    3    3    0  502  0.59708181254E+03  0.58039107636E+02  0.49749756728E+03  0.77934631020E+03  0.12699999809E+01 0.  1.
</event>
<event>
 5   0  0.8502300E-04  0.1353013E+04  0.7818609E-02  0.8988550E-01
        1   -1    0    0  501    0  0.00000000000E+00  0.00000000000E+00  0.15619243144E+04  0.15619243144E+04  0.50400001928E-02 0.  1.
       -1   -1    0    0    0  501  0.00000000000E+00  0.00000000000E+00 -0.29301112500E+03  0.29301112504E+03  0.50400001928E-02 0. -1.
    10030    2    1    2    0    0  0.00000000000E+00  0.00000000000E+00  0.12689131894E+04  0.18549354394E+04  0.13530132306E+04 0.  0.
        4    1    3    3  502    0  0.17921333095E+03 -0.42582312864E+03  0.13119647895E+04  0.13909334911E+04  0.12699999809E+01 0.  1.
       -4    1    3    3    0  502 -0.17921333095E+03  0.42582312864E+03 -0.43051600116E+02  0.46400194833E+03  0.12699999809E+01 0. -1.
</event>
<event>
 5   0  0.1578965E-03  0.1415645E+04  0.7818609E-02  0.8942571E-01
       -2   -1    0    0    0  501  0.00000000000E+00  0.00000000000E+00  0.95735716265E+03  0.95735716265E+03  0.25500000920E-02 0. -1.
        2   -1    0    0  501    0  0.00000000000E+00  0.00000000000E+00 -0.52332902986E+03  0.52332902987E+03  0.25500000920E-02 0.  1.
    10030    2    1    2    0    0  0.00000000000E+00  0.00000000000E+00  0.43402813279E+03  0.14806861925E+04  0.14156451465E+04 0.  0.
        2    1    3    3  502    0 -0.13061837316E+03  0.47824198434E+02  0.94292098132E+03  0.95312553757E+03  0.25500000920E-02 0. -1.
       -2    1    3    3    0  502  0.13061837316E+03 -0.47824198434E+02 -0.50889284853E+03  0.52756065495E+03  0.25500000920E-02 0.  1.
</event>
<event>
 5   0  0.1578965E-03  0.1407987E+04  0.7818609E-02  0.8948057E-01
       -2   -1    0    0    0  501  0.00000000000E+00  0.00000000000E+00  0.30734112500E+03  0.30734112501E+03  0.25500000920E-02 0.  1.
        2   -1    0    0  501    0  0.00000000000E+00  0.00000000000E+00 -0.16125638491E+04  0.16125638491E+04  0.25500000920E-02 0. -1.
    10030    2    1    2    0    0  0.00000000000E+00  0.00000000000E+00 -0.13052227241E+04  0.19199049741E+04  0.14079874822E+04 0.  0.
        2    1    3    3  502    0 -0.40502184080E+03  0.14652592856E+03  0.10671429673E+03  0.44373469596E+03  0.25500000920E-02 0.  1.
       -2    1    3    3    0  502  0.40502184080E+03 -0.14652592856E+03 -0.14119370208E+04  0.14761702781E+04  0.25500000920E-02 0. -1.
</event>
<event>
 5   0  0.1648213E-03  0.1409108E+04  0.7818609E-02  0.8947252E-01
       -2   -1    0    0    0  501  0.00000000000E+00  0.00000000000E+00  0.60554705884E+03  0.60554705885E+03  0.25500000920E-02 0.  1.
        2   -1    0    0  501    0  0.00000000000E+00  0.00000000000E+00 -0.81974888028E+03  0.81974888028E+03  0.25500000920E-02 0. -1.
    10030    2    1    2    0    0  0.00000000000E+00  0.00000000000E+00 -0.21420182144E+03  0.14252959391E+04  0.14091082619E+04 0.  0.
        4    1    3    3  502    0  0.52128622267E+03  0.11416288074E+02  0.37218347837E+03  0.64061830449E+03  0.12699999809E+01 0.  1.
       -4    1    3    3    0  502 -0.52128622267E+03 -0.11416288074E+02 -0.58638529981E+03  0.78467763464E+03  0.12699999809E+01 0. -1.
</event>
<event>
 5   0  0.1605214E-03  0.1364949E+04  0.7818609E-02  0.8979589E-01
        2   -1    0    0  501    0  0.00000000000E+00  0.00000000000E+00  0.61028563492E+03  0.61028563493E+03  0.25500000920E-02 0. -1.
       -2   -1    0    0    0  501  0.00000000000E+00  0.00000000000E+00 -0.76320207321E+03  0.76320207321E+03  0.25500000920E-02 0.  1.
    10030    2    1    2    0    0  0.00000000000E+00  0.00000000000E+00 -0.15291643828E+03  0.13734877081E+04  0.13649487343E+04 0.  0.
        5    1    3    3  502    0  0.49828059947E+03  0.46504738320E+02  0.39045202467E+03  0.63476067937E+03  0.46999998093E+01 0. -1.
       -5    1    3    3    0  502 -0.49828059947E+03 -0.46504738320E+02 -0.54336846296E+03  0.73872702877E+03  0.46999998093E+01 0.  1.
</event>
<event>
 5   0  0.1578965E-03  0.1279744E+04  0.7818609E-02  0.9045785E-01
       -2   -1    0    0    0  501  0.00000000000E+00  0.00000000000E+00  0.72183846576E+03  0.72183846576E+03  0.25500000920E-02 0. -1.
        2   -1    0    0  501    0  0.00000000000E+00  0.00000000000E+00 -0.56721274183E+03  0.56721274184E+03  0.25500000920E-02 0.  1.
    10030    2    1    2    0    0  0.00000000000E+00  0.00000000000E+00  0.15462572393E+03  0.12890512076E+04  0.12797436858E+04 0.  0.
        2    1    3    3  502    0  0.50769266781E+03 -0.16356662613E+03  0.43333802964E+03  0.68723193615E+03  0.25500000920E-02 0. -1.
       -2    1    3    3    0  502 -0.50769266781E+03  0.16356662613E+03 -0.27871230571E+03  0.60181927145E+03  0.25500000920E-02 0.  1.
</event>
<event>
 5   0  0.1648463E-03  0.1392762E+04  0.7818609E-02  0.8959074E-01
        2   -1    0    0  501    0  0.00000000000E+00  0.00000000000E+00  0.12454669815E+04  0.12454669815E+04  0.25500000920E-02 0.  1.
       -2   -1    0    0    0  501  0.00000000000E+00  0.00000000000E+00 -0.38936922676E+03  0.38936922677E+03  0.25500000920E-02 0. -1.
    10030    2    1    2    0    0  0.00000000000E+00  0.00000000000E+00  0.85609775470E+03  0.16348362082E+04  0.13927620264E+04 0.  0.
        1    1    3    3  502    0 -0.53052350868E+03  0.36213500172E+03  0.74377846767E+03  0.98275295050E+03  0.50400001928E-02 0. -1.
       -1    1    3    3    0  502  0.53052350868E+03 -0.36213500172E+03  0.11231928703E+03  0.65208325772E+03  0.50400001928E-02 0.  1.
</event>
<event>
 5   0  0.1648213E-03  0.1396240E+04  0.7818609E-02  0.8956545E-01
        2   -1    0    0  501    0  0.00000000000E+00  0.00000000000E+00  0.86136019796E+03  0.86136019797E+03  0.25500000920E-02 0.  1.
       -2   -1    0    0    0  501  0.00000000000E+00  0.00000000000E+00 -0.56581631654E+03  0.56581631655E+03  0.25500000920E-02 0. -1.
    10030    2    1    2    0    0  0.00000000000E+00  0.00000000000E+00  0.29554388142E+03  0.14271765145E+04  0.13962401719E+04 0.  0.
        4    1    3    3  502    0  0.15430193538E+01  0.35533961225E+03  0.76200354656E+03  0.84078513237E+03  0.12699999809E+01 0.  1.
       -4    1    3    3    0  502 -0.15430193538E+01 -0.35533961225E+03 -0.46645966514E+03  0.58639138214E+03  0.12699999809E+01 0. -1.
</event>
<event>
 5   0  0.1648213E-03  0.1398783E+04  0.7818609E-02  0.8954700E-01
        2   -1    0    0  501    0  0.00000000000E+00  0.00000000000E+00  0.18412731288E+04  0.18412731288E+04  0.25500000920E-02 0.  1.
       -2   -1    0    0    0  501  0.00000000000E+00  0.00000000000E+00 -0.26565778214E+03  0.26565778215E+03  0.25500000920E-02 0. -1.
    10030    2    1    2    0    0  0.00000000000E+00  0.00000000000E+00  0.15756153467E+04  0.21069309110E+04  0.13987830936E+04 0.  0.
        4    1    3    3  502    0  0.54318485623E+03 -0.14170089123E+02  0.12454626360E+03  0.55746207417E+03  0.12699999809E+01 0. -1.
       -4    1    3    3    0  502 -0.54318485623E+03  0.14170089123E+02  0.14510690831E+04  0.15494688368E+04  0.12699999809E+01 0.  1.
</event>
<event>
 5   0  0.1605214E-03  0.1398075E+04  0.7818609E-02  0.8955213E-01
       -2   -1    0    0    0  501  0.00000000000E+00  0.00000000000E+00  0.37712331970E+03  0.37712331971E+03  0.25500000920E-02 0. -1.
        2   -1    0    0  501    0  0.00000000000E+00  0.00000000000E+00 -0.12957396222E+04  0.12957396222E+04  0.25500000920E-02 0.  1.
    10030    2    1    2    0    0  0.00000000000E+00  0.00000000000E+00 -0.91861630248E+03  0.16728629419E+04  0.13980752881E+04 0.  0.
        5    1    3    3  502    0  0.47354626796E+03 -0.35635559595E+03 -0.90283212265E+03  0.10799830139E+04  0.46999998093E+01 0. -1.
       -5    1    3    3    0  502 -0.47354626796E+03  0.35635559595E+03 -0.15784179835E+02  0.59287992797E+03  0.46999998093E+01 0.  1.
</event>
<event>
 5   0  0.8502300E-04  0.1400983E+04  0.7818609E-02  0.8953107E-01
       -1   -1    0    0    0  501  0.00000000000E+00  0.00000000000E+00  0.50543552013E+03  0.50543552015E+03  0.50400001928E-02 0.  1.
        1   -1    0    0  501    0  0.00000000000E+00  0.00000000000E+00 -0.97082280610E+03  0.97082280611E+03  0.50400001928E-02 0. -1.
    10030    2    1    2    0    0  0.00000000000E+00  0.00000000000E+00 -0.46538728597E+03  0.14762583263E+04  0.14009829834E+04 0.  0.
        4    1    3    3  502    0  0.19875969796E+03 -0.44809541717E+03 -0.75997151752E+03  0.90435238749E+03  0.12699999809E+01 0. -1.
       -4    1    3    3    0  502 -0.19875969796E+03  0.44809541717E+03  0.29458423155E+03  0.57190593877E+03  0.12699999809E+01 0.  1.
</event>
<event>
 5   0  0.1605214E-03  0.1406445E+04  0.7818609E-02  0.8949167E-01
        2   -1    0    0  501    0  0.00000000000E+00  0.00000000000E+00  0.89806344706E+03  0.89806344706E+03  0.25500000920E-02 0.  1.
       -2   -1    0    0    0  501  0.00000000000E+00  0.00000000000E+00 -0.55065352549E+03  0.55065352549E+03  0.25500000920E-02 0. -1.
    10030    2    1    2    0    0  0.00000000000E+00  0.00000000000E+00  0.34740992157E+03  0.14487169726E+04  0.14064448844E+04 0.  0.
        5    1    3    3  502    0 -0.24087601666E+03 -0.46041731595E+03 -0.31434416700E+03  0.60732174797E+03  0.46999998093E+01 0. -1.
       -5    1    3    3    0  502  0.24087601666E+03  0.46041731595E+03  0.66175408857E+03  0.84139522459E+03  0.46999998093E+01 0.  1.
</event>
<event>
 5   0  0.1706986E-03  0.1406552E+04  0.7818609E-02  0.8949089E-01
       -2   -1    0    0    0  501  0.00000000000E+00  0.00000000000E+00  0.43092435538E+03  0.43092435539E+03  0.25500000920E-02 0.  1.
        2   -1    0    0  501    0  0.00000000000E+00  0.00000000000E+00 -0.11477590578E+04  0.11477590578E+04  0.25500000920E-02 0. -1.
    10030    2    1    2    0    0  0.00000000000E+00  0.00000000000E+00 -0.71683470244E+03  0.15786834132E+04  0.14065522843E+04 0.  0.
        3    1    3    3  502    0 -0.64945149269E+03  0.18590021414E+03 -0.57793105945E+03  0.88901656377E+03  0.10100000352E+00 0. -1.
       -3    1    3    3    0  502  0.64945149269E+03 -0.18590021414E+03 -0.13890364298E+03  0.68966684944E+03  0.10100000352E+00 0.  1.
</event>
<event>
 5   0  0.6048000E-04  0.1412879E+04  0.7818609E-02  0.8944548E-01
        4   -1    0    0  501    0  0.00000000000E+00  0.00000000000E+00  0.83341819310E+03  0.83341916074E+03  0.12699999809E+01 0. -1.
       -4   -1    0    0    0  501  0.00000000000E+00  0.00000000000E+00 -0.59880525661E+03  0.59880660338E+03  0.12699999809E+01 0.  1.
    10030    2    1    2    0    0  0.00000000000E+00  0.00000000000E+00  0.23461293648E+03  0.14322257641E+04  0.14128791206E+04 0.  0.
        5    1    3    3  502    0 -0.57285969984E+03 -0.17570086043E+03  0.49658990376E+03  0.77824331065E+03  0.46999998093E+01 0.  1.
       -5    1    3    3    0  502  0.57285969984E+03  0.17570086043E+03 -0.26197696727E+03  0.65398245346E+03  0.46999998093E+01 0. -1.
</event>
<event>
 5   0  0.9639548E-04  0.1401898E+04  0.7818609E-02  0.8952446E-01
       -1   -1    0    0    0  501  0.00000000000E+00  0.00000000000E+00  0.43371972890E+03  0.43371972893E+03  0.50400001928E-02 0.  1.
        1   -1    0    0  501    0  0.00000000000E+00  0.00000000000E+00 -0.11328273848E+04  0.11328273848E+04  0.50400001928E-02 0. -1.
    10030    2    1    2    0    0  0.00000000000E+00  0.00000000000E+00 -0.69910765589E+03  0.15665471137E+04  0.14018981222E+04 0.  0.
        1    1    3    3  502    0  0.20061627939E+03  0.14144709488E+03  0.38412102512E+03  0.45585429050E+03  0.50400001928E-02 0.  1.
       -1    1    3    3    0  502 -0.20061627939E+03 -0.14144709488E+03 -0.10832286810E+04  0.11106928232E+04  0.50400001928E-02 0. -1.
</event>
<event>
 5   0  0.8609148E-04  0.1418619E+04  0.7818609E-02  0.8940450E-01
       -1   -1    0    0    0  501  0.00000000000E+00  0.00000000000E+00  0.95237360569E+03  0.95237360570E+03  0.50400001928E-02 0.  1.
        1   -1    0    0  501    0  0.00000000000E+00  0.00000000000E+00 -0.52828012284E+03  0.52828012286E+03  0.50400001928E-02 0. -1.
    10030    2    1    2    0    0  0.00000000000E+00  0.00000000000E+00  0.42409348285E+03  0.14806537286E+04  0.14186191109E+04 0.  0.
        5    1    3    3  502    0  0.31972768293E+03  0.48117599203E+03 -0.21745983840E+03  0.61730624317E+03  0.46999998093E+01 0. -1.
       -5    1    3    3    0  502 -0.31972768293E+03 -0.48117599203E+03  0.64155332125E+03  0.86334748540E+03  0.46999998093E+01 0.  1.
</event>
<event>
 5   0  0.8609148E-04  0.1403489E+04  0.7818609E-02  0.8951297E-01
        1   -1    0    0  501    0  0.00000000000E+00  0.00000000000E+00  0.10770445796E+04  0.10770445796E+04  0.50400001928E-02 0. -1.
       -1   -1    0    0    0  501  0.00000000000E+00  0.00000000000E+00 -0.45721880614E+03  0.45721880617E+03  0.50400001928E-02 0.  1.
    10030    2    1    2    0    0  0.00000000000E+00  0.00000000000E+00  0.61982577350E+03  0.15342633858E+04  0.14034885634E+04 0.  0.
        5    1    3    3  502    0 -0.22314702232E+03  0.33249236212E+03  0.93986938578E+03  0.10216272886E+04  0.46999998093E+01 0. -1.
       -5    1    3    3    0  502  0.22314702232E+03 -0.33249236212E+03 -0.32004361228E+03  0.51263609725E+03  0.46999998093E+01 0.  1.
</event>
<event>
 5   0  0.1648463E-03  0.1374062E+04  0.7818609E-02  0.8972810E-01
        2   -1    0    0  501    0  0.00000000000E+00  0.00000000000E+00  0.43782695011E+03  0.43782695011E+03  0.25500000920E-02 0.  1.
       -2   -1    0    0    0  501  0.00000000000E+00  0.00000000000E+00 -0.10780786639E+04  0.10780786639E+04  0.25500000920E-02 0. -1.
    10030    2    1    2    0    0  0.00000000000E+00  0.00000000000E+00 -0.64025171379E+03  0.15159056140E+04  0.13740624344E+04 0.  0.
        1    1    3    3  502    0  0.64673554961E+03 -0.80080790900E+02 -0.80108012073E+02  0.65657984878E+03  0.50400001928E-02 0.  1.
       -1    1    3    3    0  502 -0.64673554961E+03  0.80080790900E+02 -0.56014370171E+03  0.85932576523E+03  0.50400001928E-02 0. -1.
</event>
<event>
 5   0  0.1648463E-03  0.1400906E+04  0.7818609E-02  0.8953163E-01
        2   -1    0    0  501    0  0.00000000000E+00  0.00000000000E+00  0.87904951362E+03  0.87904951362E+03  0.25500000920E-02 0. -1.
       -2   -1    0    0    0  501  0.00000000000E+00  0.00000000000E+00 -0.55814232644E+03  0.55814232645E+03  0.25500000920E-02 0.  1.
    10030    2    1    2    0    0  0.00000000000E+00  0.00000000000E+00  0.32090718717E+03  0.14371918401E+04  0.14009064788E+04 0.  0.
        1    1    3    3  502    0  0.20219086962E+03 -0.26211527658E+03  0.79373408798E+03  0.85999963281E+03  0.50400001928E-02 0. -1.
       -1    1    3    3    0  502 -0.20219086962E+03  0.26211527658E+03 -0.47282690081E+03  0.57719220727E+03  0.50400001928E-02 0.  1.
</event>
<event>
 5   0  0.8502300E-04  0.1415625E+04  0.7818609E-02  0.8942585E-01
       -1   -1    0    0    0  501  0.00000000000E+00  0.00000000000E+00  0.83203532815E+03  0.83203532817E+03  0.50400001928E-02 0.  1.
        1   -1    0    0  501    0  0.00000000000E+00  0.00000000000E+00 -0.60213607829E+03  0.60213607831E+03  0.50400001928E-02 0. -1.
    10030    2    1    2    0    0  0.00000000000E+00  0.00000000000E+00  0.22989924986E+03  0.14341714065E+04  0.14156249355E+04 0.  0.
        4    1    3    3  502    0  0.68285766043E+03  0.15134453609E+03  0.22498717706E+03  0.73472484357E+03  0.12699999809E+01 0.  1.
       -4    1    3    3    0  502 -0.68285766043E+03 -0.15134453609E+03  0.49120727989E+01  0.69944656291E+03  0.12699999809E+01 0. -1.
</event>
<event>
 5   0  0.1578965E-03  0.1336494E+04  0.7818609E-02  0.9001116E-01
        2   -1    0    0  501    0  0.00000000000E+00  0.00000000000E+00  0.11486661620E+04  0.11486661620E+04  0.25500000920E-02 0. -1.
       -2   -1    0    0    0  501  0.00000000000E+00  0.00000000000E+00 -0.38875859730E+03  0.38875859731E+03  0.25500000920E-02 0.  1.
    10030    2    1    2    0    0  0.00000000000E+00  0.00000000000E+00  0.75990756468E+03  0.15374247593E+04  0.13364936901E+04 0.  0.
        2    1    3    3  502    0 -0.35074909431E+03 -0.52837898604E+03  0.13771305496E+03  0.64897932599E+03  0.25500000920E-02 0.  1.
       -2    1    3    3    0  502  0.35074909431E+03  0.52837898604E+03  0.62219450972E+03  0.88844543331E+03  0.25500000920E-02 0. -1.
</event>
<event>
 5   0  0.6048000E-04  0.1378880E+04  0.7818609E-02  0.8969249E-01
        3   -1    0    0  501    0  0.00000000000E+00  0.00000000000E+00  0.66317134152E+03  0.66317134921E+03  0.10100000352E+00 0. -1.
       -3   -1    0    0    0  501  0.00000000000E+00  0.00000000000E+00 -0.71674958437E+03  0.71674959149E+03  0.10100000352E+00 0.  1.
    10030    2    1    2    0    0  0.00000000000E+00  0.00000000000E+00 -0.53578242852E+02  0.13799209407E+04  0.13788804062E+04 0.  0.
        3    1    3    3  502    0  0.14340088567E+02 -0.23503699460E+03 -0.67525939615E+03  0.71513865037E+03  0.10100000352E+00 0.  1.
       -3    1    3    3    0  502 -0.14340088567E+02  0.23503699460E+03  0.62168115330E+03  0.66478229033E+03  0.10100000352E+00 0. -1.
</event>
<event>
 5   0  0.1605214E-03  0.1489341E+04  0.7818609E-02  0.8891572E-01
       -2   -1    0    0    0  501  0.00000000000E+00  0.00000000000E+00  0.73128948712E+03  0.73128948713E+03  0.25500000920E-02 0.  1.
        2   -1    0    0  501    0  0.00000000000E+00  0.00000000000E+00 -0.75829605932E+03  0.75829605933E+03  0.25500000920E-02 0. -1.
    10030    2    1    2    0    0  0.00000000000E+00  0.00000000000E+00 -0.27006572197E+02  0.14895855465E+04  0.14893407083E+04 0.  0.
        5    1    3    3  502    0 -0.19978336326E+03 -0.42887563541E+02  0.70268643286E+03  0.73180806792E+03  0.46999998093E+01 0.  1.
       -5    1    3    3    0  502  0.19978336326E+03  0.42887563541E+02 -0.72969300506E+03  0.75777747854E+03  0.46999998093E+01 0. -1.
</event>
<event>
 5   0  0.1605214E-03  0.1398298E+04  0.7818609E-02  0.8955051E-01
        2   -1    0    0  501    0  0.00000000000E+00  0.00000000000E+00  0.74953489460E+03  0.74953489461E+03  0.25500000920E-02 0.  1.
       -2   -1    0    0    0  501  0.00000000000E+00  0.00000000000E+00 -0.65215020849E+03  0.65215020850E+03  0.25500000920E-02 0. -1.
    10030    2    1    2    0    0  0.00000000000E+00  0.00000000000E+00  0.97384686112E+02  0.14016851031E+04  0.13982980194E+04 0.  0.
        5    1    3    3  502    0 -0.44791694526E+03 -0.87195093211E+02 -0.48226480166E+03  0.66395331390E+03  0.46999998093E+01 0. -1.
       -5    1    3    3    0  502  0.44791694526E+03  0.87195093211E+02  0.57964948777E+03  0.73773178920E+03  0.46999998093E+01 0.  1.
</event>
<event>
 5   0  0.9639548E-04  0.1446907E+04  0.7818609E-02  0.8920548E-01
        1   -1    0    0  501    0  0.00000000000E+00  0.00000000000E+00  0.74181748569E+03  0.74181748571E+03  0.50400001928E-02 0. -1.
       -1   -1    0    0    0  501  0.00000000000E+00  0.00000000000E+00 -0.70554399220E+03  0.70554399222E+03  0.50400001928E-02 0.  1.
    10030    2    1    2    0    0  0.00000000000E+00  0.00000000000E+00  0.36273493488E+02  0.14473614779E+04  0.14469068669E+04 0.  0.
        1    1    3    3  502    0  0.54454866245E+03 -0.37208865003E+03  0.31555433288E+03  0.73113456100E+03  0.50400001928E-02 0. -1.
       -1    1    3    3    0  502 -0.54454866245E+03  0.37208865003E+03 -0.27928083940E+03  0.71622691693E+03  0.50400001928E-02 0.  1.
</event>
<event>
 5   0  0.8502300E-04  0.1398498E+04  0.7818609E-02  0.8954906E-01
       -1   -1    0    0    0  501  0.00000000000E+00  0.00000000000E+00  0.32536870583E+03  0.32536870587E+03  0.50400001928E-02 0.  1.
        1   -1    0    0  501    0  0.00000000000E+00  0.00000000000E+00 -0.15027544301E+04  0.15027544301E+04  0.50400001928E-02 0. -1.
    10030    2    1    2    0    0  0.00000000000E+00  0.00000000000E+00 -0.11773857243E+04  0.18281231360E+04  0.13984981432E+04 0.  0.
        4    1    3    3  502    0 -0.28058453788E+03 -0.88307281537E+02 -0.14179406017E+04  0.14481308718E+04  0.12699999809E+01 0. -1.
       -4    1    3    3    0  502  0.28058453788E+03  0.88307281537E+02  0.24055487746E+03  0.37999226419E+03  0.12699999809E+01 0.  1.
</event>
<event>
 5   0  0.1706986E-03  0.1438552E+04  0.7818609E-02  0.8926376E-01
        2   -1    0    0  501    0  0.00000000000E+00  0.00000000000E+00  0.12734178481E+04  0.12734178481E+04  0.25500000920E-02 0. -1.
       -2   -1    0    0    0  501  0.00000000000E+00  0.00000000000E+00 -0.40627500655E+03  0.40627500655E+03  0.25500000920E-02 0.  1.
    10030    2    1    2    0    0  0.00000000000E+00  0.00000000000E+00  0.86714284156E+03  0.16796928547E+04  0.14385518337E+04 0.  0.
        3    1    3    3  502    0  0.38524315637E+03  0.55422163264E+03  0.14334154676E+03  0.69001501204E+03  0.10100000352E+00 0.  1.
       -3    1    3    3    0  502 -0.38524315637E+03 -0.55422163264E+03  0.72380129480E+03  0.98967784262E+03  0.10100000352E+00 0. -1.
</event>
<event>
 5   0  0.1648463E-03  0.1402409E+04  0.7818609E-02  0.8952077E-01
       -2   -1    0    0    0  501  0.00000000000E+00  0.00000000000E+00  0.49377031781E+03  0.49377031782E+03  0.25500000920E-02 0.  1.
        2   -1    0    0  501    0  0.00000000000E+00  0.00000000000E+00 -0.99578235226E+03  0.99578235227E+03  0.25500000920E-02 0. -1.
    10030    2    1    2    0    0  0.00000000000E+00  0.00000000000E+00 -0.50201203445E+03  0.14895526701E+04  0.14024090253E+04 0.  0.
        1    1    3    3  502    0  0.20730952160E+03 -0.27471926713E+03  0.39789009531E+03  0.52608406310E+03  0.50400001928E-02 0.  1.
       -1    1    3    3    0  502 -0.20730952160E+03  0.27471926713E+03 -0.89990212976E+03  0.96346860699E+03  0.50400001928E-02 0. -1.
</event>
<event>
 5   0  0.1605214E-03  0.1404545E+04  0.7818609E-02  0.8950535E-01
       -2   -1    0    0    0  501  0.00000000000E+00  0.00000000000E+00  0.88926982007E+03  0.88926982007E+03  0.25500000920E-02 0. -1.
        2   -1    0    0  501    0  0.00000000000E+00  0.00000000000E+00 -0.55459766136E+03  0.55459766136E+03  0.25500000920E-02 0.  1.
    10030    2    1    2    0    0  0.00000000000E+00  0.00000000000E+00  0.33467215871E+03  0.14438674814E+04  0.14045454247E+04 0.  0.
        5    1    3    3  502    0  0.16457207520E+03  0.43551211710E+03  0.70780223137E+03  0.84720768457E+03  0.46999998093E+01 0. -1.
       -5    1    3    3    0  502 -0.16457207520E+03 -0.43551211710E+03 -0.37313007266E+03  0.59665979686E+03  0.46999998093E+01 0.  1.
</event>
<event>
 5   0  0.6048000E-04  0.1402058E+04  0.7818609E-02  0.8952330E-01
        4   -1    0    0  501    0  0.00000000000E+00  0.00000000000E+00  0.15373265545E+04  0.15373270791E+04  0.12699999809E+01 0. -1.
       -4   -1    0    0    0  501  0.00000000000E+00  0.00000000000E+00 -0.31967128603E+03  0.31967380876E+03  0.12699999809E+01 0.  1.
    10030    2    1    2    0    0  0.00000000000E+00  0.00000000000E+00  0.12176552685E+04  0.18570008878E+04  0.14020584669E+04 0.  0.
        5    1    3    3  502    0  0.11039664902E+02  0.29564191899E+02  0.15363659008E+04  0.15366971682E+04  0.46999998093E+01 0. -1.
       -5    1    3    3    0  502 -0.11039664902E+02 -0.29564191899E+02 -0.31871063233E+03  0.32030371962E+03  0.46999998093E+01 0.  1.
</event>
<event>
 5   0  0.1706986E-03  0.1414614E+04  0.7818609E-02  0.8943307E-01
        2   -1    0    0  501    0  0.00000000000E+00  0.00000000000E+00  0.15087133996E+04  0.15087133996E+04  0.25500000920E-02 0.  1.
       -2   -1    0    0    0  501  0.00000000000E+00  0.00000000000E+00 -0.33159611806E+03  0.33159611807E+03  0.25500000920E-02 0. -1.
    10030    2    1    2    0    0  0.00000000000E+00  0.00000000000E+00  0.11771172816E+04  0.18403095177E+04  0.14146144444E+04 0.  0.
        3    1    3    3  502    0 -0.26532484016E+03 -0.61616108925E+03  0.88012800172E+03  0.11066512858E+04  0.10100000352E+00 0.  1.
       -3    1    3    3    0  502  0.26532484016E+03  0.61616108925E+03  0.29698927984E+03  0.73365823191E+03  0.10100000352E+00 0. -1.
</event>
<event>
 5   0  0.1648213E-03  0.1382333E+04  0.7818609E-02  0.8966707E-01
       -2   -1    0    0    0  501  0.00000000000E+00  0.00000000000E+00  0.25323401909E+03  0.25323401910E+03  0.25500000920E-02 0.  1.
        2   -1    0    0  501    0  0.00000000000E+00  0.00000000000E+00 -0.18864403495E+04  0.18864403495E+04  0.25500000920E-02 0. -1.
    10030    2    1    2    0    0  0.00000000000E+00  0.00000000000E+00 -0.16332063304E+04  0.21396743686E+04  0.13823326249E+04 0.  0.
        4    1    3    3  502    0  0.65023199928E+03 -0.17748441214E+03 -0.10534169481E+04  0.12505963573E+04  0.12699999809E+01 0. -1.
       -4    1    3    3    0  502 -0.65023199928E+03  0.17748441214E+03 -0.57978938230E+03  0.88907801129E+03  0.12699999809E+01 0.  1.
</event>
<event>
 5   0  0.6048000E-04  0.1399518E+04  0.7818609E-02  0.8954167E-01
       -3   -1    0    0    0  501  0.00000000000E+00  0.00000000000E+00  0.43281714358E+03  0.43281715536E+03  0.10100000352E+00 0.  1.
        3   -1    0    0  501    0  0.00000000000E+00  0.00000000000E+00 -0.11313389163E+04  0.11313389208E+04  0.10100000352E+00 0. -1.
    10030    2    1    2    0    0  0.00000000000E+00  0.00000000000E+00 -0.69852177268E+03  0.15641560761E+04  0.13995183327E+04 0.  0.
        4    1    3    3  502    0  0.33313101925E+03  0.25878086842E+03  0.27473548123E+03  0.50341336037E+03  0.12699999809E+01 0.  1.
       -4    1    3    3    0  502 -0.33313101925E+03 -0.25878086842E+03 -0.97325725392E+03  0.10607427158E+04  0.12699999809E+01 0. -1.
</event>
<event>
 5   0  0.1706986E-03  0.1413674E+04  0.7818609E-02  0.8943980E-01
        2   -1    0    0  501    0  0.00000000000E+00  0.00000000000E+00  0.59297343784E+03  0.59297343784E+03  0.25500000920E-02 0. -1.
       -2   -1    0    0    0  501  0.00000000000E+00  0.00000000000E+00 -0.84256477040E+03  0.84256477040E+03  0.25500000920E-02 0.  1.
    10030    2    1    2    0    0  0.00000000000E+00  0.00000000000E+00 -0.24959133256E+03  0.14355382082E+04  0.14136739773E+04 0.  0.
        3    1    3    3  502    0 -0.44149316501E+03  0.36007194561E+03  0.30006562748E+03  0.64390015667E+03  0.10100000352E+00 0. -1.
       -3    1    3    3    0  502  0.44149316501E+03 -0.36007194561E+03 -0.54965696004E+03  0.79163805157E+03  0.10100000352E+00 0.  1.
</event>
<event>
 5   0  0.1648213E-03  0.1517261E+04  0.7818609E-02  0.8873055E-01
       -2   -1    0    0    0  501  0.00000000000E+00  0.00000000000E+00  0.95789349089E+03  0.95789349089E+03  0.25500000920E-02 0. -1.
        2   -1    0    0  501    0  0.00000000000E+00  0.00000000000E+00 -0.60081866606E+03  0.60081866607E+03  0.25500000920E-02 0.  1.
    10030    2    1    2    0    0  0.00000000000E+00  0.00000000000E+00  0.35707482482E+03  0.15587121570E+04  0.15172610711E+04 0.  0.
        4    1    3    3  502    0 -0.42907496546E+03 -0.38887347929E+03  0.68201919669E+03  0.89469531486E+03  0.12699999809E+01 0. -1.
       -4    1    3    3    0  502  0.42907496546E+03  0.38887347929E+03 -0.32494437187E+03  0.66401684210E+03  0.12699999809E+01 0.  1.
</event>
<event>
 5   0  0.1648463E-03  0.1390405E+04  0.7818609E-02  0.8960793E-01
       -2   -1    0    0    0  501  0.00000000000E+00  0.00000000000E+00  0.43066484303E+03  0.43066484304E+03  0.25500000920E-02 0.  1.
        2   -1    0    0  501    0  0.00000000000E+00  0.00000000000E+00 -0.11222335579E+04  0.11222335579E+04  0.25500000920E-02 0. -1.
    10030    2    1    2    0    0  0.00000000000E+00  0.00000000000E+00 -0.69156871487E+03  0.15528984009E+04  0.13904050332E+04 0.  0.
        1    1    3    3  502    0 -0.50670553381E+03  0.47593197081E+03 -0.35325988342E+03  0.77977835574E+03  0.50400001928E-02 0.  1.
       -1    1    3    3    0  502  0.50670553381E+03 -0.47593197081E+03 -0.33830883145E+03  0.77312004520E+03  0.50400001928E-02 0. -1.
</event>
<event>
 5   0  0.8502300E-04  0.1388092E+04  0.7818609E-02  0.8962483E-01
        1   -1    0    0  501    0  0.00000000000E+00  0.00000000000E+00  0.11828106863E+04  0.11828106863E+04  0.50400001928E-02 0. -1.
       -1   -1    0    0    0  501  0.00000000000E+00  0.00000000000E+00 -0.40725021028E+03  0.40725021031E+03  0.50400001928E-02 0.  1.
    10030    2    1    2    0    0  0.00000000000E+00  0.00000000000E+00  0.77556047598E+03  0.15900608966E+04  0.13880920729E+04 0.  0.
        4    1    3    3  502    0  0.36943666055E+03 -0.46229056012E+03  0.80317606002E+03  0.99764192194E+03  0.12699999809E+01 0. -1.
       -4    1    3    3    0  502 -0.36943666055E+03  0.46229056012E+03 -0.27615584034E+02  0.59241897464E+03  0.12699999809E+01 0.  1.
</event>
<event>
 5   0  0.1706986E-03  0.1384380E+04  0.7818609E-02  0.8965203E-01
       -2   -1    0    0    0  501  0.00000000000E+00  0.00000000000E+00  0.23502184063E+03  0.23502184064E+03  0.25500000920E-02 0.  1.
        2   -1    0    0  501    0  0.00000000000E+00  0.00000000000E+00 -0.20386500452E+04  0.20386500452E+04  0.25500000920E-02 0. -1.
    10030    2    1    2    0    0  0.00000000000E+00  0.00000000000E+00 -0.18036282046E+04  0.22736718859E+04  0.13843804189E+04 0.  0.
        3    1    3    3  502    0 -0.38161324822E+03 -0.41900873692E+03 -0.24912697001E+03  0.61908097227E+03  0.10100000352E+00 0.  1.
       -3    1    3    3    0  502  0.38161324822E+03  0.41900873692E+03 -0.15545012346E+04  0.16545909136E+04  0.10100000352E+00 0. -1.
</event>
<event>
 5   0  0.1605214E-03  0.1408738E+04  0.7818609E-02  0.8947518E-01
        2   -1    0    0  501    0  0.00000000000E+00  0.00000000000E+00  0.55686875171E+03  0.55686875171E+03  0.25500000920E-02 0. -1.
       -2   -1    0    0    0  501  0.00000000000E+00  0.00000000000E+00 -0.89093831417E+03  0.89093831417E+03  0.25500000920E-02 0.  1.
    10030    2    1    2    0    0  0.00000000000E+00  0.00000000000E+00 -0.33406956246E+03  0.14478070659E+04  0.14087380266E+04 0.  0.
        5    1    3    3  502    0  0.31395188743E+03 -0.21503599319E+03 -0.77618453447E+03  0.86445982413E+03  0.46999998093E+01 0.  1.
       -5    1    3    3    0  502 -0.31395188743E+03  0.21503599319E+03  0.44211497201E+03  0.58334724175E+03  0.46999998093E+01 0. -1.
</event>
<event>
 5   0  0.8673728E-04  0.1407881E+04  0.7818609E-02  0.8948134E-01
       -1   -1    0    0    0  501  0.00000000000E+00  0.00000000000E+00  0.16699481841E+04  0.16699481841E+04  0.50400001928E-02 0. -1.
        1   -1    0    0  501    0  0.00000000000E+00  0.00000000000E+00 -0.29673498086E+03  0.29673498090E+03  0.50400001928E-02 0.  1.
    10030    2    1    2    0    0  0.00000000000E+00  0.00000000000E+00  0.13732132032E+04  0.19666831650E+04  0.14078807371E+04 0.  0.
        3    1    3    3  502    0 -0.56913699071E+03  0.39567543047E+03  0.51520125209E+03  0.86365982935E+03  0.10100000352E+00 0.  1.
       -3    1    3    3    0  502  0.56913699071E+03 -0.39567543047E+03  0.85801195111E+03  0.11030233356E+04  0.10100000352E+00 0. -1.
</event>
<event>
 5   0  0.8502300E-04  0.1455504E+04  0.7818609E-02  0.8914594E-01
       -1   -1    0    0    0  501  0.00000000000E+00  0.00000000000E+00  0.54737078479E+03  0.54737078481E+03  0.50400001928E-02 0.  1.
        1   -1    0    0  501    0  0.00000000000E+00  0.00000000000E+00 -0.96757585179E+03  0.96757585180E+03  0.50400001928E-02 0. -1.
    10030    2    1    2    0    0  0.00000000000E+00  0.00000000000E+00 -0.42020506700E+03  0.15149466366E+04  0.14555036975E+04 0.  0.
        4    1    3    3  502    0 -0.33155315536E+02  0.31857491655E+03  0.47006230256E+03  0.56881405889E+03  0.12699999809E+01 0.  1.
       -4    1    3    3    0  502  0.33155315536E+02 -0.31857491655E+03 -0.89026736957E+03  0.94613257772E+03  0.12699999809E+01 0. -1.
</event>
<event>
 5   0  0.1648213E-03  0.1401643E+04  0.7818609E-02  0.8952630E-01
        2   -1    0    0  501    0  0.00000000000E+00  0.00000000000E+00  0.57945830735E+03  0.57945830736E+03  0.25500000920E-02 0.  1.
       -2   -1    0    0    0  501  0.00000000000E+00  0.00000000000E+00 -0.84760352343E+03  0.84760352344E+03  0.25500000920E-02 0. -1.
    10030    2    1    2    0    0  0.00000000000E+00  0.00000000000E+00 -0.26814521608E+03  0.14270618308E+04  0.14016431828E+04 0.  0.
        4    1    3    3  502    0 -0.10554818870E+03  0.60790530446E+02  0.56859787818E+03  0.58149898427E+03  0.12699999809E+01 0.  1.
       -4    1    3    3    0  502  0.10554818870E+03 -0.60790530446E+02 -0.83674309426E+03  0.84556284653E+03  0.12699999809E+01 0. -1.
</event>
<event>
 5   0  0.8673728E-04  0.1410263E+04  0.7818609E-02  0.8946423E-01
        1   -1    0    0  501    0  0.00000000000E+00  0.00000000000E+00  0.17733412733E+04  0.17733412733E+04  0.50400001928E-02 0.  1.
       -1   -1    0    0    0  501  0.00000000000E+00  0.00000000000E+00 -0.28038054019E+03  0.28038054023E+03  0.50400001928E-02 0. -1.
    10030    2    1    2    0    0  0.00000000000E+00  0.00000000000E+00  0.14929607331E+04  0.20537218135E+04  0.14102629318E+04 0.  0.
        3    1    3    3  502    0 -0.50832121935E+03  0.48064808894E+03  0.61788823761E+03  0.93338037896E+03  0.10100000352E+00 0. -1.
       -3    1    3    3    0  502  0.50832121935E+03 -0.48064808894E+03  0.87507249545E+03  0.11203414345E+04  0.10100000352E+00 0.  1.
</event>
<event>
 5   0  0.1605214E-03  0.1433522E+04  0.7818609E-02  0.8929905E-01
        2   -1    0    0  501    0  0.00000000000E+00  0.00000000000E+00  0.99226836098E+03  0.99226836098E+03  0.25500000920E-02 0. -1.
       -2   -1    0    0    0  501  0.00000000000E+00  0.00000000000E+00 -0.51774954766E+03  0.51774954766E+03  0.25500000920E-02 0.  1.
    10030    2    1    2    0    0  0.00000000000E+00  0.00000000000E+00  0.47451881332E+03  0.15100179086E+04  0.14335222287E+04 0.  0.
        5    1    3    3  502    0  0.10498901219E+03  0.10686975187E+03 -0.50105689887E+03  0.52299516485E+03  0.46999998093E+01 0.  1.
       -5    1    3    3    0  502 -0.10498901219E+03 -0.10686975187E+03  0.97557571220E+03  0.98702274380E+03  0.46999998093E+01 0. -1.
</event>
<event>
 5   0  0.1578965E-03  0.1377644E+04  0.7818609E-02  0.8970162E-01
        2   -1    0    0  501    0  0.00000000000E+00  0.00000000000E+00  0.83309462141E+03  0.83309462141E+03  0.25500000920E-02 0.  1.
       -2   -1    0    0    0  501  0.00000000000E+00  0.00000000000E+00 -0.56953366706E+03  0.56953366707E+03  0.25500000920E-02 0. -1.
    10030    2    1    2    0    0  0.00000000000E+00  0.00000000000E+00  0.26356095434E+03  0.14026282885E+04  0.13776435457E+04 0.  0.
        2    1    3    3  502    0  0.56026322376E+02  0.63662226001E+03 -0.12987961340E+03  0.65214688892E+03  0.25500000920E-02 0. -1.
       -2    1    3    3    0  502 -0.56026322376E+02 -0.63662226001E+03  0.39344056774E+03  0.75048139956E+03  0.25500000920E-02 0.  1.
</event>
<event>
 5   0  0.1605214E-03  0.1411211E+04  0.7818609E-02  0.8945743E-01
        2   -1    0    0  501    0  0.00000000000E+00  0.00000000000E+00  0.98927708418E+03  0.98927708418E+03  0.25500000920E-02 0. -1.
       -2   -1    0    0    0  501  0.00000000000E+00  0.00000000000E+00 -0.50327597816E+03  0.50327597817E+03  0.25500000920E-02 0.  1.
    10030    2    1    2    0    0  0.00000000000E+00  0.00000000000E+00  0.48600110601E+03  0.14925530624E+04  0.14112113835E+04 0.  0.
        5    1    3    3  502    0  0.39546980421E+03  0.36345344356E+03  0.72693572599E+03  0.90385419809E+03  0.46999998093E+01 0. -1.
       -5    1    3    3    0  502 -0.39546980421E+03 -0.36345344356E+03 -0.24093461998E+03  0.58869886426E+03  0.46999998093E+01 0.  1.
</event>
<event>
 5   0  0.8609148E-04  0.1432638E+04  0.7818609E-02  0.8930527E-01
        1   -1    0    0  501    0  0.00000000000E+00  0.00000000000E+00  0.57471587529E+03  0.57471587532E+03  0.50400001928E-02 0. -1.
       -1   -1    0    0    0  501  0.00000000000E+00  0.00000000000E+00 -0.89281105231E+03  0.89281105233E+03  0.50400001928E-02 0.  1.
    10030    2    1    2    0    0  0.00000000000E+00  0.00000000000E+00 -0.31809517702E+03  0.14675269276E+04  0.14326376868E+04 0.  0.
        5    1    3    3  502    0  0.49763832863E+03 -0.41077152866E+03  0.15951379154E+03  0.66471339280E+03  0.46999998093E+01 0. -1.
       -5    1    3    3    0  502 -0.49763832863E+03  0.41077152866E+03 -0.47760896856E+03  0.80281353484E+03  0.46999998093E+01 0.  1.
</event>
<event>
 5   0  0.8502300E-04  0.1338562E+04  0.7818609E-02  0.8999532E-01
        1   -1    0    0  501    0  0.00000000000E+00  0.00000000000E+00  0.85772009680E+03  0.85772009681E+03  0.50400001928E-02 0.  1.
       -1   -1    0    0    0  501  0.00000000000E+00  0.00000000000E+00 -0.52224134038E+03  0.52224134041E+03  0.50400001928E-02 0. -1.
    10030    2    1    2    0    0  0.00000000000E+00  0.00000000000E+00  0.33547875642E+03  0.13799614372E+04  0.13385617551E+04 0.  0.
        4    1    3    3  502    0 -0.20260115869E+03  0.72724391105E+02 -0.48557913463E+03  0.53115419178E+03  0.12699999809E+01 0. -1.
       -4    1    3    3    0  502  0.20260115869E+03 -0.72724391105E+02  0.82105789104E+03  0.84880724544E+03  0.12699999809E+01 0.  1.
</event>
<event>
 5   0  0.1706986E-03  0.1379602E+04  0.7818609E-02  0.8968717E-01
        2   -1    0    0  501    0  0.00000000000E+00  0.00000000000E+00  0.11109567127E+04  0.11109567127E+04  0.25500000920E-02 0. -1.
       -2   -1    0    0    0  501  0.00000000000E+00  0.00000000000E+00 -0.42830237768E+03  0.42830237769E+03  0.25500000920E-02 0.  1.
    10030    2    1    2    0    0  0.00000000000E+00  0.00000000000E+00  0.68265433506E+03  0.15392590904E+04  0.13796019739E+04 0.  0.
        3    1    3    3  502    0  0.52580912196E+03  0.26259094353E+03  0.74422071573E+03  0.94831098290E+03  0.10100000352E+00 0. -1.
       -3    1    3    3    0  502 -0.52580912196E+03 -0.26259094353E+03 -0.61566380674E+02  0.59094810753E+03  0.10100000352E+00 0.  1.
</event>
<event>
 5   0  0.9007180E-04  0.1386000E+04  0.7818609E-02  0.8964015E-01
       -1   -1    0    0    0  501  0.00000000000E+00  0.00000000000E+00  0.32462102226E+03  0.32462102230E+03  0.50400001928E-02 0. -1.
        1   -1    0    0  501    0  0.00000000000E+00  0.00000000000E+00 -0.14794138685E+04  0.14794138685E+04  0.50400001928E-02 0.  1.
    10030    2    1    2    0    0  0.00000000000E+00  0.00000000000E+00 -0.11547928463E+04  0.18040348908E+04  0.13859997726E+04 0.  0.
        2    1    3    3  502    0  0.52513477327E+02  0.68555288270E+03 -0.46461018444E+03  0.82982109142E+03  0.25500000920E-02 0.  1.
       -2    1    3    3    0  502 -0.52513477327E+02 -0.68555288270E+03 -0.69018266181E+03  0.97421379941E+03  0.25500000920E-02 0. -1.
</event>
<event>
 5   0  0.1648213E-03  0.1401959E+04  0.7818609E-02  0.8952402E-01
       -2   -1    0    0    0  501  0.00000000000E+00  0.00000000000E+00  0.99487619554E+03  0.99487619554E+03  0.25500000920E-02 0.  1.
        2   -1    0    0  501    0  0.00000000000E+00  0.00000000000E+00 -0.49390301423E+03  0.49390301424E+03  0.25500000920E-02 0. -1.
    10030    2    1    2    0    0  0.00000000000E+00  0.00000000000E+00  0.50097318130E+03  0.14887792098E+04  0.14019591317E+04 0.  0.
        4    1    3    3  502    0  0.62788798102E+03 -0.20018336557E+03  0.50413850922E+03  0.82974330123E+03  0.12699999809E+01 0.  1.
       -4    1    3    3    0  502 -0.62788798102E+03  0.20018336557E+03 -0.31653279176E+01  0.65903590855E+03  0.12699999809E+01 0. -1.
</event>
<event>
 5   0  0.8502300E-04  0.1382073E+04  0.7818609E-02  0.8966899E-01
       -1   -1    0    0    0  501  0.00000000000E+00  0.00000000000E+00  0.60996854542E+03  0.60996854544E+03  0.50400001928E-02 0. -1.
        1   -1    0    0  501    0  0.00000000000E+00  0.00000000000E+00 -0.78287828561E+03  0.78287828563E+03  0.50400001928E-02 0.  1.
    10030    2    1    2    0    0  0.00000000000E+00  0.00000000000E+00 -0.17290974020E+03  0.13928468311E+04  0.13820725439E+04 0.  0.
        4    1    3    3  502    0  0.13159203282E+02 -0.66433318812E+03 -0.27771784732E+03  0.72016703972E+03  0.12699999809E+01 0.  1.
       -4    1    3    3    0  502 -0.13159203282E+02  0.66433318812E+03  0.10480810713E+03  0.67267979135E+03  0.12699999809E+01 0. -1.
</event>
<event>
 5   0  0.9639548E-04  0.1396711E+04  0.7818609E-02  0.8956203E-01
       -1   -1    0    0    0  501  0.00000000000E+00  0.00000000000E+00  0.48331675332E+03  0.48331675334E+03  0.50400001928E-02 0. -1.
        1   -1    0    0  501    0  0.00000000000E+00  0.00000000000E+00 -0.10090703164E+04  0.10090703165E+04  0.50400001928E-02 0.  1.
    10030    2    1    2    0    0  0.00000000000E+00  0.00000000000E+00 -0.52575356312E+03  0.14923870698E+04  0.13967112647E+04 0.  0.
        1    1    3    3  502    0 -0.30235093161E+03  0.15162036991E+03  0.38995512845E+03  0.51620715284E+03  0.50400001928E-02 0. -1.
       -1    1    3    3    0  502  0.30235093161E+03 -0.15162036991E+03 -0.91570869157E+03  0.97617991695E+03  0.50400001928E-02 0.  1.
</event>
<event>
 5   0  0.8609148E-04  0.1409086E+04  0.7818609E-02  0.8947268E-01
        1   -1    0    0  501    0  0.00000000000E+00  0.00000000000E+00  0.32838240877E+03  0.32838240880E+03  0.50400001928E-02 0. -1.
       -1   -1    0    0    0  501  0.00000000000E+00  0.00000000000E+00 -0.15115939344E+04  0.15115939344E+04  0.50400001928E-02 0.  1.
    10030    2    1    2    0    0  0.00000000000E+00  0.00000000000E+00 -0.11832115256E+04  0.18399763432E+04  0.14090860262E+04 0.  0.
        5    1    3    3  502    0  0.45164550738E+03  0.24924170532E+03 -0.12181879102E+04  0.13229168404E+04  0.46999998093E+01 0.  1.
       -5    1    3    3    0  502 -0.45164550738E+03 -0.24924170532E+03  0.34976384553E+02  0.51705950284E+03  0.46999998093E+01 0. -1.
</event>
<event>
 5   0  0.8673728E-04  0.1695761E+04  0.7818609E-02  0.8763786E-01
        1   -1    0    0  501    0  0.00000000000E+00  0.00000000000E+00  0.12081099720E+04  0.12081099721E+04  0.50400001928E-02 0. -1.
       -1   -1    0    0    0  501  0.00000000000E+00  0.00000000000E+00 -0.59506261036E+03  0.59506261038E+03  0.50400001928E-02 0.  1.
    10030    2    1    2    0    0  0.00000000000E+00  0.00000000000E+00  0.61304736168E+03  0.18031725824E+04  0.16957606831E+04 0.  0.
        3    1    3    3  502    0  0.31009730401E+03 -0.43239752515E+03  0.10084684553E+04  0.11402353236E+04  0.10100000352E+00 0. -1.
       -3    1    3    3    0  502 -0.31009730401E+03  0.43239752515E+03 -0.39542109358E+03  0.66293725884E+03  0.10100000352E+00 0.  1.
</event>
<event>
 5   0  0.1578965E-03  0.1298853E+04  0.7818609E-02  0.9030475E-01
        2   -1    0    0  501    0  0.00000000000E+00  0.00000000000E+00  0.63845839217E+03  0.63845839218E+03  0.25500000920E-02 0. -1.
       -2   -1    0    0    0  501  0.00000000000E+00  0.00000000000E+00 -0.66058303580E+03  0.66058303581E+03  0.25500000920E-02 0.  1.
    10030    2    1    2    0    0  0.00000000000E+00  0.00000000000E+00 -0.22124643631E+02  0.12990414280E+04  0.12988530062E+04 0.  0.
        2    1    3    3  502    0  0.15638753630E+03 -0.75726750705E+02 -0.63690319242E+03  0.66017973220E+03  0.25500000920E-02 0.  1.
       -2    1    3    3    0  502 -0.15638753630E+03  0.75726750705E+02  0.61477854879E+03  0.63886169578E+03  0.25500000920E-02 0. -1.
</event>
<event>
 5   0  0.8502300E-04  0.1406099E+04  0.7818609E-02  0.8949416E-01
       -1   -1    0    0    0  501  0.00000000000E+00  0.00000000000E+00  0.42744948163E+03  0.42744948166E+03  0.50400001928E-02 0. -1.
        1   -1    0    0  501    0  0.00000000000E+00  0.00000000000E+00 -0.11563440246E+04  0.11563440246E+04  0.50400001928E-02 0.  1.
    10030    2    1    2    0    0  0.00000000000E+00  0.00000000000E+00 -0.72889454300E+03  0.15837935063E+04  0.14060990775E+04 0.  0.
        4    1    3    3  502    0  0.24703391508E+03  0.18873803781E+03  0.34581997943E+03  0.46501706763E+03  0.12699999809E+01 0. -1.
       -4    1    3    3    0  502 -0.24703391508E+03 -0.18873803781E+03 -0.10747145224E+04  0.11187764387E+04  0.12699999809E+01 0.  1.
</event>
<event>
 5   0  0.1605214E-03  0.1456572E+04  0.7818609E-02  0.8913857E-01
        2   -1    0    0  501    0  0.00000000000E+00  0.00000000000E+00  0.57655979850E+03  0.57655979851E+03  0.25500000920E-02 0. -1.
       -2   -1    0    0    0  501  0.00000000000E+00  0.00000000000E+00 -0.91993986781E+03  0.91993986782E+03  0.25500000920E-02 0.  1.
    10030    2    1    2    0    0  0.00000000000E+00  0.00000000000E+00 -0.34338006931E+03  0.14964996663E+04  0.14565717900E+04 0.  0.
        5    1    3    3  502    0 -0.29895228817E+03 -0.56090225198E+03 -0.53695559711E+03  0.83206202302E+03  0.46999998093E+01 0.  1.
       -5    1    3    3    0  502  0.29895228817E+03  0.56090225198E+03  0.19357552780E+03  0.66443764331E+03  0.46999998093E+01 0. -1.
</event>
<event>
 5   0  0.1648213E-03  0.1396364E+04  0.7818609E-02  0.8956455E-01
        2   -1    0    0  501    0  0.00000000000E+00  0.00000000000E+00  0.54228049014E+03  0.54228049014E+03  0.25500000920E-02 0. -1.
       -2   -1    0    0    0  501  0.00000000000E+00  0.00000000000E+00 -0.89890390657E+03  0.89890390657E+03  0.25500000920E-02 0.  1.
    10030    2    1    2    0    0  0.00000000000E+00  0.00000000000E+00 -0.35662341643E+03  0.14411843967E+04  0.13963639225E+04 0.  0.
        4    1    3    3  502    0 -0.10757944166E+03  0.48477889341E+03 -0.68485266438E+03  0.84593657952E+03  0.12699999809E+01 0.  1.
       -4    1    3    3    0  502  0.10757944166E+03 -0.48477889341E+03  0.32822924795E+03  0.59524781719E+03  0.12699999809E+01 0. -1.
</event>
<event>
 5   0  0.9639548E-04  0.1416928E+04  0.7818609E-02  0.8941656E-01
       -1   -1    0    0    0  501  0.00000000000E+00  0.00000000000E+00  0.81293183750E+03  0.81293183752E+03  0.50400001928E-02 0.  1.
        1   -1    0    0  501    0  0.00000000000E+00  0.00000000000E+00 -0.61742102945E+03  0.61742102947E+03  0.50400001928E-02 0. -1.
    10030    2    1    2    0    0  0.00000000000E+00  0.00000000000E+00  0.19551080805E+03  0.14303528670E+04  0.14169279615E+04 0.  0.
        1    1    3    3  502    0 -0.31680939201E+03  0.23320087906E+03  0.69254963417E+03  0.79647714134E+03  0.50400001928E-02 0.  1.
       -1    1    3    3    0  502  0.31680939201E+03 -0.23320087906E+03 -0.49703882612E+03  0.63387572565E+03  0.50400001928E-02 0. -1.
</event>
<event>
 5   0  0.1605214E-03  0.1259920E+04  0.7818609E-02  0.9061967E-01
        2   -1    0    0  501    0  0.00000000000E+00  0.00000000000E+00  0.10673165857E+04  0.10673165858E+04  0.25500000920E-02 0.  1.
       -2   -1    0    0    0  501  0.00000000000E+00  0.00000000000E+00 -0.37182018622E+03  0.37182018623E+03  0.25500000920E-02 0. -1.
    10030    2    1    2    0    0  0.00000000000E+00  0.00000000000E+00  0.69549639953E+03  0.14391367720E+04  0.12599203970E+04 0.  0.
        5    1    3    3  502    0  0.45717477398E+03  0.31209768342E+03  0.42876490505E+01  0.55358306684E+03  0.46999998093E+01 0. -1.
       -5    1    3    3    0  502 -0.45717477398E+03 -0.31209768342E+03  0.69120875048E+03  0.88555370514E+03  0.46999998093E+01 0.  1.
</event>
<event>
 5   0  0.1648463E-03  0.1517808E+04  0.7818609E-02  0.8872696E-01
       -2   -1    0    0    0  501  0.00000000000E+00  0.00000000000E+00  0.27633246619E+03  0.27633246620E+03  0.25500000920E-02 0. -1.
        2   -1    0    0  501    0  0.00000000000E+00  0.00000000000E+00 -0.20842111248E+04  0.20842111248E+04  0.25500000920E-02 0.  1.
    10030    2    1    2    0    0  0.00000000000E+00  0.00000000000E+00 -0.18078786587E+04  0.23605435910E+04  0.15178078933E+04 0.  0.
        1    1    3    3  502    0 -0.74523004916E+03  0.14310187159E+03 -0.91863017047E+03  0.11915231269E+04  0.50400001928E-02 0.  1.
       -1    1    3    3    0  502  0.74523004916E+03 -0.14310187159E+03 -0.88924848818E+03  0.11690204641E+04  0.50400001928E-02 0. -1.
</event>
<event>
 5   0  0.1706986E-03  0.1411060E+04  0.7818609E-02  0.8945852E-01
       -2   -1    0    0    0  501  0.00000000000E+00  0.00000000000E+00  0.47302335160E+03  0.47302335161E+03  0.25500000920E-02 0. -1.
        2   -1    0    0  501    0  0.00000000000E+00  0.00000000000E+00 -0.10523212125E+04  0.10523212125E+04  0.25500000920E-02 0.  1.
    10030    2    1    2    0    0  0.00000000000E+00  0.00000000000E+00 -0.57929786087E+03  0.15253445641E+04  0.14110598951E+04 0.  0.
        3    1    3    3  502    0  0.11870326483E+03 -0.65525317506E+02  0.45880711348E+03  0.47842241784E+03  0.10100000352E+00 0. -1.
       -3    1    3    3    0  502 -0.11870326483E+03  0.65525317506E+02 -0.10381049744E+04  0.10469221462E+04  0.10100000352E+00 0.  1.
</event>
<event>
 5   0  0.9639548E-04  0.1400386E+04  0.7818609E-02  0.8953539E-01
       -1   -1    0    0    0  501  0.00000000000E+00  0.00000000000E+00  0.61787190486E+03  0.61787190489E+03  0.50400001928E-02 0. -1.
        1   -1    0    0  501    0  0.00000000000E+00  0.00000000000E+00 -0.79348226306E+03  0.79348226308E+03  0.50400001928E-02 0.  1.
    10030    2    1    2    0    0  0.00000000000E+00  0.00000000000E+00 -0.17561035819E+03  0.14113541680E+04  0.14003862287E+04 0.  0.
        1    1    3    3  502    0  0.61921254111E+03 -0.40663355036E+02  0.23906930205E+03  0.66500512083E+03  0.50400001928E-02 0. -1.
       -1    1    3    3    0  502 -0.61921254111E+03  0.40663355036E+02 -0.41467966024E+03  0.74634904714E+03  0.50400001928E-02 0.  1.
</event>
<event>
 5   0  0.9007180E-04  0.1420757E+04  0.7818609E-02  0.8938929E-01
       -1   -1    0    0    0  501  0.00000000000E+00  0.00000000000E+00  0.36234312436E+03  0.36234312439E+03  0.50400001928E-02 0. -1.
        1   -1    0    0  501    0  0.00000000000E+00  0.00000000000E+00 -0.13927073301E+04  0.13927073301E+04  0.50400001928E-02 0.  1.
    10030    2    1    2    0    0  0.00000000000E+00  0.00000000000E+00 -0.10303642058E+04  0.17550504545E+04  0.14207574393E+04 0.  0.
        2    1    3    3  502    0 -0.23130182938E+02 -0.41237121720E+03  0.19878350166E+03  0.45836656366E+03  0.25500000920E-02 0. -1.
       -2    1    3    3    0  502  0.23130182938E+02  0.41237121720E+03 -0.12291477074E+04  0.12966838909E+04  0.25500000920E-02 0.  1.
</event>
<event>
 5   0  0.1648463E-03  0.1403113E+04  0.7818609E-02  0.8951568E-01
       -2   -1    0    0    0  501  0.00000000000E+00  0.00000000000E+00  0.52466936325E+03  0.52466936326E+03  0.25500000920E-02 0.  1.
        2   -1    0    0  501    0  0.00000000000E+00  0.00000000000E+00 -0.93807964730E+03  0.93807964730E+03  0.25500000920E-02 0. -1.
    10030    2    1    2    0    0  0.00000000000E+00  0.00000000000E+00 -0.41341028404E+03  0.14627490106E+04  0.14031131832E+04 0.  0.
        1    1    3    3  502    0  0.41285094814E+02  0.43478471057E+03  0.36566523725E+03  0.56960799622E+03  0.50400001928E-02 0.  1.
       -1    1    3    3    0  502 -0.41285094814E+02 -0.43478471057E+03 -0.77907552129E+03  0.89314101434E+03  0.50400001928E-02 0. -1.
</event>
<event>
 5   0  0.1706986E-03  0.1306467E+04  0.7818609E-02  0.9024452E-01
       -2   -1    0    0    0  501  0.00000000000E+00  0.00000000000E+00  0.35552047537E+03  0.35552047538E+03  0.25500000920E-02 0. -1.
        2   -1    0    0  501    0  0.00000000000E+00  0.00000000000E+00 -0.12002515434E+04  0.12002515434E+04  0.25500000920E-02 0.  1.
    10030    2    1    2    0    0  0.00000000000E+00  0.00000000000E+00 -0.84473106802E+03  0.15557720188E+04  0.13064669904E+04 0.  0.
        3    1    3    3  502    0 -0.43730732830E+02  0.30489626456E+03  0.26361501877E+03  0.40542199923E+03  0.10100000352E+00 0. -1.
       -3    1    3    3    0  502  0.43730732830E+02 -0.30489626456E+03 -0.11083460868E+04  0.11503500195E+04  0.10100000352E+00 0.  1.
</event>
<event>
 5   0  0.8609148E-04  0.1402477E+04  0.7818609E-02  0.8952027E-01
        1   -1    0    0  501    0  0.00000000000E+00  0.00000000000E+00  0.20563875946E+03  0.20563875952E+03  0.50400001928E-02 0. -1.
       -1   -1    0    0    0  501  0.00000000000E+00  0.00000000000E+00 -0.23912590515E+04  0.23912590515E+04  0.50400001928E-02 0.  1.
    10030    2    1    2    0    0  0.00000000000E+00  0.00000000000E+00 -0.21856202921E+04  0.25968978111E+04  0.14024771585E+04 0.  0.
        5    1    3    3  502    0  0.34288015636E+03 -0.36123144846E+03 -0.17880247365E+03  0.52919502601E+03  0.46999998093E+01 0. -1.
       -5    1    3    3    0  502 -0.34288015636E+03  0.36123144846E+03 -0.20068178184E+04  0.20677027851E+04  0.46999998093E+01 0.  1.
</event>
<event>
 5   0  0.1706986E-03  0.1382294E+04  0.7818609E-02  0.8966736E-01
        2   -1    0    0  501    0  0.00000000000E+00  0.00000000000E+00  0.15142710187E+04  0.15142710187E+04  0.25500000920E-02 0.  1.
       -2   -1    0    0    0  501  0.00000000000E+00  0.00000000000E+00 -0.31545470750E+03  0.31545470751E+03  0.25500000920E-02 0. -1.
    10030    2    1    2    0    0  0.00000000000E+00  0.00000000000E+00  0.11988163112E+04  0.18297257262E+04  0.13822936320E+04 0.  0.
        3    1    3    3  502    0 -0.42592200947E+03 -0.44816375801E+03  0.19051147675E+03  0.64695822517E+03  0.10100000352E+00 0. -1.
       -3    1    3    3    0  502  0.42592200947E+03  0.44816375801E+03  0.10083048345E+04  0.11827675011E+04  0.10100000352E+00 0.  1.
</event>
<event>
 5   0  0.8502300E-04  0.1427453E+04  0.7818609E-02  0.8934183E-01
       -1   -1    0    0    0  501  0.00000000000E+00  0.00000000000E+00  0.65413612213E+03  0.65413612215E+03  0.50400001928E-02 0.  1.
        1   -1    0    0  501    0  0.00000000000E+00  0.00000000000E+00 -0.77874569328E+03  0.77874569330E+03  0.50400001928E-02 0. -1.
    10030    2    1    2    0    0  0.00000000000E+00  0.00000000000E+00 -0.12460957115E+03  0.14328818154E+04  0.14274532398E+04 0.  0.
        4    1    3    3  502    0  0.17061630020E+03  0.63772912773E+02  0.63041176594E+03  0.65619929429E+03  0.12699999809E+01 0.  1.
       -4    1    3    3    0  502 -0.17061630020E+03 -0.63772912773E+02 -0.75502133709E+03  0.77668252115E+03  0.12699999809E+01 0. -1.
</event>
<event>
 5   0  0.8502300E-04  0.1411695E+04  0.7818609E-02  0.8945396E-01
       -1   -1    0    0    0  501  0.00000000000E+00  0.00000000000E+00  0.10402117363E+04  0.10402117363E+04  0.50400001928E-02 0. -1.
        1   -1    0    0  501    0  0.00000000000E+00  0.00000000000E+00 -0.47896091489E+03  0.47896091492E+03  0.50400001928E-02 0.  1.
    10030    2    1    2    0    0  0.00000000000E+00  0.00000000000E+00  0.56125082140E+03  0.15191726512E+04  0.14116951015E+04 0.  0.
        4    1    3    3  502    0 -0.20513573953E+03  0.13921920858E+03 -0.43056502983E+03  0.49684053526E+03  0.12699999809E+01 0.  1.
       -4    1    3    3    0  502  0.20513573953E+03 -0.13921920858E+03  0.99181585122E+03  0.10223321160E+04  0.12699999809E+01 0. -1.
</event>
<event>
 5   0  0.1706986E-03  0.1372972E+04  0.7818609E-02  0.8973618E-01
        2   -1    0    0  501    0  0.00000000000E+00  0.00000000000E+00  0.40170724467E+03  0.40170724468E+03  0.25500000920E-02 0. -1.
       -2   -1    0    0    0  501  0.00000000000E+00  0.00000000000E+00 -0.11731512537E+04  0.11731512537E+04  0.25500000920E-02 0.  1.
    10030    2    1    2    0    0  0.00000000000E+00  0.00000000000E+00 -0.77144400904E+03  0.15748584984E+04  0.13729724800E+04 0.  0.
        3    1    3    3  502    0 -0.28187572495E+03  0.29732273891E+03  0.24609841567E+03  0.47793218744E+03  0.10100000352E+00 0. -1.
       -3    1    3    3    0  502  0.28187572495E+03 -0.29732273891E+03 -0.10175424247E+04  0.10969263110E+04  0.10100000352E+00 0.  1.
</event>
<event>
 5   0  0.8609148E-04  0.1415294E+04  0.7818609E-02  0.8942822E-01
        1   -1    0    0  501    0  0.00000000000E+00  0.00000000000E+00  0.15050238483E+04  0.15050238483E+04  0.50400001928E-02 0.  1.
       -1   -1    0    0    0  501  0.00000000000E+00  0.00000000000E+00 -0.33272834320E+03  0.33272834324E+03  0.50400001928E-02 0. -1.
    10030    2    1    2    0    0  0.00000000000E+00  0.00000000000E+00  0.11722955051E+04  0.18377521915E+04  0.14152937385E+04 0.  0.
        5    1    3    3  502    0  0.50429563643E+03 -0.33283946341E+02  0.12292898284E+04  0.13291341100E+04  0.46999998093E+01 0.  1.
       -5    1    3    3    0  502 -0.50429563643E+03  0.33283946341E+02 -0.56994323343E+02  0.50861808156E+03  0.46999998093E+01 0. -1.
</event>
<event>
 5   0  0.9639548E-04  0.1319310E+04  0.7818609E-02  0.9014391E-01
       -1   -1    0    0    0  501  0.00000000000E+00  0.00000000000E+00  0.35711046664E+03  0.35711046668E+03  0.50400001928E-02 0.  1.
        1   -1    0    0  501    0  0.00000000000E+00  0.00000000000E+00 -0.12185163566E+04  0.12185163566E+04  0.50400001928E-02 0. -1.
    10030    2    1    2    0    0  0.00000000000E+00  0.00000000000E+00 -0.86140588999E+03  0.15756268233E+04  0.13193103422E+04 0.  0.
        1    1    3    3  502    0  0.54878918532E+03  0.29249782855E+03 -0.69350004178E+03  0.93148637006E+03  0.50400001928E-02 0. -1.
       -1    1    3    3    0  502 -0.54878918532E+03 -0.29249782855E+03 -0.16790584821E+03  0.64414045326E+03  0.50400001928E-02 0.  1.
</event>
<event>
 5   0  0.8502300E-04  0.1342226E+04  0.7818609E-02  0.8996733E-01
        1   -1    0    0  501    0  0.00000000000E+00  0.00000000000E+00  0.75286016361E+03  0.75286016363E+03  0.50400001928E-02 0. -1.
       -1   -1    0    0    0  501  0.00000000000E+00  0.00000000000E+00 -0.59824254069E+03  0.59824254071E+03  0.50400001928E-02 0.  1.
    10030    2    1    2    0    0  0.00000000000E+00  0.00000000000E+00  0.15461762292E+03  0.13511027043E+04  0.13422264743E+04 0.  0.
        4    1    3    3  502    0  0.44871770749E+02 -0.48474839231E+03  0.54231271638E+03  0.72876551435E+03  0.12699999809E+01 0. -1.
       -4    1    3    3    0  502 -0.44871770749E+02  0.48474839231E+03 -0.38769509346E+03  0.62233718999E+03  0.12699999809E+01 0.  1.
</event>
<event>
 5   0  0.1578965E-03  0.1268396E+04  0.7818609E-02  0.9055010E-01
        2   -1    0    0  501    0  0.00000000000E+00  0.00000000000E+00  0.20435660488E+04  0.20435660488E+04  0.25500000920E-02 0.  1.
       -2   -1    0    0    0  501  0.00000000000E+00  0.00000000000E+00 -0.19681624759E+03  0.19681624761E+03  0.25500000920E-02 0. -1.
    10030    2    1    2    0    0  0.00000000000E+00  0.00000000000E+00  0.18467498012E+04  0.22403822964E+04  0.12683958395E+04 0.  0.
        2    1    3    3  502    0 -0.58126757329E+03  0.11046378609E+03  0.13266697626E+04  0.14526275844E+04  0.25500000920E-02 0.  1.
       -2    1    3    3    0  502  0.58126757329E+03 -0.11046378609E+03  0.52008003856E+03  0.78775471202E+03  0.25500000920E-02 0. -1.
</event>
<event>
 5   0  0.1578965E-03  0.1383304E+04  0.7818609E-02  0.8965994E-01
        2   -1    0    0  501    0  0.00000000000E+00  0.00000000000E+00  0.10888904009E+04  0.10888904009E+04  0.25500000920E-02 0. -1.
       -2   -1    0    0    0  501  0.00000000000E+00  0.00000000000E+00 -0.43933001788E+03  0.43933001789E+03  0.25500000920E-02 0.  1.
    10030    2    1    2    0    0  0.00000000000E+00  0.00000000000E+00  0.64956038297E+03  0.15282204187E+04  0.13833036388E+04 0.  0.
        2    1    3    3  502    0  0.29092722786E+03  0.33375023459E+02  0.10170255462E+04  0.10583447008E+04  0.25500000920E-02 0. -1.
       -2    1    3    3    0  502 -0.29092722786E+03 -0.33375023459E+02 -0.36746516323E+03  0.46987571793E+03  0.25500000920E-02 0.  1.
</event>
<event>
 5   0  0.1578965E-03  0.1397652E+04  0.7818609E-02  0.8955520E-01
        2   -1    0    0  501    0  0.00000000000E+00  0.00000000000E+00  0.94556082257E+03  0.94556082258E+03  0.25500000920E-02 0.  1.
       -2   -1    0    0    0  501  0.00000000000E+00  0.00000000000E+00 -0.51647429579E+03  0.51647429580E+03  0.25500000920E-02 0. -1.
    10030    2    1    2    0    0  0.00000000000E+00  0.00000000000E+00  0.42908652678E+03  0.14620351184E+04  0.13976521169E+04 0.  0.
        2    1    3    3  502    0  0.24134844802E+02 -0.46708477981E+03 -0.32861256361E+03  0.57160904404E+03  0.25500000920E-02 0. -1.
       -2    1    3    3    0  502 -0.24134844802E+02  0.46708477981E+03  0.75769909039E+03  0.89042607433E+03  0.25500000920E-02 0.  1.
</event>
<event>
 5   0  0.9007180E-04  0.1414342E+04  0.7818609E-02  0.8943502E-01
        1   -1    0    0  501    0  0.00000000000E+00  0.00000000000E+00  0.16620762448E+04  0.16620762448E+04  0.50400001928E-02 0. -1.
       -1   -1    0    0    0  501  0.00000000000E+00  0.00000000000E+00 -0.30088323916E+03  0.30088323921E+03  0.50400001928E-02 0.  1.
    10030    2    1    2    0    0  0.00000000000E+00  0.00000000000E+00  0.13611930057E+04  0.19629594840E+04  0.14143420864E+04 0.  0.
        2    1    3    3  502    0 -0.22130434399E+03  0.29075590627E+02  0.16119044738E+04  0.16272851733E+04  0.25500000920E-02 0. -1.
       -2    1    3    3    0  502  0.22130434399E+03 -0.29075590627E+02 -0.25071146812E+03  0.33567431074E+03  0.25500000920E-02 0.  1.
</event>
<event>
 5   0  0.8502300E-04  0.1381646E+04  0.7818609E-02  0.8967212E-01
        1   -1    0    0  501    0  0.00000000000E+00  0.00000000000E+00  0.15415313555E+04  0.15415313555E+04  0.50400001928E-02 0.  1.
       -1   -1    0    0    0  501  0.00000000000E+00  0.00000000000E+00 -0.30958607964E+03  0.30958607968E+03  0.50400001928E-02 0. -1.
    10030    2    1    2    0    0  0.00000000000E+00  0.00000000000E+00  0.12319452759E+04  0.18511174352E+04  0.13816463354E+04 0.  0.
        4    1    3    3  502    0  0.35049460142E+03  0.63661438633E+02  0.14089838658E+04  0.14533190948E+04  0.12699999809E+01 0.  1.
       -4    1    3    3    0  502 -0.35049460142E+03 -0.63661438633E+02 -0.17703858993E+03  0.39779834039E+03  0.12699999809E+01 0. -1.
</event>
<event>
 5   0  0.8673728E-04  0.1357893E+04  0.7818609E-02  0.8984875E-01
       -1   -1    0    0    0  501  0.00000000000E+00  0.00000000000E+00  0.48514952029E+03  0.48514952031E+03  0.50400001928E-02 0.  1.
        1   -1    0    0  501    0  0.00000000000E+00  0.00000000000E+00 -0.95015713174E+03  0.95015713176E+03  0.50400001928E-02 0. -1.
    10030    2    1    2    0    0  0.00000000000E+00  0.00000000000E+00 -0.46500761146E+03  0.14353066521E+04  0.13578928922E+04 0.  0.
        3    1    3    3  502    0  0.56772609256E+02 -0.58346707598E+03 -0.59453760859E+03  0.83494427128E+03  0.10100000352E+00 0. -1.
       -3    1    3    3    0  502 -0.56772609256E+02  0.58346707598E+03  0.12952999714E+03  0.60036238079E+03  0.10100000352E+00 0.  1.
</event>
<event>
 5   0  0.1605214E-03  0.1419481E+04  0.7818609E-02  0.8939837E-01
       -2   -1    0    0    0  501  0.00000000000E+00  0.00000000000E+00  0.24601814087E+03  0.24601814088E+03  0.25500000920E-02 0. -1.
        2   -1    0    0  501    0  0.00000000000E+00  0.00000000000E+00 -0.20475383461E+04  0.20475383461E+04  0.25500000920E-02 0.  1.
    10030    2    1    2    0    0  0.00000000000E+00  0.00000000000E+00 -0.18015202052E+04  0.22935564869E+04  0.14194809999E+04 0.  0.
        5    1    3    3  502    0 -0.65819534448E+03  0.26383781728E+03 -0.94863663076E+03  0.11843838282E+04  0.46999998093E+01 0.  1.
       -5    1    3    3    0  502  0.65819534448E+03 -0.26383781728E+03 -0.85288357443E+03  0.11091726587E+04  0.46999998093E+01 0. -1.
</event>
<event>
 5   0  0.8502300E-04  0.1390351E+04  0.7818609E-02  0.8960833E-01
       -1   -1    0    0    0  501  0.00000000000E+00  0.00000000000E+00  0.51420670473E+03  0.51420670476E+03  0.50400001928E-02 0.  1.
        1   -1    0    0  501    0  0.00000000000E+00  0.00000000000E+00 -0.93983397356E+03  0.93983397358E+03  0.50400001928E-02 0. -1.
    10030    2    1    2    0    0  0.00000000000E+00  0.00000000000E+00 -0.42562726883E+03  0.14540406783E+04  0.13903509349E+04 0.  0.
        4    1    3    3  502    0  0.43142975690E+03  0.54103343534E+03 -0.28233043370E+03  0.74736931967E+03  0.12699999809E+01 0. -1.
       -4    1    3    3    0  502 -0.43142975690E+03 -0.54103343534E+03 -0.14329683513E+03  0.70667135866E+03  0.12699999809E+01 0.  1.
</event>
<event>
 5   0  0.1605214E-03  0.1390830E+04  0.7818609E-02  0.8960483E-01
       -2   -1    0    0    0  501  0.00000000000E+00  0.00000000000E+00  0.48975371239E+03  0.48975371239E+03  0.25500000920E-02 0. -1.
        2   -1    0    0  501    0  0.00000000000E+00  0.00000000000E+00 -0.98743928727E+03  0.98743928727E+03  0.25500000920E-02 0.  1.
    10030    2    1    2    0    0  0.00000000000E+00  0.00000000000E+00 -0.49768557488E+03  0.14771929997E+04  0.13908300496E+04 0.  0.
        5    1    3    3  502    0 -0.44214692974E+03 -0.50625364172E+03 -0.43822144969E+03  0.80240063945E+03  0.46999998093E+01 0.  1.
       -5    1    3    3    0  502  0.44214692974E+03  0.50625364172E+03 -0.59464125195E+02  0.67479236022E+03  0.46999998093E+01 0. -1.
</event>
<event>
 5   0  0.8502300E-04  0.1500840E+04  0.7818609E-02  0.8883894E-01
        1   -1    0    0  501    0  0.00000000000E+00  0.00000000000E+00  0.11055757357E+04  0.11055757357E+04  0.50400001928E-02 0.  1.
       -1   -1    0    0    0  501  0.00000000000E+00  0.00000000000E+00 -0.50935496697E+03  0.50935496700E+03  0.50400001928E-02 0. -1.
    10030    2    1    2    0    0  0.00000000000E+00  0.00000000000E+00  0.59622076875E+03  0.16149307027E+04  0.15008404211E+04 0.  0.
        4    1    3    3  502    0 -0.25392421065E+03  0.25584879586E+03 -0.41009622024E+03  0.54600058045E+03  0.12699999809E+01 0. -1.
       -4    1    3    3    0  502  0.25392421065E+03 -0.25584879586E+03  0.10063169890E+04  0.10689301223E+04  0.12699999809E+01 0.  1.
</event>
<event>
 5   0  0.6048000E-04  0.1469051E+04  0.7818609E-02  0.8905299E-01
        3   -1    0    0  501    0  0.00000000000E+00  0.00000000000E+00  0.20214911346E+04  0.20214911371E+04  0.10100000352E+00 0. -1.
       -3   -1    0    0    0  501  0.00000000000E+00  0.00000000000E+00 -0.26689575674E+03  0.26689577585E+03  0.10100000352E+00 0.  1.
    10030    2    1    2    0    0  0.00000000000E+00  0.00000000000E+00  0.17545953779E+04  0.22883869130E+04  0.14690506198E+04 0.  0.
        2    1    3    3  502    0 -0.35415546572E+03  0.47096632679E+00 -0.12511347479E+03  0.37560577377E+03  0.25500000920E-02 0.  1.
       -2    1    3    3    0  502  0.35415546572E+03 -0.47096632679E+00  0.18797088526E+04  0.19127811392E+04  0.25500000920E-02 0. -1.
</event>
<event>
 5   0  0.8673728E-04  0.1399158E+04  0.7818609E-02  0.8954429E-01
        1   -1    0    0  501    0  0.00000000000E+00  0.00000000000E+00  0.83424246717E+03  0.83424246719E+03  0.50400001928E-02 0.  1.
       -1   -1    0    0    0  501  0.00000000000E+00  0.00000000000E+00 -0.58665262380E+03  0.58665262382E+03  0.50400001928E-02 0. -1.
    10030    2    1    2    0    0  0.00000000000E+00  0.00000000000E+00  0.24758984338E+03  0.14208950910E+04  0.13991576498E+04 0.  0.
        3    1    3    3  502    0  0.49493985457E+03  0.44605454903E+03  0.34036951551E+03  0.74818549682E+03  0.10100000352E+00 0.  1.
       -3    1    3    3    0  502 -0.49493985457E+03 -0.44605454903E+03 -0.92779672128E+02  0.67270959419E+03  0.10100000352E+00 0. -1.
</event>
<event>
 5   0  0.8673728E-04  0.1397058E+04  0.7818609E-02  0.8955951E-01
        1   -1    0    0  501    0  0.00000000000E+00  0.00000000000E+00  0.51019746811E+03  0.51019746814E+03  0.50400001928E-02 0. -1.
       -1   -1    0    0    0  501  0.00000000000E+00  0.00000000000E+00 -0.95638078908E+03  0.95638078910E+03  0.50400001928E-02 0.  1.
    10030    2    1    2    0    0  0.00000000000E+00  0.00000000000E+00 -0.44618332097E+03  0.14665782572E+04  0.13970584199E+04 0.  0.
        3    1    3    3  502    0 -0.48059944549E+03  0.18746533091E+03  0.27132706579E+03  0.58287002336E+03  0.10100000352E+00 0. -1.
       -3    1    3    3    0  502  0.48059944549E+03 -0.18746533091E+03 -0.71751038676E+03  0.88370823387E+03  0.10100000352E+00 0.  1.
</event>
<event>
 5   0  0.1648213E-03  0.1387672E+04  0.7818609E-02  0.8962791E-01
        2   -1    0    0  501    0  0.00000000000E+00  0.00000000000E+00  0.16698911747E+04  0.16698911747E+04  0.25500000920E-02 0.  1.
       -2   -1    0    0    0  501  0.00000000000E+00  0.00000000000E+00 -0.28828726440E+03  0.28828726441E+03  0.25500000920E-02 0. -1.
    10030    2    1    2    0    0  0.00000000000E+00  0.00000000000E+00  0.13816039104E+04  0.19581784392E+04  0.13876719477E+04 0.  0.
        4    1    3    3  502    0  0.12758507863E+03 -0.15957786514E+03 -0.24487462615E+03  0.31891729769E+03  0.12699999809E+01 0. -1.
       -4    1    3    3    0  502 -0.12758507863E+03  0.15957786514E+03  0.16264785365E+04  0.16392611415E+04  0.12699999809E+01 0.  1.
</event>
<event>
 5   0  0.1578965E-03  0.1254719E+04  0.7818609E-02  0.9066264E-01
       -2   -1    0    0    0  501  0.00000000000E+00  0.00000000000E+00  0.19193458225E+03  0.19193458226E+03  0.25500000920E-02 0. -1.
        2   -1    0    0  501    0  0.00000000000E+00  0.00000000000E+00 -0.20505954688E+04  0.20505954688E+04  0.25500000920E-02 0.  1.
    10030    2    1    2    0    0  0.00000000000E+00  0.00000000000E+00 -0.18586608866E+04  0.22425300511E+04  0.12547193865E+04 0.  0.
        2    1    3    3  502    0  0.56954993350E+03  0.24844278486E+03 -0.77486551493E+03  0.99324091253E+03  0.25500000920E-02 0.  1.
       -2    1    3    3    0  502 -0.56954993350E+03 -0.24844278486E+03 -0.10837953716E+04  0.12492891386E+04  0.25500000920E-02 0. -1.
</event>
<event>
 5   0  0.8673728E-04  0.1406375E+04  0.7818609E-02  0.8949217E-01
        1   -1    0    0  501    0  0.00000000000E+00  0.00000000000E+00  0.15382459909E+04  0.15382459909E+04  0.50400001928E-02 0.  1.
       -1   -1    0    0    0  501  0.00000000000E+00  0.00000000000E+00 -0.32145239116E+03  0.32145239120E+03  0.50400001928E-02 0. -1.
    10030    2    1    2    0    0  0.00000000000E+00  0.00000000000E+00  0.12167935998E+04  0.18596983822E+04  0.14063752729E+04 0.  0.
        3    1    3    3  502    0  0.18637662849E+03  0.10908301941E+03 -0.27651811365E+03  0.35085271860E+03  0.10100000352E+00 0. -1.
       -3    1    3    3    0  502 -0.18637662849E+03 -0.10908301941E+03  0.14933117134E+04  0.15088456636E+04  0.10100000352E+00 0.  1.
</event>
<event>
 5   0  0.1706986E-03  0.1384140E+04  0.7818609E-02  0.8965380E-01
        2   -1    0    0  501    0  0.00000000000E+00  0.00000000000E+00  0.78050493631E+03  0.78050493631E+03  0.25500000920E-02 0.  1.
       -2   -1    0    0    0  501  0.00000000000E+00  0.00000000000E+00 -0.61365475397E+03  0.61365475398E+03  0.25500000920E-02 0. -1.
    10030    2    1    2    0    0  0.00000000000E+00  0.00000000000E+00  0.16685018234E+03  0.13941596903E+04  0.13841395373E+04 0.  0.
        3    1    3    3  502    0  0.55357683096E+03  0.25745856049E+03 -0.24486126797E+03  0.65779120464E+03  0.10100000352E+00 0.  1.
       -3    1    3    3    0  502 -0.55357683096E+03 -0.25745856049E+03  0.41171145031E+03  0.73636848565E+03  0.10100000352E+00 0. -1.
</event>
<event>
 5   0  0.9639548E-04  0.1380455E+04  0.7818609E-02  0.8968089E-01
       -1   -1    0    0    0  501  0.00000000000E+00  0.00000000000E+00  0.58808790973E+03  0.58808790975E+03  0.50400001928E-02 0. -1.
        1   -1    0    0  501    0  0.00000000000E+00  0.00000000000E+00 -0.81010729755E+03  0.81010729757E+03  0.50400001928E-02 0.  1.
    10030    2    1    2    0    0  0.00000000000E+00  0.00000000000E+00 -0.22201938783E+03  0.13981952073E+04  0.13804554427E+04 0.  0.
        1    1    3    3  502    0  0.66552830075E+03 -0.70326690761E+02  0.60100760551E+02  0.67192697816E+03  0.50400001928E-02 0. -1.
       -1    1    3    3    0  502 -0.66552830075E+03  0.70326690761E+02 -0.28212014838E+03  0.72626822916E+03  0.50400001928E-02 0.  1.
</event>
<event>
 5   0  0.8502300E-04  0.1327876E+04  0.7818609E-02  0.9007747E-01
        1   -1    0    0  501    0  0.00000000000E+00  0.00000000000E+00  0.35550700475E+03  0.35550700479E+03  0.50400001928E-02 0. -1.
       -1   -1    0    0    0  501  0.00000000000E+00  0.00000000000E+00 -0.12399577392E+04  0.12399577392E+04  0.50400001928E-02 0.  1.
    10030    2    1    2    0    0  0.00000000000E+00  0.00000000000E+00 -0.88445073443E+03  0.15954647440E+04  0.13278759911E+04 0.  0.
        4    1    3    3  502    0  0.23684252625E+03 -0.60064708233E+02 -0.11839706738E+04  0.12089211392E+04  0.12699999809E+01 0.  1.
       -4    1    3    3    0  502 -0.23684252625E+03  0.60064708233E+02  0.29951993939E+03  0.38654360479E+03  0.12699999809E+01 0. -1.
</event>
<event>
 5   0  0.8609148E-04  0.1420879E+04  0.7818609E-02  0.8938843E-01
        1   -1    0    0  501    0  0.00000000000E+00  0.00000000000E+00  0.66631055706E+03  0.66631055708E+03  0.50400001928E-02 0. -1.
       -1   -1    0    0    0  501  0.00000000000E+00  0.00000000000E+00 -0.75749060923E+03  0.75749060924E+03  0.50400001928E-02 0.  1.
    10030    2    1    2    0    0  0.00000000000E+00  0.00000000000E+00 -0.91180052169E+02  0.14238011663E+04  0.14208785871E+04 0.  0.
        5    1    3    3  502    0 -0.45036342278E+03  0.41042117630E+03  0.32044085478E+03  0.68846001042E+03  0.46999998093E+01 0. -1.
       -5    1    3    3    0  502  0.45036342278E+03 -0.41042117630E+03 -0.41162090695E+03  0.73534115590E+03  0.46999998093E+01 0.  1.
</event>
<event>
 5   0  0.1706986E-03  0.1400965E+04  0.7818609E-02  0.8953121E-01
        2   -1    0    0  501    0  0.00000000000E+00  0.00000000000E+00  0.90068176652E+03  0.90068176652E+03  0.25500000920E-02 0.  1.
       -2   -1    0    0    0  501  0.00000000000E+00  0.00000000000E+00 -0.54478226254E+03  0.54478226254E+03  0.25500000920E-02 0. -1.
    10030    2    1    2    0    0  0.00000000000E+00  0.00000000000E+00  0.35589950398E+03  0.14454640291E+04  0.14009645971E+04 0.  0.
        3    1    3    3  502    0  0.28801725379E+03  0.52668754517E+03  0.55041739350E+03  0.81444031456E+03  0.10100000352E+00 0.  1.
       -3    1    3    3    0  502 -0.28801725379E+03 -0.52668754517E+03 -0.19451788952E+03  0.63102371450E+03  0.10100000352E+00 0. -1.
</event>
<event>
 5   0  0.9639548E-04  0.1407815E+04  0.7818609E-02  0.8948181E-01
       -1   -1    0    0    0  501  0.00000000000E+00  0.00000000000E+00  0.76839862772E+03  0.76839862773E+03  0.50400001928E-02 0.  1.
        1   -1    0    0  501    0  0.00000000000E+00  0.00000000000E+00 -0.64482933613E+03  0.64482933615E+03  0.50400001928E-02 0. -1.
    10030    2    1    2    0    0  0.00000000000E+00  0.00000000000E+00  0.12356929159E+03  0.14132279639E+04  0.14078152962E+04 0.  0.
        1    1    3    3  502    0  0.26497901949E+03  0.65167556876E+03  0.37379668951E+02  0.70448006882E+03  0.50400001928E-02 0. -1.
       -1    1    3    3    0  502 -0.26497901949E+03 -0.65167556876E+03  0.86189622636E+02  0.70874789507E+03  0.50400001928E-02 0.  1.
</event>
<event>
 5   0  0.1648463E-03  0.1400414E+04  0.7818609E-02  0.8953519E-01
        2   -1    0    0  501    0  0.00000000000E+00  0.00000000000E+00  0.10475222556E+04  0.10475222556E+04  0.25500000920E-02 0.  1.
       -2   -1    0    0    0  501  0.00000000000E+00  0.00000000000E+00 -0.46804708108E+03  0.46804708109E+03  0.25500000920E-02 0. -1.
    10030    2    1    2    0    0  0.00000000000E+00  0.00000000000E+00  0.57947517451E+03  0.15155693367E+04  0.14004138447E+04 0.  0.
        1    1    3    3  502    0  0.42349300801E+03 -0.22135778528E+03 -0.26415270758E+03  0.54600572330E+03  0.50400001928E-02 0. -1.
       -1    1    3    3    0  502 -0.42349300801E+03  0.22135778528E+03  0.84362788209E+03  0.96956361338E+03  0.50400001928E-02 0.  1.
</event>
<event>
 5   0  0.8502300E-04  0.1415971E+04  0.7818609E-02  0.8942338E-01
       -1   -1    0    0    0  501  0.00000000000E+00  0.00000000000E+00  0.33290561007E+03  0.33290561011E+03  0.50400001928E-02 0. -1.
        1   -1    0    0  501    0  0.00000000000E+00  0.00000000000E+00 -0.15056632095E+04  0.15056632095E+04  0.50400001928E-02 0.  1.
    10030    2    1    2    0    0  0.00000000000E+00  0.00000000000E+00 -0.11727575994E+04  0.18385688196E+04  0.14159713689E+04 0.  0.
        4    1    3    3  502    0 -0.47554506605E+03  0.31042642781E+03 -0.37432906875E+02  0.56913136651E+03  0.12699999809E+01 0. -1.
       -4    1    3    3    0  502  0.47554506605E+03 -0.31042642781E+03 -0.11353246925E+04  0.12694374531E+04  0.12699999809E+01 0.  1.
</event>
<event>
 5   0  0.8609148E-04  0.1393803E+04  0.7818609E-02  0.8958317E-01
        1   -1    0    0  501    0  0.00000000000E+00  0.00000000000E+00  0.84484516401E+03  0.84484516402E+03  0.50400001928E-02 0. -1.
       -1   -1    0    0    0  501  0.00000000000E+00  0.00000000000E+00 -0.57486443453E+03  0.57486443455E+03  0.50400001928E-02 0.  1.
    10030    2    1    2    0    0  0.00000000000E+00  0.00000000000E+00  0.26998072948E+03  0.14197095986E+04  0.13938026223E+04 0.  0.
        5    1    3    3  502    0 -0.43472409666E+03  0.33339908167E+03 -0.30372329265E+03  0.62642630562E+03  0.46999998093E+01 0.  1.
       -5    1    3    3    0  502  0.43472409666E+03 -0.33339908167E+03  0.57370402213E+03  0.79328329296E+03  0.46999998093E+01 0. -1.
</event>
<event>
 5   0  0.9007180E-04  0.1409756E+04  0.7818609E-02  0.8946787E-01
       -1   -1    0    0    0  501  0.00000000000E+00  0.00000000000E+00  0.68379094022E+03  0.68379094024E+03  0.50400001928E-02 0.  1.
        1   -1    0    0  501    0  0.00000000000E+00  0.00000000000E+00 -0.72661554085E+03  0.72661554087E+03  0.50400001928E-02 0. -1.
    10030    2    1    2    0    0  0.00000000000E+00  0.00000000000E+00 -0.42824600631E+02  0.14104064811E+04  0.14097561830E+04 0.  0.
        2    1    3    3  502    0 -0.61781623342E+03  0.22959225712E+03  0.22859018539E+03  0.69761233910E+03  0.25500000920E-02 0.  1.
       -2    1    3    3    0  502  0.61781623342E+03 -0.22959225712E+03 -0.27141478602E+03  0.71279414201E+03  0.25500000920E-02 0. -1.
</event>
<event>
 5   0  0.8502300E-04  0.1386785E+04  0.7818609E-02  0.8963441E-01
        1   -1    0    0  501    0  0.00000000000E+00  0.00000000000E+00  0.86570211959E+03  0.86570211960E+03  0.50400001928E-02 0. -1.
       -1   -1    0    0    0  501  0.00000000000E+00  0.00000000000E+00 -0.55537906037E+03  0.55537906039E+03  0.50400001928E-02 0.  1.
    10030    2    1    2    0    0  0.00000000000E+00  0.00000000000E+00  0.31032305922E+03  0.14210811800E+04  0.13867845251E+04 0.  0.
        4    1    3    3  502    0 -0.43671106261E+03  0.52873913681E+03  0.26021315716E+03  0.73348082937E+03  0.12699999809E+01 0.  1.
       -4    1    3    3    0  502  0.43671106261E+03 -0.52873913681E+03  0.50109902064E+02  0.68760035062E+03  0.12699999809E+01 0. -1.
</event>
<event>
 5   0  0.8609148E-04  0.1405352E+04  0.7818609E-02  0.8949954E-01
        1   -1    0    0  501    0  0.00000000000E+00  0.00000000000E+00  0.49299684658E+03  0.49299684661E+03  0.50400001928E-02 0.  1.
       -1   -1    0    0    0  501  0.00000000000E+00  0.00000000000E+00 -0.10015343157E+04  0.10015343157E+04  0.50400001928E-02 0. -1.
    10030    2    1    2    0    0  0.00000000000E+00  0.00000000000E+00 -0.50853746913E+03  0.14945311623E+04  0.14053515708E+04 0.  0.
        5    1    3    3  502    0  0.11546226300E+02  0.58231445373E+03 -0.67228684611E+03  0.88950274413E+03  0.46999998093E+01 0. -1.
       -5    1    3    3    0  502 -0.11546226300E+02 -0.58231445373E+03  0.16374937698E+03  0.60502841820E+03  0.46999998093E+01 0.  1.
</event>
<event>
 5   0  0.1578965E-03  0.1399212E+04  0.7818609E-02  0.8954389E-01
       -2   -1    0    0    0  501  0.00000000000E+00  0.00000000000E+00  0.73965430589E+03  0.73965430590E+03  0.25500000920E-02 0.  1.
        2   -1    0    0  501    0  0.00000000000E+00  0.00000000000E+00 -0.66172649379E+03  0.66172649380E+03  0.25500000920E-02 0. -1.
    10030    2    1    2    0    0  0.00000000000E+00  0.00000000000E+00  0.77927812099E+02  0.14013807997E+04  0.13992124220E+04 0.  0.
        2    1    3    3  502    0  0.68990175262E+03  0.26051219626E+02 -0.74373984343E+02  0.69438792030E+03  0.25500000920E-02 0. -1.
       -2    1    3    3    0  502 -0.68990175262E+03 -0.26051219626E+02  0.15230179644E+03  0.70699287939E+03  0.25500000920E-02 0.  1.
</event>
<event>
 5   0  0.9639548E-04  0.1399168E+04  0.7818609E-02  0.8954421E-01
        1   -1    0    0  501    0  0.00000000000E+00  0.00000000000E+00  0.14591810556E+04  0.14591810556E+04  0.50400001928E-02 0.  1.
       -1   -1    0    0    0  501  0.00000000000E+00  0.00000000000E+00 -0.33540586945E+03  0.33540586949E+03  0.50400001928E-02 0. -1.
    10030    2    1    2    0    0  0.00000000000E+00  0.00000000000E+00  0.11237751862E+04  0.17945869251E+04  0.13991681682E+04 0.  0.
        1    1    3    3  502    0 -0.19251395611E+03 -0.67147447257E+03  0.61120223460E+03  0.92817442446E+03  0.50400001928E-02 0. -1.
       -1    1    3    3    0  502  0.19251395611E+03  0.67147447257E+03  0.51257295158E+03  0.86641250068E+03  0.50400001928E-02 0.  1.
</event>
<event>
 5   0  0.9639548E-04  0.1415102E+04  0.7818609E-02  0.8942959E-01
        1   -1    0    0  501    0  0.00000000000E+00  0.00000000000E+00  0.13480187813E+04  0.13480187813E+04  0.50400001928E-02 0.  1.
       -1   -1    0    0    0  501  0.00000000000E+00  0.00000000000E+00 -0.37138075613E+03  0.37138075617E+03  0.50400001928E-02 0. -1.
    10030    2    1    2    0    0  0.00000000000E+00  0.00000000000E+00  0.97663802515E+03  0.17193995375E+04  0.14151017410E+04 0.  0.
        1    1    3    3  502    0  0.13973369451E+03  0.33000222489E+03  0.12295918049E+04  0.12807509440E+04  0.50400001928E-02 0.  1.
       -1    1    3    3    0  502 -0.13973369451E+03 -0.33000222489E+03 -0.25295377977E+03  0.43864859345E+03  0.50400001928E-02 0. -1.
</event>
<event>
 5   0  0.9639548E-04  0.1236623E+04  0.7818609E-02  0.9081391E-01
       -1   -1    0    0    0  501  0.00000000000E+00  0.00000000000E+00  0.14842148612E+03  0.14842148620E+03  0.50400001928E-02 0.  1.
        1   -1    0    0  501    0  0.00000000000E+00  0.00000000000E+00 -0.25758324768E+04  0.25758324768E+04  0.50400001928E-02 0. -1.
    10030    2    1    2    0    0  0.00000000000E+00  0.00000000000E+00 -0.24274109906E+04  0.27242539630E+04  0.12366226333E+04 0.  0.
        1    1    3    3  502    0 -0.49686690114E+03 -0.30543649301E+03 -0.16659375615E+04  0.17650824705E+04  0.50400001928E-02 0. -1.
       -1    1    3    3    0  502  0.49686690114E+03  0.30543649301E+03 -0.76147342911E+03  0.95917149248E+03  0.50400001928E-02 0.  1.
</event>
<event>
 5   0  0.1648213E-03  0.1358264E+04  0.7818609E-02  0.8984596E-01
       -2   -1    0    0    0  501  0.00000000000E+00  0.00000000000E+00  0.35774369425E+03  0.35774369426E+03  0.25500000920E-02 0. -1.
        2   -1    0    0  501    0  0.00000000000E+00  0.00000000000E+00 -0.12892476487E+04  0.12892476487E+04  0.25500000920E-02 0.  1.
    10030    2    1    2    0    0  0.00000000000E+00  0.00000000000E+00 -0.93150395446E+03  0.16469913430E+04  0.13582639164E+04 0.  0.
        4    1    3    3  502    0 -0.18296798161E+03  0.65227856607E+03 -0.52357513203E+03  0.85619924190E+03  0.12699999809E+01 0. -1.
       -4    1    3    3    0  502  0.18296798161E+03 -0.65227856607E+03 -0.40792882243E+03  0.79079210107E+03  0.12699999809E+01 0.  1.
</event>
<event>
 5   0  0.8673728E-04  0.1412879E+04  0.7818609E-02  0.8944549E-01
        1   -1    0    0  501    0  0.00000000000E+00  0.00000000000E+00  0.56391762558E+03  0.56391762560E+03  0.50400001928E-02 0.  1.
       -1   -1    0    0    0  501  0.00000000000E+00  0.00000000000E+00 -0.88498135357E+03  0.88498135358E+03  0.50400001928E-02 0. -1.
    10030    2    1    2    0    0  0.00000000000E+00  0.00000000000E+00 -0.32106372799E+03  0.14488989792E+04  0.14128787402E+04 0.  0.
        3    1    3    3  502    0  0.39137806206E+03 -0.26275160327E+02 -0.76303865022E+03  0.85795988452E+03  0.10100000352E+00 0. -1.
       -3    1    3    3    0  502 -0.39137806206E+03  0.26275160327E+02  0.44197492223E+03  0.59093909466E+03  0.10100000352E+00 0.  1.
</event>
<event>
 5   0  0.1648213E-03  0.1397627E+04  0.7818609E-02  0.8955538E-01
        2   -1    0    0  501    0  0.00000000000E+00  0.00000000000E+00  0.56635483788E+03  0.56635483789E+03  0.25500000920E-02 0. -1.
       -2   -1    0    0    0  501  0.00000000000E+00  0.00000000000E+00 -0.86225190766E+03  0.86225190767E+03  0.25500000920E-02 0.  1.
    10030    2    1    2    0    0  0.00000000000E+00  0.00000000000E+00 -0.29589706978E+03  0.14286067456E+04  0.13976273314E+04 0.  0.
        4    1    3    3  502    0 -0.10665608020E+02 -0.33159975335E+03  0.48071809722E+03  0.58409216183E+03  0.12699999809E+01 0. -1.
       -4    1    3    3    0  502  0.10665608020E+02  0.33159975335E+03 -0.77661516700E+03  0.84451458373E+03  0.12699999809E+01 0.  1.
</event>
<event>
 5   0  0.1706986E-03  0.1393152E+04  0.7818609E-02  0.8958791E-01
       -2   -1    0    0    0  501  0.00000000000E+00  0.00000000000E+00  0.14310097593E+04  0.14310097593E+04  0.25500000920E-02 0. -1.
        2   -1    0    0  501    0  0.00000000000E+00  0.00000000000E+00 -0.33907375020E+03  0.33907375021E+03  0.25500000920E-02 0.  1.
    10030    2    1    2    0    0  0.00000000000E+00  0.00000000000E+00  0.10919360091E+04  0.17700835095E+04  0.13931516008E+04 0.  0.
        3    1    3    3  502    0 -0.38509112709E+03  0.47567325653E+02  0.12809848405E+04  0.13384618031E+04  0.10100000352E+00 0. -1.
       -3    1    3    3    0  502  0.38509112709E+03 -0.47567325653E+02 -0.18904883135E+03  0.43162170644E+03  0.10100000352E+00 0.  1.
</event>
<event>
 5   0  0.1648463E-03  0.1404357E+04  0.7818609E-02  0.8950671E-01
       -2   -1    0    0    0  501  0.00000000000E+00  0.00000000000E+00  0.86474964955E+03  0.86474964955E+03  0.25500000920E-02 0.  1.
        2   -1    0    0  501    0  0.00000000000E+00  0.00000000000E+00 -0.57017046929E+03  0.57017046929E+03  0.25500000920E-02 0. -1.
    10030    2    1    2    0    0  0.00000000000E+00  0.00000000000E+00  0.29457918026E+03  0.14349201188E+04  0.14043570963E+04 0.  0.
        1    1    3    3  502    0  0.32250445643E+02 -0.25763196760E+03  0.81389922842E+03  0.85431040964E+03  0.50400001928E-02 0.  1.
       -1    1    3    3    0  502 -0.32250445643E+02  0.25763196760E+03 -0.51932004816E+03  0.58060970920E+03  0.50400001928E-02 0. -1.
</event>
<event>
 5   0  0.1648213E-03  0.1413807E+04  0.7818609E-02  0.8943885E-01
       -2   -1    0    0    0  501  0.00000000000E+00  0.00000000000E+00  0.71542887128E+03  0.71542887129E+03  0.25500000920E-02 0. -1.
        2   -1    0    0  501    0  0.00000000000E+00  0.00000000000E+00 -0.69847922983E+03  0.69847922983E+03  0.25500000920E-02 0.  1.
    10030    2    1    2    0    0  0.00000000000E+00  0.00000000000E+00  0.16949641454E+02  0.14139081011E+04  0.14138065031E+04 0.  0.
        4    1    3    3  502    0  0.12799554675E+03 -0.34922963670E+03  0.60965560336E+03  0.71416088296E+03  0.12699999809E+01 0. -1.
       -4    1    3    3    0  502 -0.12799554675E+03  0.34922963670E+03 -0.59270596191E+03  0.69974721816E+03  0.12699999809E+01 0.  1.
</event>
<event>
 5   0  0.8673728E-04  0.1411507E+04  0.7818609E-02  0.8945531E-01
       -1   -1    0    0    0  501  0.00000000000E+00  0.00000000000E+00  0.96491584862E+03  0.96491584863E+03  0.50400001928E-02 0. -1.
        1   -1    0    0  501    0  0.00000000000E+00  0.00000000000E+00 -0.51619867914E+03  0.51619867916E+03  0.50400001928E-02 0.  1.
    10030    2    1    2    0    0  0.00000000000E+00  0.00000000000E+00  0.44871716948E+03  0.14811145278E+04  0.14115074021E+04 0.  0.
        3    1    3    3  502    0  0.66304747403E+03 -0.13180137037E+03  0.11669275969E+02  0.67612109585E+03  0.10100000352E+00 0. -1.
       -3    1    3    3    0  502 -0.66304747403E+03  0.13180137037E+03  0.43704789351E+03  0.80499343195E+03  0.10100000352E+00 0.  1.
</event>
<event>
 5   0  0.1706986E-03  0.1406095E+04  0.7818609E-02  0.8949419E-01
        2   -1    0    0  501    0  0.00000000000E+00  0.00000000000E+00  0.16331973951E+04  0.16331973951E+04  0.25500000920E-02 0.  1.
       -2   -1    0    0    0  501  0.00000000000E+00  0.00000000000E+00 -0.30264297388E+03  0.30264297389E+03  0.25500000920E-02 0. -1.
    10030    2    1    2    0    0  0.00000000000E+00  0.00000000000E+00  0.13305544212E+04  0.19358403690E+04  0.14060948995E+04 0.  0.
        3    1    3    3  502    0 -0.33470332361E+03 -0.61173481313E+03  0.78864740442E+03  0.10527157903E+04  0.10100000352E+00 0. -1.
       -3    1    3    3    0  502  0.33470332361E+03  0.61173481313E+03  0.54190701678E+03  0.88312457867E+03  0.10100000352E+00 0.  1.
</event>
<event>
 5   0  0.8673728E-04  0.1389390E+04  0.7818609E-02  0.8961535E-01
        1   -1    0    0  501    0  0.00000000000E+00  0.00000000000E+00  0.19651999241E+04  0.19651999241E+04  0.50400001928E-02 0.  1.
       -1   -1    0    0    0  501  0.00000000000E+00  0.00000000000E+00 -0.24557340459E+03  0.24557340464E+03  0.50400001928E-02 0. -1.
    10030    2    1    2    0    0  0.00000000000E+00  0.00000000000E+00  0.17196265196E+04  0.22107733288E+04  0.13893895582E+04 0.  0.
        3    1    3    3  502    0 -0.39368427577E+03  0.40827461277E+03  0.22150211502E+03  0.60888312966E+03  0.10100000352E+00 0. -1.
       -3    1    3    3    0  502  0.39368427577E+03 -0.40827461277E+03  0.14981244045E+04  0.16018901991E+04  0.10100000352E+00 0.  1.
</event>
<event>
 5   0  0.1648213E-03  0.1462632E+04  0.7818609E-02  0.8909690E-01
        2   -1    0    0  501    0  0.00000000000E+00  0.00000000000E+00  0.91955480907E+03  0.91955480908E+03  0.25500000920E-02 0.  1.
       -2   -1    0    0    0  501  0.00000000000E+00  0.00000000000E+00 -0.58161087769E+03  0.58161087770E+03  0.25500000920E-02 0. -1.
    10030    2    1    2    0    0  0.00000000000E+00  0.00000000000E+00  0.33794393138E+03  0.15011656868E+04  0.14626319832E+04 0.  0.
        4    1    3    3  502    0 -0.45565196210E+03 -0.45544126025E+03 -0.18623256135E+03  0.67061884250E+03  0.12699999809E+01 0. -1.
       -4    1    3    3    0  502  0.45565196210E+03  0.45544126025E+03  0.52417649273E+03  0.83054684428E+03  0.12699999809E+01 0.  1.
</event>
<event>
 5   0  0.1578965E-03  0.1403096E+04  0.7818609E-02  0.8951581E-01
        2   -1    0    0  501    0  0.00000000000E+00  0.00000000000E+00  0.65834705597E+03  0.65834705598E+03  0.25500000920E-02 0. -1.
       -2   -1    0    0    0  501  0.00000000000E+00  0.00000000000E+00 -0.74758376321E+03  0.74758376321E+03  0.25500000920E-02 0.  1.
    10030    2    1    2    0    0  0.00000000000E+00  0.00000000000E+00 -0.89236707237E+02  0.14059308192E+04  0.14030959619E+04 0.  0.
        2    1    3    3  502    0 -0.60970938668E+03  0.30982820311E+03 -0.20123680076E+03  0.71290623622E+03  0.25500000920E-02 0. -1.
       -2    1    3    3    0  502  0.60970938668E+03 -0.30982820311E+03  0.11200009353E+03  0.69302458297E+03  0.25500000920E-02 0.  1.
</event>
<event>
 5   0  0.1648463E-03  0.1514676E+04  0.7818609E-02  0.8874752E-01
       -2   -1    0    0    0  501  0.00000000000E+00  0.00000000000E+00  0.40575190631E+03  0.40575190632E+03  0.25500000920E-02 0.  1.
        2   -1    0    0  501    0  0.00000000000E+00  0.00000000000E+00 -0.14135760478E+04  0.14135760478E+04  0.25500000920E-02 0. -1.
    10030    2    1    2    0    0  0.00000000000E+00  0.00000000000E+00 -0.10078241415E+04  0.18193279541E+04  0.15146764356E+04 0.  0.
        1    1    3    3  502    0 -0.31165180432E+03  0.47677495507E+03 -0.11034206412E+04  0.12417641951E+04  0.50400001928E-02 0. -1.
       -1    1    3    3    0  502  0.31165180432E+03 -0.47677495507E+03  0.95596499688E+02  0.57756375898E+03  0.50400001928E-02 0.  1.
</event>
<event>
 5   0  0.1706986E-03  0.1394551E+04  0.7818609E-02  0.8957772E-01
        2   -1    0    0  501    0  0.00000000000E+00  0.00000000000E+00  0.89783442581E+03  0.89783442582E+03  0.25500000920E-02 0. -1.
       -2   -1    0    0    0  501  0.00000000000E+00  0.00000000000E+00 -0.54151783275E+03  0.54151783276E+03  0.25500000920E-02 0.  1.
    10030    2    1    2    0    0  0.00000000000E+00  0.00000000000E+00  0.35631659306E+03  0.14393522586E+04  0.13945513292E+04 0.  0.
        3    1    3    3  502    0  0.51161629521E+03 -0.73451164083E+02  0.66121852158E+03  0.83925934640E+03  0.10100000352E+00 0. -1.
       -3    1    3    3    0  502 -0.51161629521E+03  0.73451164083E+02 -0.30490192852E+03  0.60009291218E+03  0.10100000352E+00 0.  1.
</event>
<event>
 5   0  0.1578965E-03  0.1286985E+04  0.7818609E-02  0.9039950E-01
       -2   -1    0    0    0  501  0.00000000000E+00  0.00000000000E+00  0.67902979837E+03  0.67902979838E+03  0.25500000920E-02 0. -1.
        2   -1    0    0  501    0  0.00000000000E+00  0.00000000000E+00 -0.60981535731E+03  0.60981535731E+03  0.25500000920E-02 0.  1.
    10030    2    1    2    0    0  0.00000000000E+00  0.00000000000E+00  0.69214441067E+02  0.12888451557E+04  0.12869853132E+04 0.  0.
        2    1    3    3  502    0 -0.21441465069E+03  0.22935884402E+03 -0.52790163696E+03  0.61421434376E+03  0.25500000920E-02 0.  1.
       -2    1    3    3    0  502  0.21441465069E+03 -0.22935884402E+03  0.59711607803E+03  0.67463081193E+03  0.25500000920E-02 0. -1.
</event>
<event>
 5   0  0.9007180E-04  0.1415585E+04  0.7818609E-02  0.8942614E-01
        1   -1    0    0  501    0  0.00000000000E+00  0.00000000000E+00  0.45523740376E+03  0.45523740378E+03  0.50400001928E-02 0. -1.
       -1   -1    0    0    0  501  0.00000000000E+00  0.00000000000E+00 -0.11004594199E+04  0.11004594199E+04  0.50400001928E-02 0.  1.
    10030    2    1    2    0    0  0.00000000000E+00  0.00000000000E+00 -0.64522201617E+03  0.15556968237E+04  0.14155850936E+04 0.  0.
        2    1    3    3  502    0  0.55994995170E+03 -0.26143005252E+03 -0.70184705968E+03  0.93513577408E+03  0.25500000920E-02 0.  1.
       -2    1    3    3    0  502 -0.55994995170E+03  0.26143005252E+03  0.56625043513E+02  0.62056104964E+03  0.25500000920E-02 0. -1.
</event>
<event>
 5   0  0.9007180E-04  0.1400307E+04  0.7818609E-02  0.8953596E-01
       -1   -1    0    0    0  501  0.00000000000E+00  0.00000000000E+00  0.34073361485E+03  0.34073361489E+03  0.50400001928E-02 0. -1.
        1   -1    0    0  501    0  0.00000000000E+00  0.00000000000E+00 -0.14387046050E+04  0.14387046050E+04  0.50400001928E-02 0.  1.
    10030    2    1    2    0    0  0.00000000000E+00  0.00000000000E+00 -0.10979709901E+04  0.17794382199E+04  0.14003071389E+04 0.  0.
        2    1    3    3  502    0  0.88891997051E+02  0.83788313693E+02 -0.14250583165E+04  0.14302844032E+04  0.25500000920E-02 0.  1.
       -2    1    3    3    0  502 -0.88891997051E+02 -0.83788313693E+02  0.32708732634E+03  0.34915381669E+03  0.25500000920E-02 0. -1.
</event>
<event>
 5   0  0.8502300E-04  0.1384331E+04  0.7818609E-02  0.8965239E-01
        1   -1    0    0  501    0  0.00000000000E+00  0.00000000000E+00  0.10748449755E+04  0.10748449755E+04  0.50400001928E-02 0.  1.
       -1   -1    0    0    0  501  0.00000000000E+00  0.00000000000E+00 -0.44573225678E+03  0.44573225681E+03  0.50400001928E-02 0. -1.
    10030    2    1    2    0    0  0.00000000000E+00  0.00000000000E+00  0.62911271875E+03  0.15205772323E+04  0.13843309961E+04 0.  0.
        4    1    3    3  502    0  0.55942856951E+03  0.17087259654E+03 -0.91909154452E+02  0.59212048960E+03  0.12699999809E+01 0. -1.
       -4    1    3    3    0  502 -0.55942856951E+03 -0.17087259654E+03  0.72102187320E+03  0.92845674275E+03  0.12699999809E+01 0.  1.
</event>
<event>
 5   0  0.8609148E-04  0.1443335E+04  0.7818609E-02  0.8923035E-01
        1   -1    0    0  501    0  0.00000000000E+00  0.00000000000E+00  0.12267902226E+04  0.12267902226E+04  0.50400001928E-02 0. -1.
       -1   -1    0    0    0  501  0.00000000000E+00  0.00000000000E+00 -0.42452543982E+03  0.42452543985E+03  0.50400001928E-02 0.  1.
    10030    2    1    2    0    0  0.00000000000E+00  0.00000000000E+00  0.80226478275E+03  0.16513156624E+04  0.14433345542E+04 0.  0.
        5    1    3    3  502    0  0.37787967180E+03  0.50779199424E+03  0.79768365410E+03  0.10183157947E+04  0.46999998093E+01 0.  1.
       -5    1    3    3    0  502 -0.37787967180E+03 -0.50779199424E+03  0.45811286473E+01  0.63299986770E+03  0.46999998093E+01 0. -1.
</event>
<event>
 5   0  0.8609148E-04  0.1413115E+04  0.7818609E-02  0.8944380E-01
       -1   -1    0    0    0  501  0.00000000000E+00  0.00000000000E+00  0.20159392910E+03  0.20159392916E+03  0.50400001928E-02 0. -1.
        1   -1    0    0  501    0  0.00000000000E+00  0.00000000000E+00 -0.24763818742E+04  0.24763818742E+04  0.50400001928E-02 0.  1.
    10030    2    1    2    0    0  0.00000000000E+00  0.00000000000E+00 -0.22747879451E+04  0.26779758034E+04  0.14131150725E+04 0.  0.
        5    1    3    3  502    0 -0.54354803031E+03  0.41367030062E+03 -0.79504936040E+03  0.10481856488E+04  0.46999998093E+01 0. -1.
       -5    1    3    3    0  502  0.54354803031E+03 -0.41367030062E+03 -0.14797385847E+04  0.16297901546E+04  0.46999998093E+01 0.  1.
</event>
<event>
 5   0  0.1706986E-03  0.1388369E+04  0.7818609E-02  0.8962281E-01
        2   -1    0    0  501    0  0.00000000000E+00  0.00000000000E+00  0.16177453125E+04  0.16177453125E+04  0.25500000920E-02 0. -1.
       -2   -1    0    0    0  501  0.00000000000E+00  0.00000000000E+00 -0.29787865704E+03  0.29787865705E+03  0.25500000920E-02 0.  1.
    10030    2    1    2    0    0  0.00000000000E+00  0.00000000000E+00  0.13198666555E+04  0.19156239695E+04  0.13883685406E+04 0.  0.
        3    1    3    3  502    0  0.52248798935E+03 -0.45462564919E+03  0.59501666997E+03  0.91308434860E+03  0.10100000352E+00 0. -1.
       -3    1    3    3    0  502 -0.52248798935E+03  0.45462564919E+03  0.72484998549E+03  0.10025396210E+04  0.10100000352E+00 0.  1.
</event>
<event>
 5   0  0.1706986E-03  0.1380841E+04  0.7818609E-02  0.8967804E-01
       -2   -1    0    0    0  501  0.00000000000E+00  0.00000000000E+00  0.71906974549E+03  0.71906974550E+03  0.25500000920E-02 0.  1.
        2   -1    0    0  501    0  0.00000000000E+00  0.00000000000E+00 -0.66291315839E+03  0.66291315839E+03  0.25500000920E-02 0. -1.
    10030    2    1    2    0    0  0.00000000000E+00  0.00000000000E+00  0.56156587105E+02  0.13819829039E+04  0.13808414769E+04 0.  0.
        3    1    3    3  502    0  0.59071762661E+03  0.32011708279E+03  0.18713897481E+03  0.69745484956E+03  0.10100000352E+00 0. -1.
       -3    1    3    3    0  502 -0.59071762661E+03 -0.32011708279E+03 -0.13098238771E+03  0.68452805433E+03  0.10100000352E+00 0.  1.
</event>
<event>
 5   0  0.6048000E-04  0.1413913E+04  0.7818609E-02  0.8943809E-01
       -3   -1    0    0    0  501  0.00000000000E+00  0.00000000000E+00  0.74383973370E+03  0.74383974056E+03  0.10100000352E+00 0. -1.
        3   -1    0    0  501    0  0.00000000000E+00  0.00000000000E+00 -0.67190230665E+03  0.67190231424E+03  0.10100000352E+00 0.  1.
    10030    2    1    2    0    0  0.00000000000E+00  0.00000000000E+00  0.71937427053E+02  0.14157420548E+04  0.14139132124E+04 0.  0.
        2    1    3    3  502    0  0.53756332682E+03  0.70908825716E+02 -0.41825363959E+03  0.68479084321E+03  0.25500000920E-02 0.  1.
       -2    1    3    3    0  502 -0.53756332682E+03 -0.70908825716E+02  0.49019106665E+03  0.73095121159E+03  0.25500000920E-02 0. -1.
</event>
<event>
 5   0  0.1648463E-03  0.1385905E+04  0.7818609E-02  0.8964085E-01
       -2   -1    0    0    0  501  0.00000000000E+00  0.00000000000E+00  0.22490326155E+03  0.22490326156E+03  0.25500000920E-02 0.  1.
        2   -1    0    0  501    0  0.00000000000E+00  0.00000000000E+00 -0.21350649156E+04  0.21350649156E+04  0.25500000920E-02 0. -1.
    10030    2    1    2    0    0  0.00000000000E+00  0.00000000000E+00 -0.19101616540E+04  0.23599681771E+04  0.13859048498E+04 0.  0.
        1    1    3    3  502    0  0.67614062602E+03 -0.12188410525E+03 -0.11089137385E+04  0.13044966695E+04  0.50400001928E-02 0. -1.
       -1    1    3    3    0  502 -0.67614062602E+03  0.12188410525E+03 -0.80124791550E+03  0.10554715076E+04  0.50400001928E-02 0.  1.
</event>
<event>
 5   0  0.9007180E-04  0.1372922E+04  0.7818609E-02  0.8973656E-01
       -1   -1    0    0    0  501  0.00000000000E+00  0.00000000000E+00  0.73400022071E+03  0.73400022073E+03  0.50400001928E-02 0. -1.
        1   -1    0    0  501    0  0.00000000000E+00  0.00000000000E+00 -0.64200040217E+03  0.64200040219E+03  0.50400001928E-02 0.  1.
    10030    2    1    2    0    0  0.00000000000E+00  0.00000000000E+00  0.91999818539E+02  0.13760006229E+04  0.13729216102E+04 0.  0.
        2    1    3    3  502    0  0.21041158340E+03 -0.16404460517E+03 -0.58790948520E+03  0.64561693729E+03  0.25500000920E-02 0.  1.
       -2    1    3    3    0  502 -0.21041158340E+03  0.16404460517E+03  0.67990930374E+03  0.73038368563E+03  0.25500000920E-02 0. -1.
</event>
<event>
 5   0  0.1706986E-03  0.1394055E+04  0.7818609E-02  0.8958133E-01
        2   -1    0    0  501    0  0.00000000000E+00  0.00000000000E+00  0.16793421334E+04  0.16793421334E+04  0.25500000920E-02 0. -1.
       -2   -1    0    0    0  501  0.00000000000E+00  0.00000000000E+00 -0.28930806815E+03  0.28930806816E+03  0.25500000920E-02 0.  1.
    10030    2    1    2    0    0  0.00000000000E+00  0.00000000000E+00  0.13900340653E+04  0.19686502016E+04  0.13940548460E+04 0.  0.
        3    1    3    3  502    0 -0.46696012025E+03  0.17080926965E+03  0.51874663942E+01  0.49724690095E+03  0.10100000352E+00 0.  1.
       -3    1    3    3    0  502  0.46696012025E+03 -0.17080926965E+03  0.13848465989E+04  0.14714033006E+04  0.10100000352E+00 0. -1.
</event>
<event>
 5   0  0.1648213E-03  0.1378038E+04  0.7818609E-02  0.8969871E-01
        2   -1    0    0  501    0  0.00000000000E+00  0.00000000000E+00  0.11258332247E+04  0.11258332247E+04  0.25500000920E-02 0. -1.
       -2   -1    0    0    0  501  0.00000000000E+00  0.00000000000E+00 -0.42168528316E+03  0.42168528317E+03  0.25500000920E-02 0.  1.
    10030    2    1    2    0    0  0.00000000000E+00  0.00000000000E+00  0.70414794155E+03  0.15475185079E+04  0.13780381739E+04 0.  0.
        4    1    3    3  502    0 -0.30965566790E+01 -0.38891986183E+02 -0.42044252434E+03  0.42225076013E+03  0.12699999809E+01 0.  1.
       -4    1    3    3    0  502  0.30965566790E+01  0.38891986183E+02  0.11245904659E+04  0.11252677478E+04  0.12699999809E+01 0. -1.
</event>
<event>
 5   0  0.1605214E-03  0.1388840E+04  0.7818609E-02  0.8961937E-01
        2   -1    0    0  501    0  0.00000000000E+00  0.00000000000E+00  0.17109636392E+04  0.17109636392E+04  0.25500000920E-02 0. -1.
       -2   -1    0    0    0  501  0.00000000000E+00  0.00000000000E+00 -0.28184068281E+03  0.28184068283E+03  0.25500000920E-02 0.  1.
    10030    2    1    2    0    0  0.00000000000E+00  0.00000000000E+00  0.14291229564E+04  0.19928043221E+04  0.13888400345E+04 0.  0.
        5    1    3    3  502    0 -0.67146840431E+03  0.17479500669E+03  0.67464326136E+03  0.96777514560E+03  0.46999998093E+01 0. -1.
       -5    1    3    3    0  502  0.67146840431E+03 -0.17479500669E+03  0.75447969507E+03  0.10250291765E+04  0.46999998093E+01 0.  1.
</event>
<event>
 5   0  0.9639548E-04  0.1406057E+04  0.7818609E-02  0.8949446E-01
        1   -1    0    0  501    0  0.00000000000E+00  0.00000000000E+00  0.62085251052E+03  0.62085251054E+03  0.50400001928E-02 0. -1.
       -1   -1    0    0    0  501  0.00000000000E+00  0.00000000000E+00 -0.79608180043E+03  0.79608180045E+03  0.50400001928E-02 0.  1.
    10030    2    1    2    0    0  0.00000000000E+00  0.00000000000E+00 -0.17522928991E+03  0.14169343110E+04  0.14060574446E+04 0.  0.
        1    1    3    3  502    0 -0.26980122051E+03 -0.48660794506E+03  0.34544140895E+03  0.65491202296E+03  0.50400001928E-02 0. -1.
       -1    1    3    3    0  502  0.26980122051E+03  0.48660794506E+03 -0.52067069886E+03  0.76202228803E+03  0.50400001928E-02 0.  1.
</event>
<event>
 5   0  0.8673728E-04  0.1447925E+04  0.7818609E-02  0.8919840E-01
       -1   -1    0    0    0  501  0.00000000000E+00  0.00000000000E+00  0.50013997317E+03  0.50013997319E+03  0.50400001928E-02 0. -1.
        1   -1    0    0  501    0  0.00000000000E+00  0.00000000000E+00 -0.10479504343E+04  0.10479504343E+04  0.50400001928E-02 0.  1.
    10030    2    1    2    0    0  0.00000000000E+00  0.00000000000E+00 -0.54781046113E+03  0.15480904075E+04  0.14479252772E+04 0.  0.
        3    1    3    3  502    0 -0.57112534204E+03  0.37336121150E+02 -0.74790680949E+03  0.94177637906E+03  0.10100000352E+00 0.  1.
       -3    1    3    3    0  502  0.57112534204E+03 -0.37336121150E+02  0.20009634837E+03  0.60631402845E+03  0.10100000352E+00 0. -1.
</event>
<event>
 5   0  0.8502300E-04  0.1428398E+04  0.7818609E-02  0.8933515E-01
        1   -1    0    0  501    0  0.00000000000E+00  0.00000000000E+00  0.27874867857E+03  0.27874867862E+03  0.50400001928E-02 0.  1.
       -1   -1    0    0    0  501  0.00000000000E+00  0.00000000000E+00 -0.18298928939E+04  0.18298928939E+04  0.50400001928E-02 0. -1.
    10030    2    1    2    0    0  0.00000000000E+00  0.00000000000E+00 -0.15511442153E+04  0.21086415725E+04  0.14283980204E+04 0.  0.
        4    1    3    3  502    0  0.47079298805E+02 -0.60232366266E+03 -0.21330863185E+03  0.64071244743E+03  0.12699999809E+01 0.  1.
       -4    1    3    3    0  502 -0.47079298805E+02  0.60232366266E+03 -0.13378355834E+04  0.14679291251E+04  0.12699999809E+01 0. -1.
</event>
<event>
 5   0  0.8609148E-04  0.1387768E+04  0.7818609E-02  0.8962721E-01
       -1   -1    0    0    0  501  0.00000000000E+00  0.00000000000E+00  0.48711414466E+03  0.48711414469E+03  0.50400001928E-02 0.  1.
        1   -1    0    0  501    0  0.00000000000E+00  0.00000000000E+00 -0.98842340300E+03  0.98842340301E+03  0.50400001928E-02 0. -1.
    10030    2    1    2    0    0  0.00000000000E+00  0.00000000000E+00 -0.50130925834E+03  0.14755375477E+04  0.13877680217E+04 0.  0.
        5    1    3    3  502    0 -0.27833724836E+03  0.14486454020E+03  0.40735199520E+03  0.51421308504E+03  0.46999998093E+01 0.  1.
       -5    1    3    3    0  502  0.27833724836E+03 -0.14486454020E+03 -0.90866125354E+03  0.96132446266E+03  0.46999998093E+01 0. -1.
</event>
<event>
 5   0  0.1706986E-03  0.1569561E+04  0.7818609E-02  0.8839469E-01
        2   -1    0    0  501    0  0.00000000000E+00  0.00000000000E+00  0.12724202942E+04  0.12724202942E+04  0.25500000920E-02 0. -1.
       -2   -1    0    0    0  501  0.00000000000E+00  0.00000000000E+00 -0.48402279707E+03  0.48402279708E+03  0.25500000920E-02 0.  1.
    10030    2    1    2    0    0  0.00000000000E+00  0.00000000000E+00  0.78839749715E+03  0.17564430913E+04  0.15695609958E+04 0.  0.
        3    1    3    3  502    0  0.13707644186E+03  0.77121688165E+03  0.44804189928E+03  0.90238959611E+03  0.10100000352E+00 0.  1.
       -3    1    3    3    0  502 -0.13707644186E+03 -0.77121688165E+03  0.34035559787E+03  0.85405349520E+03  0.10100000352E+00 0. -1.
</event>
<event>
 5   0  0.9007180E-04  0.1424521E+04  0.7818609E-02  0.8936258E-01
        1   -1    0    0  501    0  0.00000000000E+00  0.00000000000E+00  0.15757923687E+04  0.15757923687E+04  0.50400001928E-02 0. -1.
       -1   -1    0    0    0  501  0.00000000000E+00  0.00000000000E+00 -0.32194283562E+03  0.32194283566E+03  0.50400001928E-02 0.  1.
    10030    2    1    2    0    0  0.00000000000E+00  0.00000000000E+00  0.12538495331E+04  0.18977352044E+04  0.14245210614E+04 0.  0.
        2    1    3    3  502    0 -0.11113700224E+03 -0.58860906952E+03  0.11355020641E+03  0.60967673350E+03  0.25500000920E-02 0.  1.
       -2    1    3    3    0  502  0.11113700224E+03  0.58860906952E+03  0.11402993266E+04  0.12880584709E+04  0.25500000920E-02 0. -1.
</event>
<event>
 5   0  0.8502300E-04  0.1330460E+04  0.7818609E-02  0.9005753E-01
       -1   -1    0    0    0  501  0.00000000000E+00  0.00000000000E+00  0.48565967810E+03  0.48565967812E+03  0.50400001928E-02 0. -1.
        1   -1    0    0  501    0  0.00000000000E+00  0.00000000000E+00 -0.91119531750E+03  0.91119531752E+03  0.50400001928E-02 0.  1.
    10030    2    1    2    0    0  0.00000000000E+00  0.00000000000E+00 -0.42553563941E+03  0.13968549956E+04  0.13304598071E+04 0.  0.
        4    1    3    3  502    0 -0.89776693460E+02 -0.41653569947E+03  0.32357524466E+03  0.53503681694E+03  0.12699999809E+01 0. -1.
       -4    1    3    3    0  502  0.89776693460E+02  0.41653569947E+03 -0.74911088407E+03  0.86181817870E+03  0.12699999809E+01 0.  1.
</event>
<event>
 5   0  0.8673728E-04  0.1402736E+04  0.7818609E-02  0.8951840E-01
        1   -1    0    0  501    0  0.00000000000E+00  0.00000000000E+00  0.11669212210E+04  0.11669212211E+04  0.50400001928E-02 0.  1.
       -1   -1    0    0    0  501  0.00000000000E+00  0.00000000000E+00 -0.42155136517E+03  0.42155136520E+03  0.50400001928E-02 0. -1.
    10030    2    1    2    0    0  0.00000000000E+00  0.00000000000E+00  0.74536985588E+03  0.15884725863E+04  0.14027362315E+04 0.  0.
        3    1    3    3  502    0 -0.25226616770E+03 -0.31519227405E+03  0.10221522784E+04  0.10989903000E+04  0.10100000352E+00 0.  1.
       -3    1    3    3    0  502  0.25226616770E+03  0.31519227405E+03 -0.27678242251E+03  0.48948228630E+03  0.10100000352E+00 0. -1.
</event>
<event>
 5   0  0.8502300E-04  0.1391338E+04  0.7818609E-02  0.8960112E-01
        1   -1    0    0  501    0  0.00000000000E+00  0.00000000000E+00  0.18274583252E+04  0.18274583252E+04  0.50400001928E-02 0. -1.
       -1   -1    0    0    0  501  0.00000000000E+00  0.00000000000E+00 -0.26482430367E+03  0.26482430372E+03  0.50400001928E-02 0.  1.
    10030    2    1    2    0    0  0.00000000000E+00  0.00000000000E+00  0.15626340216E+04  0.20922826290E+04  0.13913380301E+04 0.  0.
        4    1    3    3  502    0  0.10842148489E+03  0.28691657052E+03 -0.15765303917E+03  0.34486581518E+03  0.12699999809E+01 0.  1.
       -4    1    3    3    0  502 -0.10842148489E+03 -0.28691657052E+03  0.17202870607E+04  0.17474168138E+04  0.12699999809E+01 0. -1.
</event>
<event>
 5   0  0.1578965E-03  0.1405214E+04  0.7818609E-02  0.8950053E-01
       -2   -1    0    0    0  501  0.00000000000E+00  0.00000000000E+00  0.92557174111E+03  0.92557174111E+03  0.25500000920E-02 0.  1.
        2   -1    0    0  501    0  0.00000000000E+00  0.00000000000E+00 -0.53335324476E+03  0.53335324477E+03  0.25500000920E-02 0. -1.
    10030    2    1    2    0    0  0.00000000000E+00  0.00000000000E+00  0.39221849634E+03  0.14589249859E+04  0.14052141351E+04 0.  0.
        2    1    3    3  502    0 -0.15784078000E+03 -0.31429453014E+03  0.82760287132E+03  0.89923371608E+03  0.25500000920E-02 0.  1.
       -2    1    3    3    0  502  0.15784078000E+03  0.31429453014E+03 -0.43538437498E+03  0.55969126980E+03  0.25500000920E-02 0. -1.
</event>
<event>
 5   0  0.1605214E-03  0.1404776E+04  0.7818609E-02  0.8950369E-01
       -2   -1    0    0    0  501  0.00000000000E+00  0.00000000000E+00  0.51203019165E+03  0.51203019166E+03  0.25500000920E-02 0.  1.
        2   -1    0    0  501    0  0.00000000000E+00  0.00000000000E+00 -0.96351544795E+03  0.96351544796E+03  0.25500000920E-02 0. -1.
    10030    2    1    2    0    0  0.00000000000E+00  0.00000000000E+00 -0.45148525630E+03  0.14755456396E+04  0.14047761380E+04 0.  0.
        5    1    3    3  502    0 -0.32869510884E+03 -0.61893710892E+03 -0.17643871743E+03  0.72268688267E+03  0.46999998093E+01 0.  1.
       -5    1    3    3    0  502  0.32869510884E+03  0.61893710892E+03 -0.27504653887E+03  0.75285875695E+03  0.46999998093E+01 0. -1.
</event>
<event>
 5   0  0.1706986E-03  0.1393517E+04  0.7818609E-02  0.8958525E-01
       -2   -1    0    0    0  501  0.00000000000E+00  0.00000000000E+00  0.43824944606E+03  0.43824944606E+03  0.25500000920E-02 0.  1.
        2   -1    0    0  501    0  0.00000000000E+00  0.00000000000E+00 -0.11077532810E+04  0.11077532810E+04  0.25500000920E-02 0. -1.
    10030    2    1    2    0    0  0.00000000000E+00  0.00000000000E+00 -0.66950383496E+03  0.15460027271E+04  0.13935167911E+04 0.  0.
        3    1    3    3  502    0 -0.49180518082E+03  0.19306698565E+03  0.16918251563E+03  0.55477016018E+03  0.10100000352E+00 0.  1.
       -3    1    3    3    0  502  0.49180518082E+03 -0.19306698565E+03 -0.83868635059E+03  0.99123256690E+03  0.10100000352E+00 0. -1.
</event>
<event>
 5   0  0.1605214E-03  0.1269261E+04  0.7818609E-02  0.9054303E-01
        2   -1    0    0  501    0  0.00000000000E+00  0.00000000000E+00  0.12261604046E+04  0.12261604046E+04  0.25500000920E-02 0.  1.
       -2   -1    0    0    0  501  0.00000000000E+00  0.00000000000E+00 -0.32846894119E+03  0.32846894120E+03  0.25500000920E-02 0. -1.
    10030    2    1    2    0    0  0.00000000000E+00  0.00000000000E+00  0.89769146339E+03  0.15546293458E+04  0.12692605876E+04 0.  0.
        5    1    3    3  502    0  0.32549291462E+03  0.66520487346E+02 -0.21342750102E+03  0.39489745618E+03  0.46999998093E+01 0. -1.
       -5    1    3    3    0  502 -0.32549291462E+03 -0.66520487346E+02  0.11111189644E+04  0.11597318896E+04  0.46999998093E+01 0.  1.
</event>
<event>
 5   0  0.8502300E-04  0.1422646E+04  0.7818609E-02  0.8937587E-01
       -1   -1    0    0    0  501  0.00000000000E+00  0.00000000000E+00  0.37254650177E+03  0.37254650180E+03  0.50400001928E-02 0. -1.
        1   -1    0    0  501    0  0.00000000000E+00  0.00000000000E+00 -0.13581680146E+04  0.13581680146E+04  0.50400001928E-02 0.  1.
    10030    2    1    2    0    0  0.00000000000E+00  0.00000000000E+00 -0.98562151282E+03  0.17307145164E+04  0.14226464672E+04 0.  0.
        4    1    3    3  502    0 -0.14337645326E+03  0.56086999838E+03 -0.99565367435E+03  0.11517203717E+04  0.12699999809E+01 0.  1.
       -4    1    3    3    0  502  0.14337645326E+03 -0.56086999838E+03  0.10032161532E+02  0.57899414470E+03  0.12699999809E+01 0. -1.
</event>
<event>
 5   0  0.8609148E-04  0.1402884E+04  0.7818609E-02  0.8951734E-01
        1   -1    0    0  501    0  0.00000000000E+00  0.00000000000E+00  0.12405092023E+04  0.12405092024E+04  0.50400001928E-02 0. -1.
       -1   -1    0    0    0  501  0.00000000000E+00  0.00000000000E+00 -0.39662815606E+03  0.39662815609E+03  0.50400001928E-02 0.  1.
    10030    2    1    2    0    0  0.00000000000E+00  0.00000000000E+00  0.84388104628E+03  0.16371373584E+04  0.14028839974E+04 0.  0.
        5    1    3    3  502    0 -0.46567588207E+03  0.45898202424E+03  0.71827129607E+03  0.97131574190E+03  0.46999998093E+01 0.  1.
       -5    1    3    3    0  502  0.46567588207E+03 -0.45898202424E+03  0.12560975021E+03  0.66582161654E+03  0.46999998093E+01 0. -1.
</event>
<event>
 5   0  0.8673728E-04  0.1177891E+04  0.7818609E-02  0.9132432E-01
       -1   -1    0    0    0  501  0.00000000000E+00  0.00000000000E+00  0.14111302632E+03  0.14111302641E+03  0.50400001928E-02 0.  1.
        1   -1    0    0  501    0  0.00000000000E+00  0.00000000000E+00 -0.24580072937E+04  0.24580072937E+04  0.50400001928E-02 0. -1.
    10030    2    1    2    0    0  0.00000000000E+00  0.00000000000E+00 -0.23168942673E+04  0.25991203201E+04  0.11778910782E+04 0.  0.
        3    1    3    3  502    0  0.55556585675E+03 -0.96876582151E+02 -0.15330367777E+04  0.16334749050E+04  0.10100000352E+00 0. -1.
       -3    1    3    3    0  502 -0.55556585675E+03  0.96876582151E+02 -0.78385748966E+03  0.96564541507E+03  0.10100000352E+00 0.  1.
</event>
<event>
 5   0  0.8609148E-04  0.1431539E+04  0.7818609E-02  0.8931300E-01
       -1   -1    0    0    0  501  0.00000000000E+00  0.00000000000E+00  0.31365878666E+03  0.31365878670E+03  0.50400001928E-02 0. -1.
        1   -1    0    0  501    0  0.00000000000E+00  0.00000000000E+00 -0.16333864274E+04  0.16333864275E+04  0.50400001928E-02 0.  1.
    10030    2    1    2    0    0  0.00000000000E+00  0.00000000000E+00 -0.13197276408E+04  0.19470452142E+04  0.14315390390E+04 0.  0.
        5    1    3    3  502    0  0.48411026648E+02 -0.42148905095E+03 -0.14439120173E+04  0.15049586876E+04  0.46999998093E+01 0.  1.
       -5    1    3    3    0  502 -0.48411026648E+02  0.42148905095E+03  0.12418437655E+03  0.44208652655E+03  0.46999998093E+01 0. -1.
</event>
<event>
 5   0  0.1578965E-03  0.1402904E+04  0.7818609E-02  0.8951720E-01
        2   -1    0    0  501    0  0.00000000000E+00  0.00000000000E+00  0.31997735204E+03  0.31997735205E+03  0.25500000920E-02 0.  1.
       -2   -1    0    0    0  501  0.00000000000E+00  0.00000000000E+00 -0.15377168799E+04  0.15377168799E+04  0.25500000920E-02 0. -1.
    10030    2    1    2    0    0  0.00000000000E+00  0.00000000000E+00 -0.12177395279E+04  0.18576942320E+04  0.14029035255E+04 0.  0.
        2    1    3    3  502    0  0.40437299282E+02 -0.62005589695E+03 -0.10398487412E+04  0.12113586980E+04  0.25500000920E-02 0.  1.
       -2    1    3    3    0  502 -0.40437299282E+02  0.62005589695E+03 -0.17789078665E+03  0.64633553399E+03  0.25500000920E-02 0. -1.
</event>
<event>
 5   0  0.1706986E-03  0.1396116E+04  0.7818609E-02  0.8956635E-01
        2   -1    0    0  501    0  0.00000000000E+00  0.00000000000E+00  0.43253770858E+03  0.43253770859E+03  0.25500000920E-02 0. -1.
       -2   -1    0    0    0  501  0.00000000000E+00  0.00000000000E+00 -0.11265720262E+04  0.11265720262E+04  0.25500000920E-02 0.  1.
    10030    2    1    2    0    0  0.00000000000E+00  0.00000000000E+00 -0.69403431765E+03  0.15591097348E+04  0.13961158731E+04 0.  0.
        3    1    3    3  502    0 -0.63230182035E+03 -0.29198952775E+03 -0.29438293347E+03  0.75612485613E+03  0.10100000352E+00 0.  1.
       -3    1    3    3    0  502  0.63230182035E+03  0.29198952775E+03 -0.39965138418E+03  0.80298487870E+03  0.10100000352E+00 0. -1.
</event>
<event>
 5   0  0.1706986E-03  0.1400833E+04  0.7818609E-02  0.8953216E-01
        2   -1    0    0  501    0  0.00000000000E+00  0.00000000000E+00  0.60398700004E+03  0.60398700004E+03  0.25500000920E-02 0.  1.
       -2   -1    0    0    0  501  0.00000000000E+00  0.00000000000E+00 -0.81224175325E+03  0.81224175325E+03  0.25500000920E-02 0. -1.
    10030    2    1    2    0    0  0.00000000000E+00  0.00000000000E+00 -0.20825475321E+03  0.14162287533E+04  0.14008332661E+04 0.  0.
        3    1    3    3  502    0  0.43181062458E+03 -0.44651492193E+03 -0.43133145518E+03  0.75622934711E+03  0.10100000352E+00 0. -1.
       -3    1    3    3    0  502 -0.43181062458E+03  0.44651492193E+03  0.22307670197E+03  0.65999940619E+03  0.10100000352E+00 0.  1.
</event>
<event>
 5   0  0.9007180E-04  0.1400766E+04  0.7818609E-02  0.8953264E-01
       -1   -1    0    0    0  501  0.00000000000E+00  0.00000000000E+00  0.16913584907E+04  0.16913584907E+04  0.50400001928E-02 0.  1.
        1   -1    0    0  501    0  0.00000000000E+00  0.00000000000E+00 -0.29002519275E+03  0.29002519279E+03  0.50400001928E-02 0. -1.
    10030    2    1    2    0    0  0.00000000000E+00  0.00000000000E+00  0.14013332979E+04  0.19813836835E+04  0.14007663222E+04 0.  0.
        2    1    3    3  502    0 -0.69910678034E+03 -0.41607952045E+02  0.71116261073E+03  0.99811510905E+03  0.25500000920E-02 0. -1.
       -2    1    3    3    0  502  0.69910678034E+03  0.41607952045E+02  0.69017068720E+03  0.98326857443E+03  0.25500000920E-02 0.  1.
</event>
<event>
 5   0  0.1648213E-03  0.1403488E+04  0.7818609E-02  0.8951297E-01
        2   -1    0    0  501    0  0.00000000000E+00  0.00000000000E+00  0.18905528969E+04  0.18905528969E+04  0.25500000920E-02 0.  1.
       -2   -1    0    0    0  501  0.00000000000E+00  0.00000000000E+00 -0.26047667586E+03  0.26047667587E+03  0.25500000920E-02 0. -1.
    10030    2    1    2    0    0  0.00000000000E+00  0.00000000000E+00  0.16300762210E+04  0.21510295728E+04  0.14034884170E+04 0.  0.
        4    1    3    3  502    0 -0.60428399305E+02  0.13020295113E+03 -0.23773414135E+03  0.27771124353E+03  0.12699999809E+01 0. -1.
       -4    1    3    3    0  502  0.60428399305E+02 -0.13020295113E+03  0.18678103624E+04  0.18733183292E+04  0.12699999809E+01 0.  1.
</event>
<event>
 5   0  0.1706986E-03  0.1241676E+04  0.7818609E-02  0.9077139E-01
        2   -1    0    0  501    0  0.00000000000E+00  0.00000000000E+00  0.15667547414E+04  0.15667547414E+04  0.25500000920E-02 0. -1.
       -2   -1    0    0    0  501  0.00000000000E+00  0.00000000000E+00 -0.24601176888E+03  0.24601176890E+03  0.25500000920E-02 0.  1.
    10030    2    1    2    0    0  0.00000000000E+00  0.00000000000E+00  0.13207429725E+04  0.18127665103E+04  0.12416764560E+04 0.  0.
        3    1    3    3  502    0  0.11873670014E+03 -0.43599134904E+03  0.38821149729E+02  0.45353495154E+03  0.10100000352E+00 0.  1.
       -3    1    3    3    0  502 -0.11873670014E+03  0.43599134904E+03  0.12819218228E+04  0.13592315588E+04  0.10100000352E+00 0. -1.
</event>
<event>
 5   0  0.1706986E-03  0.1405774E+04  0.7818609E-02  0.8949649E-01
       -2   -1    0    0    0  501  0.00000000000E+00  0.00000000000E+00  0.30220377660E+03  0.30220377661E+03  0.25500000920E-02 0.  1.
        2   -1    0    0  501    0  0.00000000000E+00  0.00000000000E+00 -0.16348249792E+04  0.16348249792E+04  0.25500000920E-02 0. -1.
    10030    2    1    2    0    0  0.00000000000E+00  0.00000000000E+00 -0.13326212026E+04  0.19370287558E+04  0.14057742106E+04 0.  0.
        3    1    3    3  502    0 -0.32088931008E+03 -0.20519150120E+03  0.14767881151E+03  0.40851259841E+03  0.10100000352E+00 0.  1.
       -3    1    3    3    0  502  0.32088931008E+03  0.20519150120E+03 -0.14803000141E+04  0.15285161574E+04  0.10100000352E+00 0. -1.
</event>
<event>
 5   0  0.1706986E-03  0.1437378E+04  0.7818609E-02  0.8927198E-01
       -2   -1    0    0    0  501  0.00000000000E+00  0.00000000000E+00  0.93709581123E+03  0.93709581124E+03  0.25500000920E-02 0. -1.
        2   -1    0    0  501    0  0.00000000000E+00  0.00000000000E+00 -0.55118540715E+03  0.55118540716E+03  0.25500000920E-02 0.  1.
    10030    2    1    2    0    0  0.00000000000E+00  0.00000000000E+00  0.38591040409E+03  0.14882812184E+04  0.14373775235E+04 0.  0.
        3    1    3    3  502    0  0.14160605420E+03  0.48925423011E+03  0.71795369029E+03  0.88027239413E+03  0.10100000352E+00 0. -1.
       -3    1    3    3    0  502 -0.14160605420E+03 -0.48925423011E+03 -0.33204328621E+03  0.60800882426E+03  0.10100000352E+00 0.  1.
</event>
<event>
 5   0  0.1605214E-03  0.1376406E+04  0.7818609E-02  0.8971076E-01
        2   -1    0    0  501    0  0.00000000000E+00  0.00000000000E+00  0.37288963088E+03  0.37288963089E+03  0.25500000920E-02 0. -1.
       -2   -1    0    0    0  501  0.00000000000E+00  0.00000000000E+00 -0.12701434437E+04  0.12701434437E+04  0.25500000920E-02 0.  1.
    10030    2    1    2    0    0  0.00000000000E+00  0.00000000000E+00 -0.89725381278E+03  0.16430330746E+04  0.13764059283E+04 0.  0.
        5    1    3    3  502    0  0.25526900010E+03  0.52050404836E+03 -0.59630905338E+01  0.57977959192E+03  0.46999998093E+01 0. -1.
       -5    1    3    3    0  502 -0.25526900010E+03 -0.52050404836E+03 -0.89129072225E+03  0.10632534826E+04  0.46999998093E+01 0.  1.
</event>
<event>
 5   0  0.8673728E-04  0.1329711E+04  0.7818609E-02  0.9006331E-01
       -1   -1    0    0    0  501  0.00000000000E+00  0.00000000000E+00  0.50809304938E+03  0.50809304940E+03  0.50400001928E-02 0. -1.
        1   -1    0    0  501    0  0.00000000000E+00  0.00000000000E+00 -0.86998342623E+03  0.86998342624E+03  0.50400001928E-02 0.  1.
    10030    2    1    2    0    0  0.00000000000E+00  0.00000000000E+00 -0.36189037685E+03  0.13780764756E+04  0.13297105429E+04 0.  0.
        3    1    3    3  502    0 -0.47128023845E+03  0.22879457284E+03 -0.60520114702E+03  0.80045015977E+03  0.10100000352E+00 0. -1.
       -3    1    3    3    0  502  0.47128023845E+03 -0.22879457284E+03  0.24331077017E+03  0.57762631588E+03  0.10100000352E+00 0.  1.
</event>
<event>
 5   0  0.9007180E-04  0.1398797E+04  0.7818609E-02  0.8954689E-01
        1   -1    0    0  501    0  0.00000000000E+00  0.00000000000E+00  0.14810989066E+04  0.14810989066E+04  0.50400001928E-02 0. -1.
       -1   -1    0    0    0  501  0.00000000000E+00  0.00000000000E+00 -0.33026732143E+03  0.33026732147E+03  0.50400001928E-02 0.  1.
    10030    2    1    2    0    0  0.00000000000E+00  0.00000000000E+00  0.11508315851E+04  0.18113662280E+04  0.13987974388E+04 0.  0.
        2    1    3    3  502    0  0.37764411987E+03  0.21578790551E+03  0.12846618218E+04  0.13562947681E+04  0.25500000920E-02 0. -1.
       -2    1    3    3    0  502 -0.37764411987E+03 -0.21578790551E+03 -0.13383023668E+03  0.45507145999E+03  0.25500000920E-02 0.  1.
</event>
<event>
 5   0  0.8502300E-04  0.1138608E+04  0.7818609E-02  0.9168358E-01
        1   -1    0    0  501    0  0.00000000000E+00  0.00000000000E+00  0.67105120160E+03  0.67105120162E+03  0.50400001928E-02 0. -1.
       -1   -1    0    0    0  501  0.00000000000E+00  0.00000000000E+00 -0.48298428394E+03  0.48298428396E+03  0.50400001928E-02 0.  1.
    10030    2    1    2    0    0  0.00000000000E+00  0.00000000000E+00  0.18806691766E+03  0.11540354856E+04  0.11386082454E+04 0.  0.
        4    1    3    3  502    0 -0.27821647159E+03  0.67322976435E+02 -0.40474066953E+03  0.49573522236E+03  0.12699999809E+01 0.  1.
       -4    1    3    3    0  502  0.27821647159E+03 -0.67322976435E+02  0.59280758719E+03  0.65830026322E+03  0.12699999809E+01 0. -1.
</event>
<event>
 5   0  0.1706986E-03  0.1401577E+04  0.7818609E-02  0.8952678E-01
        2   -1    0    0  501    0  0.00000000000E+00  0.00000000000E+00  0.66315462838E+03  0.66315462839E+03  0.25500000920E-02 0. -1.
       -2   -1    0    0    0  501  0.00000000000E+00  0.00000000000E+00 -0.74055841886E+03  0.74055841887E+03  0.25500000920E-02 0.  1.
    10030    2    1    2    0    0  0.00000000000E+00  0.00000000000E+00 -0.77403790479E+02  0.14037130473E+04  0.14015773158E+04 0.  0.
        3    1    3    3  502    0  0.51860330809E+03 -0.39564480969E+03 -0.29525727813E+03  0.71600354544E+03  0.10100000352E+00 0.  1.
       -3    1    3    3    0  502 -0.51860330809E+03  0.39564480969E+03  0.21785348765E+03  0.68770950181E+03  0.10100000352E+00 0. -1.
</event>
<event>
 5   0  0.1706986E-03  0.1388252E+04  0.7818609E-02  0.8962366E-01
        2   -1    0    0  501    0  0.00000000000E+00  0.00000000000E+00  0.11388808178E+04  0.11388808178E+04  0.25500000920E-02 0.  1.
       -2   -1    0    0    0  501  0.00000000000E+00  0.00000000000E+00 -0.42305663443E+03  0.42305663444E+03  0.25500000920E-02 0. -1.
    10030    2    1    2    0    0  0.00000000000E+00  0.00000000000E+00  0.71582418341E+03  0.15619374523E+04  0.13882522621E+04 0.  0.
        3    1    3    3  502    0 -0.15986867882E+03  0.31792382174E+03  0.10284417422E+04  0.10882674203E+04  0.10100000352E+00 0.  1.
       -3    1    3    3    0  502  0.15986867882E+03 -0.31792382174E+03 -0.31261755878E+03  0.47367003194E+03  0.10100000352E+00 0. -1.
</event>
<event>
 5   0  0.1648463E-03  0.1401395E+04  0.7818609E-02  0.8952809E-01
       -2   -1    0    0    0  501  0.00000000000E+00  0.00000000000E+00  0.11589598072E+04  0.11589598072E+04  0.25500000920E-02 0.  1.
        2   -1    0    0  501    0  0.00000000000E+00  0.00000000000E+00 -0.42363592319E+03  0.42363592320E+03  0.25500000920E-02 0. -1.
    10030    2    1    2    0    0  0.00000000000E+00  0.00000000000E+00  0.73532388396E+03  0.15825957304E+04  0.14013950305E+04 0.  0.
        1    1    3    3  502    0  0.15247848994E+02 -0.60549828344E+03 -0.30192211459E+02  0.60644227904E+03  0.50400001928E-02 0. -1.
       -1    1    3    3    0  502 -0.15247848994E+02  0.60549828344E+03  0.76551609542E+03  0.97615345132E+03  0.50400001928E-02 0.  1.
</event>
<event>
 5   0  0.9639548E-04  0.1368375E+04  0.7818609E-02  0.8977034E-01
       -1   -1    0    0    0  501  0.00000000000E+00  0.00000000000E+00  0.26120956656E+03  0.26120956661E+03  0.50400001928E-02 0.  1.
        1   -1    0    0  501    0  0.00000000000E+00  0.00000000000E+00 -0.17920948049E+04  0.17920948049E+04  0.50400001928E-02 0. -1.
    10030    2    1    2    0    0  0.00000000000E+00  0.00000000000E+00 -0.15308852383E+04  0.20533043715E+04  0.13683746669E+04 0.  0.
        1    1    3    3  502    0 -0.33254182849E+03  0.59439483909E+03 -0.66793027221E+03  0.95394975811E+03  0.50400001928E-02 0. -1.
       -1    1    3    3    0  502  0.33254182849E+03 -0.59439483909E+03 -0.86295496610E+03  0.10993546134E+04  0.50400001928E-02 0.  1.
</event>
<event>
 5   0  0.1578965E-03  0.1392039E+04  0.7818609E-02  0.8959601E-01
       -2   -1    0    0    0  501  0.00000000000E+00  0.00000000000E+00  0.63943657209E+03  0.63943657209E+03  0.25500000920E-02 0.  1.
        2   -1    0    0  501    0  0.00000000000E+00  0.00000000000E+00 -0.75760963927E+03  0.75760963928E+03  0.25500000920E-02 0. -1.
    10030    2    1    2    0    0  0.00000000000E+00  0.00000000000E+00 -0.11817306718E+03  0.13970462114E+04  0.13920392390E+04 0.  0.
        2    1    3    3  502    0 -0.24261149971E+03  0.58251067828E+03 -0.35385077496E+03  0.72345656473E+03  0.25500000920E-02 0. -1.
       -2    1    3    3    0  502  0.24261149971E+03 -0.58251067828E+03  0.23567770778E+03  0.67358964664E+03  0.25500000920E-02 0.  1.
</event>
<event>
 5   0  0.1706986E-03  0.1385103E+04  0.7818609E-02  0.8964673E-01
       -2   -1    0    0    0  501  0.00000000000E+00  0.00000000000E+00  0.28590411074E+03  0.28590411075E+03  0.25500000920E-02 0.  1.
        2   -1    0    0  501    0  0.00000000000E+00  0.00000000000E+00 -0.16775830991E+04  0.16775830991E+04  0.25500000920E-02 0. -1.
    10030    2    1    2    0    0  0.00000000000E+00  0.00000000000E+00 -0.13916789884E+04  0.19634872099E+04  0.13851034678E+04 0.  0.
        3    1    3    3  502    0  0.65970407208E+03  0.20808936064E+02 -0.99314313575E+03  0.11924662565E+04  0.10100000352E+00 0. -1.
       -3    1    3    3    0  502 -0.65970407208E+03 -0.20808936064E+02 -0.39853585262E+03  0.77102095339E+03  0.10100000352E+00 0.  1.
</event>
<event>
 5   0  0.9639548E-04  0.1436902E+04  0.7818609E-02  0.8927532E-01
        1   -1    0    0  501    0  0.00000000000E+00  0.00000000000E+00  0.95028353601E+03  0.95028353603E+03  0.50400001928E-02 0. -1.
       -1   -1    0    0    0  501  0.00000000000E+00  0.00000000000E+00 -0.54317636584E+03  0.54317636586E+03  0.50400001928E-02 0.  1.
    10030    2    1    2    0    0  0.00000000000E+00  0.00000000000E+00  0.40710717018E+03  0.14934599019E+04  0.14369016078E+04 0.  0.
        1    1    3    3  502    0  0.47394826939E+03 -0.49946846169E+03 -0.96443489189E+01  0.68861362154E+03  0.50400001928E-02 0.  1.
       -1    1    3    3    0  502 -0.47394826939E+03  0.49946846169E+03  0.41675151910E+03  0.80484628034E+03  0.50400001928E-02 0. -1.
</event>
<event>
 5   0  0.1648213E-03  0.1421136E+04  0.7818609E-02  0.8938659E-01
       -2   -1    0    0    0  501  0.00000000000E+00  0.00000000000E+00  0.13427385144E+04  0.13427385144E+04  0.25500000920E-02 0.  1.
        2   -1    0    0  501    0  0.00000000000E+00  0.00000000000E+00 -0.37602789978E+03  0.37602789979E+03  0.25500000920E-02 0. -1.
    10030    2    1    2    0    0  0.00000000000E+00  0.00000000000E+00  0.96671061459E+03  0.17187664142E+04  0.14211363672E+04 0.  0.
        4    1    3    3  502    0  0.44261061278E+03 -0.40572802222E+02  0.11538593563E+04  0.12365044819E+04  0.12699999809E+01 0.  1.
       -4    1    3    3    0  502 -0.44261061278E+03  0.40572802222E+02 -0.18714874172E+03  0.48226193221E+03  0.12699999809E+01 0. -1.
</event>
<event>
 5   0  0.6048000E-04  0.1394125E+04  0.7818609E-02  0.8958082E-01
       -3   -1    0    0    0  501  0.00000000000E+00  0.00000000000E+00  0.39656165587E+03  0.39656166873E+03  0.10100000352E+00 0.  1.
        3   -1    0    0  501    0  0.00000000000E+00  0.00000000000E+00 -0.12252732053E+04  0.12252732095E+04  0.10100000352E+00 0. -1.
    10030    2    1    2    0    0  0.00000000000E+00  0.00000000000E+00 -0.82871154942E+03  0.16218348782E+04  0.13941253674E+04 0.  0.
        2    1    3    3  502    0  0.39002233243E+02  0.62083206418E+03 -0.78028476231E+03  0.99789675639E+03  0.25500000920E-02 0. -1.
       -2    1    3    3    0  502 -0.39002233243E+02 -0.62083206418E+03 -0.48426787106E+02  0.62393812179E+03  0.25500000920E-02 0.  1.
</event>
<event>
 5   0  0.1605214E-03  0.1404072E+04  0.7818609E-02  0.8950876E-01
       -2   -1    0    0    0  501  0.00000000000E+00  0.00000000000E+00  0.11902492232E+04  0.11902492232E+04  0.25500000920E-02 0. -1.
        2   -1    0    0  501    0  0.00000000000E+00  0.00000000000E+00 -0.41407675989E+03  0.41407675989E+03  0.25500000920E-02 0.  1.
    10030    2    1    2    0    0  0.00000000000E+00  0.00000000000E+00  0.77617246335E+03  0.16043259831E+04  0.14040719951E+04 0.  0.
        5    1    3    3  502    0  0.50666003262E+03 -0.39574697190E+02 -0.16530462781E+03  0.53443264804E+03  0.46999998093E+01 0.  1.
       -5    1    3    3    0  502 -0.50666003262E+03  0.39574697190E+02  0.94147709115E+03  0.10698933351E+04  0.46999998093E+01 0. -1.
</event>
<event>
 5   0  0.1648213E-03  0.1402374E+04  0.7818609E-02  0.8952102E-01
       -2   -1    0    0    0  501  0.00000000000E+00  0.00000000000E+00  0.73590896041E+03  0.73590896041E+03  0.25500000920E-02 0.  1.
        2   -1    0    0  501    0  0.00000000000E+00  0.00000000000E+00 -0.66810299086E+03  0.66810299087E+03  0.25500000920E-02 0. -1.
    10030    2    1    2    0    0  0.00000000000E+00  0.00000000000E+00  0.67805969548E+02  0.14040119513E+04  0.14023736698E+04 0.  0.
        4    1    3    3  502    0  0.21369559196E+03 -0.48777735067E+03 -0.42277550072E+03  0.67995094438E+03  0.12699999809E+01 0. -1.
       -4    1    3    3    0  502 -0.21369559196E+03  0.48777735067E+03  0.49058147027E+03  0.72406100690E+03  0.12699999809E+01 0.  1.
</event>
<event>
 5   0  0.1706986E-03  0.1410543E+04  0.7818609E-02  0.8946222E-01
        2   -1    0    0  501    0  0.00000000000E+00  0.00000000000E+00  0.16896027937E+04  0.16896027937E+04  0.25500000920E-02 0.  1.
       -2   -1    0    0    0  501  0.00000000000E+00  0.00000000000E+00 -0.29439334319E+03  0.29439334320E+03  0.25500000920E-02 0. -1.
    10030    2    1    2    0    0  0.00000000000E+00  0.00000000000E+00  0.13952094505E+04  0.19839961369E+04  0.14105428956E+04 0.  0.
        3    1    3    3  502    0 -0.59919401435E+03  0.21304599108E+03  0.26869814533E+03  0.69037726256E+03  0.10100000352E+00 0. -1.
       -3    1    3    3    0  502  0.59919401435E+03 -0.21304599108E+03  0.11265113052E+04  0.12936188744E+04  0.10100000352E+00 0.  1.
</event>
<event>
 5   0  0.1605214E-03  0.1409924E+04  0.7818609E-02  0.8946666E-01
        2   -1    0    0  501    0  0.00000000000E+00  0.00000000000E+00  0.11603726205E+04  0.11603726205E+04  0.25500000920E-02 0.  1.
       -2   -1    0    0    0  501  0.00000000000E+00  0.00000000000E+00 -0.42828591365E+03  0.42828591365E+03  0.25500000920E-02 0. -1.
    10030    2    1    2    0    0  0.00000000000E+00  0.00000000000E+00  0.73208670686E+03  0.15886585342E+04  0.14099237539E+04 0.  0.
        5    1    3    3  502    0 -0.13294774217E+03 -0.33993128183E+03  0.10455895549E+04  0.11074782101E+04  0.46999998093E+01 0.  1.
       -5    1    3    3    0  502  0.13294774217E+03  0.33993128183E+03 -0.31350284806E+03  0.48118032405E+03  0.46999998093E+01 0. -1.
</event>
<event>
 5   0  0.1648213E-03  0.1407669E+04  0.7818609E-02  0.8948286E-01
       -2   -1    0    0    0  501  0.00000000000E+00  0.00000000000E+00  0.12397693447E+04  0.12397693447E+04  0.25500000920E-02 0. -1.
        2   -1    0    0  501    0  0.00000000000E+00  0.00000000000E+00 -0.39957684656E+03  0.39957684657E+03  0.25500000920E-02 0.  1.
    10030    2    1    2    0    0  0.00000000000E+00  0.00000000000E+00  0.84019249812E+03  0.16393461913E+04  0.14076691731E+04 0.  0.
        4    1    3    3  502    0 -0.26770035110E+03 -0.18645481434E+03  0.11464002489E+04  0.11919161126E+04  0.12699999809E+01 0. -1.
       -4    1    3    3    0  502  0.26770035110E+03  0.18645481434E+03 -0.30620775080E+03  0.44743007869E+03  0.12699999809E+01 0.  1.
</event>
<event>
 5   0  0.1706986E-03  0.1408174E+04  0.7818609E-02  0.8947923E-01
        2   -1    0    0  501    0  0.00000000000E+00  0.00000000000E+00  0.12223763135E+04  0.12223763135E+04  0.25500000920E-02 0.  1.
       -2   -1    0    0    0  501  0.00000000000E+00  0.00000000000E+00 -0.40555321655E+03  0.40555321655E+03  0.25500000920E-02 0. -1.
    10030    2    1    2    0    0  0.00000000000E+00  0.00000000000E+00  0.81682309691E+03  0.16279295300E+04  0.14081742019E+04 0.  0.
        3    1    3    3  502    0 -0.30193989334E+03  0.47158028040E+03  0.90185014061E+03  0.10615504446E+04  0.10100000352E+00 0.  1.
       -3    1    3    3    0  502  0.30193989334E+03 -0.47158028040E+03 -0.85027043703E+02  0.56637908543E+03  0.10100000352E+00 0. -1.
</event>
<event>
 5   0  0.8609148E-04  0.1394402E+04  0.7818609E-02  0.8957881E-01
       -1   -1    0    0    0  501  0.00000000000E+00  0.00000000000E+00  0.48307770790E+03  0.48307770793E+03  0.50400001928E-02 0.  1.
        1   -1    0    0  501    0  0.00000000000E+00  0.00000000000E+00 -0.10062334548E+04  0.10062334548E+04  0.50400001928E-02 0. -1.
    10030    2    1    2    0    0  0.00000000000E+00  0.00000000000E+00 -0.52315574690E+03  0.14893111627E+04  0.13944015935E+04 0.  0.
        5    1    3    3  502    0 -0.27615712611E+03 -0.63697776063E+03 -0.19349400236E+03  0.72073951243E+03  0.46999998093E+01 0.  1.
       -5    1    3    3    0  502  0.27615712611E+03  0.63697776063E+03 -0.32966174454E+03  0.76857165030E+03  0.46999998093E+01 0. -1.
</event>
<event>
 5   0  0.1648463E-03  0.1347906E+04  0.7818609E-02  0.8992415E-01
        2   -1    0    0  501    0  0.00000000000E+00  0.00000000000E+00  0.58140707295E+03  0.58140707296E+03  0.25500000920E-02 0. -1.
       -2   -1    0    0    0  501  0.00000000000E+00  0.00000000000E+00 -0.78122999368E+03  0.78122999368E+03  0.25500000920E-02 0.  1.
    10030    2    1    2    0    0  0.00000000000E+00  0.00000000000E+00 -0.19982292072E+03  0.13626370666E+04  0.13479059966E+04 0.  0.
        1    1    3    3  502    0 -0.12252678976E+03  0.76189902236E+02 -0.76543359698E+03  0.77891354259E+03  0.50400001928E-02 0.  1.
       -1    1    3    3    0  502  0.12252678976E+03 -0.76189902236E+02  0.56561067626E+03  0.58372352405E+03  0.50400001928E-02 0. -1.
</event>
<event>
 5   0  0.8673728E-04  0.1393800E+04  0.7818609E-02  0.8958319E-01
       -1   -1    0    0    0  501  0.00000000000E+00  0.00000000000E+00  0.37089726156E+03  0.37089726159E+03  0.50400001928E-02 0.  1.
        1   -1    0    0  501    0  0.00000000000E+00  0.00000000000E+00 -0.13094450668E+04  0.13094450668E+04  0.50400001928E-02 0. -1.
    10030    2    1    2    0    0  0.00000000000E+00  0.00000000000E+00 -0.93854780519E+03  0.16803423284E+04  0.13937999705E+04 0.  0.
        3    1    3    3  502    0 -0.44653692400E+03 -0.38447980614E+03 -0.20690478484E+02  0.58961686876E+03  0.10100000352E+00 0.  1.
       -3    1    3    3    0  502  0.44653692400E+03  0.38447980614E+03 -0.91785732671E+03  0.10907254596E+04  0.10100000352E+00 0. -1.
</event>
<event>
 5   0  0.1648213E-03  0.1270720E+04  0.7818609E-02  0.9053112E-01
       -2   -1    0    0    0  501  0.00000000000E+00  0.00000000000E+00  0.64837672442E+03  0.64837672443E+03  0.25500000920E-02 0. -1.
        2   -1    0    0  501    0  0.00000000000E+00  0.00000000000E+00 -0.62260450362E+03  0.62260450363E+03  0.25500000920E-02 0.  1.
    10030    2    1    2    0    0  0.00000000000E+00  0.00000000000E+00  0.25772220804E+02  0.12709812281E+04  0.12707199041E+04 0.  0.
        4    1    3    3  502    0  0.53309192026E+03  0.34489626153E+03  0.36133719391E+02  0.63596201557E+03  0.12699999809E+01 0. -1.
       -4    1    3    3    0  502 -0.53309192026E+03 -0.34489626153E+03 -0.10361498587E+02  0.63501921248E+03  0.12699999809E+01 0.  1.
</event>
<event>
 5   0  0.1648213E-03  0.1390688E+04  0.7818609E-02  0.8960586E-01
        2   -1    0    0  501    0  0.00000000000E+00  0.00000000000E+00  0.68701698261E+03  0.68701698262E+03  0.25500000920E-02 0.  1.
       -2   -1    0    0    0  501  0.00000000000E+00  0.00000000000E+00 -0.70377239668E+03  0.70377239668E+03  0.25500000920E-02 0. -1.
    10030    2    1    2    0    0  0.00000000000E+00  0.00000000000E+00 -0.16755414064E+02  0.13907893793E+04  0.13906884459E+04 0.  0.
        4    1    3    3  502    0 -0.19516178149E+03  0.64537139100E+03  0.16166293164E+03  0.69334613985E+03  0.12699999809E+01 0.  1.
       -4    1    3    3    0  502  0.19516178149E+03 -0.64537139100E+03 -0.17841834570E+03  0.69744323945E+03  0.12699999809E+01 0. -1.
</event>
<event>
 5   0  0.6048000E-04  0.1395551E+04  0.7818609E-02  0.8957045E-01
        3   -1    0    0  501    0  0.00000000000E+00  0.00000000000E+00  0.94449701433E+03  0.94449701973E+03  0.10100000352E+00 0. -1.
       -3   -1    0    0    0  501  0.00000000000E+00  0.00000000000E+00 -0.51550278710E+03  0.51550279699E+03  0.10100000352E+00 0.  1.
    10030    2    1    2    0    0  0.00000000000E+00  0.00000000000E+00  0.42899422723E+03  0.14599998167E+04  0.13955512953E+04 0.  0.
        3    1    3    3  502    0  0.78924234051E+01  0.27605662757E+02  0.94387876506E+03  0.94431535850E+03  0.10100000352E+00 0. -1.
       -3    1    3    3    0  502 -0.78924234051E+01 -0.27605662757E+02 -0.51488453783E+03  0.51568445823E+03  0.10100000352E+00 0.  1.
</event>
<event>
 5   0  0.1648213E-03  0.1417249E+04  0.7818609E-02  0.8941427E-01
        2   -1    0    0  501    0  0.00000000000E+00  0.00000000000E+00  0.15874181515E+04  0.15874181515E+04  0.25500000920E-02 0. -1.
       -2   -1    0    0    0  501  0.00000000000E+00  0.00000000000E+00 -0.31633044737E+03  0.31633044738E+03  0.25500000920E-02 0.  1.
    10030    2    1    2    0    0  0.00000000000E+00  0.00000000000E+00  0.12710877041E+04  0.19037485989E+04  0.14172490170E+04 0.  0.
        4    1    3    3  502    0  0.12806267852E+03 -0.41810267718E+03  0.13845748001E+04  0.14519844656E+04  0.12699999809E+01 0. -1.
       -4    1    3    3    0  502 -0.12806267852E+03  0.41810267718E+03 -0.11348709597E+03  0.45176413331E+03  0.12699999809E+01 0.  1.
</event>
<event>
 5   0  0.1648463E-03  0.1391351E+04  0.7818609E-02  0.8960103E-01
       -2   -1    0    0    0  501  0.00000000000E+00  0.00000000000E+00  0.12034969705E+04  0.12034969705E+04  0.25500000920E-02 0. -1.
        2   -1    0    0  501    0  0.00000000000E+00  0.00000000000E+00 -0.40213161542E+03  0.40213161542E+03  0.25500000920E-02 0.  1.
    10030    2    1    2    0    0  0.00000000000E+00  0.00000000000E+00  0.80136535505E+03  0.16056285859E+04  0.13913506832E+04 0.  0.
        1    1    3    3  502    0  0.50212654322E+03 -0.46558804649E+03  0.25905968963E+03  0.73213060123E+03  0.50400001928E-02 0.  1.
       -1    1    3    3    0  502 -0.50212654322E+03  0.46558804649E+03  0.54230566543E+03  0.87349798467E+03  0.50400001928E-02 0. -1.
</event>
<event>
 5   0  0.8502300E-04  0.1406754E+04  0.7818609E-02  0.8948944E-01
       -1   -1    0    0    0  501  0.00000000000E+00  0.00000000000E+00  0.21798651294E+03  0.21798651299E+03  0.50400001928E-02 0.  1.
        1   -1    0    0  501    0  0.00000000000E+00  0.00000000000E+00 -0.22695861619E+04  0.22695861619E+04  0.50400001928E-02 0. -1.
    10030    2    1    2    0    0  0.00000000000E+00  0.00000000000E+00 -0.20515996489E+04  0.24875726749E+04  0.14067539562E+04 0.  0.
        4    1    3    3  502    0 -0.22228643116E+03 -0.37895329747E+03 -0.54484620850E+02  0.44270424208E+03  0.12699999809E+01 0.  1.
       -4    1    3    3    0  502  0.22228643116E+03  0.37895329747E+03 -0.19971150281E+04  0.20448684328E+04  0.12699999809E+01 0. -1.
</event>
<event>
 5   0  0.6048000E-04  0.1304125E+04  0.7818609E-02  0.9026301E-01
        3   -1    0    0  501    0  0.00000000000E+00  0.00000000000E+00  0.55480724082E+03  0.55480725001E+03  0.10100000352E+00 0.  1.
       -3   -1    0    0    0  501  0.00000000000E+00  0.00000000000E+00 -0.76636574662E+03  0.76636575328E+03  0.10100000352E+00 0. -1.
    10030    2    1    2    0    0  0.00000000000E+00  0.00000000000E+00 -0.21155850580E+03  0.13211730033E+04  0.13041246502E+04 0.  0.
        5    1    3    3  502    0 -0.34309229025E+03  0.55358751370E+03 -0.13768269196E+03  0.66569517695E+03  0.46999998093E+01 0.  1.
       -5    1    3    3    0  502  0.34309229025E+03 -0.55358751370E+03 -0.73875813839E+02  0.65547782634E+03  0.46999998093E+01 0. -1.
</event>
<event>
 5   0  0.8609148E-04  0.1362786E+04  0.7818609E-02  0.8981205E-01
       -1   -1    0    0    0  501  0.00000000000E+00  0.00000000000E+00  0.29761554263E+03  0.29761554268E+03  0.50400001928E-02 0. -1.
        1   -1    0    0  501    0  0.00000000000E+00  0.00000000000E+00 -0.15600551533E+04  0.15600551533E+04  0.50400001928E-02 0.  1.
    10030    2    1    2    0    0  0.00000000000E+00  0.00000000000E+00 -0.12624396107E+04  0.18576706960E+04  0.13627863531E+04 0.  0.
        5    1    3    3  502    0 -0.31348003716E+02  0.50082559955E+02 -0.15565345153E+04  0.15576625910E+04  0.46999998093E+01 0.  1.
       -5    1    3    3    0  502  0.31348003716E+02 -0.50082559955E+02  0.29409490460E+03  0.30000810499E+03  0.46999998093E+01 0. -1.
</event>
<event>
 5   0  0.1648213E-03  0.1415395E+04  0.7818609E-02  0.8942750E-01
       -2   -1    0    0    0  501  0.00000000000E+00  0.00000000000E+00  0.63229277392E+03  0.63229277392E+03  0.25500000920E-02 0.  1.
        2   -1    0    0  501    0  0.00000000000E+00  0.00000000000E+00 -0.79209439450E+03  0.79209439450E+03  0.25500000920E-02 0. -1.
    10030    2    1    2    0    0  0.00000000000E+00  0.00000000000E+00 -0.15980162058E+03  0.14243871684E+04  0.14153947321E+04 0.  0.
        4    1    3    3  502    0 -0.23731321759E+03  0.87229807206E+02 -0.74508995217E+03  0.78682097852E+03  0.12699999809E+01 0. -1.
       -4    1    3    3    0  502  0.23731321759E+03 -0.87229807206E+02  0.58528833159E+03  0.63756618990E+03  0.12699999809E+01 0.  1.
</event>
<event>
 5   0  0.1648463E-03  0.1139612E+04  0.7818609E-02  0.9167421E-01
       -2   -1    0    0    0  501  0.00000000000E+00  0.00000000000E+00  0.31466572204E+03  0.31466572205E+03  0.25500000920E-02 0. -1.
        2   -1    0    0  501    0  0.00000000000E+00  0.00000000000E+00 -0.10318215192E+04  0.10318215192E+04  0.25500000920E-02 0.  1.
    10030    2    1    2    0    0  0.00000000000E+00  0.00000000000E+00 -0.71715579714E+03  0.13464872412E+04  0.11396119749E+04 0.  0.
        1    1    3    3  502    0  0.17181729792E+03 -0.41537488030E+03  0.55162904273E+02  0.45288013986E+03  0.50400001928E-02 0. -1.
       -1    1    3    3    0  502 -0.17181729792E+03  0.41537488030E+03 -0.77231870141E+03  0.89360710137E+03  0.50400001928E-02 0.  1.
</event>
<event>
 5   0  0.1578965E-03  0.1391412E+04  0.7818609E-02  0.8960059E-01
        2   -1    0    0  501    0  0.00000000000E+00  0.00000000000E+00  0.95742859196E+03  0.95742859197E+03  0.25500000920E-02 0. -1.
       -2   -1    0    0    0  501  0.00000000000E+00  0.00000000000E+00 -0.50552786118E+03  0.50552786119E+03  0.25500000920E-02 0.  1.
    10030    2    1    2    0    0  0.00000000000E+00  0.00000000000E+00  0.45190073078E+03  0.14629564532E+04  0.13914119855E+04 0.  0.
        2    1    3    3  502    0 -0.20517691628E+03  0.68447952584E+02 -0.46927838670E+03  0.51672516236E+03  0.25500000920E-02 0.  1.
       -2    1    3    3    0  502  0.20517691628E+03 -0.68447952584E+02  0.92117911748E+03  0.94623129079E+03  0.25500000920E-02 0. -1.
</event>
<event>
 5   0  0.1605214E-03  0.1388189E+04  0.7818609E-02  0.8962413E-01
       -2   -1    0    0    0  501  0.00000000000E+00  0.00000000000E+00  0.44234380014E+03  0.44234380015E+03  0.25500000920E-02 0.  1.
        2   -1    0    0  501    0  0.00000000000E+00  0.00000000000E+00 -0.10891231775E+04  0.10891231775E+04  0.25500000920E-02 0. -1.
    10030    2    1    2    0    0  0.00000000000E+00  0.00000000000E+00 -0.64677937738E+03  0.15314669777E+04  0.13881885825E+04 0.  0.
        5    1    3    3  502    0 -0.63767979715E+03  0.24294888793E+03 -0.46330691184E+03  0.82482426637E+03  0.46999998093E+01 0. -1.
       -5    1    3    3    0  502  0.63767979715E+03 -0.24294888793E+03 -0.18347246554E+03  0.70664271131E+03  0.46999998093E+01 0.  1.
</event>
<event>
 5   0  0.1578965E-03  0.1357884E+04  0.7818609E-02  0.8984882E-01
        2   -1    0    0  501    0  0.00000000000E+00  0.00000000000E+00  0.24469156232E+03  0.24469156233E+03  0.25500000920E-02 0.  1.
       -2   -1    0    0    0  501  0.00000000000E+00  0.00000000000E+00 -0.18838496856E+04  0.18838496856E+04  0.25500000920E-02 0. -1.
    10030    2    1    2    0    0  0.00000000000E+00  0.00000000000E+00 -0.16391581233E+04  0.21285412480E+04  0.13578838283E+04 0.  0.
        2    1    3    3  502    0  0.10210797304E+03  0.57256089554E+03 -0.13686893985E+04  0.14871323703E+04  0.25500000920E-02 0. -1.
       -2    1    3    3    0  502 -0.10210797304E+03 -0.57256089554E+03 -0.27046872486E+03  0.64140887770E+03  0.25500000920E-02 0.  1.
</event>
<event>
 5   0  0.8673728E-04  0.1323440E+04  0.7818609E-02  0.9011181E-01
        1   -1    0    0  501    0  0.00000000000E+00  0.00000000000E+00  0.94536279558E+03  0.94536279560E+03  0.50400001928E-02 0.  1.
       -1   -1    0    0    0  501  0.00000000000E+00  0.00000000000E+00 -0.46318020169E+03  0.46318020172E+03  0.50400001928E-02 0. -1.
    10030    2    1    2    0    0  0.00000000000E+00  0.00000000000E+00  0.48218259390E+03  0.14085429973E+04  0.13234399576E+04 0.  0.
        3    1    3    3  502    0  0.21681130151E+03 -0.55516497363E+03 -0.64899521915E+02  0.59952251547E+03  0.10100000352E+00 0. -1.
       -3    1    3    3    0  502 -0.21681130151E+03  0.55516497363E+03  0.54708211581E+03  0.80902048185E+03  0.10100000352E+00 0.  1.
</event>
<event>
 5   0  0.1648463E-03  0.1404383E+04  0.7818609E-02  0.8950652E-01
       -2   -1    0    0    0  501  0.00000000000E+00  0.00000000000E+00  0.29091109543E+03  0.29091109544E+03  0.25500000920E-02 0. -1.
        2   -1    0    0  501    0  0.00000000000E+00  0.00000000000E+00 -0.16949264443E+04  0.16949264443E+04  0.25500000920E-02 0.  1.
    10030    2    1    2    0    0  0.00000000000E+00  0.00000000000E+00 -0.14040153489E+04  0.19858375397E+04  0.14043830084E+04 0.  0.
        1    1    3    3  502    0  0.60840757658E+02  0.13165158844E+03  0.26950208776E+03  0.30604756797E+03  0.50400001928E-02 0. -1.
       -1    1    3    3    0  502 -0.60840757658E+02 -0.13165158844E+03 -0.16735174366E+04  0.16797899718E+04  0.50400001928E-02 0.  1.
</event>
<event>
 5   0  0.9007180E-04  0.1399765E+04  0.7818609E-02  0.8953988E-01
        1   -1    0    0  501    0  0.00000000000E+00  0.00000000000E+00  0.10789102986E+04  0.10789102986E+04  0.50400001928E-02 0.  1.
       -1   -1    0    0    0  501  0.00000000000E+00  0.00000000000E+00 -0.45400968942E+03  0.45400968945E+03  0.50400001928E-02 0. -1.
    10030    2    1    2    0    0  0.00000000000E+00  0.00000000000E+00  0.62490060920E+03  0.15329199881E+04  0.13997653084E+04 0.  0.
        2    1    3    3  502    0 -0.15700613661E+03  0.73364112578E+01 -0.43443152604E+03  0.46199080152E+03  0.25500000920E-02 0. -1.
       -2    1    3    3    0  502  0.15700613661E+03 -0.73364112578E+01  0.10593321352E+04  0.10709291866E+04  0.25500000920E-02 0.  1.
</event>
<event>
 5   0  0.8502300E-04  0.1367244E+04  0.7818609E-02  0.8977876E-01
       -1   -1    0    0    0  501  0.00000000000E+00  0.00000000000E+00  0.58111152567E+03  0.58111152569E+03  0.50400001928E-02 0.  1.
        1   -1    0    0  501    0  0.00000000000E+00  0.00000000000E+00 -0.80421618523E+03  0.80421618524E+03  0.50400001928E-02 0. -1.
    10030    2    1    2    0    0  0.00000000000E+00  0.00000000000E+00 -0.22310465956E+03  0.13853277109E+04  0.13672443738E+04 0.  0.
        4    1    3    3  502    0 -0.54533343040E+03 -0.40644337153E+03 -0.41699100522E+02  0.68141411231E+03  0.12699999809E+01 0.  1.
       -4    1    3    3    0  502  0.54533343040E+03  0.40644337153E+03 -0.18140555904E+03  0.70391359862E+03  0.12699999809E+01 0. -1.
</event>
<event>
 5   0  0.1706986E-03  0.1399778E+04  0.7818609E-02  0.8953979E-01
        2   -1    0    0  501    0  0.00000000000E+00  0.00000000000E+00  0.84287284043E+03  0.84287284044E+03  0.25500000920E-02 0. -1.
       -2   -1    0    0    0  501  0.00000000000E+00  0.00000000000E+00 -0.58116109843E+03  0.58116109843E+03  0.25500000920E-02 0.  1.
    10030    2    1    2    0    0  0.00000000000E+00  0.00000000000E+00  0.26171174200E+03  0.14240339389E+04  0.13997784193E+04 0.  0.
        3    1    3    3  502    0 -0.22211269340E+03  0.50900726385E+03  0.56417370431E+03  0.79165296820E+03  0.10100000352E+00 0. -1.
       -3    1    3    3    0  502  0.22211269340E+03 -0.50900726385E+03 -0.30246196231E+03  0.63238097067E+03  0.10100000352E+00 0.  1.
</event>
<event>
 5   0  0.1605214E-03  0.1391781E+04  0.7818609E-02  0.8959790E-01
       -2   -1    0    0    0  501  0.00000000000E+00  0.00000000000E+00  0.43312823365E+03  0.43312823365E+03  0.25500000920E-02 0.  1.
        2   -1    0    0  501    0  0.00000000000E+00  0.00000000000E+00 -0.11180599665E+04  0.11180599665E+04  0.25500000920E-02 0. -1.
    10030    2    1    2    0    0  0.00000000000E+00  0.00000000000E+00 -0.68493173282E+03  0.15511882001E+04  0.13917806413E+04 0.  0.
        5    1    3    3  502    0 -0.44794517486E+03 -0.14620601135E+03  0.22824805678E+03  0.52359368107E+03  0.46999998093E+01 0.  1.
       -5    1    3    3    0  502  0.44794517486E+03  0.14620601135E+03 -0.91317978960E+03  0.10275945190E+04  0.46999998093E+01 0. -1.
</event>
<event>
 5   0  0.6048000E-04  0.1398991E+04  0.7818609E-02  0.8954549E-01
        3   -1    0    0  501    0  0.00000000000E+00  0.00000000000E+00  0.24585810770E+04  0.24585810791E+04  0.10100000352E+00 0. -1.
       -3   -1    0    0    0  501  0.00000000000E+00  0.00000000000E+00 -0.19901483944E+03  0.19901486507E+03  0.10100000352E+00 0.  1.
    10030    2    1    2    0    0  0.00000000000E+00  0.00000000000E+00  0.22595662376E+04  0.26575959441E+04  0.13989912867E+04 0.  0.
        5    1    3    3  502    0 -0.43870719700E+02 -0.47513849045E+03  0.21013779794E+04  0.21548764993E+04  0.46999998093E+01 0. -1.
       -5    1    3    3    0  502  0.43870719700E+02  0.47513849045E+03  0.15818825818E+03  0.50271944480E+03  0.46999998093E+01 0.  1.
</event>
<event>
 5   0  0.1605214E-03  0.1384610E+04  0.7818609E-02  0.8965035E-01
        2   -1    0    0  501    0  0.00000000000E+00  0.00000000000E+00  0.11944592368E+04  0.11944592368E+04  0.25500000920E-02 0. -1.
       -2   -1    0    0    0  501  0.00000000000E+00  0.00000000000E+00 -0.40125779573E+03  0.40125779574E+03  0.25500000920E-02 0.  1.
    10030    2    1    2    0    0  0.00000000000E+00  0.00000000000E+00  0.79320144111E+03  0.15957170326E+04  0.13846098085E+04 0.  0.
        5    1    3    3  502    0  0.45532739757E+03 -0.10590586623E+03 -0.19186305089E+03  0.50534405288E+03  0.46999998093E+01 0.  1.
       -5    1    3    3    0  502 -0.45532739757E+03  0.10590586623E+03  0.98506449200E+03  0.10903729797E+04  0.46999998093E+01 0. -1.
</event>
<event>
 5   0  0.1648463E-03  0.1383027E+04  0.7818609E-02  0.8966197E-01
       -2   -1    0    0    0  501  0.00000000000E+00  0.00000000000E+00  0.39938675045E+03  0.39938675046E+03  0.25500000920E-02 0.  1.
        2   -1    0    0  501    0  0.00000000000E+00  0.00000000000E+00 -0.11973131594E+04  0.11973131594E+04  0.25500000920E-02 0. -1.
    10030    2    1    2    0    0  0.00000000000E+00  0.00000000000E+00 -0.79792640893E+03  0.15966999098E+04  0.13830271321E+04 0.  0.
        1    1    3    3  502    0 -0.61787706573E+03  0.30856670954E+03 -0.43904816881E+03  0.81838180402E+03  0.50400001928E-02 0. -1.
       -1    1    3    3    0  502  0.61787706573E+03 -0.30856670954E+03 -0.35887824012E+03  0.77831810582E+03  0.50400001928E-02 0.  1.
</event>
<event>
 5   0  0.8502300E-04  0.1447799E+04  0.7818609E-02  0.8919928E-01
       -1   -1    0    0    0  501  0.00000000000E+00  0.00000000000E+00  0.87058109729E+03  0.87058109731E+03  0.50400001928E-02 0. -1.
        1   -1    0    0  501    0  0.00000000000E+00  0.00000000000E+00 -0.60193220221E+03  0.60193220223E+03  0.50400001928E-02 0.  1.
    10030    2    1    2    0    0  0.00000000000E+00  0.00000000000E+00  0.26864889509E+03  0.14725132995E+04  0.14477994296E+04 0.  0.
        4    1    3    3  502    0 -0.40314877065E+03 -0.54960828488E+03 -0.11362165899E+03  0.69102076118E+03  0.12699999809E+01 0.  1.
       -4    1    3    3    0  502  0.40314877065E+03  0.54960828488E+03  0.38227055408E+03  0.78149253836E+03  0.12699999809E+01 0. -1.
</event>
<event>
 5   0  0.6048000E-04  0.1404210E+04  0.7818609E-02  0.8950776E-01
        3   -1    0    0  501    0  0.00000000000E+00  0.00000000000E+00  0.11718757180E+04  0.11718757224E+04  0.10100000352E+00 0.  1.
       -3   -1    0    0    0  501  0.00000000000E+00  0.00000000000E+00 -0.42065189908E+03  0.42065191120E+03  0.10100000352E+00 0. -1.
    10030    2    1    2    0    0  0.00000000000E+00  0.00000000000E+00  0.75122381895E+03  0.15925276336E+04  0.14042104677E+04 0.  0.
        2    1    3    3  502    0 -0.29317972332E+03 -0.37512111315E+03  0.96084020626E+03  0.10723264902E+04  0.25500000920E-02 0.  1.
       -2    1    3    3    0  502  0.29317972332E+03  0.37512111315E+03 -0.20961638731E+03  0.52020114334E+03  0.25500000920E-02 0. -1.
</event>
<event>
 5   0  0.1605214E-03  0.1405704E+04  0.7818609E-02  0.8949700E-01
       -2   -1    0    0    0  501  0.00000000000E+00  0.00000000000E+00  0.59024558694E+03  0.59024558695E+03  0.25500000920E-02 0. -1.
        2   -1    0    0  501    0  0.00000000000E+00  0.00000000000E+00 -0.83694124050E+03  0.83694124050E+03  0.25500000920E-02 0.  1.
    10030    2    1    2    0    0  0.00000000000E+00  0.00000000000E+00 -0.24669565356E+03  0.14271868275E+04  0.14057039144E+04 0.  0.
        5    1    3    3  502    0 -0.34695114170E+02 -0.33378089593E+03 -0.75033345794E+03  0.82197069628E+03  0.46999998093E+01 0.  1.
       -5    1    3    3    0  502  0.34695114170E+02  0.33378089593E+03  0.50363780439E+03  0.60521613118E+03  0.46999998093E+01 0. -1.
</event>
<event>
 5   0  0.1578965E-03  0.1415439E+04  0.7818609E-02  0.8942718E-01
        2   -1    0    0  501    0  0.00000000000E+00  0.00000000000E+00  0.10101287498E+04  0.10101287498E+04  0.25500000920E-02 0.  1.
       -2   -1    0    0    0  501  0.00000000000E+00  0.00000000000E+00 -0.49584444925E+03  0.49584444926E+03  0.25500000920E-02 0. -1.
    10030    2    1    2    0    0  0.00000000000E+00  0.00000000000E+00  0.51428430051E+03  0.15059731990E+04  0.14154387781E+04 0.  0.
        2    1    3    3  502    0  0.66471373995E+03  0.13244321162E+03  0.40445763913E+02  0.67898558174E+03  0.25500000920E-02 0. -1.
       -2    1    3    3    0  502 -0.66471373995E+03 -0.13244321162E+03  0.47383853660E+03  0.82698761729E+03  0.25500000920E-02 0.  1.
</event>
<event>
 5   0  0.1706986E-03  0.1348685E+04  0.7818609E-02  0.8991824E-01
        2   -1    0    0  501    0  0.00000000000E+00  0.00000000000E+00  0.37353686038E+03  0.37353686039E+03  0.25500000920E-02 0.  1.
       -2   -1    0    0    0  501  0.00000000000E+00  0.00000000000E+00 -0.12173832798E+04  0.12173832798E+04  0.25500000920E-02 0. -1.
    10030    2    1    2    0    0  0.00000000000E+00  0.00000000000E+00 -0.84384641941E+03  0.15909201402E+04  0.13486845861E+04 0.  0.
        3    1    3    3  502    0 -0.23406674300E+03 -0.50422781024E+02 -0.11655519916E+04  0.11898912355E+04  0.10100000352E+00 0. -1.
       -3    1    3    3    0  502  0.23406674300E+03  0.50422781024E+02  0.32170557217E+03  0.40102890468E+03  0.10100000352E+00 0.  1.
</event>
<event>
 5   0  0.9639548E-04  0.1413121E+04  0.7818609E-02  0.8944375E-01
        1   -1    0    0  501    0  0.00000000000E+00  0.00000000000E+00  0.31634850110E+03  0.31634850114E+03  0.50400001928E-02 0.  1.
       -1   -1    0    0    0  501  0.00000000000E+00  0.00000000000E+00 -0.15780944617E+04  0.15780944617E+04  0.50400001928E-02 0. -1.
    10030    2    1    2    0    0  0.00000000000E+00  0.00000000000E+00 -0.12617459606E+04  0.18944429629E+04  0.14131211096E+04 0.  0.
        1    1    3    3  502    0 -0.21342969929E+03 -0.67232391607E+03 -0.68542988780E+03  0.98355773383E+03  0.50400001928E-02 0. -1.
       -1    1    3    3    0  502  0.21342969929E+03  0.67232391607E+03 -0.57631607283E+03  0.91088522904E+03  0.50400001928E-02 0.  1.
</event>
<event>
 5   0  0.1706986E-03  0.1405205E+04  0.7818609E-02  0.8950059E-01
        2   -1    0    0  501    0  0.00000000000E+00  0.00000000000E+00  0.11510247016E+04  0.11510247016E+04  0.25500000920E-02 0.  1.
       -2   -1    0    0    0  501  0.00000000000E+00  0.00000000000E+00 -0.42887904317E+03  0.42887904318E+03  0.25500000920E-02 0. -1.
    10030    2    1    2    0    0  0.00000000000E+00  0.00000000000E+00  0.72214565845E+03  0.15799037448E+04  0.14052051419E+04 0.  0.
        3    1    3    3  502    0  0.65447634098E+03  0.24795038315E+03  0.43066910973E+03  0.82176308367E+03  0.10100000352E+00 0.  1.
       -3    1    3    3    0  502 -0.65447634098E+03 -0.24795038315E+03  0.29147654872E+03  0.75814066113E+03  0.10100000352E+00 0. -1.
</event>
<event>
 5   0  0.1605214E-03  0.1600727E+04  0.7818609E-02  0.8820101E-01
       -2   -1    0    0    0  501  0.00000000000E+00  0.00000000000E+00  0.31717119665E+03  0.31717119667E+03  0.25500000920E-02 0.  1.
        2   -1    0    0  501    0  0.00000000000E+00  0.00000000000E+00 -0.20196727511E+04  0.20196727511E+04  0.25500000920E-02 0. -1.
    10030    2    1    2    0    0  0.00000000000E+00  0.00000000000E+00 -0.17025015545E+04  0.23368439478E+04  0.16007273638E+04 0.  0.
        5    1    3    3  502    0 -0.82013081457E+02 -0.12077565954E+03  0.29754890798E+03  0.33146696383E+03  0.46999998093E+01 0.  1.
       -5    1    3    3    0  502  0.82013081457E+02  0.12077565954E+03 -0.20000504625E+04  0.20053769840E+04  0.46999998093E+01 0. -1.
</event>
<event>
 5   0  0.9639548E-04  0.1382309E+04  0.7818609E-02  0.8966725E-01
       -1   -1    0    0    0  501  0.00000000000E+00  0.00000000000E+00  0.69788836492E+03  0.69788836493E+03  0.50400001928E-02 0.  1.
        1   -1    0    0  501    0  0.00000000000E+00  0.00000000000E+00 -0.68448573701E+03  0.68448573703E+03  0.50400001928E-02 0. -1.
    10030    2    1    2    0    0  0.00000000000E+00  0.00000000000E+00  0.13402627909E+02  0.13823741020E+04  0.13823091287E+04 0.  0.
        1    1    3    3  502    0 -0.96476733852E+02  0.58005557807E+03  0.36992961665E+03  0.69470868364E+03  0.50400001928E-02 0.  1.
       -1    1    3    3    0  502  0.96476733852E+02 -0.58005557807E+03 -0.35652698874E+03  0.68766541832E+03  0.50400001928E-02 0. -1.
</event>
<event>
 5   0  0.9007180E-04  0.1379001E+04  0.7818609E-02  0.8969161E-01
        1   -1    0    0  501    0  0.00000000000E+00  0.00000000000E+00  0.64181386095E+03  0.64181386097E+03  0.50400001928E-02 0.  1.
       -1   -1    0    0    0  501  0.00000000000E+00  0.00000000000E+00 -0.74073024152E+03  0.74073024153E+03  0.50400001928E-02 0. -1.
    10030    2    1    2    0    0  0.00000000000E+00  0.00000000000E+00 -0.98916380565E+02  0.13825441025E+04  0.13790009953E+04 0.  0.
        2    1    3    3  502    0  0.24544133735E+03  0.35018983738E+03  0.49279796733E+03  0.65247544697E+03  0.25500000920E-02 0.  1.
       -2    1    3    3    0  502 -0.24544133735E+03 -0.35018983738E+03 -0.59171434790E+03  0.73006865554E+03  0.25500000920E-02 0. -1.
</event>
<event>
 5   0  0.1648213E-03  0.1360892E+04  0.7818609E-02  0.8982624E-01
       -2   -1    0    0    0  501  0.00000000000E+00  0.00000000000E+00  0.40532912432E+03  0.40532912433E+03  0.25500000920E-02 0. -1.
        2   -1    0    0  501    0  0.00000000000E+00  0.00000000000E+00 -0.11422985500E+04  0.11422985500E+04  0.25500000920E-02 0.  1.
    10030    2    1    2    0    0  0.00000000000E+00  0.00000000000E+00 -0.73696942564E+03  0.15476276743E+04  0.13608921647E+04 0.  0.
        4    1    3    3  502    0  0.17884030777E+03  0.11239276780E+03 -0.11040700125E+04  0.11240943890E+04  0.12699999809E+01 0.  1.
       -4    1    3    3    0  502 -0.17884030777E+03 -0.11239276780E+03  0.36710058689E+03  0.42353328527E+03  0.12699999809E+01 0. -1.
</event>
<event>
 5   0  0.1648213E-03  0.1428111E+04  0.7818609E-02  0.8933718E-01
        2   -1    0    0  501    0  0.00000000000E+00  0.00000000000E+00  0.19495241346E+04  0.19495241346E+04  0.25500000920E-02 0.  1.
       -2   -1    0    0    0  501  0.00000000000E+00  0.00000000000E+00 -0.26153814606E+03  0.26153814607E+03  0.25500000920E-02 0. -1.
    10030    2    1    2    0    0  0.00000000000E+00  0.00000000000E+00  0.16879859885E+04  0.22110622807E+04  0.14281105390E+04 0.  0.
        4    1    3    3  502    0 -0.31811006425E+03  0.59093857456E+03  0.46642826395E+03  0.81728780132E+03  0.12699999809E+01 0. -1.
       -4    1    3    3    0  502  0.31811006425E+03 -0.59093857456E+03  0.12215577246E+04  0.13937744794E+04  0.12699999809E+01 0.  1.
</event>
<event>
 5   0  0.1578965E-03  0.1424842E+04  0.7818609E-02  0.8936031E-01
       -2   -1    0    0    0  501  0.00000000000E+00  0.00000000000E+00  0.50399600839E+03  0.50399600840E+03  0.25500000920E-02 0. -1.
        2   -1    0    0  501    0  0.00000000000E+00  0.00000000000E+00 -0.10070386240E+04  0.10070386240E+04  0.25500000920E-02 0.  1.
    10030    2    1    2    0    0  0.00000000000E+00  0.00000000000E+00 -0.50304261558E+03  0.15110346324E+04  0.14248416709E+04 0.  0.
        2    1    3    3  502    0  0.43984250724E+03  0.11429224881E+03  0.33032057409E+03  0.56181476573E+03  0.25500000920E-02 0. -1.
       -2    1    3    3    0  502 -0.43984250724E+03 -0.11429224881E+03 -0.83336318968E+03  0.94921986664E+03  0.25500000920E-02 0.  1.
</event>
<event>
 5   0  0.1648463E-03  0.1380773E+04  0.7818609E-02  0.8967855E-01
       -2   -1    0    0    0  501  0.00000000000E+00  0.00000000000E+00  0.82838210337E+03  0.82838210337E+03  0.25500000920E-02 0.  1.
        2   -1    0    0  501    0  0.00000000000E+00  0.00000000000E+00 -0.57537848820E+03  0.57537848821E+03  0.25500000920E-02 0. -1.
    10030    2    1    2    0    0  0.00000000000E+00  0.00000000000E+00  0.25300361517E+03  0.14037605916E+04  0.13807725987E+04 0.  0.
        1    1    3    3  502    0 -0.76313758957E+01  0.59109634237E+03  0.48906231725E+03  0.76722556920E+03  0.50400001928E-02 0.  1.
       -1    1    3    3    0  502  0.76313758957E+01 -0.59109634237E+03 -0.23605870209E+03  0.63653502238E+03  0.50400001928E-02 0. -1.
</event>
<event>
 5   0  0.1648213E-03  0.1380776E+04  0.7818609E-02  0.8967852E-01
       -2   -1    0    0    0  501  0.00000000000E+00  0.00000000000E+00  0.17156629867E+04  0.17156629867E+04  0.25500000920E-02 0.  1.
        2   -1    0    0  501    0  0.00000000000E+00  0.00000000000E+00 -0.27781431857E+03  0.27781431858E+03  0.25500000920E-02 0. -1.
    10030    2    1    2    0    0  0.00000000000E+00  0.00000000000E+00  0.14378486681E+04  0.19934773053E+04  0.13807762216E+04 0.  0.
        4    1    3    3  502    0 -0.46658917326E+03  0.49787312274E+03  0.87069552090E+03  0.11062076685E+04  0.12699999809E+01 0.  1.
       -4    1    3    3    0  502  0.46658917326E+03 -0.49787312274E+03  0.56715314721E+03  0.88726963671E+03  0.12699999809E+01 0. -1.
</event>
<event>
 5   0  0.1605214E-03  0.1350088E+04  0.7818609E-02  0.8990761E-01
        2   -1    0    0  501    0  0.00000000000E+00  0.00000000000E+00  0.33237088162E+03  0.33237088163E+03  0.25500000920E-02 0.  1.
       -2   -1    0    0    0  501  0.00000000000E+00  0.00000000000E+00 -0.13710121828E+04  0.13710121828E+04  0.25500000920E-02 0. -1.
    10030    2    1    2    0    0  0.00000000000E+00  0.00000000000E+00 -0.10386413012E+04  0.17033830645E+04  0.13500881866E+04 0.  0.
        5    1    3    3  502    0 -0.23356938758E+03  0.56105981922E+03 -0.89000567784E+03  0.10777174844E+04  0.46999998093E+01 0. -1.
       -5    1    3    3    0  502  0.23356938758E+03 -0.56105981922E+03 -0.14863562336E+03  0.62566558007E+03  0.46999998093E+01 0.  1.
</event>
<event>
 5   0  0.8673728E-04  0.1396711E+04  0.7818609E-02  0.8956203E-01
        1   -1    0    0  501    0  0.00000000000E+00  0.00000000000E+00  0.67036569732E+03  0.67036569734E+03  0.50400001928E-02 0.  1.
       -1   -1    0    0    0  501  0.00000000000E+00  0.00000000000E+00 -0.72751351543E+03  0.72751351544E+03  0.50400001928E-02 0. -1.
    10030    2    1    2    0    0  0.00000000000E+00  0.00000000000E+00 -0.57147818109E+02  0.13978792128E+04  0.13967105715E+04 0.  0.
        3    1    3    3  502    0 -0.20818310622E+03  0.61506085342E+03 -0.28581043090E+03  0.70945589838E+03  0.10100000352E+00 0.  1.
       -3    1    3    3    0  502  0.20818310622E+03 -0.61506085342E+03  0.22866261279E+03  0.68842331441E+03  0.10100000352E+00 0. -1.
</event>
<event>
 5   0  0.8673728E-04  0.1419216E+04  0.7818609E-02  0.8940025E-01
       -1   -1    0    0    0  501  0.00000000000E+00  0.00000000000E+00  0.52846997979E+03  0.52846997981E+03  0.50400001928E-02 0.  1.
        1   -1    0    0  501    0  0.00000000000E+00  0.00000000000E+00 -0.95283282182E+03  0.95283282183E+03  0.50400001928E-02 0. -1.
    10030    2    1    2    0    0  0.00000000000E+00  0.00000000000E+00 -0.42436284203E+03  0.14813028016E+04  0.14192160401E+04 0.  0.
        3    1    3    3  502    0  0.61506112539E+03 -0.27072317830E+03 -0.45008322891E+03  0.80880538474E+03  0.10100000352E+00 0. -1.
       -3    1    3    3    0  502 -0.61506112539E+03  0.27072317830E+03  0.25720386882E+02  0.67249741690E+03  0.10100000352E+00 0.  1.
</event>
<event>
 5   0  0.8502300E-04  0.1405930E+04  0.7818609E-02  0.8949537E-01
       -1   -1    0    0    0  501  0.00000000000E+00  0.00000000000E+00  0.31014568375E+03  0.31014568380E+03  0.50400001928E-02 0.  1.
        1   -1    0    0  501    0  0.00000000000E+00  0.00000000000E+00 -0.15933152876E+04  0.15933152876E+04  0.50400001928E-02 0. -1.
    10030    2    1    2    0    0  0.00000000000E+00  0.00000000000E+00 -0.12831696039E+04  0.19034609714E+04  0.14059300969E+04 0.  0.
        4    1    3    3  502    0  0.52536192391E+03 -0.44487553951E+03 -0.44897731656E+03  0.82188906820E+03  0.12699999809E+01 0.  1.
       -4    1    3    3    0  502 -0.52536192391E+03  0.44487553951E+03 -0.83419228731E+03  0.10815719032E+04  0.12699999809E+01 0. -1.
</event>
<event>
 5   0  0.9639548E-04  0.1367221E+04  0.7818609E-02  0.8977894E-01
        1   -1    0    0  501    0  0.00000000000E+00  0.00000000000E+00  0.16574988668E+04  0.16574988668E+04  0.50400001928E-02 0.  1.
       -1   -1    0    0    0  501  0.00000000000E+00  0.00000000000E+00 -0.28194472553E+03  0.28194472558E+03  0.50400001928E-02 0. -1.
    10030    2    1    2    0    0  0.00000000000E+00  0.00000000000E+00  0.13755541412E+04  0.19394435923E+04  0.13672206305E+04 0.  0.
        1    1    3    3  502    0 -0.15935248259E+03 -0.23100448585E+03  0.15720195655E+04  0.15968725060E+04  0.50400001928E-02 0.  1.
       -1    1    3    3    0  502  0.15935248259E+03  0.23100448585E+03 -0.19646542429E+03  0.34257108629E+03  0.50400001928E-02 0. -1.
</event>
<event>
 5   0  0.1648463E-03  0.1390855E+04  0.7818609E-02  0.8960465E-01
       -2   -1    0    0    0  501  0.00000000000E+00  0.00000000000E+00  0.29525763971E+03  0.29525763972E+03  0.25500000920E-02 0. -1.
        2   -1    0    0  501    0  0.00000000000E+00  0.00000000000E+00 -0.16379572256E+04  0.16379572256E+04  0.25500000920E-02 0.  1.
    10030    2    1    2    0    0  0.00000000000E+00  0.00000000000E+00 -0.13426995859E+04  0.19332148653E+04  0.13908549664E+04 0.  0.
        1    1    3    3  502    0  0.85378075406E+02  0.11244533402E+03 -0.16178272605E+04  0.16239761124E+04  0.50400001928E-02 0.  1.
       -1    1    3    3    0  502 -0.85378075406E+02 -0.11244533402E+03  0.27512767463E+03  0.30923875287E+03  0.50400001928E-02 0. -1.
</event>
<event>
 5   0  0.1648213E-03  0.1381720E+04  0.7818609E-02  0.8967158E-01
       -2   -1    0    0    0  501  0.00000000000E+00  0.00000000000E+00  0.48575784092E+03  0.48575784093E+03  0.25500000920E-02 0. -1.
        2   -1    0    0  501    0  0.00000000000E+00  0.00000000000E+00 -0.98256304172E+03  0.98256304172E+03  0.25500000920E-02 0.  1.
    10030    2    1    2    0    0  0.00000000000E+00  0.00000000000E+00 -0.49680520080E+03  0.14683208826E+04  0.13817202347E+04 0.  0.
        4    1    3    3  502    0  0.86195708383E+02 -0.65344929165E+03 -0.28399385073E+02  0.65972252870E+03  0.12699999809E+01 0.  1.
       -4    1    3    3    0  502 -0.86195708383E+02  0.65344929165E+03 -0.46840581572E+03  0.80859835395E+03  0.12699999809E+01 0. -1.
</event>
<event>
 5   0  0.1578965E-03  0.1394629E+04  0.7818609E-02  0.8957715E-01
       -2   -1    0    0    0  501  0.00000000000E+00  0.00000000000E+00  0.30673296007E+03  0.30673296008E+03  0.25500000920E-02 0. -1.
        2   -1    0    0  501    0  0.00000000000E+00  0.00000000000E+00 -0.15852478673E+04  0.15852478673E+04  0.25500000920E-02 0.  1.
    10030    2    1    2    0    0  0.00000000000E+00  0.00000000000E+00 -0.12785149072E+04  0.18919808274E+04  0.13946293713E+04 0.  0.
        2    1    3    3  502    0 -0.12620728173E+02 -0.37769393034E+03  0.15576738111E+03  0.40874865727E+03  0.25500000920E-02 0. -1.
       -2    1    3    3    0  502  0.12620728173E+02  0.37769393034E+03 -0.14342822884E+04  0.14832321701E+04  0.25500000920E-02 0.  1.
</event>
<event>
 5   0  0.8609148E-04  0.1406111E+04  0.7818609E-02  0.8949407E-01
        1   -1    0    0  501    0  0.00000000000E+00  0.00000000000E+00  0.23821818259E+04  0.23821818259E+04  0.50400001928E-02 0. -1.
       -1   -1    0    0    0  501  0.00000000000E+00  0.00000000000E+00 -0.20749331843E+03  0.20749331849E+03  0.50400001928E-02 0.  1.
    10030    2    1    2    0    0  0.00000000000E+00  0.00000000000E+00  0.21746885074E+04  0.25896751444E+04  0.14061106816E+04 0.  0.
        5    1    3    3  502    0  0.82953513283E+02  0.44971946492E+03  0.20707928968E+04  0.21206919140E+04  0.46999998093E+01 0. -1.
       -5    1    3    3    0  502 -0.82953513283E+02 -0.44971946492E+03  0.10389561064E+03  0.46898323040E+03  0.46999998093E+01 0.  1.
</event>
<event>
 5   0  0.8673728E-04  0.1397291E+04  0.7818609E-02  0.8955782E-01
       -1   -1    0    0    0  501  0.00000000000E+00  0.00000000000E+00  0.92466003479E+03  0.92466003480E+03  0.50400001928E-02 0. -1.
        1   -1    0    0  501    0  0.00000000000E+00  0.00000000000E+00 -0.52787596122E+03  0.52787596125E+03  0.50400001928E-02 0.  1.
    10030    2    1    2    0    0  0.00000000000E+00  0.00000000000E+00  0.39678407357E+03  0.14525359961E+04  0.13972913865E+04 0.  0.
        3    1    3    3  502    0  0.35668609319E+03 -0.29514486508E+03  0.74230964035E+03  0.87484802841E+03  0.10100000352E+00 0. -1.
       -3    1    3    3    0  502 -0.35668609319E+03  0.29514486508E+03 -0.34552556678E+03  0.57768796764E+03  0.10100000352E+00 0.  1.
</event>
<event>
 5   0  0.1648463E-03  0.1446174E+04  0.7818609E-02  0.8921058E-01
       -2   -1    0    0    0  501  0.00000000000E+00  0.00000000000E+00  0.19948389104E+04  0.19948389104E+04  0.25500000920E-02 0.  1.
        2   -1    0    0  501    0  0.00000000000E+00  0.00000000000E+00 -0.26210361270E+03  0.26210361271E+03  0.25500000920E-02 0. -1.
    10030    2    1    2    0    0  0.00000000000E+00  0.00000000000E+00  0.17327352977E+04  0.22569425231E+04  0.14461735514E+04 0.  0.
        1    1    3    3  502    0 -0.29555141274E+02  0.81875068729E+01  0.19938234730E+04  0.19940593229E+04  0.50400001928E-02 0.  1.
       -1    1    3    3    0  502  0.29555141274E+02 -0.81875068729E+01 -0.26108817531E+03  0.26288320022E+03  0.50400001928E-02 0. -1.
</event>
<event>
 5   0  0.8502300E-04  0.1390397E+04  0.7818609E-02  0.8960799E-01
       -1   -1    0    0    0  501  0.00000000000E+00  0.00000000000E+00  0.78921560872E+03  0.78921560874E+03  0.50400001928E-02 0.  1.
        1   -1    0    0  501    0  0.00000000000E+00  0.00000000000E+00 -0.61238125469E+03  0.61238125471E+03  0.50400001928E-02 0. -1.
    10030    2    1    2    0    0  0.00000000000E+00  0.00000000000E+00  0.17683435404E+03  0.14015968634E+04  0.13903968422E+04 0.  0.
        4    1    3    3  502    0  0.29410186666E+03 -0.79201843244E+02  0.71837541963E+03  0.78027796097E+03  0.12699999809E+01 0.  1.
       -4    1    3    3    0  502 -0.29410186666E+03  0.79201843244E+02 -0.54154106560E+03  0.62131890248E+03  0.12699999809E+01 0. -1.
</event>
<event>
 5   0  0.8673728E-04  0.1400062E+04  0.7818609E-02  0.8953774E-01
        1   -1    0    0  501    0  0.00000000000E+00  0.00000000000E+00  0.13991004335E+04  0.13991004335E+04  0.50400001928E-02 0. -1.
       -1   -1    0    0    0  501  0.00000000000E+00  0.00000000000E+00 -0.35025615120E+03  0.35025615123E+03  0.50400001928E-02 0.  1.
    10030    2    1    2    0    0  0.00000000000E+00  0.00000000000E+00  0.10488442823E+04  0.17493565847E+04  0.14000621886E+04 0.  0.
        3    1    3    3  502    0 -0.39138416336E+02 -0.53588916331E+03 -0.36225669126E+02  0.53853627574E+03  0.10100000352E+00 0.  1.
       -3    1    3    3    0  502  0.39138416336E+02  0.53588916331E+03  0.10850699514E+04  0.12108203090E+04  0.10100000352E+00 0. -1.
</event>
<event>
 5   0  0.9639548E-04  0.1391817E+04  0.7818609E-02  0.8959763E-01
       -1   -1    0    0    0  501  0.00000000000E+00  0.00000000000E+00  0.65242459102E+03  0.65242459104E+03  0.50400001928E-02 0. -1.
        1   -1    0    0  501    0  0.00000000000E+00  0.00000000000E+00 -0.74229035328E+03  0.74229035329E+03  0.50400001928E-02 0.  1.
    10030    2    1    2    0    0  0.00000000000E+00  0.00000000000E+00 -0.89865762258E+02  0.13947149443E+04  0.13918167698E+04 0.  0.
        1    1    3    3  502    0  0.40803433763E+03  0.53139011798E+03 -0.23352946007E+03  0.70950932828E+03  0.50400001928E-02 0. -1.
       -1    1    3    3    0  502 -0.40803433763E+03 -0.53139011798E+03  0.14366369781E+03  0.68520561605E+03  0.50400001928E-02 0.  1.
</event>
<event>
 5   0  0.8609148E-04  0.1371694E+04  0.7818609E-02  0.8974567E-01
        1   -1    0    0  501    0  0.00000000000E+00  0.00000000000E+00  0.10094326462E+04  0.10094326462E+04  0.50400001928E-02 0.  1.
       -1   -1    0    0    0  501  0.00000000000E+00  0.00000000000E+00 -0.46599054811E+03  0.46599054814E+03  0.50400001928E-02 0. -1.
    10030    2    1    2    0    0  0.00000000000E+00  0.00000000000E+00  0.54344209805E+03  0.14754231943E+04  0.13716939485E+04 0.  0.
        5    1    3    3  502    0 -0.22874501339E+03 -0.32590532904E+03 -0.32892018060E+03  0.51647762764E+03  0.46999998093E+01 0. -1.
       -5    1    3    3    0  502  0.22874501339E+03  0.32590532904E+03  0.87236227865E+03  0.95894556668E+03  0.46999998093E+01 0.  1.
</event>
<event>
 5   0  0.8673728E-04  0.1413200E+04  0.7818609E-02  0.8944319E-01
       -1   -1    0    0    0  501  0.00000000000E+00  0.00000000000E+00  0.24808552635E+03  0.24808552640E+03  0.50400001928E-02 0.  1.
        1   -1    0    0  501    0  0.00000000000E+00  0.00000000000E+00 -0.20125460006E+04  0.20125460006E+04  0.50400001928E-02 0. -1.
    10030    2    1    2    0    0  0.00000000000E+00  0.00000000000E+00 -0.17644604743E+04  0.22606315270E+04  0.14131999631E+04 0.  0.
        3    1    3    3  502    0 -0.35436777904E+03  0.13755966960E+03  0.70584317448E+02  0.38662816969E+03  0.10100000352E+00 0.  1.
       -3    1    3    3    0  502  0.35436777904E+03 -0.13755966960E+03 -0.18350447917E+04  0.18740033573E+04  0.10100000352E+00 0. -1.
</event>
<event>
 5   0  0.1648213E-03  0.1400788E+04  0.7818609E-02  0.8953248E-01
        2   -1    0    0  501    0  0.00000000000E+00  0.00000000000E+00  0.49875766338E+03  0.49875766339E+03  0.25500000920E-02 0.  1.
       -2   -1    0    0    0  501  0.00000000000E+00  0.00000000000E+00 -0.98354784633E+03  0.98354784634E+03  0.25500000920E-02 0. -1.
    10030    2    1    2    0    0  0.00000000000E+00  0.00000000000E+00 -0.48479018295E+03  0.14823055097E+04  0.14007883861E+04 0.  0.
        4    1    3    3  502    0 -0.37493485217E+03 -0.91721189882E+01 -0.86833269613E+03  0.94586656311E+03  0.12699999809E+01 0. -1.
       -4    1    3    3    0  502  0.37493485217E+03  0.91721189882E+01  0.38354251317E+03  0.53643894662E+03  0.12699999809E+01 0.  1.
</event>
<event>
 5   0  0.1648463E-03  0.1387642E+04  0.7818609E-02  0.8962813E-01
       -2   -1    0    0    0  501  0.00000000000E+00  0.00000000000E+00  0.43605129804E+03  0.43605129805E+03  0.25500000920E-02 0.  1.
        2   -1    0    0  501    0  0.00000000000E+00  0.00000000000E+00 -0.11039699780E+04  0.11039699781E+04  0.25500000920E-02 0. -1.
    10030    2    1    2    0    0  0.00000000000E+00  0.00000000000E+00 -0.66791868001E+03  0.15400212761E+04  0.13876419451E+04 0.  0.
        1    1    3    3  502    0  0.52075470269E+03  0.88055645526E+02  0.16539215296E+03  0.55343818206E+03  0.50400001928E-02 0.  1.
       -1    1    3    3    0  502 -0.52075470269E+03 -0.88055645526E+02 -0.83331083297E+03  0.98658309404E+03  0.50400001928E-02 0. -1.
</event>
<event>
 5   0  0.8502300E-04  0.1416791E+04  0.7818609E-02  0.8941753E-01
       -1   -1    0    0    0  501  0.00000000000E+00  0.00000000000E+00  0.48440590671E+03  0.48440590673E+03  0.50400001928E-02 0.  1.
        1   -1    0    0  501    0  0.00000000000E+00  0.00000000000E+00 -0.10359585526E+04  0.10359585526E+04  0.50400001928E-02 0. -1.
    10030    2    1    2    0    0  0.00000000000E+00  0.00000000000E+00 -0.55155264593E+03  0.15203644594E+04  0.14167913636E+04 0.  0.
        4    1    3    3  502    0 -0.36490993359E+02  0.16201633898E+03 -0.10147718136E+04  0.10282724996E+04  0.12699999809E+01 0. -1.
       -4    1    3    3    0  502  0.36490993359E+02 -0.16201633898E+03  0.46321916771E+03  0.49209195982E+03  0.12699999809E+01 0.  1.
</event>
<event>
 5   0  0.1605214E-03  0.1348622E+04  0.7818609E-02  0.8991872E-01
        2   -1    0    0  501    0  0.00000000000E+00  0.00000000000E+00  0.49257498103E+03  0.49257498104E+03  0.25500000920E-02 0. -1.
       -2   -1    0    0    0  501  0.00000000000E+00  0.00000000000E+00 -0.92309921069E+03  0.92309921070E+03  0.25500000920E-02 0.  1.
    10030    2    1    2    0    0  0.00000000000E+00  0.00000000000E+00 -0.43052422966E+03  0.14156741917E+04  0.13486223730E+04 0.  0.
        5    1    3    3  502    0  0.23347146319E+03  0.52632614564E+03 -0.58363017259E+03  0.81986242996E+03  0.46999998093E+01 0.  1.
       -5    1    3    3    0  502 -0.23347146319E+03 -0.52632614564E+03  0.15310594293E+03  0.59581176177E+03  0.46999998093E+01 0. -1.
</event>
<event>
 5   0  0.8502300E-04  0.1404241E+04  0.7818609E-02  0.8950755E-01
       -1   -1    0    0    0  501  0.00000000000E+00  0.00000000000E+00  0.10949151090E+04  0.10949151091E+04  0.50400001928E-02 0. -1.
        1   -1    0    0  501    0  0.00000000000E+00  0.00000000000E+00 -0.45023844462E+03  0.45023844464E+03  0.50400001928E-02 0.  1.
    10030    2    1    2    0    0  0.00000000000E+00  0.00000000000E+00  0.64467666443E+03  0.15451535537E+04  0.14042405431E+04 0.  0.
        4    1    3    3  502    0  0.48433444032E+03  0.50632250825E+03  0.37190203101E+03  0.79325599021E+03  0.12699999809E+01 0. -1.
       -4    1    3    3    0  502 -0.48433444032E+03 -0.50632250825E+03  0.27277463342E+03  0.75189756349E+03  0.12699999809E+01 0.  1.
</event>
<event>
 5   0  0.9639548E-04  0.1292588E+04  0.7818609E-02  0.9035463E-01
       -1   -1    0    0    0  501  0.00000000000E+00  0.00000000000E+00  0.81520862393E+03  0.81520862394E+03  0.50400001928E-02 0.  1.
        1   -1    0    0  501    0  0.00000000000E+00  0.00000000000E+00 -0.51237958250E+03  0.51237958253E+03  0.50400001928E-02 0. -1.
    10030    2    1    2    0    0  0.00000000000E+00  0.00000000000E+00  0.30282904143E+03  0.13275882065E+04  0.12925884951E+04 0.  0.
        1    1    3    3  502    0  0.45147836418E+02  0.30900127650E+03 -0.42974797592E+03  0.53122823611E+03  0.50400001928E-02 0. -1.
       -1    1    3    3    0  502 -0.45147836418E+02 -0.30900127650E+03  0.73257701735E+03  0.79635997036E+03  0.50400001928E-02 0.  1.
</event>
<event>
 5   0  0.8673728E-04  0.1398640E+04  0.7818609E-02  0.8954803E-01
       -1   -1    0    0    0  501  0.00000000000E+00  0.00000000000E+00  0.73719168770E+03  0.73719168772E+03  0.50400001928E-02 0. -1.
        1   -1    0    0  501    0  0.00000000000E+00  0.00000000000E+00 -0.66339416604E+03  0.66339416606E+03  0.50400001928E-02 0.  1.
    10030    2    1    2    0    0  0.00000000000E+00  0.00000000000E+00  0.73797521656E+02  0.14005858538E+04  0.13986402896E+04 0.  0.
        3    1    3    3  502    0  0.16245747838E+03  0.67981824840E+03  0.14431608182E+02  0.69910912214E+03  0.10100000352E+00 0. -1.
       -3    1    3    3    0  502 -0.16245747838E+03 -0.67981824840E+03  0.59365913474E+02  0.70147673164E+03  0.10100000352E+00 0.  1.
</event>
<event>
 5   0  0.8673728E-04  0.1300933E+04  0.7818609E-02  0.9028826E-01
       -1   -1    0    0    0  501  0.00000000000E+00  0.00000000000E+00  0.25988425662E+03  0.25988425667E+03  0.50400001928E-02 0. -1.
        1   -1    0    0  501    0  0.00000000000E+00  0.00000000000E+00 -0.16280578768E+04  0.16280578768E+04  0.50400001928E-02 0.  1.
    10030    2    1    2    0    0  0.00000000000E+00  0.00000000000E+00 -0.13681736202E+04  0.18879421335E+04  0.13009329131E+04 0.  0.
        3    1    3    3  502    0 -0.44579822333E+03  0.11285048344E+03 -0.13517045147E+04  0.14277872365E+04  0.10100000352E+00 0.  1.
       -3    1    3    3    0  502  0.44579822333E+03 -0.11285048344E+03 -0.16469105474E+02  0.46015489694E+03  0.10100000352E+00 0. -1.
</event>
<event>
 5   0  0.1605214E-03  0.1399187E+04  0.7818609E-02  0.8954407E-01
       -2   -1    0    0    0  501  0.00000000000E+00  0.00000000000E+00  0.51158410723E+03  0.51158410724E+03  0.25500000920E-02 0. -1.
        2   -1    0    0  501    0  0.00000000000E+00  0.00000000000E+00 -0.95669714212E+03  0.95669714213E+03  0.25500000920E-02 0.  1.
    10030    2    1    2    0    0  0.00000000000E+00  0.00000000000E+00 -0.44511303490E+03  0.14682812494E+04  0.13991869830E+04 0.  0.
        5    1    3    3  502    0 -0.12689396764E+03  0.14849357021E+03  0.48237228075E+03  0.52043974354E+03  0.46999998093E+01 0. -1.
       -5    1    3    3    0  502  0.12689396764E+03 -0.14849357021E+03 -0.92748531565E+03  0.94784150582E+03  0.46999998093E+01 0.  1.
</event>
<event>
 5   0  0.1648463E-03  0.1394600E+04  0.7818609E-02  0.8957737E-01
       -2   -1    0    0    0  501  0.00000000000E+00  0.00000000000E+00  0.20192170492E+03  0.20192170494E+03  0.25500000920E-02 0.  1.
        2   -1    0    0  501    0  0.00000000000E+00  0.00000000000E+00 -0.24079989324E+04  0.24079989324E+04  0.25500000920E-02 0. -1.
    10030    2    1    2    0    0  0.00000000000E+00  0.00000000000E+00 -0.22060772275E+04  0.26099206374E+04  0.13945999425E+04 0.  0.
        1    1    3    3  502    0 -0.64286999396E+03 -0.22629820218E+03 -0.82713783309E+03  0.10717507641E+04  0.50400001928E-02 0.  1.
       -1    1    3    3    0  502  0.64286999396E+03  0.22629820218E+03 -0.13789393944E+04  0.15381698732E+04  0.50400001928E-02 0. -1.
</event>
<event>
 5   0  0.8502300E-04  0.1411398E+04  0.7818609E-02  0.8945609E-01
       -1   -1    0    0    0  501  0.00000000000E+00  0.00000000000E+00  0.52142551166E+03  0.52142551168E+03  0.50400001928E-02 0. -1.
        1   -1    0    0  501    0  0.00000000000E+00  0.00000000000E+00 -0.95509514905E+03  0.95509514906E+03  0.50400001928E-02 0.  1.
    10030    2    1    2    0    0  0.00000000000E+00  0.00000000000E+00 -0.43366963739E+03  0.14765206607E+04  0.14113978557E+04 0.  0.
        4    1    3    3  502    0  0.37806596888E+03 -0.24253127306E+03 -0.78624107791E+03  0.90550093359E+03  0.12699999809E+01 0.  1.
       -4    1    3    3    0  502 -0.37806596888E+03  0.24253127306E+03  0.35257144051E+03  0.57101972716E+03  0.12699999809E+01 0. -1.
</event>
<event>
 5   0  0.8673728E-04  0.1257899E+04  0.7818609E-02  0.9063634E-01
       -1   -1    0    0    0  501  0.00000000000E+00  0.00000000000E+00  0.16295116558E+04  0.16295116558E+04  0.50400001928E-02 0.  1.
        1   -1    0    0  501    0  0.00000000000E+00  0.00000000000E+00 -0.24275831977E+03  0.24275831982E+03  0.50400001928E-02 0. -1.
    10030    2    1    2    0    0  0.00000000000E+00  0.00000000000E+00  0.13867533360E+04  0.18722699756E+04  0.12578990606E+04 0.  0.
        3    1    3    3  502    0 -0.25501101578E+03  0.17574398533E+03 -0.12139842617E+03  0.33264719242E+03  0.10100000352E+00 0. -1.
       -3    1    3    3    0  502  0.25501101578E+03 -0.17574398533E+03  0.15081517622E+04  0.15396227832E+04  0.10100000352E+00 0.  1.
</event>
<event>
 5   0  0.1605214E-03  0.1377203E+04  0.7818609E-02  0.8970488E-01
       -2   -1    0    0    0  501  0.00000000000E+00  0.00000000000E+00  0.10907271373E+04  0.10907271373E+04  0.25500000920E-02 0. -1.
        2   -1    0    0  501    0  0.00000000000E+00  0.00000000000E+00 -0.43473002640E+03  0.43473002640E+03  0.25500000920E-02 0.  1.
    10030    2    1    2    0    0  0.00000000000E+00  0.00000000000E+00  0.65599711088E+03  0.15254571637E+04  0.13772027261E+04 0.  0.
        5    1    3    3  502    0  0.36589055367E+03 -0.39202719854E+03  0.80645742456E+03  0.96848174443E+03  0.46999998093E+01 0. -1.
       -5    1    3    3    0  502 -0.36589055367E+03  0.39202719854E+03 -0.15046031369E+03  0.55697541925E+03  0.46999998093E+01 0.  1.
</event>
<event>
 5   0  0.8673728E-04  0.1413518E+04  0.7818609E-02  0.8944091E-01
        1   -1    0    0  501    0  0.00000000000E+00  0.00000000000E+00  0.85092617164E+03  0.85092617166E+03  0.50400001928E-02 0.  1.
       -1   -1    0    0    0  501  0.00000000000E+00  0.00000000000E+00 -0.58701724191E+03  0.58701724193E+03  0.50400001928E-02 0. -1.
    10030    2    1    2    0    0  0.00000000000E+00  0.00000000000E+00  0.26390892973E+03  0.14379434136E+04  0.14135180712E+04 0.  0.
        3    1    3    3  502    0  0.54456198389E+03 -0.82987502246E+02  0.58240804323E+03  0.80164444665E+03  0.10100000352E+00 0.  1.
       -3    1    3    3    0  502 -0.54456198389E+03  0.82987502246E+02 -0.31849911350E+03  0.63629896694E+03  0.10100000352E+00 0. -1.
</event>
<event>
 5   0  0.8673728E-04  0.1388222E+04  0.7818609E-02  0.8962389E-01
       -1   -1    0    0    0  501  0.00000000000E+00  0.00000000000E+00  0.59414462341E+03  0.59414462343E+03  0.50400001928E-02 0. -1.
        1   -1    0    0  501    0  0.00000000000E+00  0.00000000000E+00 -0.81089648676E+03  0.81089648678E+03  0.50400001928E-02 0.  1.
    10030    2    1    2    0    0  0.00000000000E+00  0.00000000000E+00 -0.21675186335E+03  0.14050411102E+04  0.13882215785E+04 0.  0.
        3    1    3    3  502    0  0.92771925123E+02 -0.55890736059E+03 -0.51424034481E+03  0.76513215214E+03  0.10100000352E+00 0.  1.
       -3    1    3    3    0  502 -0.92771925123E+02  0.55890736059E+03  0.29748848145E+03  0.63990895806E+03  0.10100000352E+00 0. -1.
</event>
<event>
 5   0  0.1648213E-03  0.1392614E+04  0.7818609E-02  0.8959182E-01
       -2   -1    0    0    0  501  0.00000000000E+00  0.00000000000E+00  0.49100756693E+03  0.49100756694E+03  0.25500000920E-02 0. -1.
        2   -1    0    0  501    0  0.00000000000E+00  0.00000000000E+00 -0.98744612458E+03  0.98744612458E+03  0.25500000920E-02 0.  1.
    10030    2    1    2    0    0  0.00000000000E+00  0.00000000000E+00 -0.49643855765E+03  0.14784536915E+04  0.13926141161E+04 0.  0.
        4    1    3    3  502    0  0.66929306877E+03 -0.16543674604E+03 -0.35180054245E+03  0.77400759906E+03  0.12699999809E+01 0.  1.
       -4    1    3    3    0  502 -0.66929306877E+03  0.16543674604E+03 -0.14463801520E+03  0.70444609246E+03  0.12699999809E+01 0. -1.
</event>
<event>
 5   0  0.1578965E-03  0.1383360E+04  0.7818609E-02  0.8965952E-01
       -2   -1    0    0    0  501  0.00000000000E+00  0.00000000000E+00  0.22637085087E+03  0.22637085089E+03  0.25500000920E-02 0. -1.
        2   -1    0    0  501    0  0.00000000000E+00  0.00000000000E+00 -0.21134410538E+04  0.21134410538E+04  0.25500000920E-02 0.  1.
    10030    2    1    2    0    0  0.00000000000E+00  0.00000000000E+00 -0.18870702030E+04  0.23398119047E+04  0.13833603285E+04 0.  0.
        2    1    3    3  502    0  0.50257601390E+03 -0.30520076842E+03 -0.32741292800E+03  0.67300028545E+03  0.25500000920E-02 0. -1.
       -2    1    3    3    0  502 -0.50257601390E+03  0.30520076842E+03 -0.15596572750E+04  0.16668116193E+04  0.25500000920E-02 0.  1.
</event>
<event>
 5   0  0.9007180E-04  0.1410339E+04  0.7818609E-02  0.8946368E-01
        1   -1    0    0  501    0  0.00000000000E+00  0.00000000000E+00  0.96023905167E+03  0.96023905168E+03  0.50400001928E-02 0. -1.
       -1   -1    0    0    0  501  0.00000000000E+00  0.00000000000E+00 -0.51785452961E+03  0.51785452964E+03  0.50400001928E-02 0.  1.
    10030    2    1    2    0    0  0.00000000000E+00  0.00000000000E+00  0.44238452205E+03  0.14780935813E+04  0.14103391683E+04 0.  0.
        2    1    3    3  502    0  0.49204139048E+03  0.18761031964E+03  0.71272446479E+03  0.88615942397E+03  0.25500000920E-02 0. -1.
       -2    1    3    3    0  502 -0.49204139048E+03 -0.18761031964E+03 -0.27033994273E+03  0.59193415734E+03  0.25500000920E-02 0.  1.
</event>
<event>
 5   0  0.1578965E-03  0.1400955E+04  0.7818609E-02  0.8953128E-01
       -2   -1    0    0    0  501  0.00000000000E+00  0.00000000000E+00  0.13176907972E+04  0.13176907972E+04  0.25500000920E-02 0. -1.
        2   -1    0    0  501    0  0.00000000000E+00  0.00000000000E+00 -0.37236991956E+03  0.37236991957E+03  0.25500000920E-02 0.  1.
    10030    2    1    2    0    0  0.00000000000E+00  0.00000000000E+00  0.94532087762E+03  0.16900607167E+04  0.14009545548E+04 0.  0.
        2    1    3    3  502    0  0.51487958272E+03 -0.41536636011E+03  0.75048633447E+03  0.10004298756E+04  0.25500000920E-02 0. -1.
       -2    1    3    3    0  502 -0.51487958272E+03  0.41536636011E+03  0.19483454315E+03  0.68963084112E+03  0.25500000920E-02 0.  1.
</event>
<event>
 5   0  0.9007180E-04  0.1351227E+04  0.7818609E-02  0.8989900E-01
        1   -1    0    0  501    0  0.00000000000E+00  0.00000000000E+00  0.13939011811E+04  0.13939011811E+04  0.50400001928E-02 0. -1.
       -1   -1    0    0    0  501  0.00000000000E+00  0.00000000000E+00 -0.32746471212E+03  0.32746471216E+03  0.50400001928E-02 0.  1.
    10030    2    1    2    0    0  0.00000000000E+00  0.00000000000E+00  0.10664364690E+04  0.17213658933E+04  0.13512267745E+04 0.  0.
        2    1    3    3  502    0  0.59244760017E+02  0.65021520889E+03  0.31196624588E+03  0.72361087474E+03  0.25500000920E-02 0.  1.
       -2    1    3    3    0  502 -0.59244760017E+02 -0.65021520889E+03  0.75447022309E+03  0.99775501853E+03  0.25500000920E-02 0. -1.
</event>
<event>
 5   0  0.6048000E-04  0.1274941E+04  0.7818609E-02  0.9049677E-01
       -3   -1    0    0    0  501  0.00000000000E+00  0.00000000000E+00  0.43466068139E+03  0.43466069312E+03  0.10100000352E+00 0.  1.
        3   -1    0    0  501    0  0.00000000000E+00  0.00000000000E+00 -0.93491012783E+03  0.93491013329E+03  0.10100000352E+00 0. -1.
    10030    2    1    2    0    0  0.00000000000E+00  0.00000000000E+00 -0.50024944644E+03  0.13695708264E+04  0.12749410731E+04 0.  0.
        3    1    3    3  502    0  0.36780094975E+03  0.25333661154E+03  0.23851290309E+03  0.50630563154E+03  0.10100000352E+00 0.  1.
       -3    1    3    3    0  502 -0.36780094975E+03 -0.25333661154E+03 -0.73876234953E+03  0.86326519487E+03  0.10100000352E+00 0. -1.
</event>
<event>
 5   0  0.9639548E-04  0.1404617E+04  0.7818609E-02  0.8950483E-01
        1   -1    0    0  501    0  0.00000000000E+00  0.00000000000E+00  0.13004111197E+04  0.13004111197E+04  0.50400001928E-02 0.  1.
       -1   -1    0    0    0  501  0.00000000000E+00  0.00000000000E+00 -0.37929333039E+03  0.37929333042E+03  0.50400001928E-02 0. -1.
    10030    2    1    2    0    0  0.00000000000E+00  0.00000000000E+00  0.92111778926E+03  0.16797044501E+04  0.14046170503E+04 0.  0.
        1    1    3    3  502    0  0.28925796057E+02 -0.44887646291E+03  0.11055513331E+04  0.11935537402E+04  0.50400001928E-02 0.  1.
       -1    1    3    3    0  502 -0.28925796057E+02  0.44887646291E+03 -0.18443354381E+03  0.48615070990E+03  0.50400001928E-02 0. -1.
</event>
<event>
 5   0  0.1578965E-03  0.1296528E+04  0.7818609E-02  0.9032323E-01
       -2   -1    0    0    0  501  0.00000000000E+00  0.00000000000E+00  0.36828850922E+03  0.36828850923E+03  0.25500000920E-02 0.  1.
        2   -1    0    0  501    0  0.00000000000E+00  0.00000000000E+00 -0.11410784299E+04  0.11410784299E+04  0.25500000920E-02 0. -1.
    10030    2    1    2    0    0  0.00000000000E+00  0.00000000000E+00 -0.77278992069E+03  0.15093669391E+04  0.12965277843E+04 0.  0.
        2    1    3    3  502    0  0.14355482407E+03  0.31900861324E+03 -0.10217661929E+04  0.10799910351E+04  0.25500000920E-02 0. -1.
       -2    1    3    3    0  502 -0.14355482407E+03 -0.31900861324E+03  0.24897627225E+03  0.42937590406E+03  0.25500000920E-02 0.  1.
</event>
<event>
 5   0  0.1648213E-03  0.1131344E+04  0.7818609E-02  0.9175169E-01
       -2   -1    0    0    0  501  0.00000000000E+00  0.00000000000E+00  0.37764257492E+03  0.37764257493E+03  0.25500000920E-02 0. -1.
        2   -1    0    0  501    0  0.00000000000E+00  0.00000000000E+00 -0.84732250761E+03  0.84732250762E+03  0.25500000920E-02 0.  1.
    10030    2    1    2    0    0  0.00000000000E+00  0.00000000000E+00 -0.46967993269E+03  0.12249650825E+04  0.11313444278E+04 0.  0.
        4    1    3    3  502    0 -0.46870805308E+03  0.27960242246E+03 -0.73809319032E+02  0.55073966822E+03  0.12699999809E+01 0.  1.
       -4    1    3    3    0  502  0.46870805308E+03 -0.27960242246E+03 -0.39587061366E+03  0.67422541433E+03  0.12699999809E+01 0. -1.
</event>
<event>
 5   0  0.1648463E-03  0.1357172E+04  0.7818609E-02  0.8985416E-01
        2   -1    0    0  501    0  0.00000000000E+00  0.00000000000E+00  0.30299816544E+03  0.30299816546E+03  0.25500000920E-02 0. -1.
       -2   -1    0    0    0  501  0.00000000000E+00  0.00000000000E+00 -0.15197423840E+04  0.15197423840E+04  0.25500000920E-02 0.  1.
    10030    2    1    2    0    0  0.00000000000E+00  0.00000000000E+00 -0.12167442186E+04  0.18227405495E+04  0.13571722872E+04 0.  0.
        1    1    3    3  502    0  0.28299245551E+03  0.52524896835E+03 -0.17419739458E+03  0.62154319313E+03  0.50400001928E-02 0.  1.
       -1    1    3    3    0  502 -0.28299245551E+03 -0.52524896835E+03 -0.10425468240E+04  0.12011973563E+04  0.50400001928E-02 0. -1.
</event>
<event>
 5   0  0.1648463E-03  0.1405970E+04  0.7818609E-02  0.8949509E-01
        2   -1    0    0  501    0  0.00000000000E+00  0.00000000000E+00  0.12643063591E+04  0.12643063591E+04  0.25500000920E-02 0.  1.
       -2   -1    0    0    0  501  0.00000000000E+00  0.00000000000E+00 -0.39087666590E+03  0.39087666590E+03  0.25500000920E-02 0. -1.
    10030    2    1    2    0    0  0.00000000000E+00  0.00000000000E+00  0.87342969324E+03  0.16551830250E+04  0.14059699205E+04 0.  0.
        1    1    3    3  502    0  0.28466981318E+03  0.27114226874E+03  0.11227949441E+04  0.11896316736E+04  0.50400001928E-02 0.  1.
       -1    1    3    3    0  502 -0.28466981318E+03 -0.27114226874E+03 -0.24936525085E+03  0.46555135140E+03  0.50400001928E-02 0. -1.
</event>
<event>
 5   0  0.9007180E-04  0.1394959E+04  0.7818609E-02  0.8957476E-01
       -1   -1    0    0    0  501  0.00000000000E+00  0.00000000000E+00  0.16972717599E+04  0.16972717599E+04  0.50400001928E-02 0.  1.
        1   -1    0    0  501    0  0.00000000000E+00  0.00000000000E+00 -0.28662327534E+03  0.28662327538E+03  0.50400001928E-02 0. -1.
    10030    2    1    2    0    0  0.00000000000E+00  0.00000000000E+00  0.14106484846E+04  0.19838950353E+04  0.13949589112E+04 0.  0.
        2    1    3    3  502    0 -0.29817530925E+03 -0.20605407721E+03 -0.14217479051E+03  0.38933336467E+03  0.25500000920E-02 0. -1.
       -2    1    3    3    0  502  0.29817530925E+03  0.20605407721E+03  0.15528232751E+04  0.15945616706E+04  0.25500000920E-02 0.  1.
</event>
<event>
 5   0  0.6048000E-04  0.1419712E+04  0.7818609E-02  0.8939672E-01
        4   -1    0    0  501    0  0.00000000000E+00  0.00000000000E+00  0.37314197220E+03  0.37314413344E+03  0.12699999809E+01 0. -1.
       -4   -1    0    0    0  501  0.00000000000E+00  0.00000000000E+00 -0.13504056906E+04  0.13504062878E+04  0.12699999809E+01 0.  1.
    10030    2    1    2    0    0  0.00000000000E+00  0.00000000000E+00 -0.97726371842E+03  0.17235504213E+04  0.14197118297E+04 0.  0.
        5    1    3    3  502    0 -0.30307253094E+03 -0.61099295605E+03 -0.72748119463E+03  0.99720425685E+03  0.46999998093E+01 0.  1.
       -5    1    3    3    0  502  0.30307253094E+03  0.61099295605E+03 -0.24978252379E+03  0.72634616440E+03  0.46999998093E+01 0. -1.
</event>
<event>
 5   0  0.1648463E-03  0.1389223E+04  0.7818609E-02  0.8961657E-01
       -2   -1    0    0    0  501  0.00000000000E+00  0.00000000000E+00  0.48850719019E+03  0.48850719020E+03  0.25500000920E-02 0. -1.
        2   -1    0    0  501    0  0.00000000000E+00  0.00000000000E+00 -0.98767262541E+03  0.98767262541E+03  0.25500000920E-02 0.  1.
    10030    2    1    2    0    0  0.00000000000E+00  0.00000000000E+00 -0.49916543522E+03  0.14761798156E+04  0.13892230621E+04 0.  0.
        1    1    3    3  502    0  0.39996268582E+03  0.14360971691E+03  0.33425555564E+03  0.54066688205E+03  0.50400001928E-02 0. -1.
       -1    1    3    3    0  502 -0.39996268582E+03 -0.14360971691E+03 -0.83342099086E+03  0.93551293356E+03  0.50400001928E-02 0.  1.
</event>
<event>
 5   0  0.1605214E-03  0.1263184E+04  0.7818609E-02  0.9059281E-01
       -2   -1    0    0    0  501  0.00000000000E+00  0.00000000000E+00  0.35258891231E+03  0.35258891232E+03  0.25500000920E-02 0.  1.
        2   -1    0    0  501    0  0.00000000000E+00  0.00000000000E+00 -0.11313697176E+04  0.11313697176E+04  0.25500000920E-02 0. -1.
    10030    2    1    2    0    0  0.00000000000E+00  0.00000000000E+00 -0.77878080533E+03  0.14839586300E+04  0.12631839425E+04 0.  0.
        5    1    3    3  502    0  0.62603540479E+03  0.82941044597E+02 -0.40033432815E+03  0.74772268203E+03  0.46999998093E+01 0.  1.
       -5    1    3    3    0  502 -0.62603540479E+03 -0.82941044597E+02 -0.37844647717E+03  0.73623594792E+03  0.46999998093E+01 0. -1.
</event>
<event>
 5   0  0.1648213E-03  0.1168496E+04  0.7818609E-02  0.9140887E-01
       -2   -1    0    0    0  501  0.00000000000E+00  0.00000000000E+00  0.17955532481E+03  0.17955532482E+03  0.25500000920E-02 0. -1.
        2   -1    0    0  501    0  0.00000000000E+00  0.00000000000E+00 -0.19010629672E+04  0.19010629672E+04  0.25500000920E-02 0.  1.
    10030    2    1    2    0    0  0.00000000000E+00  0.00000000000E+00 -0.17215076424E+04  0.20806182921E+04  0.11684964332E+04 0.  0.
        4    1    3    3  502    0 -0.34585656636E+03 -0.27120416955E+03 -0.17533850076E+03  0.47319516991E+03  0.12699999809E+01 0. -1.
       -4    1    3    3    0  502  0.34585656636E+03  0.27120416955E+03 -0.15461691417E+04  0.16074231221E+04  0.12699999809E+01 0.  1.
</event>
<event>
 5   0  0.9639548E-04  0.1378171E+04  0.7818609E-02  0.8969773E-01
        1   -1    0    0  501    0  0.00000000000E+00  0.00000000000E+00  0.10974551648E+04  0.10974551648E+04  0.50400001928E-02 0.  1.
       -1   -1    0    0    0  501  0.00000000000E+00  0.00000000000E+00 -0.43267263980E+03  0.43267263983E+03  0.50400001928E-02 0. -1.
    10030    2    1    2    0    0  0.00000000000E+00  0.00000000000E+00  0.66478252499E+03  0.15301278046E+04  0.13781709955E+04 0.  0.
        1    1    3    3  502    0  0.17637811725E+03  0.15012552725E+03 -0.38815954841E+03  0.45201189057E+03  0.50400001928E-02 0. -1.
       -1    1    3    3    0  502 -0.17637811725E+03 -0.15012552725E+03  0.10529420734E+04  0.10781159141E+04  0.50400001928E-02 0.  1.
</event>
<event>
 5   0  0.1706986E-03  0.1418132E+04  0.7818609E-02  0.8940797E-01
        2   -1    0    0  501    0  0.00000000000E+00  0.00000000000E+00  0.76317560630E+03  0.76317560630E+03  0.25500000920E-02 0.  1.
       -2   -1    0    0    0  501  0.00000000000E+00  0.00000000000E+00 -0.65879283238E+03  0.65879283238E+03  0.25500000920E-02 0. -1.
    10030    2    1    2    0    0  0.00000000000E+00  0.00000000000E+00  0.10438277392E+03  0.14219684387E+04  0.14181320380E+04 0.  0.
        3    1    3    3  502    0 -0.48652862632E+03 -0.45844549187E+03 -0.18486356393E+03  0.69358267042E+03  0.10100000352E+00 0. -1.
       -3    1    3    3    0  502  0.48652862632E+03  0.45844549187E+03  0.28924633785E+03  0.72838576826E+03  0.10100000352E+00 0.  1.
</event>
<event>
 5   0  0.1648463E-03  0.1454775E+04  0.7818609E-02  0.8915097E-01
        2   -1    0    0  501    0  0.00000000000E+00  0.00000000000E+00  0.81945758167E+03  0.81945758167E+03  0.25500000920E-02 0. -1.
       -2   -1    0    0    0  501  0.00000000000E+00  0.00000000000E+00 -0.64566160713E+03  0.64566160714E+03  0.25500000920E-02 0.  1.
    10030    2    1    2    0    0  0.00000000000E+00  0.00000000000E+00  0.17379597453E+03  0.14651191888E+04  0.14547746206E+04 0.  0.
        1    1    3    3  502    0 -0.26255846985E+03  0.10642531309E+03 -0.58781286626E+03  0.65252376441E+03  0.50400001928E-02 0.  1.
       -1    1    3    3    0  502  0.26255846985E+03 -0.10642531309E+03  0.76160884080E+03  0.81259542440E+03  0.50400001928E-02 0. -1.
</event>
<event>
 5   0  0.8502300E-04  0.1387254E+04  0.7818609E-02  0.8963097E-01
        1   -1    0    0  501    0  0.00000000000E+00  0.00000000000E+00  0.30894356583E+03  0.30894356587E+03  0.50400001928E-02 0. -1.
       -1   -1    0    0    0  501  0.00000000000E+00  0.00000000000E+00 -0.15573020490E+04  0.15573020490E+04  0.50400001928E-02 0.  1.
    10030    2    1    2    0    0  0.00000000000E+00  0.00000000000E+00 -0.12483584831E+04  0.18662456148E+04  0.13872540476E+04 0.  0.
        4    1    3    3  502    0 -0.24604627397E+02  0.45854120247E+03 -0.13235327959E+04  0.14009304397E+04  0.12699999809E+01 0.  1.
       -4    1    3    3    0  502  0.24604627397E+02 -0.45854120247E+03  0.75174312766E+02  0.46531517517E+03  0.12699999809E+01 0. -1.
</event>
<event>
 5   0  0.1706986E-03  0.1402551E+04  0.7818609E-02  0.8951974E-01
       -2   -1    0    0    0  501  0.00000000000E+00  0.00000000000E+00  0.48921198815E+03  0.48921198816E+03  0.25500000920E-02 0.  1.
        2   -1    0    0  501    0  0.00000000000E+00  0.00000000000E+00 -0.10052636629E+04  0.10052636629E+04  0.25500000920E-02 0. -1.
    10030    2    1    2    0    0  0.00000000000E+00  0.00000000000E+00 -0.51605167470E+03  0.14944756510E+04  0.14025505839E+04 0.  0.
        3    1    3    3  502    0  0.19548382372E+03  0.48694512982E+03 -0.75376892761E+03  0.91842097712E+03  0.10100000352E+00 0. -1.
       -3    1    3    3    0  502 -0.19548382372E+03 -0.48694512982E+03  0.23771725290E+03  0.57605467390E+03  0.10100000352E+00 0.  1.
</event>
<event>
 5   0  0.1648463E-03  0.1407714E+04  0.7818609E-02  0.8948254E-01
        2   -1    0    0  501    0  0.00000000000E+00  0.00000000000E+00  0.50045667172E+03  0.50045667173E+03  0.25500000920E-02 0. -1.
       -2   -1    0    0    0  501  0.00000000000E+00  0.00000000000E+00 -0.98992496483E+03  0.98992496483E+03  0.25500000920E-02 0.  1.
    10030    2    1    2    0    0  0.00000000000E+00  0.00000000000E+00 -0.48946829310E+03  0.14903816366E+04  0.14077138248E+04 0.  0.
        1    1    3    3  502    0 -0.43111803588E+03 -0.45614985554E+02 -0.83179786552E+03  0.93799316462E+03  0.50400001928E-02 0.  1.
       -1    1    3    3    0  502  0.43111803588E+03  0.45614985554E+02  0.34232957241E+03  0.55238847195E+03  0.50400001928E-02 0. -1.
</event>
<event>
 5   0  0.9007180E-04  0.1395961E+04  0.7818609E-02  0.8956747E-01
       -1   -1    0    0    0  501  0.00000000000E+00  0.00000000000E+00  0.58264448827E+03  0.58264448829E+03  0.50400001928E-02 0. -1.
        1   -1    0    0  501    0  0.00000000000E+00  0.00000000000E+00 -0.83614757683E+03  0.83614757685E+03  0.50400001928E-02 0.  1.
    10030    2    1    2    0    0  0.00000000000E+00  0.00000000000E+00 -0.25350308856E+03  0.14187920651E+04  0.13959609981E+04 0.  0.
        2    1    3    3  502    0  0.56580466052E+03  0.24971250259E+03 -0.45559468903E+03  0.76815217795E+03  0.25500000920E-02 0.  1.
       -2    1    3    3    0  502 -0.56580466052E+03 -0.24971250259E+03  0.20209160047E+03  0.65063988718E+03  0.25500000920E-02 0. -1.
</event>
<event>
 5   0  0.1605214E-03  0.1396391E+04  0.7818609E-02  0.8956435E-01
        2   -1    0    0  501    0  0.00000000000E+00  0.00000000000E+00  0.95987491140E+03  0.95987491140E+03  0.25500000920E-02 0.  1.
       -2   -1    0    0    0  501  0.00000000000E+00  0.00000000000E+00 -0.50785455060E+03  0.50785455061E+03  0.25500000920E-02 0. -1.
    10030    2    1    2    0    0  0.00000000000E+00  0.00000000000E+00  0.45202036080E+03  0.14677294620E+04  0.13963908361E+04 0.  0.
        5    1    3    3  502    0 -0.30408301991E+03  0.49701865605E+03  0.63031809801E+03  0.85838046467E+03  0.46999998093E+01 0. -1.
       -5    1    3    3    0  502  0.30408301991E+03 -0.49701865605E+03 -0.17829773722E+03  0.60934899733E+03  0.46999998093E+01 0.  1.
</event>
<event>
 5   0  0.9639548E-04  0.1405473E+04  0.7818609E-02  0.8949866E-01
        1   -1    0    0  501    0  0.00000000000E+00  0.00000000000E+00  0.11278282194E+04  0.11278282194E+04  0.50400001928E-02 0.  1.
       -1   -1    0    0    0  501  0.00000000000E+00  0.00000000000E+00 -0.43786684151E+03  0.43786684154E+03  0.50400001928E-02 0. -1.
    10030    2    1    2    0    0  0.00000000000E+00  0.00000000000E+00  0.68996137786E+03  0.15656950609E+04  0.14054729883E+04 0.  0.
        1    1    3    3  502    0 -0.20472195663E+03  0.41623297830E+03 -0.24309837119E+03  0.52369627634E+03  0.50400001928E-02 0. -1.
       -1    1    3    3    0  502  0.20472195663E+03 -0.41623297830E+03  0.93305974905E+03  0.10419987846E+04  0.50400001928E-02 0.  1.
</event>
<event>
 5   0  0.1648463E-03  0.1402597E+04  0.7818609E-02  0.8951941E-01
       -2   -1    0    0    0  501  0.00000000000E+00  0.00000000000E+00  0.46606841976E+03  0.46606841976E+03  0.25500000920E-02 0.  1.
        2   -1    0    0  501    0  0.00000000000E+00  0.00000000000E+00 -0.10552517442E+04  0.10552517442E+04  0.25500000920E-02 0. -1.
    10030    2    1    2    0    0  0.00000000000E+00  0.00000000000E+00 -0.58918332447E+03  0.15213201640E+04  0.14025968956E+04 0.  0.
        1    1    3    3  502    0 -0.29824830973E+03  0.11930200837E+02  0.39373107037E+03  0.49408353519E+03  0.50400001928E-02 0.  1.
       -1    1    3    3    0  502  0.29824830973E+03 -0.11930200837E+02 -0.98291439484E+03  0.10272366288E+04  0.50400001928E-02 0. -1.
</event>
<event>
 5   0  0.1578965E-03  0.1411818E+04  0.7818609E-02  0.8945308E-01
       -2   -1    0    0    0  501  0.00000000000E+00  0.00000000000E+00  0.35811565206E+03  0.35811565207E+03  0.25500000920E-02 0.  1.
        2   -1    0    0  501    0  0.00000000000E+00  0.00000000000E+00 -0.13914705161E+04  0.13914705161E+04  0.25500000920E-02 0. -1.
    10030    2    1    2    0    0  0.00000000000E+00  0.00000000000E+00 -0.10333548640E+04  0.17495861682E+04  0.14118177945E+04 0.  0.
        2    1    3    3  502    0  0.18324902116E+03 -0.45510322674E+03  0.11230214477E+03  0.50330003226E+03  0.25500000920E-02 0.  1.
       -2    1    3    3    0  502 -0.18324902116E+03  0.45510322674E+03 -0.11456570088E+04  0.12462861359E+04  0.25500000920E-02 0. -1.
</event>
<event>
 5   0  0.8609148E-04  0.1478703E+04  0.7818609E-02  0.8898740E-01
        1   -1    0    0  501    0  0.00000000000E+00  0.00000000000E+00  0.87348148024E+03  0.87348148026E+03  0.50400001928E-02 0.  1.
       -1   -1    0    0    0  501  0.00000000000E+00  0.00000000000E+00 -0.62581832131E+03  0.62581832133E+03  0.50400001928E-02 0. -1.
    10030    2    1    2    0    0  0.00000000000E+00  0.00000000000E+00  0.24766315894E+03  0.14992998016E+04  0.14787030989E+04 0.  0.
        5    1    3    3  502    0  0.34218239092E+03  0.55776602175E+03  0.47275705663E+03  0.80728746322E+03  0.46999998093E+01 0.  1.
       -5    1    3    3    0  502 -0.34218239092E+03 -0.55776602175E+03 -0.22509389769E+03  0.69201233837E+03  0.46999998093E+01 0. -1.
</event>
<event>
 5   0  0.8673728E-04  0.1394149E+04  0.7818609E-02  0.8958065E-01
        1   -1    0    0  501    0  0.00000000000E+00  0.00000000000E+00  0.12185678068E+04  0.12185678068E+04  0.50400001928E-02 0.  1.
       -1   -1    0    0    0  501  0.00000000000E+00  0.00000000000E+00 -0.39875724878E+03  0.39875724881E+03  0.50400001928E-02 0. -1.
    10030    2    1    2    0    0  0.00000000000E+00  0.00000000000E+00  0.81981055798E+03  0.16173250556E+04  0.13941488387E+04 0.  0.
        3    1    3    3  502    0  0.39122737483E+03 -0.43979014936E-01 -0.25938571645E+03  0.46940368645E+03  0.10100000352E+00 0. -1.
       -3    1    3    3    0  502 -0.39122737483E+03  0.43979014936E-01  0.10791962744E+04  0.11479213691E+04  0.10100000352E+00 0.  1.
</event>
<event>
 5   0  0.1706986E-03  0.1426589E+04  0.7818609E-02  0.8934793E-01
       -2   -1    0    0    0  501  0.00000000000E+00  0.00000000000E+00  0.42266291605E+03  0.42266291606E+03  0.25500000920E-02 0.  1.
        2   -1    0    0  501    0  0.00000000000E+00  0.00000000000E+00 -0.12037710708E+04  0.12037710708E+04  0.25500000920E-02 0. -1.
    10030    2    1    2    0    0  0.00000000000E+00  0.00000000000E+00 -0.78110815474E+03  0.16264339869E+04  0.14265894869E+04 0.  0.
        3    1    3    3  502    0  0.55979294694E+03 -0.19278974486E+01 -0.89454088811E+03  0.10552607597E+04  0.10100000352E+00 0. -1.
       -3    1    3    3    0  502 -0.55979294694E+03  0.19278974486E+01  0.11343273337E+03  0.57117322717E+03  0.10100000352E+00 0.  1.
</event>
<event>
 5   0  0.1605214E-03  0.1381574E+04  0.7818609E-02  0.8967266E-01
        2   -1    0    0  501    0  0.00000000000E+00  0.00000000000E+00  0.26325886160E+04  0.26325886160E+04  0.25500000920E-02 0. -1.
       -2   -1    0    0    0  501  0.00000000000E+00  0.00000000000E+00 -0.18126127896E+03  0.18126127898E+03  0.25500000920E-02 0.  1.
    10030    2    1    2    0    0  0.00000000000E+00  0.00000000000E+00  0.24513273371E+04  0.28138498950E+04  0.13815735660E+04 0.  0.
        5    1    3    3  502    0  0.32047735283E+03  0.56741109763E+03  0.16923443323E+04  0.18134807737E+04  0.46999998093E+01 0. -1.
       -5    1    3    3    0  502 -0.32047735283E+03 -0.56741109763E+03  0.75898300473E+03  0.10003691213E+04  0.46999998093E+01 0.  1.
</event>
<event>
 5   0  0.8609148E-04  0.1342673E+04  0.7818609E-02  0.8996393E-01
        1   -1    0    0  501    0  0.00000000000E+00  0.00000000000E+00  0.16580235636E+04  0.16580235636E+04  0.50400001928E-02 0.  1.
       -1   -1    0    0    0  501  0.00000000000E+00  0.00000000000E+00 -0.27182516573E+03  0.27182516578E+03  0.50400001928E-02 0. -1.
    10030    2    1    2    0    0  0.00000000000E+00  0.00000000000E+00  0.13861983978E+04  0.19298487294E+04  0.13426727524E+04 0.  0.
        5    1    3    3  502    0 -0.26767020377E+03 -0.59235467938E+03  0.45199337605E+03  0.79173954440E+03  0.46999998093E+01 0. -1.
       -5    1    3    3    0  502  0.26767020377E+03  0.59235467938E+03  0.93420502179E+03  0.11381091850E+04  0.46999998093E+01 0.  1.
</event>
<event>
 5   0  0.1648463E-03  0.1402916E+04  0.7818609E-02  0.8951710E-01
        2   -1    0    0  501    0  0.00000000000E+00  0.00000000000E+00  0.56657989072E+03  0.56657989072E+03  0.25500000920E-02 0. -1.
       -2   -1    0    0    0  501  0.00000000000E+00  0.00000000000E+00 -0.86844476595E+03  0.86844476595E+03  0.25500000920E-02 0.  1.
    10030    2    1    2    0    0  0.00000000000E+00  0.00000000000E+00 -0.30186487523E+03  0.14350246567E+04  0.14029160211E+04 0.  0.
        1    1    3    3  502    0  0.35663376782E+03  0.58227891117E+03 -0.31525460770E+03  0.75207834861E+03  0.50400001928E-02 0. -1.
       -1    1    3    3    0  502 -0.35663376782E+03 -0.58227891117E+03  0.13389732465E+02  0.68294630807E+03  0.50400001928E-02 0.  1.
</event>
<event>
 5   0  0.9639548E-04  0.1141612E+04  0.7818609E-02  0.9165557E-01
       -1   -1    0    0    0  501  0.00000000000E+00  0.00000000000E+00  0.21143678072E+03  0.21143678078E+03  0.50400001928E-02 0.  1.
        1   -1    0    0  501    0  0.00000000000E+00  0.00000000000E+00 -0.15409778745E+04  0.15409778745E+04  0.50400001928E-02 0. -1.
    10030    2    1    2    0    0  0.00000000000E+00  0.00000000000E+00 -0.13295410937E+04  0.17524146552E+04  0.11416118447E+04 0.  0.
        1    1    3    3  502    0 -0.77247117880E+02  0.19179143432E+03 -0.14814733596E+04  0.14958323391E+04  0.50400001928E-02 0. -1.
       -1    1    3    3    0  502  0.77247117880E+02 -0.19179143432E+03  0.15193226589E+03  0.25658231611E+03  0.50400001928E-02 0.  1.
</event>
<event>
 5   0  0.1706986E-03  0.1394128E+04  0.7818609E-02  0.8958080E-01
       -2   -1    0    0    0  501  0.00000000000E+00  0.00000000000E+00  0.38692769564E+03  0.38692769565E+03  0.25500000920E-02 0. -1.
        2   -1    0    0  501    0  0.00000000000E+00  0.00000000000E+00 -0.12557851934E+04  0.12557851934E+04  0.25500000920E-02 0.  1.
    10030    2    1    2    0    0  0.00000000000E+00  0.00000000000E+00 -0.86885749773E+03  0.16427128890E+04  0.13941277863E+04 0.  0.
        3    1    3    3  502    0  0.24506665285E+03  0.62641348916E+03 -0.64992249040E+03  0.93533458050E+03  0.10100000352E+00 0.  1.
       -3    1    3    3    0  502 -0.24506665285E+03 -0.62641348916E+03 -0.21893500733E+03  0.70737830853E+03  0.10100000352E+00 0. -1.
</event>
<event>
 5   0  0.1648213E-03  0.1392818E+04  0.7818609E-02  0.8959034E-01
       -2   -1    0    0    0  501  0.00000000000E+00  0.00000000000E+00  0.25347922573E+03  0.25347922575E+03  0.25500000920E-02 0.  1.
        2   -1    0    0  501    0  0.00000000000E+00  0.00000000000E+00 -0.19133136920E+04  0.19133136920E+04  0.25500000920E-02 0. -1.
    10030    2    1    2    0    0  0.00000000000E+00  0.00000000000E+00 -0.16598344662E+04  0.21667929177E+04  0.13928176812E+04 0.  0.
        4    1    3    3  502    0  0.45135297233E+03 -0.27067297558E+03 -0.15394216633E+04  0.16269001308E+04  0.12699999809E+01 0. -1.
       -4    1    3    3    0  502 -0.45135297233E+03  0.27067297558E+03 -0.12041280295E+03  0.53989278690E+03  0.12699999809E+01 0.  1.
</event>
<event>
 5   0  0.1578965E-03  0.1346335E+04  0.7818609E-02  0.8993607E-01
       -2   -1    0    0    0  501  0.00000000000E+00  0.00000000000E+00  0.53421353673E+03  0.53421353674E+03  0.25500000920E-02 0.  1.
        2   -1    0    0  501    0  0.00000000000E+00  0.00000000000E+00 -0.84826416795E+03  0.84826416796E+03  0.25500000920E-02 0. -1.
    10030    2    1    2    0    0  0.00000000000E+00  0.00000000000E+00 -0.31405063122E+03  0.13824777047E+04  0.13463345814E+04 0.  0.
        2    1    3    3  502    0 -0.13777391326E+03 -0.65102885550E+03 -0.26141051624E+03  0.71495152275E+03  0.25500000920E-02 0. -1.
       -2    1    3    3    0  502  0.13777391326E+03  0.65102885550E+03 -0.52640114978E+02  0.66752618195E+03  0.25500000920E-02 0.  1.
</event>
<event>
 5   0  0.1578965E-03  0.1387372E+04  0.7818609E-02  0.8963010E-01
        2   -1    0    0  501    0  0.00000000000E+00  0.00000000000E+00  0.10563996046E+04  0.10563996046E+04  0.25500000920E-02 0.  1.
       -2   -1    0    0    0  501  0.00000000000E+00  0.00000000000E+00 -0.45550993783E+03  0.45550993784E+03  0.25500000920E-02 0. -1.
    10030    2    1    2    0    0  0.00000000000E+00  0.00000000000E+00  0.60088966680E+03  0.15119095425E+04  0.13873723628E+04 0.  0.
        2    1    3    3  502    0 -0.41471274886E+03  0.44302731345E+03 -0.65788540425E+02  0.61039986614E+03  0.25500000920E-02 0.  1.
       -2    1    3    3    0  502  0.41471274886E+03 -0.44302731345E+03  0.66667820722E+03  0.90150967633E+03  0.25500000920E-02 0. -1.
</event>
<event>
 5   0  0.1648463E-03  0.1398094E+04  0.7818609E-02  0.8955199E-01
       -2   -1    0    0    0  501  0.00000000000E+00  0.00000000000E+00  0.30767262157E+03  0.30767262158E+03  0.25500000920E-02 0.  1.
        2   -1    0    0  501    0  0.00000000000E+00  0.00000000000E+00 -0.15882686788E+04  0.15882686788E+04  0.25500000920E-02 0. -1.
    10030    2    1    2    0    0  0.00000000000E+00  0.00000000000E+00 -0.12805960572E+04  0.18959413004E+04  0.13980941144E+04 0.  0.
        1    1    3    3  502    0  0.11792337491E+02 -0.40288098448E+03  0.13423546748E+03  0.42481914697E+03  0.50400001928E-02 0.  1.
       -1    1    3    3    0  502 -0.11792337491E+02  0.40288098448E+03 -0.14148315247E+04  0.14711221534E+04  0.50400001928E-02 0. -1.
</event>
<event>
 5   0  0.8609148E-04  0.1386936E+04  0.7818609E-02  0.8963329E-01
        1   -1    0    0  501    0  0.00000000000E+00  0.00000000000E+00  0.16536613563E+04  0.16536613563E+04  0.50400001928E-02 0.  1.
       -1   -1    0    0    0  501  0.00000000000E+00  0.00000000000E+00 -0.29080815799E+03  0.29080815804E+03  0.50400001928E-02 0. -1.
    10030    2    1    2    0    0  0.00000000000E+00  0.00000000000E+00  0.13628531983E+04  0.19444695144E+04  0.13869364989E+04 0.  0.
        5    1    3    3  502    0 -0.30216265732E+03  0.47184672833E+03  0.10860731116E+03  0.57075322562E+03  0.46999998093E+01 0. -1.
       -5    1    3    3    0  502  0.30216265732E+03 -0.47184672833E+03  0.12542458872E+04  0.13737162888E+04  0.46999998093E+01 0.  1.
</event>
<event>
 5   0  0.9639548E-04  0.1406191E+04  0.7818609E-02  0.8949349E-01
       -1   -1    0    0    0  501  0.00000000000E+00  0.00000000000E+00  0.50235530634E+03  0.50235530637E+03  0.50400001928E-02 0.  1.
        1   -1    0    0  501    0  0.00000000000E+00  0.00000000000E+00 -0.98405099284E+03  0.98405099285E+03  0.50400001928E-02 0. -1.
    10030    2    1    2    0    0  0.00000000000E+00  0.00000000000E+00 -0.48169568650E+03  0.14864062992E+04  0.14061909372E+04 0.  0.
        1    1    3    3  502    0  0.19945551470E+02  0.13589902838E+03  0.48803535411E+03  0.50699593472E+03  0.50400001928E-02 0.  1.
       -1    1    3    3    0  502 -0.19945551470E+02 -0.13589902838E+03 -0.96973104061E+03  0.97941036450E+03  0.50400001928E-02 0. -1.
</event>
<event>
 5   0  0.1648463E-03  0.1406488E+04  0.7818609E-02  0.8949135E-01
       -2   -1    0    0    0  501  0.00000000000E+00  0.00000000000E+00  0.53449073410E+03  0.53449073410E+03  0.25500000920E-02 0. -1.
        2   -1    0    0  501    0  0.00000000000E+00  0.00000000000E+00 -0.92527767846E+03  0.92527767846E+03  0.25500000920E-02 0.  1.
    10030    2    1    2    0    0  0.00000000000E+00  0.00000000000E+00 -0.39078694436E+03  0.14597684126E+04  0.14064883158E+04 0.  0.
        1    1    3    3  502    0  0.15969397513E+03  0.45674022113E+03 -0.72505748660E+03  0.87167778118E+03  0.50400001928E-02 0.  1.
       -1    1    3    3    0  502 -0.15969397513E+03 -0.45674022113E+03  0.33427054224E+03  0.58809063139E+03  0.50400001928E-02 0. -1.
</event>
<event>
 5   0  0.9007180E-04  0.1385972E+04  0.7818609E-02  0.8964036E-01
       -1   -1    0    0    0  501  0.00000000000E+00  0.00000000000E+00  0.32989293500E+03  0.32989293504E+03  0.50400001928E-02 0.  1.
        1   -1    0    0  501    0  0.00000000000E+00  0.00000000000E+00 -0.14557128608E+04  0.14557128608E+04  0.50400001928E-02 0. -1.
    10030    2    1    2    0    0  0.00000000000E+00  0.00000000000E+00 -0.11258199258E+04  0.17856057958E+04  0.13859716999E+04 0.  0.
        2    1    3    3  502    0 -0.38036433370E+03 -0.62245709161E+02  0.17906533771E+03  0.42498935261E+03  0.25500000920E-02 0.  1.
       -2    1    3    3    0  502  0.38036433370E+03  0.62245709161E+02 -0.13048852635E+04  0.13606164432E+04  0.25500000920E-02 0. -1.
</event>
<event>
 5   0  0.8673728E-04  0.1379386E+04  0.7818609E-02  0.8968877E-01
        1   -1    0    0  501    0  0.00000000000E+00  0.00000000000E+00  0.82645440903E+03  0.82645440905E+03  0.50400001928E-02 0. -1.
       -1   -1    0    0    0  501  0.00000000000E+00  0.00000000000E+00 -0.57556272647E+03  0.57556272649E+03  0.50400001928E-02 0.  1.
    10030    2    1    2    0    0  0.00000000000E+00  0.00000000000E+00  0.25089168257E+03  0.14020171355E+04  0.13793858822E+04 0.  0.
        3    1    3    3  502    0  0.66285020076E+03 -0.31468287223E+02  0.31645379886E+03  0.73518953935E+03  0.10100000352E+00 0. -1.
       -3    1    3    3    0  502 -0.66285020076E+03  0.31468287223E+02 -0.65562116291E+02  0.66682759619E+03  0.10100000352E+00 0.  1.
</event>
<event>
 5   0  0.8502300E-04  0.1418775E+04  0.7818609E-02  0.8940339E-01
       -1   -1    0    0    0  501  0.00000000000E+00  0.00000000000E+00  0.60375399526E+03  0.60375399528E+03  0.50400001928E-02 0. -1.
        1   -1    0    0  501    0  0.00000000000E+00  0.00000000000E+00 -0.83350302596E+03  0.83350302597E+03  0.50400001928E-02 0.  1.
    10030    2    1    2    0    0  0.00000000000E+00  0.00000000000E+00 -0.22974903070E+03  0.14372570212E+04  0.14187752211E+04 0.  0.
        4    1    3    3  502    0  0.21345416602E+03  0.19290986898E+03 -0.77174416367E+03  0.82363072162E+03  0.12699999809E+01 0.  1.
       -4    1    3    3    0  502 -0.21345416602E+03 -0.19290986898E+03  0.54199513296E+03  0.61362629963E+03  0.12699999809E+01 0. -1.
</event>
<event>
 5   0  0.1648463E-03  0.1420288E+04  0.7818609E-02  0.8939263E-01
       -2   -1    0    0    0  501  0.00000000000E+00  0.00000000000E+00  0.58342920114E+03  0.58342920114E+03  0.25500000920E-02 0. -1.
        2   -1    0    0  501    0  0.00000000000E+00  0.00000000000E+00 -0.86437966643E+03  0.86437966643E+03  0.25500000920E-02 0.  1.
    10030    2    1    2    0    0  0.00000000000E+00  0.00000000000E+00 -0.28095046529E+03  0.14478088676E+04  0.14202877712E+04 0.  0.
        1    1    3    3  502    0 -0.59327288925E+03 -0.21055856809E+03  0.19452116757E+03  0.65889765243E+03  0.50400001928E-02 0. -1.
       -1    1    3    3    0  502  0.59327288925E+03  0.21055856809E+03 -0.47547163285E+03  0.78891121515E+03  0.50400001928E-02 0.  1.
</event>
<event>
 5   0  0.9007180E-04  0.1496551E+04  0.7818609E-02  0.8886750E-01
        1   -1    0    0  501    0  0.00000000000E+00  0.00000000000E+00  0.14538661068E+04  0.14538661068E+04  0.50400001928E-02 0.  1.
       -1   -1    0    0    0  501  0.00000000000E+00  0.00000000000E+00 -0.38512204005E+03  0.38512204008E+03  0.50400001928E-02 0. -1.
    10030    2    1    2    0    0  0.00000000000E+00  0.00000000000E+00  0.10687440668E+04  0.18389881469E+04  0.14965505418E+04 0.  0.
        2    1    3    3  502    0  0.54211005460E+03  0.96048453143E+02 -0.88345643151E+02  0.55759624220E+03  0.25500000920E-02 0. -1.
       -2    1    3    3    0  502 -0.54211005460E+03 -0.96048453143E+02  0.11570897099E+04  0.12813919047E+04  0.25500000920E-02 0.  1.
</event>
<event>
 5   0  0.8609148E-04  0.1395100E+04  0.7818609E-02  0.8957373E-01
        1   -1    0    0  501    0  0.00000000000E+00  0.00000000000E+00  0.38579139024E+03  0.38579139027E+03  0.50400001928E-02 0.  1.
       -1   -1    0    0    0  501  0.00000000000E+00  0.00000000000E+00 -0.12612405346E+04  0.12612405346E+04  0.50400001928E-02 0. -1.
    10030    2    1    2    0    0  0.00000000000E+00  0.00000000000E+00 -0.87544914439E+03  0.16470319249E+04  0.13950996227E+04 0.  0.
        5    1    3    3  502    0 -0.60154430628E+03 -0.22120258464E+03 -0.11275828136E+03  0.65078618292E+03  0.46999998093E+01 0.  1.
       -5    1    3    3    0  502  0.60154430628E+03  0.22120258464E+03 -0.76269086304E+03  0.99624574199E+03  0.46999998093E+01 0. -1.
</event>
<event>
 5   0  0.8609148E-04  0.1396942E+04  0.7818609E-02  0.8956035E-01
        1   -1    0    0  501    0  0.00000000000E+00  0.00000000000E+00  0.19291320339E+04  0.19291320339E+04  0.50400001928E-02 0.  1.
       -1   -1    0    0    0  501  0.00000000000E+00  0.00000000000E+00 -0.25289193215E+03  0.25289193220E+03  0.50400001928E-02 0. -1.
    10030    2    1    2    0    0  0.00000000000E+00  0.00000000000E+00  0.16762401017E+04  0.21820239661E+04  0.13969422715E+04 0.  0.
        5    1    3    3  502    0  0.59672048836E+02 -0.66684224377E+03  0.11489561317E+04  0.13297975839E+04  0.46999998093E+01 0.  1.
       -5    1    3    3    0  502 -0.59672048836E+02  0.66684224377E+03  0.52728397002E+03  0.85222638221E+03  0.46999998093E+01 0. -1.
</event>
<event>
 5   0  0.1648463E-03  0.1386429E+04  0.7818609E-02  0.8963701E-01
        2   -1    0    0  501    0  0.00000000000E+00  0.00000000000E+00  0.11001235673E+04  0.11001235673E+04  0.25500000920E-02 0. -1.
       -2   -1    0    0    0  501  0.00000000000E+00  0.00000000000E+00 -0.43681105768E+03  0.43681105768E+03  0.25500000920E-02 0.  1.
    10030    2    1    2    0    0  0.00000000000E+00  0.00000000000E+00  0.66331250959E+03  0.15369346250E+04  0.13864287057E+04 0.  0.
        1    1    3    3  502    0 -0.44019496670E+03  0.45020545187E+03  0.10194768638E+02  0.62973049072E+03  0.50400001928E-02 0.  1.
       -1    1    3    3    0  502  0.44019496670E+03 -0.45020545187E+03  0.65311774095E+03  0.90720413424E+03  0.50400001928E-02 0. -1.
</event>
<event>
 5   0  0.8609148E-04  0.1368546E+04  0.7818609E-02  0.8976907E-01
       -1   -1    0    0    0  501  0.00000000000E+00  0.00000000000E+00  0.67565128111E+03  0.67565128113E+03  0.50400001928E-02 0. -1.
        1   -1    0    0  501    0  0.00000000000E+00  0.00000000000E+00 -0.69300455052E+03  0.69300455054E+03  0.50400001928E-02 0.  1.
    10030    2    1    2    0    0  0.00000000000E+00  0.00000000000E+00 -0.17353269413E+02  0.13686558317E+04  0.13685458157E+04 0.  0.
        5    1    3    3  502    0  0.12366088058E+03 -0.63924683248E+03 -0.21911882514E+03  0.68699612499E+03  0.46999998093E+01 0.  1.
       -5    1    3    3    0  502 -0.12366088058E+03  0.63924683248E+03  0.20176555572E+03  0.68165970667E+03  0.46999998093E+01 0. -1.
</event>
<event>
 5   0  0.1578965E-03  0.1427986E+04  0.7818609E-02  0.8933806E-01
        2   -1    0    0  501    0  0.00000000000E+00  0.00000000000E+00  0.19848667414E+04  0.19848667414E+04  0.25500000920E-02 0. -1.
       -2   -1    0    0    0  501  0.00000000000E+00  0.00000000000E+00 -0.25683632450E+03  0.25683632452E+03  0.25500000920E-02 0.  1.
    10030    2    1    2    0    0  0.00000000000E+00  0.00000000000E+00  0.17280304169E+04  0.22417030659E+04  0.14279858242E+04 0.  0.
        2    1    3    3  502    0 -0.92096372348E+02  0.53045401804E+02 -0.24434915872E+03  0.26646213207E+03  0.25500000920E-02 0.  1.
       -2    1    3    3    0  502  0.92096372348E+02 -0.53045401804E+02  0.19723795756E+04  0.19752409338E+04  0.25500000920E-02 0. -1.
</event>
<event>
 5   0  0.9007180E-04  0.1448051E+04  0.7818609E-02  0.8919753E-01
        1   -1    0    0  501    0  0.00000000000E+00  0.00000000000E+00  0.16387823306E+04  0.16387823306E+04  0.50400001928E-02 0.  1.
       -1   -1    0    0    0  501  0.00000000000E+00  0.00000000000E+00 -0.31987937857E+03  0.31987937861E+03  0.50400001928E-02 0. -1.
    10030    2    1    2    0    0  0.00000000000E+00  0.00000000000E+00  0.13189029520E+04  0.19586617092E+04  0.14480506532E+04 0.  0.
        2    1    3    3  502    0 -0.48120666814E+03 -0.52602831318E+02 -0.68812988290E+02  0.48893981499E+03  0.25500000920E-02 0. -1.
       -2    1    3    3    0  502  0.48120666814E+03  0.52602831318E+02  0.13877159403E+04  0.14697218942E+04  0.25500000920E-02 0.  1.
</event>
<event>
 5   0  0.1605214E-03  0.1389690E+04  0.7818609E-02  0.8961315E-01
        2   -1    0    0  501    0  0.00000000000E+00  0.00000000000E+00  0.17260936086E+04  0.17260936086E+04  0.25500000920E-02 0.  1.
       -2   -1    0    0    0  501  0.00000000000E+00  0.00000000000E+00 -0.27971236257E+03  0.27971236259E+03  0.25500000920E-02 0. -1.
    10030    2    1    2    0    0  0.00000000000E+00  0.00000000000E+00  0.14463812461E+04  0.20058059712E+04  0.13896902120E+04 0.  0.
        5    1    3    3  502    0 -0.38680661622E+03  0.17036875387E+03  0.15191843827E+04  0.15768919270E+04  0.46999998093E+01 0.  1.
       -5    1    3    3    0  502  0.38680661622E+03 -0.17036875387E+03 -0.72803136660E+02  0.42891404425E+03  0.46999998093E+01 0. -1.
</event>
<event>
 5   0  0.1648213E-03  0.1405078E+04  0.7818609E-02  0.8950151E-01
        2   -1    0    0  501    0  0.00000000000E+00  0.00000000000E+00  0.71281415366E+03  0.71281415366E+03  0.25500000920E-02 0.  1.
       -2   -1    0    0    0  501  0.00000000000E+00  0.00000000000E+00 -0.69241243553E+03  0.69241243554E+03  0.25500000920E-02 0. -1.
    10030    2    1    2    0    0  0.00000000000E+00  0.00000000000E+00  0.20401718124E+02  0.14052265892E+04  0.14050784807E+04 0.  0.
        4    1    3    3  502    0  0.16846777552E+03  0.48744965481E+03 -0.46689367328E+03  0.69568661940E+03  0.12699999809E+01 0. -1.
       -4    1    3    3    0  502 -0.16846777552E+03 -0.48744965481E+03  0.48729539140E+03  0.70953996980E+03  0.12699999809E+01 0.  1.
</event>
<event>
 5   0  0.1648213E-03  0.1423116E+04  0.7818609E-02  0.8937254E-01
       -2   -1    0    0    0  501  0.00000000000E+00  0.00000000000E+00  0.57419823410E+03  0.57419823410E+03  0.25500000920E-02 0. -1.
        2   -1    0    0  501    0  0.00000000000E+00  0.00000000000E+00 -0.88177743549E+03  0.88177743549E+03  0.25500000920E-02 0.  1.
    10030    2    1    2    0    0  0.00000000000E+00  0.00000000000E+00 -0.30757920139E+03  0.14559756696E+04  0.14231163639E+04 0.  0.
        4    1    3    3  502    0 -0.61858632205E+03  0.20895376452E+03  0.13558877945E+03  0.66685578917E+03  0.12699999809E+01 0. -1.
       -4    1    3    3    0  502  0.61858632205E+03 -0.20895376452E+03 -0.44316798084E+03  0.78911988042E+03  0.12699999809E+01 0.  1.
</event>
<event>
 5   0  0.8609148E-04  0.1375365E+04  0.7818609E-02  0.8971847E-01
        1   -1    0    0  501    0  0.00000000000E+00  0.00000000000E+00  0.10283876267E+04  0.10283876267E+04  0.50400001928E-02 0. -1.
       -1   -1    0    0    0  501  0.00000000000E+00  0.00000000000E+00 -0.45985275484E+03  0.45985275486E+03  0.50400001928E-02 0.  1.
    10030    2    1    2    0    0  0.00000000000E+00  0.00000000000E+00  0.56853487184E+03  0.14882403816E+04  0.13753645091E+04 0.  0.
        5    1    3    3  502    0 -0.37781920795E+02  0.56386880062E+03  0.70822521673E+03  0.90607976772E+03  0.46999998093E+01 0. -1.
       -5    1    3    3    0  502  0.37781920795E+02 -0.56386880062E+03 -0.13969034489E+03  0.58216061384E+03  0.46999998093E+01 0.  1.
</event>
<event>
 5   0  0.6048000E-04  0.1387849E+04  0.7818609E-02  0.8962662E-01
       -3   -1    0    0    0  501  0.00000000000E+00  0.00000000000E+00  0.11215327695E+04  0.11215327741E+04  0.10100000352E+00 0.  1.
        3   -1    0    0  501    0  0.00000000000E+00  0.00000000000E+00 -0.42935077213E+03  0.42935078401E+03  0.10100000352E+00 0. -1.
    10030    2    1    2    0    0  0.00000000000E+00  0.00000000000E+00  0.69218199740E+03  0.15508835581E+04  0.13878486564E+04 0.  0.
        4    1    3    3  502    0 -0.47221135374E+03  0.34972642339E+03 -0.66371985368E+02  0.59135352130E+03  0.12699999809E+01 0. -1.
       -4    1    3    3    0  502  0.47221135374E+03 -0.34972642339E+03  0.75855398277E+03  0.95953003678E+03  0.12699999809E+01 0.  1.
</event>
<event>
 5   0  0.8609148E-04  0.1350948E+04  0.7818609E-02  0.8990111E-01
        1   -1    0    0  501    0  0.00000000000E+00  0.00000000000E+00  0.93495009791E+03  0.93495009793E+03  0.50400001928E-02 0.  1.
       -1   -1    0    0    0  501  0.00000000000E+00  0.00000000000E+00 -0.48801013435E+03  0.48801013438E+03  0.50400001928E-02 0. -1.
    10030    2    1    2    0    0  0.00000000000E+00  0.00000000000E+00  0.44693996356E+03  0.14229602323E+04  0.13509479974E+04 0.  0.
        5    1    3    3  502    0  0.59965394199E+03  0.76394489980E+02  0.54090133199E+03  0.81118266080E+03  0.46999998093E+01 0. -1.
       -5    1    3    3    0  502 -0.59965394199E+03 -0.76394489980E+02 -0.93961368425E+02  0.61177757150E+03  0.46999998093E+01 0.  1.
</event>
<event>
 5   0  0.1648463E-03  0.1393088E+04  0.7818609E-02  0.8958837E-01
       -2   -1    0    0    0  501  0.00000000000E+00  0.00000000000E+00  0.21782720909E+03  0.21782720910E+03  0.25500000920E-02 0.  1.
        2   -1    0    0  501    0  0.00000000000E+00  0.00000000000E+00 -0.22273309750E+04  0.22273309750E+04  0.25500000920E-02 0. -1.
    10030    2    1    2    0    0  0.00000000000E+00  0.00000000000E+00 -0.20095037660E+04  0.24451581842E+04  0.13930876355E+04 0.  0.
        1    1    3    3  502    0  0.19749007237E+03 -0.12156629561E+03  0.14807704724E+03  0.27514996794E+03  0.50400001928E-02 0.  1.
       -1    1    3    3    0  502 -0.19749007237E+03  0.12156629561E+03 -0.21575808132E+04  0.21700082162E+04  0.50400001928E-02 0. -1.
</event>
<event>
 5   0  0.1605214E-03  0.1409783E+04  0.7818609E-02  0.8946767E-01
        2   -1    0    0  501    0  0.00000000000E+00  0.00000000000E+00  0.68844905968E+03  0.68844905969E+03  0.25500000920E-02 0.  1.
       -2   -1    0    0    0  501  0.00000000000E+00  0.00000000000E+00 -0.72172708739E+03  0.72172708740E+03  0.25500000920E-02 0. -1.
    10030    2    1    2    0    0  0.00000000000E+00  0.00000000000E+00 -0.33278027709E+02  0.14101761471E+04  0.14097834368E+04 0.  0.
        5    1    3    3  502    0  0.76811077440E+02 -0.64435559748E+03 -0.29195406669E+03  0.71158509307E+03  0.46999998093E+01 0. -1.
       -5    1    3    3    0  502 -0.76811077440E+02  0.64435559748E+03  0.25867603898E+03  0.69859105402E+03  0.46999998093E+01 0.  1.
</event>
<event>
 5   0  0.8609148E-04  0.1387208E+04  0.7818609E-02  0.8963131E-01
        1   -1    0    0  501    0  0.00000000000E+00  0.00000000000E+00  0.48865022125E+03  0.48865022127E+03  0.50400001928E-02 0. -1.
       -1   -1    0    0    0  501  0.00000000000E+00  0.00000000000E+00 -0.98452102273E+03  0.98452102275E+03  0.50400001928E-02 0.  1.
    10030    2    1    2    0    0  0.00000000000E+00  0.00000000000E+00 -0.49587080148E+03  0.14731712440E+04  0.13872078656E+04 0.  0.
        5    1    3    3  502    0 -0.30553945595E+03  0.31359908617E+03  0.32332632209E+03  0.54429839844E+03  0.46999998093E+01 0. -1.
       -5    1    3    3    0  502  0.30553945595E+03 -0.31359908617E+03 -0.81919712358E+03  0.92887284558E+03  0.46999998093E+01 0.  1.
</event>
<event>
 5   0  0.1648213E-03  0.1391882E+04  0.7818609E-02  0.8959716E-01
       -2   -1    0    0    0  501  0.00000000000E+00  0.00000000000E+00  0.33428250476E+03  0.33428250477E+03  0.25500000920E-02 0.  1.
        2   -1    0    0  501    0  0.00000000000E+00  0.00000000000E+00 -0.14488760909E+04  0.14488760909E+04  0.25500000920E-02 0. -1.
    10030    2    1    2    0    0  0.00000000000E+00  0.00000000000E+00 -0.11145935861E+04  0.17831585957E+04  0.13918820766E+04 0.  0.
        4    1    3    3  502    0 -0.54237345249E+03  0.43596091365E+03 -0.57019956086E+03  0.89964439213E+03  0.12699999809E+01 0.  1.
       -4    1    3    3    0  502  0.54237345249E+03 -0.43596091365E+03 -0.54439402526E+03  0.88351420352E+03  0.12699999809E+01 0. -1.
</event>
<event>
 5   0  0.1648463E-03  0.1404912E+04  0.7818609E-02  0.8950271E-01
        2   -1    0    0  501    0  0.00000000000E+00  0.00000000000E+00  0.59713480331E+03  0.59713480332E+03  0.25500000920E-02 0.  1.
       -2   -1    0    0    0  501  0.00000000000E+00  0.00000000000E+00 -0.82635333533E+03  0.82635333533E+03  0.25500000920E-02 0. -1.
    10030    2    1    2    0    0  0.00000000000E+00  0.00000000000E+00 -0.22921853202E+03  0.14234881387E+04  0.14049118639E+04 0.  0.
        1    1    3    3  502    0  0.54765883268E+03 -0.41089605533E+03 -0.27378057116E+03  0.73737478019E+03  0.50400001928E-02 0.  1.
       -1    1    3    3    0  502 -0.54765883268E+03  0.41089605533E+03  0.44562039145E+02  0.68611335846E+03  0.50400001928E-02 0. -1.
</event>
<event>
 5   0  0.8673728E-04  0.1419562E+04  0.7818609E-02  0.8939779E-01
        1   -1    0    0  501    0  0.00000000000E+00  0.00000000000E+00  0.61857956308E+03  0.61857956310E+03  0.50400001928E-02 0. -1.
       -1   -1    0    0    0  501  0.00000000000E+00  0.00000000000E+00 -0.81442938967E+03  0.81442938968E+03  0.50400001928E-02 0.  1.
    10030    2    1    2    0    0  0.00000000000E+00  0.00000000000E+00 -0.19584982659E+03  0.14330089528E+04  0.14195624341E+04 0.  0.
        3    1    3    3  502    0 -0.26422990671E+03 -0.65698613943E+03 -0.49081318508E+02  0.70982900549E+03  0.10100000352E+00 0.  1.
       -3    1    3    3    0  502  0.26422990671E+03  0.65698613943E+03 -0.14676850808E+03  0.72317994729E+03  0.10100000352E+00 0. -1.
</event>
<event>
 5   0  0.1706986E-03  0.1393857E+04  0.7818609E-02  0.8958277E-01
       -2   -1    0    0    0  501  0.00000000000E+00  0.00000000000E+00  0.34878252714E+03  0.34878252715E+03  0.25500000920E-02 0. -1.
        2   -1    0    0  501    0  0.00000000000E+00  0.00000000000E+00 -0.13925857385E+04  0.13925857385E+04  0.25500000920E-02 0.  1.
    10030    2    1    2    0    0  0.00000000000E+00  0.00000000000E+00 -0.10438032113E+04  0.17413682656E+04  0.13938573430E+04 0.  0.
        3    1    3    3  502    0  0.57445264584E+03 -0.31846639497E+03 -0.23080058926E+03  0.69619365786E+03  0.10100000352E+00 0. -1.
       -3    1    3    3    0  502 -0.57445264584E+03  0.31846639497E+03 -0.81300262207E+03  0.10451746078E+04  0.10100000352E+00 0.  1.
</event>
<event>
 5   0  0.8673728E-04  0.1385113E+04  0.7818609E-02  0.8964666E-01
       -1   -1    0    0    0  501  0.00000000000E+00  0.00000000000E+00  0.19545058375E+03  0.19545058381E+03  0.50400001928E-02 0.  1.
        1   -1    0    0  501    0  0.00000000000E+00  0.00000000000E+00 -0.24539926606E+04  0.24539926606E+04  0.50400001928E-02 0. -1.
    10030    2    1    2    0    0  0.00000000000E+00  0.00000000000E+00 -0.22585420768E+04  0.26494432444E+04  0.13851127003E+04 0.  0.
        3    1    3    3  502    0  0.11865267494E+03  0.11366960615E+03 -0.24161674806E+04  0.24217482406E+04  0.10100000352E+00 0. -1.
       -3    1    3    3    0  502 -0.11865267494E+03 -0.11366960615E+03  0.15762540374E+03  0.22769500376E+03  0.10100000352E+00 0.  1.
</event>
<event>
 5   0  0.8609148E-04  0.1488368E+04  0.7818609E-02  0.8892225E-01
       -1   -1    0    0    0  501  0.00000000000E+00  0.00000000000E+00  0.34972055532E+03  0.34972055536E+03  0.50400001928E-02 0.  1.
        1   -1    0    0  501    0  0.00000000000E+00  0.00000000000E+00 -0.15835771999E+04  0.15835772000E+04  0.50400001928E-02 0. -1.
    10030    2    1    2    0    0  0.00000000000E+00  0.00000000000E+00 -0.12338566446E+04  0.19332977553E+04  0.14883675592E+04 0.  0.
        5    1    3    3  502    0  0.81710044195E+02 -0.46741018611E+03 -0.13615708459E+04  0.14418897572E+04  0.46999998093E+01 0. -1.
       -5    1    3    3    0  502 -0.81710044195E+02  0.46741018611E+03  0.12771420131E+03  0.49140799812E+03  0.46999998093E+01 0.  1.
</event>
<event>
 5   0  0.9639548E-04  0.1392007E+04  0.7818609E-02  0.8959625E-01
       -1   -1    0    0    0  501  0.00000000000E+00  0.00000000000E+00  0.75024672729E+03  0.75024672731E+03  0.50400001928E-02 0. -1.
        1   -1    0    0  501    0  0.00000000000E+00  0.00000000000E+00 -0.64568196361E+03  0.64568196363E+03  0.50400001928E-02 0.  1.
    10030    2    1    2    0    0  0.00000000000E+00  0.00000000000E+00  0.10456476368E+03  0.13959286909E+04  0.13920068679E+04 0.  0.
        1    1    3    3  502    0  0.19267679475E+03  0.66847944614E+03  0.73117416647E+02  0.69952503443E+03  0.50400001928E-02 0. -1.
       -1    1    3    3    0  502 -0.19267679475E+03 -0.66847944614E+03  0.31447347032E+02  0.69640365652E+03  0.50400001928E-02 0.  1.
</event>
<event>
 5   0  0.9639548E-04  0.1394200E+04  0.7818609E-02  0.8958027E-01
       -1   -1    0    0    0  501  0.00000000000E+00  0.00000000000E+00  0.27781122707E+03  0.27781122711E+03  0.50400001928E-02 0.  1.
        1   -1    0    0  501    0  0.00000000000E+00  0.00000000000E+00 -0.17492041409E+04  0.17492041409E+04  0.50400001928E-02 0. -1.
    10030    2    1    2    0    0  0.00000000000E+00  0.00000000000E+00 -0.14713929138E+04  0.20270153680E+04  0.13942001991E+04 0.  0.
        1    1    3    3  502    0 -0.82772573860E+02  0.10677739835E+03 -0.17299877882E+04  0.17352551568E+04  0.50400001928E-02 0. -1.
       -1    1    3    3    0  502  0.82772573860E+02 -0.10677739835E+03  0.25859487438E+03  0.29176021123E+03  0.50400001928E-02 0.  1.
</event>
<event>
 5   0  0.1706986E-03  0.1408405E+04  0.7818609E-02  0.8947757E-01
       -2   -1    0    0    0  501  0.00000000000E+00  0.00000000000E+00  0.48852383647E+03  0.48852383648E+03  0.25500000920E-02 0. -1.
        2   -1    0    0  501    0  0.00000000000E+00  0.00000000000E+00 -0.10151008244E+04  0.10151008244E+04  0.25500000920E-02 0.  1.
    10030    2    1    2    0    0  0.00000000000E+00  0.00000000000E+00 -0.52657698789E+03  0.15036246608E+04  0.14084046991E+04 0.  0.
        3    1    3    3  502    0 -0.49957815196E+03  0.47811153266E+03 -0.12112421553E+03  0.70202567856E+03  0.10100000352E+00 0. -1.
       -3    1    3    3    0  502  0.49957815196E+03 -0.47811153266E+03 -0.40545277236E+03  0.80159898228E+03  0.10100000352E+00 0.  1.
</event>
<event>
 5   0  0.9639548E-04  0.1319838E+04  0.7818609E-02  0.9013980E-01
       -1   -1    0    0    0  501  0.00000000000E+00  0.00000000000E+00  0.48299253690E+03  0.48299253692E+03  0.50400001928E-02 0.  1.
        1   -1    0    0  501    0  0.00000000000E+00  0.00000000000E+00 -0.90165613297E+03  0.90165613298E+03  0.50400001928E-02 0. -1.
    10030    2    1    2    0    0  0.00000000000E+00  0.00000000000E+00 -0.41866359607E+03  0.13846486699E+04  0.13198381463E+04 0.  0.
        1    1    3    3  502    0  0.13366866966E+03  0.27224303259E+03  0.40554535538E+03  0.50640953520E+03  0.50400001928E-02 0.  1.
       -1    1    3    3    0  502 -0.13366866966E+03 -0.27224303259E+03 -0.82420895146E+03  0.87823913471E+03  0.50400001928E-02 0. -1.
</event>
<event>
 5   0  0.9007180E-04  0.1397614E+04  0.7818609E-02  0.8955548E-01
       -1   -1    0    0    0  501  0.00000000000E+00  0.00000000000E+00  0.54596330675E+03  0.54596330678E+03  0.50400001928E-02 0. -1.
        1   -1    0    0  501    0  0.00000000000E+00  0.00000000000E+00 -0.89443923216E+03  0.89443923217E+03  0.50400001928E-02 0.  1.
    10030    2    1    2    0    0  0.00000000000E+00  0.00000000000E+00 -0.34847592540E+03  0.14404025389E+04  0.13976136818E+04 0.  0.
        2    1    3    3  502    0  0.39429582243E+03  0.57019717807E+03 -0.83584881844E+02  0.69826961121E+03  0.25500000920E-02 0.  1.
       -2    1    3    3    0  502 -0.39429582243E+03 -0.57019717807E+03 -0.26489104356E+03  0.74213292773E+03  0.25500000920E-02 0. -1.
</event>
<event>
 5   0  0.8609148E-04  0.1355372E+04  0.7818609E-02  0.8986772E-01
        1   -1    0    0  501    0  0.00000000000E+00  0.00000000000E+00  0.11157664256E+04  0.11157664256E+04  0.50400001928E-02 0.  1.
       -1   -1    0    0    0  501  0.00000000000E+00  0.00000000000E+00 -0.41160780831E+03  0.41160780835E+03  0.50400001928E-02 0. -1.
    10030    2    1    2    0    0  0.00000000000E+00  0.00000000000E+00  0.70415861725E+03  0.15273742339E+04  0.13553717911E+04 0.  0.
        5    1    3    3  502    0  0.15114700030E+03  0.10720440262E+03 -0.38248411785E+03  0.42503457511E+03  0.46999998093E+01 0. -1.
       -5    1    3    3    0  502 -0.15114700030E+03 -0.10720440262E+03  0.10866427351E+04  0.11023396588E+04  0.46999998093E+01 0.  1.
</event>
<event>
 5   0  0.1648463E-03  0.1376554E+04  0.7818609E-02  0.8970967E-01
       -2   -1    0    0    0  501  0.00000000000E+00  0.00000000000E+00  0.32184095086E+03  0.32184095087E+03  0.25500000920E-02 0. -1.
        2   -1    0    0  501    0  0.00000000000E+00  0.00000000000E+00 -0.14719231916E+04  0.14719231916E+04  0.25500000920E-02 0.  1.
    10030    2    1    2    0    0  0.00000000000E+00  0.00000000000E+00 -0.11500822408E+04  0.17937641425E+04  0.13765538996E+04 0.  0.
        1    1    3    3  502    0 -0.33158985541E+02  0.18182630751E+03 -0.14389811323E+04  0.14508022000E+04  0.50400001928E-02 0.  1.
       -1    1    3    3    0  502  0.33158985541E+02 -0.18182630751E+03  0.28889889154E+03  0.34296194247E+03  0.50400001928E-02 0. -1.
</event>
<event>
 5   0  0.1706986E-03  0.1396612E+04  0.7818609E-02  0.8956274E-01
       -2   -1    0    0    0  501  0.00000000000E+00  0.00000000000E+00  0.64762246305E+03  0.64762246305E+03  0.25500000920E-02 0.  1.
        2   -1    0    0  501    0  0.00000000000E+00  0.00000000000E+00 -0.75295642211E+03  0.75295642211E+03  0.25500000920E-02 0. -1.
    10030    2    1    2    0    0  0.00000000000E+00  0.00000000000E+00 -0.10533395906E+03  0.14005788852E+04  0.13966123194E+04 0.  0.
        3    1    3    3  502    0  0.29536142990E+03  0.58278935927E+03 -0.29984148331E+03  0.71887880541E+03  0.10100000352E+00 0. -1.
       -3    1    3    3    0  502 -0.29536142990E+03 -0.58278935927E+03  0.19450752425E+03  0.68170007976E+03  0.10100000352E+00 0.  1.
</event>
<event>
 5   0  0.8502300E-04  0.1408763E+04  0.7818609E-02  0.8947499E-01
       -1   -1    0    0    0  501  0.00000000000E+00  0.00000000000E+00  0.73484133235E+03  0.73484133237E+03  0.50400001928E-02 0.  1.
        1   -1    0    0  501    0  0.00000000000E+00  0.00000000000E+00 -0.67518470465E+03  0.67518470467E+03  0.50400001928E-02 0. -1.
    10030    2    1    2    0    0  0.00000000000E+00  0.00000000000E+00  0.59656627698E+02  0.14100260370E+04  0.14087634691E+04 0.  0.
        4    1    3    3  502    0 -0.93306917782E+02 -0.68820626009E+03 -0.87826931885E+02  0.70003515640E+03  0.12699999809E+01 0.  1.
       -4    1    3    3    0  502  0.93306917782E+02  0.68820626009E+03  0.14748355958E+03  0.70999088063E+03  0.12699999809E+01 0. -1.
</event>
<event>
 5   0  0.9007180E-04  0.1406915E+04  0.7818609E-02  0.8948829E-01
       -1   -1    0    0    0  501  0.00000000000E+00  0.00000000000E+00  0.73206689869E+03  0.73206689871E+03  0.50400001928E-02 0.  1.
        1   -1    0    0  501    0  0.00000000000E+00  0.00000000000E+00 -0.67596582595E+03  0.67596582596E+03  0.50400001928E-02 0. -1.
    10030    2    1    2    0    0  0.00000000000E+00  0.00000000000E+00  0.56101072748E+02  0.14080327247E+04  0.14069146468E+04 0.  0.
        2    1    3    3  502    0  0.18724952780E+03  0.50401085098E+03 -0.42592088627E+03  0.68592851299E+03  0.25500000920E-02 0. -1.
       -2    1    3    3    0  502 -0.18724952780E+03 -0.50401085098E+03  0.48202195901E+03  0.72210421169E+03  0.25500000920E-02 0.  1.
</event>
<event>
 5   0  0.8502300E-04  0.1479393E+04  0.7818609E-02  0.8898273E-01
        1   -1    0    0  501    0  0.00000000000E+00  0.00000000000E+00  0.98005559848E+03  0.98005559849E+03  0.50400001928E-02 0.  1.
       -1   -1    0    0    0  501  0.00000000000E+00  0.00000000000E+00 -0.55828544062E+03  0.55828544064E+03  0.50400001928E-02 0. -1.
    10030    2    1    2    0    0  0.00000000000E+00  0.00000000000E+00  0.42177015786E+03  0.15383410391E+04  0.14793928101E+04 0.  0.
        4    1    3    3  502    0  0.24355974596E+03  0.78718245911E+02 -0.51076464497E+03  0.57131431589E+03  0.12699999809E+01 0. -1.
       -4    1    3    3    0  502 -0.24355974596E+03 -0.78718245911E+02  0.93253480283E+03  0.96702672325E+03  0.12699999809E+01 0.  1.
</event>
<event>
 5   0  0.8673728E-04  0.1413362E+04  0.7818609E-02  0.8944203E-01
       -1   -1    0    0    0  501  0.00000000000E+00  0.00000000000E+00  0.36181587213E+03  0.36181587217E+03  0.50400001928E-02 0.  1.
        1   -1    0    0  501    0  0.00000000000E+00  0.00000000000E+00 -0.13802545622E+04  0.13802545622E+04  0.50400001928E-02 0. -1.
    10030    2    1    2    0    0  0.00000000000E+00  0.00000000000E+00 -0.10184386901E+04  0.17420704344E+04  0.14133619610E+04 0.  0.
        3    1    3    3  502    0  0.64503458379E+03 -0.13437374062E+02 -0.86463597697E+03  0.10788167408E+04  0.10100000352E+00 0. -1.
       -3    1    3    3    0  502 -0.64503458379E+03  0.13437374062E+02 -0.15380271309E+03  0.66325369359E+03  0.10100000352E+00 0.  1.
</event>
<event>
 5   0  0.6048000E-04  0.1399615E+04  0.7818609E-02  0.8954097E-01
       -3   -1    0    0    0  501  0.00000000000E+00  0.00000000000E+00  0.42449420737E+03  0.42449421939E+03  0.10100000352E+00 0. -1.
        3   -1    0    0  501    0  0.00000000000E+00  0.00000000000E+00 -0.11536807172E+04  0.11536807216E+04  0.10100000352E+00 0.  1.
    10030    2    1    2    0    0  0.00000000000E+00  0.00000000000E+00 -0.72918650978E+03  0.15781749410E+04  0.13996153680E+04 0.  0.
        3    1    3    3  502    0 -0.23685675420E+02 -0.18595921027E+03 -0.11248422869E+04  0.11403560934E+04  0.10100000352E+00 0.  1.
       -3    1    3    3    0  502  0.23685675420E+02  0.18595921027E+03  0.39565577714E+03  0.43781884757E+03  0.10100000352E+00 0. -1.
</event>
<event>
 5   0  0.9639548E-04  0.1118302E+04  0.7818609E-02  0.9187535E-01
       -1   -1    0    0    0  501  0.00000000000E+00  0.00000000000E+00  0.62354305336E+03  0.62354305338E+03  0.50400001928E-02 0.  1.
        1   -1    0    0  501    0  0.00000000000E+00  0.00000000000E+00 -0.50140848737E+03  0.50140848739E+03  0.50400001928E-02 0. -1.
    10030    2    1    2    0    0  0.00000000000E+00  0.00000000000E+00  0.12213456600E+03  0.11249515408E+04  0.11183018899E+04 0.  0.
        1    1    3    3  502    0  0.49759065550E+02 -0.38953344174E+03 -0.33934165515E+03  0.51900387839E+03  0.50400001928E-02 0. -1.
       -1    1    3    3    0  502 -0.49759065550E+02  0.38953344174E+03  0.46147622114E+03  0.60594766238E+03  0.50400001928E-02 0.  1.
</event>
<event>
 5   0  0.1648213E-03  0.1384669E+04  0.7818609E-02  0.8964991E-01
        2   -1    0    0  501    0  0.00000000000E+00  0.00000000000E+00  0.11670404944E+04  0.11670404944E+04  0.25500000920E-02 0. -1.
       -2   -1    0    0    0  501  0.00000000000E+00  0.00000000000E+00 -0.41072034621E+03  0.41072034622E+03  0.25500000920E-02 0.  1.
    10030    2    1    2    0    0  0.00000000000E+00  0.00000000000E+00  0.75632014815E+03  0.15777608406E+04  0.13846693120E+04 0.  0.
        4    1    3    3  502    0  0.30340966095E+03  0.12551049280E+03  0.10726780499E+04  0.11218066312E+04  0.12699999809E+01 0. -1.
       -4    1    3    3    0  502 -0.30340966095E+03 -0.12551049280E+03 -0.31635790175E+03  0.45595420939E+03  0.12699999809E+01 0.  1.
</event>
<event>
 5   0  0.1648213E-03  0.1596525E+04  0.7818609E-02  0.8822686E-01
       -2   -1    0    0    0  501  0.00000000000E+00  0.00000000000E+00  0.45751084131E+03  0.45751084131E+03  0.25500000920E-02 0.  1.
        2   -1    0    0  501    0  0.00000000000E+00  0.00000000000E+00 -0.13928034273E+04  0.13928034273E+04  0.25500000920E-02 0. -1.
    10030    2    1    2    0    0  0.00000000000E+00  0.00000000000E+00 -0.93529258604E+03  0.18503142687E+04  0.15965245602E+04 0.  0.
        4    1    3    3  502    0 -0.51434203442E+03  0.60216148064E+03 -0.58397577318E+03  0.98395909147E+03  0.12699999809E+01 0. -1.
       -4    1    3    3    0  502  0.51434203442E+03 -0.60216148064E+03 -0.35131681287E+03  0.86635517719E+03  0.12699999809E+01 0.  1.
</event>
<event>
 5   0  0.9639548E-04  0.1411343E+04  0.7818609E-02  0.8945649E-01
        1   -1    0    0  501    0  0.00000000000E+00  0.00000000000E+00  0.75047562868E+03  0.75047562870E+03  0.50400001928E-02 0. -1.
       -1   -1    0    0    0  501  0.00000000000E+00  0.00000000000E+00 -0.66354178616E+03  0.66354178617E+03  0.50400001928E-02 0.  1.
    10030    2    1    2    0    0  0.00000000000E+00  0.00000000000E+00  0.86933842525E+02  0.14140174149E+04  0.14113425369E+04 0.  0.
        1    1    3    3  502    0  0.30284749806E+02  0.45969169190E+03 -0.49209115354E+03  0.67408257736E+03  0.50400001928E-02 0.  1.
       -1    1    3    3    0  502 -0.30284749806E+02 -0.45969169190E+03  0.57902499607E+03  0.73993483752E+03  0.50400001928E-02 0. -1.
</event>
<event>
 5   0  0.8502300E-04  0.1404809E+04  0.7818609E-02  0.8950345E-01
       -1   -1    0    0    0  501  0.00000000000E+00  0.00000000000E+00  0.72504000323E+03  0.72504000325E+03  0.50400001928E-02 0.  1.
        1   -1    0    0  501    0  0.00000000000E+00  0.00000000000E+00 -0.68047562581E+03  0.68047562583E+03  0.50400001928E-02 0. -1.
    10030    2    1    2    0    0  0.00000000000E+00  0.00000000000E+00  0.44564377424E+02  0.14055156291E+04  0.14048089549E+04 0.  0.
        4    1    3    3  502    0  0.42960250334E+03 -0.49732733351E+03 -0.22578940667E+03  0.69489226258E+03  0.12699999809E+01 0. -1.
       -4    1    3    3    0  502 -0.42960250334E+03  0.49732733351E+03  0.27035378409E+03  0.71062336650E+03  0.12699999809E+01 0.  1.
</event>
<event>
 5   0  0.1648213E-03  0.1401833E+04  0.7818609E-02  0.8952493E-01
       -2   -1    0    0    0  501  0.00000000000E+00  0.00000000000E+00  0.84635109773E+03  0.84635109773E+03  0.25500000920E-02 0. -1.
        2   -1    0    0  501    0  0.00000000000E+00  0.00000000000E+00 -0.58047330569E+03  0.58047330570E+03  0.25500000920E-02 0.  1.
    10030    2    1    2    0    0  0.00000000000E+00  0.00000000000E+00  0.26587779204E+03  0.14268244034E+04  0.14018333988E+04 0.  0.
        4    1    3    3  502    0 -0.42769405976E+03  0.55494784121E+03  0.11275377631E+03  0.70965085936E+03  0.12699999809E+01 0. -1.
       -4    1    3    3    0  502  0.42769405976E+03 -0.55494784121E+03  0.15312401573E+03  0.71717354407E+03  0.12699999809E+01 0.  1.
</event>
<event>
 5   0  0.1648213E-03  0.1357562E+04  0.7818609E-02  0.8985123E-01
        2   -1    0    0  501    0  0.00000000000E+00  0.00000000000E+00  0.80267656291E+03  0.80267656291E+03  0.25500000920E-02 0. -1.
       -2   -1    0    0    0  501  0.00000000000E+00  0.00000000000E+00 -0.57400903610E+03  0.57400903611E+03  0.25500000920E-02 0.  1.
    10030    2    1    2    0    0  0.00000000000E+00  0.00000000000E+00  0.22866752680E+03  0.13766855990E+04  0.13575619326E+04 0.  0.
        4    1    3    3  502    0  0.23158278707E+03  0.53942816725E+03 -0.23124322153E+03  0.63094245006E+03  0.12699999809E+01 0.  1.
       -4    1    3    3    0  502 -0.23158278707E+03 -0.53942816725E+03  0.45991074833E+03  0.74574314896E+03  0.12699999809E+01 0. -1.
</event>
<event>
 5   0  0.1605214E-03  0.1364374E+04  0.7818609E-02  0.8980018E-01
        2   -1    0    0  501    0  0.00000000000E+00  0.00000000000E+00  0.46375503332E+03  0.46375503332E+03  0.25500000920E-02 0. -1.
       -2   -1    0    0    0  501  0.00000000000E+00  0.00000000000E+00 -0.10035021307E+04  0.10035021307E+04  0.25500000920E-02 0.  1.
    10030    2    1    2    0    0  0.00000000000E+00  0.00000000000E+00 -0.53974709734E+03  0.14672571640E+04  0.13643740895E+04 0.  0.
        5    1    3    3  502    0  0.94709762673E+02  0.67294988001E+03 -0.33372766775E+03  0.75711803992E+03  0.46999998093E+01 0. -1.
       -5    1    3    3    0  502 -0.94709762673E+02 -0.67294988001E+03 -0.20601942958E+03  0.71013912406E+03  0.46999998093E+01 0.  1.
</event>
<event>
 5   0  0.1648463E-03  0.1379830E+04  0.7818609E-02  0.8968549E-01
        2   -1    0    0  501    0  0.00000000000E+00  0.00000000000E+00  0.13372203989E+04  0.13372203989E+04  0.25500000920E-02 0.  1.
       -2   -1    0    0    0  501  0.00000000000E+00  0.00000000000E+00 -0.35594932519E+03  0.35594932520E+03  0.25500000920E-02 0. -1.
    10030    2    1    2    0    0  0.00000000000E+00  0.00000000000E+00  0.98127107376E+03  0.16931697241E+04  0.13798299876E+04 0.  0.
        1    1    3    3  502    0  0.43220201150E+03 -0.33555320750E+03  0.10062863556E+04  0.11454286374E+04  0.50400001928E-02 0.  1.
       -1    1    3    3    0  502 -0.43220201150E+03  0.33555320750E+03 -0.25015281835E+02  0.54774108679E+03  0.50400001928E-02 0. -1.
</event>
<event>
 5   0  0.8609148E-04  0.1398239E+04  0.7818609E-02  0.8955095E-01
       -1   -1    0    0    0  501  0.00000000000E+00  0.00000000000E+00  0.35204881830E+03  0.35204881833E+03  0.50400001928E-02 0. -1.
        1   -1    0    0  501    0  0.00000000000E+00  0.00000000000E+00 -0.13883521491E+04  0.13883521491E+04  0.50400001928E-02 0.  1.
    10030    2    1    2    0    0  0.00000000000E+00  0.00000000000E+00 -0.10363033308E+04  0.17404009674E+04  0.13982385111E+04 0.  0.
        5    1    3    3  502    0 -0.53239011903E+03  0.32423583157E+03 -0.12419067860E+03  0.63562058491E+03  0.46999998093E+01 0. -1.
       -5    1    3    3    0  502  0.53239011903E+03 -0.32423583157E+03 -0.91211265217E+03  0.11047803825E+04  0.46999998093E+01 0.  1.
</event>
<event>
 5   0  0.1605214E-03  0.1322991E+04  0.7818609E-02  0.9011530E-01
        2   -1    0    0  501    0  0.00000000000E+00  0.00000000000E+00  0.11168261749E+04  0.11168261749E+04  0.25500000920E-02 0.  1.
       -2   -1    0    0    0  501  0.00000000000E+00  0.00000000000E+00 -0.39180314980E+03  0.39180314981E+03  0.25500000920E-02 0. -1.
    10030    2    1    2    0    0  0.00000000000E+00  0.00000000000E+00  0.72502302512E+03  0.15086293247E+04  0.13229905716E+04 0.  0.
        5    1    3    3  502    0 -0.12303876716E+02 -0.43263981526E+02 -0.39003823689E+03  0.39265133861E+03  0.46999998093E+01 0. -1.
       -5    1    3    3    0  502  0.12303876716E+02  0.43263981526E+02  0.11150612620E+04  0.11159779861E+04  0.46999998093E+01 0.  1.
</event>
<event>
 5   0  0.9007180E-04  0.1433540E+04  0.7818609E-02  0.8929892E-01
       -1   -1    0    0    0  501  0.00000000000E+00  0.00000000000E+00  0.77508418981E+03  0.77508418983E+03  0.50400001928E-02 0.  1.
        1   -1    0    0  501    0  0.00000000000E+00  0.00000000000E+00 -0.66284287572E+03  0.66284287574E+03  0.50400001928E-02 0. -1.
    10030    2    1    2    0    0  0.00000000000E+00  0.00000000000E+00  0.11224131409E+03  0.14379270656E+04  0.14335397216E+04 0.  0.
        2    1    3    3  502    0 -0.33165012711E+03 -0.61793598408E+03  0.20463576728E+03  0.73055628428E+03  0.25500000920E-02 0.  1.
       -2    1    3    3    0  502  0.33165012711E+03  0.61793598408E+03 -0.92394453190E+02  0.70737078129E+03  0.25500000920E-02 0. -1.
</event>
<event>
 5   0  0.1605214E-03  0.1194813E+04  0.7818609E-02  0.9117409E-01
       -2   -1    0    0    0  501  0.00000000000E+00  0.00000000000E+00  0.40705482304E+03  0.40705482305E+03  0.25500000920E-02 0.  1.
        2   -1    0    0  501    0  0.00000000000E+00  0.00000000000E+00 -0.87677228647E+03  0.87677228647E+03  0.25500000920E-02 0. -1.
    10030    2    1    2    0    0  0.00000000000E+00  0.00000000000E+00 -0.46971746342E+03  0.12838271095E+04  0.11948127685E+04 0.  0.
        5    1    3    3  502    0 -0.12874424187E+03 -0.56588112750E+03 -0.82613826763E+02  0.58621127987E+03  0.46999998093E+01 0.  1.
       -5    1    3    3    0  502  0.12874424187E+03  0.56588112750E+03 -0.38710363666E+03  0.69761582966E+03  0.46999998093E+01 0. -1.
</event>
<event>
 5   0  0.8673728E-04  0.1390494E+04  0.7818609E-02  0.8960728E-01
        1   -1    0    0  501    0  0.00000000000E+00  0.00000000000E+00  0.11436029645E+04  0.11436029645E+04  0.50400001928E-02 0. -1.
       -1   -1    0    0    0  501  0.00000000000E+00  0.00000000000E+00 -0.42267171956E+03  0.42267171959E+03  0.50400001928E-02 0.  1.
    10030    2    1    2    0    0  0.00000000000E+00  0.00000000000E+00  0.72093124492E+03  0.15662746841E+04  0.13904943459E+04 0.  0.
        3    1    3    3  502    0 -0.20131271583E+02 -0.20797881266E+03  0.11073974526E+04  0.11269381451E+04  0.10100000352E+00 0. -1.
       -3    1    3    3    0  502  0.20131271583E+02  0.20797881266E+03 -0.38646620769E+03  0.43933653899E+03  0.10100000352E+00 0.  1.
</event>
<event>
 5   0  0.8502300E-04  0.1380240E+04  0.7818609E-02  0.8968248E-01
        1   -1    0    0  501    0  0.00000000000E+00  0.00000000000E+00  0.48198640930E+03  0.48198640933E+03  0.50400001928E-02 0.  1.
       -1   -1    0    0    0  501  0.00000000000E+00  0.00000000000E+00 -0.98813011671E+03  0.98813011672E+03  0.50400001928E-02 0. -1.
    10030    2    1    2    0    0  0.00000000000E+00  0.00000000000E+00 -0.50614370741E+03  0.14701165260E+04  0.13802395254E+04 0.  0.
        4    1    3    3  502    0 -0.48631488897E+03  0.42613449878E+03 -0.50996360552E+03  0.82350305047E+03  0.12699999809E+01 0. -1.
       -4    1    3    3    0  502  0.48631488897E+03 -0.42613449878E+03  0.38198981100E+01  0.64661347558E+03  0.12699999809E+01 0.  1.
</event>
<event>
 5   0  0.8673728E-04  0.1410088E+04  0.7818609E-02  0.8946549E-01
        1   -1    0    0  501    0  0.00000000000E+00  0.00000000000E+00  0.15891578587E+04  0.15891578587E+04  0.50400001928E-02 0.  1.
       -1   -1    0    0    0  501  0.00000000000E+00  0.00000000000E+00 -0.31279905255E+03  0.31279905259E+03  0.50400001928E-02 0. -1.
    10030    2    1    2    0    0  0.00000000000E+00  0.00000000000E+00  0.12763588062E+04  0.19019569113E+04  0.14100880435E+04 0.  0.
        3    1    3    3  502    0  0.67516047793E+03  0.15528273118E+03  0.81472907024E+03  0.10694568087E+04  0.10100000352E+00 0. -1.
       -3    1    3    3    0  502 -0.67516047793E+03 -0.15528273118E+03  0.46162973592E+03  0.83250010261E+03  0.10100000352E+00 0.  1.
</event>
<event>
 5   0  0.8673728E-04  0.1377223E+04  0.7818609E-02  0.8970473E-01
       -1   -1    0    0    0  501  0.00000000000E+00  0.00000000000E+00  0.39358585833E+03  0.39358585836E+03  0.50400001928E-02 0. -1.
        1   -1    0    0  501    0  0.00000000000E+00  0.00000000000E+00 -0.12047833478E+04  0.12047833478E+04  0.50400001928E-02 0.  1.
    10030    2    1    2    0    0  0.00000000000E+00  0.00000000000E+00 -0.81119748948E+03  0.15983692062E+04  0.13772228405E+04 0.  0.
        3    1    3    3  502    0  0.18228806814E+03 -0.40795859771E+03  0.20248730498E+03  0.49057137718E+03  0.10100000352E+00 0. -1.
       -3    1    3    3    0  502 -0.18228806814E+03  0.40795859771E+03 -0.10136847945E+04  0.11077978290E+04  0.10100000352E+00 0.  1.
</event>
<event>
 5   0  0.1578965E-03  0.1400936E+04  0.7818609E-02  0.8953141E-01
       -2   -1    0    0    0  501  0.00000000000E+00  0.00000000000E+00  0.31336177469E+03  0.31336177470E+03  0.25500000920E-02 0. -1.
        2   -1    0    0  501    0  0.00000000000E+00  0.00000000000E+00 -0.15657798994E+04  0.15657798994E+04  0.25500000920E-02 0.  1.
    10030    2    1    2    0    0  0.00000000000E+00  0.00000000000E+00 -0.12524181247E+04  0.18791416741E+04  0.14009362128E+04 0.  0.
        2    1    3    3  502    0 -0.87492541337E+02  0.41720818869E+03 -0.13717590944E+04  0.14364681098E+04  0.25500000920E-02 0.  1.
       -2    1    3    3    0  502  0.87492541337E+02 -0.41720818869E+03  0.11934096964E+03  0.44267356432E+03  0.25500000920E-02 0. -1.
</event>
<event>
 5   0  0.8609148E-04  0.1392721E+04  0.7818609E-02  0.8959104E-01
        1   -1    0    0  501    0  0.00000000000E+00  0.00000000000E+00  0.36162421881E+03  0.36162421885E+03  0.50400001928E-02 0. -1.
       -1   -1    0    0    0  501  0.00000000000E+00  0.00000000000E+00 -0.13409440750E+04  0.13409440750E+04  0.50400001928E-02 0.  1.
    10030    2    1    2    0    0  0.00000000000E+00  0.00000000000E+00 -0.97931985620E+03  0.17025682939E+04  0.13927208674E+04 0.  0.
        5    1    3    3  502    0 -0.45846668207E+03 -0.38179916694E+03 -0.50701613811E+02  0.59879466103E+03  0.46999998093E+01 0. -1.
       -5    1    3    3    0  502  0.45846668207E+03  0.38179916694E+03 -0.92861824239E+03  0.11037736328E+04  0.46999998093E+01 0.  1.
</event>
<event>
 5   0  0.9007180E-04  0.1372319E+04  0.7818609E-02  0.8974103E-01
        1   -1    0    0  501    0  0.00000000000E+00  0.00000000000E+00  0.85581203433E+03  0.85581203434E+03  0.50400001928E-02 0.  1.
       -1   -1    0    0    0  501  0.00000000000E+00  0.00000000000E+00 -0.55013837952E+03  0.55013837954E+03  0.50400001928E-02 0. -1.
    10030    2    1    2    0    0  0.00000000000E+00  0.00000000000E+00  0.30567365481E+03  0.14059504139E+04  0.13723192715E+04 0.  0.
        2    1    3    3  502    0 -0.27589801828E+01 -0.40922408198E+03 -0.41142658506E+03  0.58029630031E+03  0.25500000920E-02 0. -1.
       -2    1    3    3    0  502  0.27589801828E+01  0.40922408198E+03  0.71710023987E+03  0.82565411358E+03  0.25500000920E-02 0.  1.
</event>
<event>
 5   0  0.8673728E-04  0.1399997E+04  0.7818609E-02  0.8953821E-01
        1   -1    0    0  501    0  0.00000000000E+00  0.00000000000E+00  0.77774150866E+03  0.77774150868E+03  0.50400001928E-02 0. -1.
       -1   -1    0    0    0  501  0.00000000000E+00  0.00000000000E+00 -0.63002661542E+03  0.63002661544E+03  0.50400001928E-02 0.  1.
    10030    2    1    2    0    0  0.00000000000E+00  0.00000000000E+00  0.14771489324E+03  0.14077681241E+04  0.13999969291E+04 0.  0.
        3    1    3    3  502    0  0.18725055350E+03 -0.87027456847E+02  0.74642087206E+03  0.77445508358E+03  0.10100000352E+00 0. -1.
       -3    1    3    3    0  502 -0.18725055350E+03  0.87027456847E+02 -0.59870597882E+03  0.63331304054E+03  0.10100000352E+00 0.  1.
</event>
<event>
 5   0  0.1648463E-03  0.1412068E+04  0.7818609E-02  0.8945129E-01
        2   -1    0    0  501    0  0.00000000000E+00  0.00000000000E+00  0.87773516698E+03  0.87773516699E+03  0.25500000920E-02 0.  1.
       -2   -1    0    0    0  501  0.00000000000E+00  0.00000000000E+00 -0.56792101151E+03  0.56792101152E+03  0.25500000920E-02 0. -1.
    10030    2    1    2    0    0  0.00000000000E+00  0.00000000000E+00  0.30981415547E+03  0.14456561785E+04  0.14120683325E+04 0.  0.
        1    1    3    3  502    0  0.61407093358E+02 -0.44129935127E+03  0.71562828326E+03  0.84299453638E+03  0.50400001928E-02 0.  1.
       -1    1    3    3    0  502 -0.61407093358E+02  0.44129935127E+03 -0.40581412779E+03  0.60266164212E+03  0.50400001928E-02 0. -1.
</event>
<event>
 5   0  0.1578965E-03  0.1416696E+04  0.7818609E-02  0.8941821E-01
        2   -1    0    0  501    0  0.00000000000E+00  0.00000000000E+00  0.13855232711E+04  0.13855232711E+04  0.25500000920E-02 0.  1.
       -2   -1    0    0    0  501  0.00000000000E+00  0.00000000000E+00 -0.36214262263E+03  0.36214262263E+03  0.25500000920E-02 0. -1.
    10030    2    1    2    0    0  0.00000000000E+00  0.00000000000E+00  0.10233806485E+04  0.17476658937E+04  0.14166962005E+04 0.  0.
        2    1    3    3  502    0 -0.19985505363E+03  0.42719693410E+03 -0.14028470633E+03  0.49205595393E+03  0.25500000920E-02 0. -1.
       -2    1    3    3    0  502  0.19985505363E+03 -0.42719693410E+03  0.11636653548E+04  0.12556099398E+04  0.25500000920E-02 0.  1.
</event>
<event>
 5   0  0.8673728E-04  0.1380803E+04  0.7818609E-02  0.8967832E-01
        1   -1    0    0  501    0  0.00000000000E+00  0.00000000000E+00  0.63477802080E+03  0.63477802082E+03  0.50400001928E-02 0. -1.
       -1   -1    0    0    0  501  0.00000000000E+00  0.00000000000E+00 -0.75089951946E+03  0.75089951948E+03  0.50400001928E-02 0.  1.
    10030    2    1    2    0    0  0.00000000000E+00  0.00000000000E+00 -0.11612149867E+03  0.13856775403E+04  0.13808034050E+04 0.  0.
        3    1    3    3  502    0 -0.75811828840E+02 -0.91451270638E+02  0.62444565141E+03  0.63564388620E+03  0.10100000352E+00 0. -1.
       -3    1    3    3    0  502  0.75811828840E+02  0.91451270638E+02 -0.74056715008E+03  0.75003365409E+03  0.10100000352E+00 0.  1.
</event>
<event>
 5   0  0.1648463E-03  0.1376602E+04  0.7818609E-02  0.8970931E-01
       -2   -1    0    0    0  501  0.00000000000E+00  0.00000000000E+00  0.62423353722E+03  0.62423353723E+03  0.25500000920E-02 0. -1.
        2   -1    0    0  501    0  0.00000000000E+00  0.00000000000E+00 -0.75894413099E+03  0.75894413100E+03  0.25500000920E-02 0.  1.
    10030    2    1    2    0    0  0.00000000000E+00  0.00000000000E+00 -0.13471059377E+03  0.13831776682E+04  0.13766021640E+04 0.  0.
        1    1    3    3  502    0 -0.11032326089E+03  0.24863648190E+03 -0.70264676424E+03  0.75346121158E+03  0.50400001928E-02 0.  1.
       -1    1    3    3    0  502  0.11032326089E+03 -0.24863648190E+03  0.56793617047E+03  0.62971645665E+03  0.50400001928E-02 0. -1.
</event>
<event>
 5   0  0.9639548E-04  0.1100705E+04  0.7818609E-02  0.9204505E-01
       -1   -1    0    0    0  501  0.00000000000E+00  0.00000000000E+00  0.12011053626E+04  0.12011053626E+04  0.50400001928E-02 0.  1.
        1   -1    0    0  501    0  0.00000000000E+00  0.00000000000E+00 -0.25217412291E+03  0.25217412296E+03  0.50400001928E-02 0. -1.
    10030    2    1    2    0    0  0.00000000000E+00  0.00000000000E+00  0.94893123965E+03  0.14532794855E+04  0.11007046677E+04 0.  0.
        1    1    3    3  502    0  0.12171693297E+03 -0.24025207476E+03  0.11081514128E+04  0.11404102880E+04  0.50400001928E-02 0.  1.
       -1    1    3    3    0  502 -0.12171693297E+03  0.24025207476E+03 -0.15922017317E+03  0.31286919754E+03  0.50400001928E-02 0. -1.
</event>
<event>
 5   0  0.8673728E-04  0.1384636E+04  0.7818609E-02  0.8965015E-01
        1   -1    0    0  501    0  0.00000000000E+00  0.00000000000E+00  0.77139740185E+03  0.77139740187E+03  0.50400001928E-02 0.  1.
       -1   -1    0    0    0  501  0.00000000000E+00  0.00000000000E+00 -0.62134544474E+03  0.62134544476E+03  0.50400001928E-02 0. -1.
    10030    2    1    2    0    0  0.00000000000E+00  0.00000000000E+00  0.15005195712E+03  0.13927428466E+04  0.13846360702E+04 0.  0.
        3    1    3    3  502    0 -0.16513213208E+03  0.59712411821E+03 -0.23577895412E+03  0.66288578126E+03  0.10100000352E+00 0. -1.
       -3    1    3    3    0  502  0.16513213208E+03 -0.59712411821E+03  0.38583091124E+03  0.72985706536E+03  0.10100000352E+00 0.  1.
</event>
<event>
 5   0  0.1648213E-03  0.1420274E+04  0.7818609E-02  0.8939273E-01
       -2   -1    0    0    0  501  0.00000000000E+00  0.00000000000E+00  0.13977726682E+04  0.13977726682E+04  0.25500000920E-02 0. -1.
        2   -1    0    0  501    0  0.00000000000E+00  0.00000000000E+00 -0.36078438260E+03  0.36078438261E+03  0.25500000920E-02 0.  1.
    10030    2    1    2    0    0  0.00000000000E+00  0.00000000000E+00  0.10369882856E+04  0.17585570508E+04  0.14202739864E+04 0.  0.
        4    1    3    3  502    0  0.39855603271E+03 -0.58569044728E+03  0.45767528777E+03  0.84341478122E+03  0.12699999809E+01 0.  1.
       -4    1    3    3    0  502 -0.39855603271E+03  0.58569044728E+03  0.57931299784E+03  0.91514226960E+03  0.12699999809E+01 0. -1.
</event>
<event>
 5   0  0.6048000E-04  0.1405324E+04  0.7818609E-02  0.8949974E-01
        4   -1    0    0  501    0  0.00000000000E+00  0.00000000000E+00  0.17775086810E+04  0.17775091347E+04  0.12699999809E+01 0.  1.
       -4   -1    0    0    0  501  0.00000000000E+00  0.00000000000E+00 -0.27776542573E+03  0.27776832906E+03  0.12699999809E+01 0. -1.
    10030    2    1    2    0    0  0.00000000000E+00  0.00000000000E+00  0.14997432553E+04  0.20552774638E+04  0.14053240272E+04 0.  0.
        3    1    3    3  502    0  0.24076284160E+03 -0.40668410624E+03 -0.10590175579E+02  0.47272705675E+03  0.10100000352E+00 0. -1.
       -3    1    3    3    0  502 -0.24076284160E+03  0.40668410624E+03  0.15103334309E+04  0.15825504070E+04  0.10100000352E+00 0.  1.
</event>
<event>
 5   0  0.1648463E-03  0.1391221E+04  0.7818609E-02  0.8960198E-01
       -2   -1    0    0    0  501  0.00000000000E+00  0.00000000000E+00  0.49674220280E+03  0.49674220280E+03  0.25500000920E-02 0. -1.
        2   -1    0    0  501    0  0.00000000000E+00  0.00000000000E+00 -0.97409439106E+03  0.97409439106E+03  0.25500000920E-02 0.  1.
    10030    2    1    2    0    0  0.00000000000E+00  0.00000000000E+00 -0.47735218826E+03  0.14708365939E+04  0.13912207496E+04 0.  0.
        1    1    3    3  502    0  0.46323242377E+03  0.30695266381E+03  0.20368173852E+03  0.59185341672E+03  0.50400001928E-02 0. -1.
       -1    1    3    3    0  502 -0.46323242377E+03 -0.30695266381E+03 -0.68103392677E+03  0.87898317714E+03  0.50400001928E-02 0.  1.
</event>
<event>
 5   0  0.1605214E-03  0.1396372E+04  0.7818609E-02  0.8956449E-01
        2   -1    0    0  501    0  0.00000000000E+00  0.00000000000E+00  0.45822922660E+03  0.45822922660E+03  0.25500000920E-02 0.  1.
       -2   -1    0    0    0  501  0.00000000000E+00  0.00000000000E+00 -0.10637987337E+04  0.10637987337E+04  0.25500000920E-02 0. -1.
    10030    2    1    2    0    0  0.00000000000E+00  0.00000000000E+00 -0.60556950711E+03  0.15220279603E+04  0.13963719719E+04 0.  0.
        5    1    3    3  502    0  0.67485827936E+03  0.11469877636E+03 -0.15312635929E+03  0.70146937098E+03  0.46999998093E+01 0. -1.
       -5    1    3    3    0  502 -0.67485827936E+03 -0.11469877636E+03 -0.45244314782E+03  0.82055858933E+03  0.46999998093E+01 0.  1.
</event>
<event>
 5   0  0.1648213E-03  0.1445431E+04  0.7818609E-02  0.8921574E-01
       -2   -1    0    0    0  501  0.00000000000E+00  0.00000000000E+00  0.60329715544E+03  0.60329715545E+03  0.25500000920E-02 0. -1.
        2   -1    0    0  501    0  0.00000000000E+00  0.00000000000E+00 -0.86577238032E+03  0.86577238032E+03  0.25500000920E-02 0.  1.
    10030    2    1    2    0    0  0.00000000000E+00  0.00000000000E+00 -0.26247522487E+03  0.14690695358E+04  0.14454314433E+04 0.  0.
        4    1    3    3  502    0  0.17243061981E+03  0.42178074440E+03  0.43890425716E+03  0.63266885086E+03  0.12699999809E+01 0. -1.
       -4    1    3    3    0  502 -0.17243061981E+03 -0.42178074440E+03 -0.70137948204E+03  0.83640068491E+03  0.12699999809E+01 0.  1.
</event>
<event>
 5   0  0.8673728E-04  0.1410998E+04  0.7818609E-02  0.8945896E-01
        1   -1    0    0  501    0  0.00000000000E+00  0.00000000000E+00  0.14748591360E+04  0.14748591360E+04  0.50400001928E-02 0.  1.
       -1   -1    0    0    0  501  0.00000000000E+00  0.00000000000E+00 -0.33747551951E+03  0.33747551954E+03  0.50400001928E-02 0. -1.
    10030    2    1    2    0    0  0.00000000000E+00  0.00000000000E+00  0.11373836165E+04  0.18123346555E+04  0.14109980201E+04 0.  0.
        3    1    3    3  502    0  0.34023159310E+03 -0.43441062660E+03  0.11333446691E+04  0.12605317444E+04  0.10100000352E+00 0.  1.
       -3    1    3    3    0  502 -0.34023159310E+03  0.43441062660E+03  0.40389473801E+01  0.55180291114E+03  0.10100000352E+00 0. -1.
</event>
<event>
 5   0  0.8673728E-04  0.1396217E+04  0.7818609E-02  0.8956561E-01
       -1   -1    0    0    0  501  0.00000000000E+00  0.00000000000E+00  0.59588685402E+03  0.59588685404E+03  0.50400001928E-02 0. -1.
        1   -1    0    0  501    0  0.00000000000E+00  0.00000000000E+00 -0.81786596588E+03  0.81786596589E+03  0.50400001928E-02 0.  1.
    10030    2    1    2    0    0  0.00000000000E+00  0.00000000000E+00 -0.22197911186E+03  0.14137528199E+04  0.13962171428E+04 0.  0.
        3    1    3    3  502    0  0.23235185362E+02 -0.56680568434E+03 -0.52297435127E+03  0.77156382751E+03  0.10100000352E+00 0.  1.
       -3    1    3    3    0  502 -0.23235185362E+02  0.56680568434E+03  0.30099523941E+03  0.64218899242E+03  0.10100000352E+00 0. -1.
</event>
<event>
 5   0  0.1706986E-03  0.1402304E+04  0.7818609E-02  0.8952153E-01
       -2   -1    0    0    0  501  0.00000000000E+00  0.00000000000E+00  0.36399184423E+03  0.36399184424E+03  0.25500000920E-02 0. -1.
        2   -1    0    0  501    0  0.00000000000E+00  0.00000000000E+00 -0.13506184743E+04  0.13506184743E+04  0.25500000920E-02 0.  1.
    10030    2    1    2    0    0  0.00000000000E+00  0.00000000000E+00 -0.98662663008E+03  0.17146103186E+04  0.14023039747E+04 0.  0.
        3    1    3    3  502    0  0.15645641307E+03 -0.60919761026E+03 -0.11444349618E+03  0.63929465942E+03  0.10100000352E+00 0. -1.
       -3    1    3    3    0  502 -0.15645641307E+03  0.60919761026E+03 -0.87218313390E+03  0.10753156591E+04  0.10100000352E+00 0.  1.
</event>
<event>
 5   0  0.1648213E-03  0.1375597E+04  0.7818609E-02  0.8971674E-01
       -2   -1    0    0    0  501  0.00000000000E+00  0.00000000000E+00  0.41155387926E+03  0.41155387927E+03  0.25500000920E-02 0.  1.
        2   -1    0    0  501    0  0.00000000000E+00  0.00000000000E+00 -0.11494657606E+04  0.11494657606E+04  0.25500000920E-02 0. -1.
    10030    2    1    2    0    0  0.00000000000E+00  0.00000000000E+00 -0.73791188133E+03  0.15610196399E+04  0.13755974598E+04 0.  0.
        4    1    3    3  502    0 -0.57847685189E+03  0.22401964201E+03 -0.70605890910E+03  0.93986225810E+03  0.12699999809E+01 0. -1.
       -4    1    3    3    0  502  0.57847685189E+03 -0.22401964201E+03 -0.31852972231E+02  0.62115738177E+03  0.12699999809E+01 0.  1.
</event>
<event>
 5   0  0.9007180E-04  0.1475851E+04  0.7818609E-02  0.8900673E-01
        1   -1    0    0  501    0  0.00000000000E+00  0.00000000000E+00  0.56038089862E+03  0.56038089864E+03  0.50400001928E-02 0. -1.
       -1   -1    0    0    0  501  0.00000000000E+00  0.00000000000E+00 -0.97172089676E+03  0.97172089677E+03  0.50400001928E-02 0.  1.
    10030    2    1    2    0    0  0.00000000000E+00  0.00000000000E+00 -0.41133999814E+03  0.15321017954E+04  0.14758507097E+04 0.  0.
        2    1    3    3  502    0  0.27771411952E+02  0.70493058746E+03 -0.43033349783E+03  0.82636874567E+03  0.25500000920E-02 0.  1.
       -2    1    3    3    0  502 -0.27771411952E+02 -0.70493058746E+03  0.18993499688E+02  0.70573304974E+03  0.25500000920E-02 0. -1.
</event>
<event>
 5   0  0.9639548E-04  0.1390910E+04  0.7818609E-02  0.8960425E-01
       -1   -1    0    0    0  501  0.00000000000E+00  0.00000000000E+00  0.86999625196E+03  0.86999625197E+03  0.50400001928E-02 0.  1.
        1   -1    0    0  501    0  0.00000000000E+00  0.00000000000E+00 -0.55593043470E+03  0.55593043472E+03  0.50400001928E-02 0. -1.
    10030    2    1    2    0    0  0.00000000000E+00  0.00000000000E+00  0.31406581726E+03  0.14259266867E+04  0.13909096226E+04 0.  0.
        1    1    3    3  502    0  0.42548355556E+03  0.94785958822E+02 -0.39849194991E+03  0.59060686434E+03  0.50400001928E-02 0. -1.
       -1    1    3    3    0  502 -0.42548355556E+03 -0.94785958822E+02  0.71255776716E+03  0.83531982235E+03  0.50400001928E-02 0.  1.
</event>
<event>
 5   0  0.9007180E-04  0.1402698E+04  0.7818609E-02  0.8951868E-01
        1   -1    0    0  501    0  0.00000000000E+00  0.00000000000E+00  0.19600873684E+04  0.19600873684E+04  0.50400001928E-02 0. -1.
       -1   -1    0    0    0  501  0.00000000000E+00  0.00000000000E+00 -0.25095339552E+03  0.25095339557E+03  0.50400001928E-02 0.  1.
    10030    2    1    2    0    0  0.00000000000E+00  0.00000000000E+00  0.17091339729E+04  0.22110407640E+04  0.14026982294E+04 0.  0.
        2    1    3    3  502    0  0.22731917577E+03  0.61447952836E+03  0.46008348384E+03  0.80058473040E+03  0.25500000920E-02 0. -1.
       -2    1    3    3    0  502 -0.22731917577E+03 -0.61447952836E+03  0.12490504890E+04  0.14104560336E+04  0.25500000920E-02 0.  1.
</event>
<event>
 5   0  0.1648213E-03  0.1396847E+04  0.7818609E-02  0.8956104E-01
        2   -1    0    0  501    0  0.00000000000E+00  0.00000000000E+00  0.45311848533E+03  0.45311848534E+03  0.25500000920E-02 0. -1.
       -2   -1    0    0    0  501  0.00000000000E+00  0.00000000000E+00 -0.10765291061E+04  0.10765291061E+04  0.25500000920E-02 0.  1.
    10030    2    1    2    0    0  0.00000000000E+00  0.00000000000E+00 -0.62341062074E+03  0.15296475914E+04  0.13968467890E+04 0.  0.
        4    1    3    3  502    0  0.26948549762E+03 -0.47203175861E+03 -0.79198790554E+03  0.96056382920E+03  0.12699999809E+01 0.  1.
       -4    1    3    3    0  502 -0.26948549762E+03  0.47203175861E+03  0.16857728480E+03  0.56908376221E+03  0.12699999809E+01 0. -1.
</event>
<event>
 5   0  0.1648213E-03  0.1396015E+04  0.7818609E-02  0.8956708E-01
       -2   -1    0    0    0  501  0.00000000000E+00  0.00000000000E+00  0.57605432543E+03  0.57605432544E+03  0.25500000920E-02 0. -1.
        2   -1    0    0  501    0  0.00000000000E+00  0.00000000000E+00 -0.84577905950E+03  0.84577905950E+03  0.25500000920E-02 0.  1.
    10030    2    1    2    0    0  0.00000000000E+00  0.00000000000E+00 -0.26972473406E+03  0.14218333849E+04  0.13960153088E+04 0.  0.
        4    1    3    3  502    0  0.16107111720E+03 -0.67523784183E+03 -0.60553990377E+02  0.69682023972E+03  0.12699999809E+01 0.  1.
       -4    1    3    3    0  502 -0.16107111720E+03  0.67523784183E+03 -0.20917074368E+03  0.72501314522E+03  0.12699999809E+01 0. -1.
</event>
<event>
 5   0  0.1605214E-03  0.1402064E+04  0.7818609E-02  0.8952326E-01
        2   -1    0    0  501    0  0.00000000000E+00  0.00000000000E+00  0.10222140855E+04  0.10222140855E+04  0.25500000920E-02 0.  1.
       -2   -1    0    0    0  501  0.00000000000E+00  0.00000000000E+00 -0.48076638157E+03  0.48076638157E+03  0.25500000920E-02 0. -1.
    10030    2    1    2    0    0  0.00000000000E+00  0.00000000000E+00  0.54144770395E+03  0.15029804671E+04  0.14020644309E+04 0.  0.
        5    1    3    3  502    0  0.29171118148E+03  0.63569328879E+03  0.22018488011E+03  0.73328360287E+03  0.46999998093E+01 0. -1.
       -5    1    3    3    0  502 -0.29171118148E+03 -0.63569328879E+03  0.32126282384E+03  0.76969686422E+03  0.46999998093E+01 0.  1.
</event>
<event>
 5   0  0.8673728E-04  0.1413483E+04  0.7818609E-02  0.8944116E-01
       -1   -1    0    0    0  501  0.00000000000E+00  0.00000000000E+00  0.37356596132E+03  0.37356596136E+03  0.50400001928E-02 0.  1.
        1   -1    0    0  501    0  0.00000000000E+00  0.00000000000E+00 -0.13370688975E+04  0.13370688975E+04  0.50400001928E-02 0. -1.
    10030    2    1    2    0    0  0.00000000000E+00  0.00000000000E+00 -0.96350293621E+03  0.17106348589E+04  0.14134828306E+04 0.  0.
        3    1    3    3  502    0  0.44825865040E+03  0.29813581941E+03 -0.10359014181E+04  0.11674384535E+04  0.10100000352E+00 0. -1.
       -3    1    3    3    0  502 -0.44825865040E+03 -0.29813581941E+03  0.72398481886E+02  0.54319640541E+03  0.10100000352E+00 0.  1.
</event>
<event>
 5   0  0.9007180E-04  0.1428524E+04  0.7818609E-02  0.8933426E-01
       -1   -1    0    0    0  501  0.00000000000E+00  0.00000000000E+00  0.34988724732E+03  0.34988724736E+03  0.50400001928E-02 0. -1.
        1   -1    0    0  501    0  0.00000000000E+00  0.00000000000E+00 -0.14580986833E+04  0.14580986833E+04  0.50400001928E-02 0.  1.
    10030    2    1    2    0    0  0.00000000000E+00  0.00000000000E+00 -0.11082114359E+04  0.18079859306E+04  0.14285239020E+04 0.  0.
        2    1    3    3  502    0 -0.51646333637E+03 -0.44106111006E+03 -0.83398178164E+03  0.10755439985E+04  0.25500000920E-02 0.  1.
       -2    1    3    3    0  502  0.51646333637E+03  0.44106111006E+03 -0.27422965431E+03  0.73244193213E+03  0.25500000920E-02 0. -1.
</event>
<event>
 5   0  0.1648463E-03  0.1423898E+04  0.7818609E-02  0.8936700E-01
        2   -1    0    0  501    0  0.00000000000E+00  0.00000000000E+00  0.11848875903E+04  0.11848875903E+04  0.25500000920E-02 0. -1.
       -2   -1    0    0    0  501  0.00000000000E+00  0.00000000000E+00 -0.42777996041E+03  0.42777996042E+03  0.25500000920E-02 0.  1.
    10030    2    1    2    0    0  0.00000000000E+00  0.00000000000E+00  0.75710762985E+03  0.16126675507E+04  0.14238977020E+04 0.  0.
        1    1    3    3  502    0  0.44021985882E+03 -0.53254593792E+03  0.18411888027E+03  0.71505137031E+03  0.50400001928E-02 0.  1.
       -1    1    3    3    0  502 -0.44021985882E+03  0.53254593792E+03  0.57298874957E+03  0.89761618036E+03  0.50400001928E-02 0. -1.
</event>
<event>
 5   0  0.8502300E-04  0.1399551E+04  0.7818609E-02  0.8954144E-01
        1   -1    0    0  501    0  0.00000000000E+00  0.00000000000E+00  0.60591061712E+03  0.60591061714E+03  0.50400001928E-02 0. -1.
       -1   -1    0    0    0  501  0.00000000000E+00  0.00000000000E+00 -0.80818101949E+03  0.80818101950E+03  0.50400001928E-02 0.  1.
    10030    2    1    2    0    0  0.00000000000E+00  0.00000000000E+00 -0.20227040236E+03  0.14140916366E+04  0.13995505854E+04 0.  0.
        4    1    3    3  502    0 -0.67226638867E+03  0.65561046117E+02 -0.28591088142E+03  0.73347596629E+03  0.12699999809E+01 0. -1.
       -4    1    3    3    0  502  0.67226638867E+03 -0.65561046117E+02  0.83640479056E+02  0.68061567036E+03  0.12699999809E+01 0.  1.
</event>
<event>
 5   0  0.1648463E-03  0.1414747E+04  0.7818609E-02  0.8943213E-01
       -2   -1    0    0    0  501  0.00000000000E+00  0.00000000000E+00  0.48710802742E+03  0.48710802743E+03  0.25500000920E-02 0.  1.
        2   -1    0    0  501    0  0.00000000000E+00  0.00000000000E+00 -0.10272403034E+04  0.10272403034E+04  0.25500000920E-02 0. -1.
    10030    2    1    2    0    0  0.00000000000E+00  0.00000000000E+00 -0.54013227602E+03  0.15143483309E+04  0.14147466175E+04 0.  0.
        1    1    3    3  502    0 -0.10061826078E+03 -0.20539870188E+03 -0.98656797464E+03  0.10127334446E+04  0.50400001928E-02 0. -1.
       -1    1    3    3    0  502  0.10061826078E+03  0.20539870188E+03  0.44643569862E+03  0.50161488630E+03  0.50400001928E-02 0.  1.
</event>
<event>
 5   0  0.6048000E-04  0.1405281E+04  0.7818609E-02  0.8950005E-01
       -3   -1    0    0    0  501  0.00000000000E+00  0.00000000000E+00  0.46066417801E+03  0.46066418908E+03  0.10100000352E+00 0.  1.
        3   -1    0    0  501    0  0.00000000000E+00  0.00000000000E+00 -0.10717219000E+04  0.10717219048E+04  0.10100000352E+00 0. -1.
    10030    2    1    2    0    0  0.00000000000E+00  0.00000000000E+00 -0.61105772204E+03  0.15323860939E+04  0.14052813245E+04 0.  0.
        5    1    3    3  502    0 -0.69642573381E+03 -0.88184148103E+02 -0.33817978485E+03  0.77921300269E+03  0.46999998093E+01 0.  1.
       -5    1    3    3    0  502  0.69642573381E+03  0.88184148103E+02 -0.27287793718E+03  0.75317309118E+03  0.46999998093E+01 0. -1.
</event>
<event>
 5   0  0.1578965E-03  0.1403493E+04  0.7818609E-02  0.8951294E-01
       -2   -1    0    0    0  501  0.00000000000E+00  0.00000000000E+00  0.54205173518E+03  0.54205173519E+03  0.25500000920E-02 0. -1.
        2   -1    0    0  501    0  0.00000000000E+00  0.00000000000E+00 -0.90848864810E+03  0.90848864810E+03  0.25500000920E-02 0.  1.
    10030    2    1    2    0    0  0.00000000000E+00  0.00000000000E+00 -0.36643691292E+03  0.14505403833E+04  0.14034925694E+04 0.  0.
        2    1    3    3  502    0  0.53698951051E+02  0.66048342031E+03 -0.42188354396E+03  0.78556199661E+03  0.25500000920E-02 0.  1.
       -2    1    3    3    0  502 -0.53698951051E+02 -0.66048342031E+03  0.55446631046E+02  0.66497838668E+03  0.25500000920E-02 0. -1.
</event>
<event>
 5   0  0.8502300E-04  0.1384931E+04  0.7818609E-02  0.8964799E-01
        1   -1    0    0  501    0  0.00000000000E+00  0.00000000000E+00  0.18825193328E+04  0.18825193328E+04  0.50400001928E-02 0. -1.
       -1   -1    0    0    0  501  0.00000000000E+00  0.00000000000E+00 -0.25471633117E+03  0.25471633122E+03  0.50400001928E-02 0.  1.
    10030    2    1    2    0    0  0.00000000000E+00  0.00000000000E+00  0.16278030016E+04  0.21372356640E+04  0.13849309266E+04 0.  0.
        4    1    3    3  502    0 -0.78322842591E+02  0.65846603325E+03  0.50605262406E+03  0.83414798197E+03  0.12699999809E+01 0.  1.
       -4    1    3    3    0  502  0.78322842591E+02 -0.65846603325E+03  0.11217503776E+04  0.13030876820E+04  0.12699999809E+01 0. -1.
</event>
<event>
 5   0  0.1648213E-03  0.1007318E+04  0.7818609E-02  0.9300555E-01
       -2   -1    0    0    0  501  0.00000000000E+00  0.00000000000E+00  0.39655486103E+03  0.39655486103E+03  0.25500000920E-02 0. -1.
        2   -1    0    0  501    0  0.00000000000E+00  0.00000000000E+00 -0.63969078199E+03  0.63969078200E+03  0.25500000920E-02 0.  1.
    10030    2    1    2    0    0  0.00000000000E+00  0.00000000000E+00 -0.24313592097E+03  0.10362456430E+04  0.10073182003E+04 0.  0.
        4    1    3    3  502    0 -0.12156636866E+03 -0.21597096510E+03 -0.57262152850E+03  0.62395421912E+03  0.12699999809E+01 0.  1.
       -4    1    3    3    0  502  0.12156636866E+03  0.21597096510E+03  0.32948560753E+03  0.41229142391E+03  0.12699999809E+01 0. -1.
</event>
<event>
 5   0  0.8673728E-04  0.1412899E+04  0.7818609E-02  0.8944534E-01
       -1   -1    0    0    0  501  0.00000000000E+00  0.00000000000E+00  0.44146985364E+03  0.44146985367E+03  0.50400001928E-02 0.  1.
        1   -1    0    0  501    0  0.00000000000E+00  0.00000000000E+00 -0.11304754105E+04  0.11304754105E+04  0.50400001928E-02 0. -1.
    10030    2    1    2    0    0  0.00000000000E+00  0.00000000000E+00 -0.68900555685E+03  0.15719452642E+04  0.14128988839E+04 0.  0.
        3    1    3    3  502    0  0.16347433953E+03 -0.67911411700E+03 -0.46198779206E+03  0.83746795390E+03  0.10100000352E+00 0. -1.
       -3    1    3    3    0  502 -0.16347433953E+03  0.67911411700E+03 -0.22701776479E+03  0.73447731029E+03  0.10100000352E+00 0.  1.
</event>
<event>
 5   0  0.1605214E-03  0.1384677E+04  0.7818609E-02  0.8964985E-01
       -2   -1    0    0    0  501  0.00000000000E+00  0.00000000000E+00  0.69099667096E+03  0.69099667096E+03  0.25500000920E-02 0. -1.
        2   -1    0    0  501    0  0.00000000000E+00  0.00000000000E+00 -0.69368305256E+03  0.69368305256E+03  0.25500000920E-02 0.  1.
    10030    2    1    2    0    0  0.00000000000E+00  0.00000000000E+00 -0.26863815986E+01  0.13846797235E+04  0.13846771176E+04 0.  0.
        5    1    3    3  502    0 -0.29434519621E+03 -0.37216798839E+03 -0.50548943997E+03  0.69331794296E+03  0.46999998093E+01 0.  1.
       -5    1    3    3    0  502  0.29434519621E+03  0.37216798839E+03  0.50280305837E+03  0.69136178056E+03  0.46999998093E+01 0. -1.
</event>
<event>
 5   0  0.1605214E-03  0.1384141E+04  0.7818609E-02  0.8965379E-01
       -2   -1    0    0    0  501  0.00000000000E+00  0.00000000000E+00  0.45374291612E+03  0.45374291613E+03  0.25500000920E-02 0. -1.
        2   -1    0    0  501    0  0.00000000000E+00  0.00000000000E+00 -0.10555788279E+04  0.10555788279E+04  0.25500000920E-02 0.  1.
    10030    2    1    2    0    0  0.00000000000E+00  0.00000000000E+00 -0.60183591181E+03  0.15093217441E+04  0.13841407668E+04 0.  0.
        5    1    3    3  502    0  0.26977632258E+03  0.49912298677E+03  0.13119929384E+03  0.58235587475E+03  0.46999998093E+01 0.  1.
       -5    1    3    3    0  502 -0.26977632258E+03 -0.49912298677E+03 -0.73303520565E+03  0.92696586932E+03  0.46999998093E+01 0. -1.
</event>
<event>
 5   0  0.1648463E-03  0.1391439E+04  0.7818609E-02  0.8960039E-01
        2   -1    0    0  501    0  0.00000000000E+00  0.00000000000E+00  0.23432543922E+03  0.23432543923E+03  0.25500000920E-02 0.  1.
       -2   -1    0    0    0  501  0.00000000000E+00  0.00000000000E+00 -0.20656134550E+04  0.20656134550E+04  0.25500000920E-02 0. -1.
    10030    2    1    2    0    0  0.00000000000E+00  0.00000000000E+00 -0.18312880158E+04  0.22999388943E+04  0.13914392263E+04 0.  0.
        1    1    3    3  502    0  0.11674955067E+03  0.66533462948E+03 -0.64041827717E+03  0.93082554570E+03  0.50400001928E-02 0.  1.
       -1    1    3    3    0  502 -0.11674955067E+03 -0.66533462948E+03 -0.11908697387E+04  0.13691133486E+04  0.50400001928E-02 0. -1.
</event>
<event>
 5   0  0.8502300E-04  0.1380550E+04  0.7818609E-02  0.8968019E-01
       -1   -1    0    0    0  501  0.00000000000E+00  0.00000000000E+00  0.56410679362E+03  0.56410679364E+03  0.50400001928E-02 0.  1.
        1   -1    0    0  501    0  0.00000000000E+00  0.00000000000E+00 -0.84466237279E+03  0.84466237280E+03  0.50400001928E-02 0. -1.
    10030    2    1    2    0    0  0.00000000000E+00  0.00000000000E+00 -0.28055557917E+03  0.14087691664E+04  0.13805503002E+04 0.  0.
        4    1    3    3  502    0 -0.24660099364E+02  0.14351055482E+03  0.54825463158E+03  0.56726374271E+03  0.12699999809E+01 0.  1.
       -4    1    3    3    0  502  0.24660099364E+02 -0.14351055482E+03 -0.82881021074E+03  0.84150542374E+03  0.12699999809E+01 0. -1.
</event>
<event>
 5   0  0.8673728E-04  0.1386618E+04  0.7818609E-02  0.8963563E-01
        1   -1    0    0  501    0  0.00000000000E+00  0.00000000000E+00  0.44367817652E+03  0.44367817655E+03  0.50400001928E-02 0. -1.
       -1   -1    0    0    0  501  0.00000000000E+00  0.00000000000E+00 -0.10833916806E+04  0.10833916806E+04  0.50400001928E-02 0.  1.
    10030    2    1    2    0    0  0.00000000000E+00  0.00000000000E+00 -0.63971350405E+03  0.15270698571E+04  0.13866178209E+04 0.  0.
        3    1    3    3  502    0  0.57937433758E+03  0.37015736641E+03 -0.22143967036E+03  0.72230647011E+03  0.10100000352E+00 0. -1.
       -3    1    3    3    0  502 -0.57937433758E+03 -0.37015736641E+03 -0.41827383369E+03  0.80476338703E+03  0.10100000352E+00 0.  1.
</event>
<event>
 5   0  0.8673728E-04  0.1438088E+04  0.7818609E-02  0.8926701E-01
        1   -1    0    0  501    0  0.00000000000E+00  0.00000000000E+00  0.76860856797E+03  0.76860856798E+03  0.50400001928E-02 0. -1.
       -1   -1    0    0    0  501  0.00000000000E+00  0.00000000000E+00 -0.67267540756E+03  0.67267540757E+03  0.50400001928E-02 0.  1.
    10030    2    1    2    0    0  0.00000000000E+00  0.00000000000E+00  0.95933160410E+02  0.14412839756E+04  0.14380877327E+04 0.  0.
        3    1    3    3  502    0  0.29024571824E+03 -0.30495797626E+03 -0.53623730645E+03  0.68175685055E+03  0.10100000352E+00 0.  1.
       -3    1    3    3    0  502 -0.29024571824E+03  0.30495797626E+03  0.63217046686E+03  0.75952712500E+03  0.10100000352E+00 0. -1.
</event>
<event>
 5   0  0.1648213E-03  0.1322820E+04  0.7818609E-02  0.9011662E-01
       -2   -1    0    0    0  501  0.00000000000E+00  0.00000000000E+00  0.95008200657E+03  0.95008200657E+03  0.25500000920E-02 0.  1.
        2   -1    0    0  501    0  0.00000000000E+00  0.00000000000E+00 -0.46044778574E+03  0.46044778574E+03  0.25500000920E-02 0. -1.
    10030    2    1    2    0    0  0.00000000000E+00  0.00000000000E+00  0.48963422084E+03  0.14105297923E+04  0.13228199518E+04 0.  0.
        4    1    3    3  502    0  0.16164909411E+02 -0.46765580007E+03  0.74324868909E+03  0.87828439493E+03  0.12699999809E+01 0.  1.
       -4    1    3    3    0  502 -0.16164909411E+02  0.46765580007E+03 -0.25361446826E+03  0.53224539739E+03  0.12699999809E+01 0. -1.
</event>
<event>
 5   0  0.8609148E-04  0.1378038E+04  0.7818609E-02  0.8969871E-01
        1   -1    0    0  501    0  0.00000000000E+00  0.00000000000E+00  0.29555290895E+03  0.29555290899E+03  0.50400001928E-02 0. -1.
       -1   -1    0    0    0  501  0.00000000000E+00  0.00000000000E+00 -0.16063026042E+04  0.16063026042E+04  0.50400001928E-02 0.  1.
    10030    2    1    2    0    0  0.00000000000E+00  0.00000000000E+00 -0.13107496952E+04  0.19018555132E+04  0.13780383265E+04 0.  0.
        5    1    3    3  502    0  0.61192817174E+03 -0.90408854185E+02 -0.23654718756E+03  0.66227374267E+03  0.46999998093E+01 0. -1.
       -5    1    3    3    0  502 -0.61192817174E+03  0.90408854185E+02 -0.10742025077E+04  0.12395817705E+04  0.46999998093E+01 0.  1.
</event>
<event>
 5   0  0.8502300E-04  0.1395414E+04  0.7818609E-02  0.8957145E-01
       -1   -1    0    0    0  501  0.00000000000E+00  0.00000000000E+00  0.54018496672E+03  0.54018496674E+03  0.50400001928E-02 0. -1.
        1   -1    0    0  501    0  0.00000000000E+00  0.00000000000E+00 -0.90116341978E+03  0.90116341979E+03  0.50400001928E-02 0.  1.
    10030    2    1    2    0    0  0.00000000000E+00  0.00000000000E+00 -0.36097845306E+03  0.14413483865E+04  0.13954138195E+04 0.  0.
        4    1    3    3  502    0 -0.54825853379E+03 -0.39858341258E+03 -0.35127144976E+03  0.76344574200E+03  0.12699999809E+01 0.  1.
       -4    1    3    3    0  502  0.54825853379E+03  0.39858341258E+03 -0.97070033027E+01  0.67790264454E+03  0.12699999809E+01 0. -1.
</event>
<event>
 5   0  0.9007180E-04  0.1605928E+04  0.7818609E-02  0.8816914E-01
        1   -1    0    0  501    0  0.00000000000E+00  0.00000000000E+00  0.16811735040E+04  0.16811735040E+04  0.50400001928E-02 0. -1.
       -1   -1    0    0    0  501  0.00000000000E+00  0.00000000000E+00 -0.38351276116E+03  0.38351276120E+03  0.50400001928E-02 0.  1.
    10030    2    1    2    0    0  0.00000000000E+00  0.00000000000E+00  0.12976607428E+04  0.20646862652E+04  0.16059283826E+04 0.  0.
        2    1    3    3  502    0  0.52539593801E+03 -0.52958380579E+03  0.26689562236E+03  0.79229613925E+03  0.25500000920E-02 0.  1.
       -2    1    3    3    0  502 -0.52539593801E+03  0.52958380579E+03  0.10307651205E+04  0.12723901259E+04  0.25500000920E-02 0. -1.
</event>
<event>
 5   0  0.1706986E-03  0.1410780E+04  0.7818609E-02  0.8946052E-01
        2   -1    0    0  501    0  0.00000000000E+00  0.00000000000E+00  0.12289981176E+04  0.12289981176E+04  0.25500000920E-02 0. -1.
       -2   -1    0    0    0  501  0.00000000000E+00  0.00000000000E+00 -0.40486218135E+03  0.40486218136E+03  0.25500000920E-02 0.  1.
    10030    2    1    2    0    0  0.00000000000E+00  0.00000000000E+00  0.82413593623E+03  0.16338602990E+04  0.14107797259E+04 0.  0.
        3    1    3    3  502    0  0.51484035927E+03  0.31272062399E+03  0.83714912216E+03  0.10313454548E+04  0.10100000352E+00 0. -1.
       -3    1    3    3    0  502 -0.51484035927E+03 -0.31272062399E+03 -0.13013185932E+02  0.60251484415E+03  0.10100000352E+00 0.  1.
</event>
<event>
 5   0  0.1648213E-03  0.1206836E+04  0.7818609E-02  0.9106894E-01
        2   -1    0    0  501    0  0.00000000000E+00  0.00000000000E+00  0.81807205128E+03  0.81807205128E+03  0.25500000920E-02 0. -1.
       -2   -1    0    0    0  501  0.00000000000E+00  0.00000000000E+00 -0.44508728876E+03  0.44508728877E+03  0.25500000920E-02 0.  1.
    10030    2    1    2    0    0  0.00000000000E+00  0.00000000000E+00  0.37298476252E+03  0.12631593401E+04  0.12068363125E+04 0.  0.
        4    1    3    3  502    0 -0.40338117343E+03  0.43147835807E+03  0.31562750957E+03  0.66971059590E+03  0.12699999809E+01 0. -1.
       -4    1    3    3    0  502  0.40338117343E+03 -0.43147835807E+03  0.57357252946E+02  0.59344874415E+03  0.12699999809E+01 0.  1.
</event>
<event>
 5   0  0.1648463E-03  0.1392163E+04  0.7818609E-02  0.8959511E-01
       -2   -1    0    0    0  501  0.00000000000E+00  0.00000000000E+00  0.26400558548E+03  0.26400558549E+03  0.25500000920E-02 0.  1.
        2   -1    0    0  501    0  0.00000000000E+00  0.00000000000E+00 -0.18352996412E+04  0.18352996412E+04  0.25500000920E-02 0. -1.
    10030    2    1    2    0    0  0.00000000000E+00  0.00000000000E+00 -0.15712940558E+04  0.20993052267E+04  0.13921628588E+04 0.  0.
        1    1    3    3  502    0 -0.57006117496E+03 -0.39514532601E+03 -0.69746401968E+03  0.98364914001E+03  0.50400001928E-02 0.  1.
       -1    1    3    3    0  502  0.57006117496E+03  0.39514532601E+03 -0.87383003607E+03  0.11156560867E+04  0.50400001928E-02 0. -1.
</event>
<event>
 5   0  0.1706986E-03  0.1368080E+04  0.7818609E-02  0.8977254E-01
        2   -1    0    0  501    0  0.00000000000E+00  0.00000000000E+00  0.17452493922E+04  0.17452493922E+04  0.25500000920E-02 0.  1.
       -2   -1    0    0    0  501  0.00000000000E+00  0.00000000000E+00 -0.26810525951E+03  0.26810525953E+03  0.25500000920E-02 0. -1.
    10030    2    1    2    0    0  0.00000000000E+00  0.00000000000E+00  0.14771441327E+04  0.20133546517E+04  0.13680797363E+04 0.  0.
        3    1    3    3  502    0  0.30468299305E+03  0.21500327228E+03  0.15825078048E+04  0.16258502686E+04  0.10100000352E+00 0.  1.
       -3    1    3    3    0  502 -0.30468299305E+03 -0.21500327228E+03 -0.10536367213E+03  0.38750438314E+03  0.10100000352E+00 0. -1.
</event>
<event>
 5   0  0.8609148E-04  0.1386601E+04  0.7818609E-02  0.8963575E-01
       -1   -1    0    0    0  501  0.00000000000E+00  0.00000000000E+00  0.45390443818E+03  0.45390443821E+03  0.50400001928E-02 0.  1.
        1   -1    0    0  501    0  0.00000000000E+00  0.00000000000E+00 -0.10589576605E+04  0.10589576605E+04  0.50400001928E-02 0. -1.
    10030    2    1    2    0    0  0.00000000000E+00  0.00000000000E+00 -0.60505322228E+03  0.15128620987E+04  0.13866009981E+04 0.  0.
        5    1    3    3  502    0 -0.68490855606E+03  0.29171977774E+02 -0.41534832516E+03  0.80155290260E+03  0.46999998093E+01 0.  1.
       -5    1    3    3    0  502  0.68490855606E+03 -0.29171977774E+02 -0.18970489712E+03  0.71130919609E+03  0.46999998093E+01 0. -1.
</event>
<event>
 5   0  0.8502300E-04  0.1409778E+04  0.7818609E-02  0.8946771E-01
        1   -1    0    0  501    0  0.00000000000E+00  0.00000000000E+00  0.17989430714E+04  0.17989430714E+04  0.50400001928E-02 0. -1.
       -1   -1    0    0    0  501  0.00000000000E+00  0.00000000000E+00 -0.27620022969E+03  0.27620022974E+03  0.50400001928E-02 0.  1.
    10030    2    1    2    0    0  0.00000000000E+00  0.00000000000E+00  0.15227428417E+04  0.20751433011E+04  0.14097779819E+04 0.  0.
        4    1    3    3  502    0  0.27677621301E+03  0.38411067779E+03 -0.73278938011E+01  0.47349909800E+03  0.12699999809E+01 0.  1.
       -4    1    3    3    0  502 -0.27677621301E+03 -0.38411067779E+03  0.15300707355E+04  0.16016442031E+04  0.12699999809E+01 0. -1.
</event>
<event>
 5   0  0.8609148E-04  0.1382163E+04  0.7818609E-02  0.8966832E-01
        1   -1    0    0  501    0  0.00000000000E+00  0.00000000000E+00  0.14457226125E+04  0.14457226125E+04  0.50400001928E-02 0.  1.
       -1   -1    0    0    0  501  0.00000000000E+00  0.00000000000E+00 -0.33034957162E+03  0.33034957166E+03  0.50400001928E-02 0. -1.
    10030    2    1    2    0    0  0.00000000000E+00  0.00000000000E+00  0.11153730409E+04  0.17760721842E+04  0.13821632983E+04 0.  0.
        5    1    3    3  502    0 -0.30184624070E+03  0.48032746582E+03  0.50567516510E+02  0.56956544064E+03  0.46999998093E+01 0. -1.
       -5    1    3    3    0  502  0.30184624070E+03 -0.48032746582E+03  0.10648055244E+04  0.12065067436E+04  0.46999998093E+01 0.  1.
</event>
<event>
 5   0  0.8673728E-04  0.1403232E+04  0.7818609E-02  0.8951482E-01
       -1   -1    0    0    0  501  0.00000000000E+00  0.00000000000E+00  0.13029762542E+04  0.13029762542E+04  0.50400001928E-02 0.  1.
        1   -1    0    0  501    0  0.00000000000E+00  0.00000000000E+00 -0.37780056317E+03  0.37780056320E+03  0.50400001928E-02 0. -1.
    10030    2    1    2    0    0  0.00000000000E+00  0.00000000000E+00  0.92517569103E+03  0.16807768174E+04  0.14032322155E+04 0.  0.
        3    1    3    3  502    0  0.89996344669E+02 -0.79832933662E+02 -0.36535464743E+03  0.38465135896E+03  0.10100000352E+00 0. -1.
       -3    1    3    3    0  502 -0.89996344669E+02  0.79832933662E+02  0.12905303385E+04  0.12961254584E+04  0.10100000352E+00 0.  1.
</event>
<event>
 5   0  0.1648213E-03  0.1437015E+04  0.7818609E-02  0.8927453E-01
        2   -1    0    0  501    0  0.00000000000E+00  0.00000000000E+00  0.13649870139E+04  0.13649870139E+04  0.25500000920E-02 0. -1.
       -2   -1    0    0    0  501  0.00000000000E+00  0.00000000000E+00 -0.37821094569E+03  0.37821094570E+03  0.25500000920E-02 0.  1.
    10030    2    1    2    0    0  0.00000000000E+00  0.00000000000E+00  0.98677606825E+03  0.17431979596E+04  0.14370150026E+04 0.  0.
        4    1    3    3  502    0  0.27561256174E+03  0.73914136203E+02 -0.30652555615E+03  0.41879005862E+03  0.12699999809E+01 0.  1.
       -4    1    3    3    0  502 -0.27561256174E+03 -0.73914136203E+02  0.12933016244E+04  0.13244079010E+04  0.12699999809E+01 0. -1.
</event>
<event>
 5   0  0.1648463E-03  0.1395189E+04  0.7818609E-02  0.8957308E-01
       -2   -1    0    0    0  501  0.00000000000E+00  0.00000000000E+00  0.23175707321E+03  0.23175707322E+03  0.25500000920E-02 0. -1.
        2   -1    0    0  501    0  0.00000000000E+00  0.00000000000E+00 -0.20997774558E+04  0.20997774558E+04  0.25500000920E-02 0.  1.
    10030    2    1    2    0    0  0.00000000000E+00  0.00000000000E+00 -0.18680203826E+04  0.23315345290E+04  0.13951892740E+04 0.  0.
        1    1    3    3  502    0  0.23000373718E+03  0.40064596797E+03 -0.18075133162E+04  0.18656160642E+04  0.50400001928E-02 0.  1.
       -1    1    3    3    0  502 -0.23000373718E+03 -0.40064596797E+03 -0.60507066416E+02  0.46591846484E+03  0.50400001928E-02 0. -1.
</event>
<event>
 5   0  0.1578965E-03  0.1377302E+04  0.7818609E-02  0.8970414E-01
       -2   -1    0    0    0  501  0.00000000000E+00  0.00000000000E+00  0.37204656280E+03  0.37204656281E+03  0.25500000920E-02 0. -1.
        2   -1    0    0  501    0  0.00000000000E+00  0.00000000000E+00 -0.12746794758E+04  0.12746794758E+04  0.25500000920E-02 0.  1.
    10030    2    1    2    0    0  0.00000000000E+00  0.00000000000E+00 -0.90263291300E+03  0.16467260386E+04  0.13773018807E+04 0.  0.
        2    1    3    3  502    0 -0.56096959698E+03 -0.28779848347E+02 -0.92765399783E+03  0.10844616674E+04  0.25500000920E-02 0.  1.
       -2    1    3    3    0  502  0.56096959698E+03  0.28779848347E+02  0.25021084835E+02  0.56226437118E+03  0.25500000920E-02 0. -1.
</event>
<event>
 5   0  0.8673728E-04  0.1455161E+04  0.7818609E-02  0.8914830E-01
       -1   -1    0    0    0  501  0.00000000000E+00  0.00000000000E+00  0.42438285909E+03  0.42438285912E+03  0.50400001928E-02 0.  1.
        1   -1    0    0  501    0  0.00000000000E+00  0.00000000000E+00 -0.12473959604E+04  0.12473959604E+04  0.50400001928E-02 0. -1.
    10030    2    1    2    0    0  0.00000000000E+00  0.00000000000E+00 -0.82301310129E+03  0.16717788195E+04  0.14551611102E+04 0.  0.
        3    1    3    3  502    0  0.13996988486E+02  0.61237311329E+03 -0.86261101367E+03  0.10579671624E+04  0.10100000352E+00 0. -1.
       -3    1    3    3    0  502 -0.13996988486E+02 -0.61237311329E+03  0.39597912386E+02  0.61381165713E+03  0.10100000352E+00 0.  1.
</event>
<event>
 5   0  0.1706986E-03  0.1409096E+04  0.7818609E-02  0.8947261E-01
        2   -1    0    0  501    0  0.00000000000E+00  0.00000000000E+00  0.51011839544E+03  0.51011839544E+03  0.25500000920E-02 0. -1.
       -2   -1    0    0    0  501  0.00000000000E+00  0.00000000000E+00 -0.97308322350E+03  0.97308322350E+03  0.25500000920E-02 0.  1.
    10030    2    1    2    0    0  0.00000000000E+00  0.00000000000E+00 -0.46296482806E+03  0.14832016189E+04  0.14090956711E+04 0.  0.
        3    1    3    3  502    0  0.31679730994E+03  0.40603651083E+03 -0.73756037327E+03  0.89956739499E+03  0.10100000352E+00 0. -1.
       -3    1    3    3    0  502 -0.31679730994E+03 -0.40603651083E+03  0.27459554521E+03  0.58363422395E+03  0.10100000352E+00 0.  1.
</event>
<event>
 5   0  0.1605214E-03  0.1392957E+04  0.7818609E-02  0.8958932E-01
        2   -1    0    0  501    0  0.00000000000E+00  0.00000000000E+00  0.11412236421E+04  0.11412236421E+04  0.25500000920E-02 0.  1.
       -2   -1    0    0    0  501  0.00000000000E+00  0.00000000000E+00 -0.42505452335E+03  0.42505452336E+03  0.25500000920E-02 0. -1.
    10030    2    1    2    0    0  0.00000000000E+00  0.00000000000E+00  0.71616911877E+03  0.15662781655E+04  0.13929569573E+04 0.  0.
        5    1    3    3  502    0 -0.54565588440E+03  0.43085252663E+03  0.31191540565E+03  0.76202857831E+03  0.46999998093E+01 0. -1.
       -5    1    3    3    0  502  0.54565588440E+03 -0.43085252663E+03  0.40425371312E+03  0.80424958717E+03  0.46999998093E+01 0.  1.
</event>
<event>
 5   0  0.1648463E-03  0.1408524E+04  0.7818609E-02  0.8947671E-01
        2   -1    0    0  501    0  0.00000000000E+00  0.00000000000E+00  0.63938609456E+03  0.63938609457E+03  0.25500000920E-02 0.  1.
       -2   -1    0    0    0  501  0.00000000000E+00  0.00000000000E+00 -0.77572071900E+03  0.77572071900E+03  0.25500000920E-02 0. -1.
    10030    2    1    2    0    0  0.00000000000E+00  0.00000000000E+00 -0.13633462444E+03  0.14151068136E+04  0.14085241084E+04 0.  0.
        1    1    3    3  502    0  0.18995113913E+02 -0.98325538580E+02 -0.76853088955E+03  0.77502803440E+03  0.50400001928E-02 0. -1.
       -1    1    3    3    0  502 -0.18995113913E+02  0.98325538580E+02  0.63219626512E+03  0.64007877917E+03  0.50400001928E-02 0.  1.
</event>
<event>
 5   0  0.8673728E-04  0.1389483E+04  0.7818609E-02  0.8961467E-01
        1   -1    0    0  501    0  0.00000000000E+00  0.00000000000E+00  0.98251601327E+03  0.98251601328E+03  0.50400001928E-02 0. -1.
       -1   -1    0    0    0  501  0.00000000000E+00  0.00000000000E+00 -0.49125457918E+03  0.49125457921E+03  0.50400001928E-02 0.  1.
    10030    2    1    2    0    0  0.00000000000E+00  0.00000000000E+00  0.49126143409E+03  0.14737705925E+04  0.13894826241E+04 0.  0.
        3    1    3    3  502    0  0.65704229824E+03 -0.11567580165E+03  0.40015525517E+02  0.66834626149E+03  0.10100000352E+00 0.  1.
       -3    1    3    3    0  502 -0.65704229824E+03  0.11567580165E+03  0.45124590857E+03  0.80542433100E+03  0.10100000352E+00 0. -1.
</event>
<event>
 5   0  0.8502300E-04  0.1437683E+04  0.7818609E-02  0.8926984E-01
       -1   -1    0    0    0  501  0.00000000000E+00  0.00000000000E+00  0.42004116928E+03  0.42004116931E+03  0.50400001928E-02 0.  1.
        1   -1    0    0  501    0  0.00000000000E+00  0.00000000000E+00 -0.12301967822E+04  0.12301967823E+04  0.50400001928E-02 0. -1.
    10030    2    1    2    0    0  0.00000000000E+00  0.00000000000E+00 -0.81015561297E+03  0.16502379516E+04  0.14376832682E+04 0.  0.
        4    1    3    3  502    0 -0.22602631939E+03  0.38401895265E+03  0.24238551356E+03  0.50725812279E+03  0.12699999809E+01 0.  1.
       -4    1    3    3    0  502  0.22602631939E+03 -0.38401895265E+03 -0.10525411265E+04  0.11429798288E+04  0.12699999809E+01 0. -1.
</event>
<event>
 5   0  0.8673728E-04  0.1289418E+04  0.7818609E-02  0.9037999E-01
        1   -1    0    0  501    0  0.00000000000E+00  0.00000000000E+00  0.10629731704E+04  0.10629731704E+04  0.50400001928E-02 0. -1.
       -1   -1    0    0    0  501  0.00000000000E+00  0.00000000000E+00 -0.39102548685E+03  0.39102548688E+03  0.50400001928E-02 0.  1.
    10030    2    1    2    0    0  0.00000000000E+00  0.00000000000E+00  0.67194768357E+03  0.14539986573E+04  0.12894178555E+04 0.  0.
        3    1    3    3  502    0 -0.47631380512E+03 -0.64651903857E+02  0.82045863828E+03  0.95089804761E+03  0.10100000352E+00 0. -1.
       -3    1    3    3    0  502  0.47631380512E+03  0.64651903857E+02 -0.14851095471E+03  0.50310060971E+03  0.10100000352E+00 0.  1.
</event>
<event>
 5   0  0.1648213E-03  0.1019133E+04  0.7818609E-02  0.9287805E-01
       -2   -1    0    0    0  501  0.00000000000E+00  0.00000000000E+00  0.18661818569E+03  0.18661818571E+03  0.25500000920E-02 0.  1.
        2   -1    0    0  501    0  0.00000000000E+00  0.00000000000E+00 -0.13913864441E+04  0.13913864441E+04  0.25500000920E-02 0. -1.
    10030    2    1    2    0    0  0.00000000000E+00  0.00000000000E+00 -0.12047682584E+04  0.15780046298E+04  0.10191329919E+04 0.  0.
        4    1    3    3  502    0 -0.72473704305E+02 -0.35646857040E+03 -0.11549064280E+04  0.12108396880E+04  0.12699999809E+01 0. -1.
       -4    1    3    3    0  502  0.72473704305E+02  0.35646857040E+03 -0.49861830374E+02  0.36716494186E+03  0.12699999809E+01 0.  1.
</event>
<event>
 5   0  0.1605214E-03  0.1415712E+04  0.7818609E-02  0.8942523E-01
        2   -1    0    0  501    0  0.00000000000E+00  0.00000000000E+00  0.88157349195E+03  0.88157349195E+03  0.25500000920E-02 0.  1.
       -2   -1    0    0    0  501  0.00000000000E+00  0.00000000000E+00 -0.56837041250E+03  0.56837041250E+03  0.25500000920E-02 0. -1.
    10030    2    1    2    0    0  0.00000000000E+00  0.00000000000E+00  0.31320307945E+03  0.14499439045E+04  0.14157122437E+04 0.  0.
        5    1    3    3  502    0  0.51488537729E+03 -0.30799485679E+03 -0.22807365789E+03  0.64187807797E+03  0.46999998093E+01 0. -1.
       -5    1    3    3    0  502 -0.51488537729E+03  0.30799485679E+03  0.54127673734E+03  0.80806582649E+03  0.46999998093E+01 0.  1.
</event>
<event>
 5   0  0.1578965E-03  0.1394674E+04  0.7818609E-02  0.8957683E-01
       -2   -1    0    0    0  501  0.00000000000E+00  0.00000000000E+00  0.95403096628E+03  0.95403096628E+03  0.25500000920E-02 0.  1.
        2   -1    0    0  501    0  0.00000000000E+00  0.00000000000E+00 -0.50970960332E+03  0.50970960333E+03  0.25500000920E-02 0. -1.
    10030    2    1    2    0    0  0.00000000000E+00  0.00000000000E+00  0.44432136296E+03  0.14637405696E+04  0.13946737904E+04 0.  0.
        2    1    3    3  502    0  0.18102300142E+03  0.46366980712E+03  0.73473120040E+03  0.88746208591E+03  0.25500000920E-02 0.  1.
       -2    1    3    3    0  502 -0.18102300142E+03 -0.46366980712E+03 -0.29040983744E+03  0.57627848370E+03  0.25500000920E-02 0. -1.
</event>
<event>
 5   0  0.1706986E-03  0.1406145E+04  0.7818609E-02  0.8949383E-01
       -2   -1    0    0    0  501  0.00000000000E+00  0.00000000000E+00  0.60355398169E+03  0.60355398169E+03  0.25500000920E-02 0. -1.
        2   -1    0    0  501    0  0.00000000000E+00  0.00000000000E+00 -0.81900016298E+03  0.81900016299E+03  0.25500000920E-02 0.  1.
    10030    2    1    2    0    0  0.00000000000E+00  0.00000000000E+00 -0.21544618129E+03  0.14225541447E+04  0.14061448138E+04 0.  0.
        3    1    3    3  502    0  0.67380055027E+03  0.22434816372E+02  0.94105138851E+02  0.68071013646E+03  0.10100000352E+00 0.  1.
       -3    1    3    3    0  502 -0.67380055027E+03 -0.22434816372E+02 -0.30955132014E+03  0.74184400822E+03  0.10100000352E+00 0. -1.
</event>
<event>
 5   0  0.1578965E-03  0.1366551E+04  0.7818609E-02  0.8978393E-01
        2   -1    0    0  501    0  0.00000000000E+00  0.00000000000E+00  0.13988173060E+04  0.13988173060E+04  0.25500000920E-02 0.  1.
       -2   -1    0    0    0  501  0.00000000000E+00  0.00000000000E+00 -0.33375700359E+03  0.33375700360E+03  0.25500000920E-02 0. -1.
    10030    2    1    2    0    0  0.00000000000E+00  0.00000000000E+00  0.10650603024E+04  0.17325743096E+04  0.13665505079E+04 0.  0.
        2    1    3    3  502    0  0.16947177652E+03  0.11291151422E+03  0.13594483820E+04  0.13746161633E+04  0.25500000920E-02 0.  1.
       -2    1    3    3    0  502 -0.16947177652E+03 -0.11291151422E+03 -0.29438807960E+03  0.35795814629E+03  0.25500000920E-02 0. -1.
</event>
<event>
 5   0  0.1706986E-03  0.1401121E+04  0.7818609E-02  0.8953008E-01
       -2   -1    0    0    0  501  0.00000000000E+00  0.00000000000E+00  0.81212454596E+03  0.81212454597E+03  0.25500000920E-02 0. -1.
        2   -1    0    0  501    0  0.00000000000E+00  0.00000000000E+00 -0.60432210644E+03  0.60432210644E+03  0.25500000920E-02 0.  1.
    10030    2    1    2    0    0  0.00000000000E+00  0.00000000000E+00  0.20780243953E+03  0.14164466524E+04  0.14011207176E+04 0.  0.
        3    1    3    3  502    0 -0.40621400602E+03 -0.37638506338E+03 -0.32987176152E+03  0.64458585454E+03  0.10100000352E+00 0.  1.
       -3    1    3    3    0  502  0.40621400602E+03  0.37638506338E+03  0.53767420104E+03  0.77186079787E+03  0.10100000352E+00 0. -1.
</event>
<event>
 5   0  0.1706986E-03  0.1383493E+04  0.7818609E-02  0.8965855E-01
       -2   -1    0    0    0  501  0.00000000000E+00  0.00000000000E+00  0.37338182092E+03  0.37338182092E+03  0.25500000920E-02 0.  1.
        2   -1    0    0  501    0  0.00000000000E+00  0.00000000000E+00 -0.12815653345E+04  0.12815653345E+04  0.25500000920E-02 0. -1.
    10030    2    1    2    0    0  0.00000000000E+00  0.00000000000E+00 -0.90818351362E+03  0.16549471555E+04  0.13834929682E+04 0.  0.
        3    1    3    3  502    0  0.35522685996E+03 -0.13050027789E+03 -0.11467545221E+04  0.12075853546E+04  0.10100000352E+00 0. -1.
       -3    1    3    3    0  502 -0.35522685996E+03  0.13050027789E+03  0.23857100847E+03  0.44736180084E+03  0.10100000352E+00 0.  1.
</event>
<event>
 5   0  0.1648213E-03  0.1418198E+04  0.7818609E-02  0.8940750E-01
       -2   -1    0    0    0  501  0.00000000000E+00  0.00000000000E+00  0.20117436253E+03  0.20117436255E+03  0.25500000920E-02 0. -1.
        2   -1    0    0  501    0  0.00000000000E+00  0.00000000000E+00 -0.24994296288E+04  0.24994296288E+04  0.25500000920E-02 0.  1.
    10030    2    1    2    0    0  0.00000000000E+00  0.00000000000E+00 -0.22982552663E+04  0.27006039914E+04  0.14181976763E+04 0.  0.
        4    1    3    3  502    0 -0.49356819348E+03  0.48775431426E+03 -0.14270811733E+04  0.15868447059E+04  0.12699999809E+01 0.  1.
       -4    1    3    3    0  502  0.49356819348E+03 -0.48775431426E+03 -0.87117409306E+03  0.11137592855E+04  0.12699999809E+01 0. -1.
</event>
<event>
 5   0  0.8609148E-04  0.1129079E+04  0.7818609E-02  0.9177304E-01
       -1   -1    0    0    0  501  0.00000000000E+00  0.00000000000E+00  0.62198700172E+03  0.62198700174E+03  0.50400001928E-02 0.  1.
        1   -1    0    0  501    0  0.00000000000E+00  0.00000000000E+00 -0.51239807385E+03  0.51239807388E+03  0.50400001928E-02 0. -1.
    10030    2    1    2    0    0  0.00000000000E+00  0.00000000000E+00  0.10958892786E+03  0.11343850756E+04  0.11290791676E+04 0.  0.
        5    1    3    3  502    0 -0.21369726193E+03  0.24491118793E+03  0.51852044521E+03  0.61199146385E+03  0.46999998093E+01 0.  1.
       -5    1    3    3    0  502  0.21369726193E+03 -0.24491118793E+03 -0.40893151735E+03  0.52239361176E+03  0.46999998093E+01 0. -1.
</event>
<event>
 5   0  0.9007180E-04  0.1397641E+04  0.7818609E-02  0.8955528E-01
       -1   -1    0    0    0  501  0.00000000000E+00  0.00000000000E+00  0.12838270949E+04  0.12838270949E+04  0.50400001928E-02 0. -1.
        1   -1    0    0  501    0  0.00000000000E+00  0.00000000000E+00 -0.38038623944E+03  0.38038623947E+03  0.50400001928E-02 0.  1.
    10030    2    1    2    0    0  0.00000000000E+00  0.00000000000E+00  0.90344085542E+03  0.16642133343E+04  0.13976410995E+04 0.  0.
        2    1    3    3  502    0 -0.63674202378E+03  0.15099125089E+03  0.74365918069E+03  0.99058959197E+03  0.25500000920E-02 0. -1.
       -2    1    3    3    0  502  0.63674202378E+03 -0.15099125089E+03  0.15978167474E+03  0.67362374237E+03  0.25500000920E-02 0.  1.
</event>
<event>
 5   0  0.9007180E-04  0.1413017E+04  0.7818609E-02  0.8944450E-01
       -1   -1    0    0    0  501  0.00000000000E+00  0.00000000000E+00  0.43810415371E+03  0.43810415374E+03  0.50400001928E-02 0.  1.
        1   -1    0    0  501    0  0.00000000000E+00  0.00000000000E+00 -0.11393502655E+04  0.11393502655E+04  0.50400001928E-02 0. -1.
    10030    2    1    2    0    0  0.00000000000E+00  0.00000000000E+00 -0.70124611181E+03  0.15774544193E+04  0.14130167499E+04 0.  0.
        2    1    3    3  502    0  0.25297800955E+03  0.32250046852E+03 -0.99304691923E+03  0.10743121564E+04  0.25500000920E-02 0. -1.
       -2    1    3    3    0  502 -0.25297800955E+03 -0.32250046852E+03  0.29180080742E+03  0.50314226291E+03  0.25500000920E-02 0.  1.
</event>
<event>
 5   0  0.8673728E-04  0.1410246E+04  0.7818609E-02  0.8946435E-01
        1   -1    0    0  501    0  0.00000000000E+00  0.00000000000E+00  0.74889776268E+03  0.74889776269E+03  0.50400001928E-02 0.  1.
       -1   -1    0    0    0  501  0.00000000000E+00  0.00000000000E+00 -0.66390705629E+03  0.66390705631E+03  0.50400001928E-02 0. -1.
    10030    2    1    2    0    0  0.00000000000E+00  0.00000000000E+00  0.84990706387E+02  0.14128048190E+04  0.14102460907E+04 0.  0.
        3    1    3    3  502    0 -0.36748518291E+03  0.47870122191E+03  0.40784633126E+03  0.72838098523E+03  0.10100000352E+00 0.  1.
       -3    1    3    3    0  502  0.36748518291E+03 -0.47870122191E+03 -0.32285562487E+03  0.68442383377E+03  0.10100000352E+00 0. -1.
</event>
<event>
 5   0  0.1648463E-03  0.1396768E+04  0.7818609E-02  0.8956161E-01
       -2   -1    0    0    0  501  0.00000000000E+00  0.00000000000E+00  0.50163153533E+03  0.50163153534E+03  0.25500000920E-02 0.  1.
        2   -1    0    0  501    0  0.00000000000E+00  0.00000000000E+00 -0.97230817294E+03  0.97230817294E+03  0.25500000920E-02 0. -1.
    10030    2    1    2    0    0  0.00000000000E+00  0.00000000000E+00 -0.47067663760E+03  0.14739397083E+04  0.13967683296E+04 0.  0.
        1    1    3    3  502    0 -0.22026314373E+02 -0.64163127439E+02  0.49814646264E+03  0.50274443181E+03  0.50400001928E-02 0.  1.
       -1    1    3    3    0  502  0.22026314373E+02  0.64163127439E+02 -0.96882310024E+03  0.97119527647E+03  0.50400001928E-02 0. -1.
</event>
<event>
 5   0  0.8673728E-04  0.1406111E+04  0.7818609E-02  0.8949407E-01
        1   -1    0    0  501    0  0.00000000000E+00  0.00000000000E+00  0.56296299204E+03  0.56296299206E+03  0.50400001928E-02 0. -1.
       -1   -1    0    0    0  501  0.00000000000E+00  0.00000000000E+00 -0.87800977369E+03  0.87800977370E+03  0.50400001928E-02 0.  1.
    10030    2    1    2    0    0  0.00000000000E+00  0.00000000000E+00 -0.31504678165E+03  0.14409727658E+04  0.14061109619E+04 0.  0.
        3    1    3    3  502    0  0.10416384821E+03  0.69441015853E+03 -0.12156171674E+03  0.71262390973E+03  0.10100000352E+00 0. -1.
       -3    1    3    3    0  502 -0.10416384821E+03 -0.69441015853E+03 -0.19348506490E+03  0.72834885603E+03  0.10100000352E+00 0.  1.
</event>
<event>
 5   0  0.1706986E-03  0.1400888E+04  0.7818609E-02  0.8953176E-01
        2   -1    0    0  501    0  0.00000000000E+00  0.00000000000E+00  0.11663685197E+04  0.11663685197E+04  0.25500000920E-02 0. -1.
       -2   -1    0    0    0  501  0.00000000000E+00  0.00000000000E+00 -0.42064047675E+03  0.42064047675E+03  0.25500000920E-02 0.  1.
    10030    2    1    2    0    0  0.00000000000E+00  0.00000000000E+00  0.74572804299E+03  0.15870089965E+04  0.14008880187E+04 0.  0.
        3    1    3    3  502    0 -0.69400040135E+03 -0.43340602897E+02  0.46836637764E+03  0.83838060500E+03  0.10100000352E+00 0. -1.
       -3    1    3    3    0  502  0.69400040135E+03  0.43340602897E+02  0.27736166535E+03  0.74862839149E+03  0.10100000352E+00 0.  1.
</event>
<event>
 5   0  0.9639548E-04  0.1385108E+04  0.7818609E-02  0.8964669E-01
        1   -1    0    0  501    0  0.00000000000E+00  0.00000000000E+00  0.13545865652E+04  0.13545865652E+04  0.50400001928E-02 0.  1.
       -1   -1    0    0    0  501  0.00000000000E+00  0.00000000000E+00 -0.35407912089E+03  0.35407912093E+03  0.50400001928E-02 0. -1.
    10030    2    1    2    0    0  0.00000000000E+00  0.00000000000E+00  0.10005074443E+04  0.17086656861E+04  0.13851076784E+04 0.  0.
        1    1    3    3  502    0 -0.52002218645E+02  0.23971670944E+03  0.12992046872E+04  0.13221577632E+04  0.50400001928E-02 0.  1.
       -1    1    3    3    0  502  0.52002218645E+02 -0.23971670944E+03 -0.29869724291E+03  0.38650792292E+03  0.50400001928E-02 0. -1.
</event>
<event>
 5   0  0.1648213E-03  0.1392918E+04  0.7818609E-02  0.8958961E-01
       -2   -1    0    0    0  501  0.00000000000E+00  0.00000000000E+00  0.11679112540E+04  0.11679112540E+04  0.25500000920E-02 0.  1.
        2   -1    0    0  501    0  0.00000000000E+00  0.00000000000E+00 -0.41531875156E+03  0.41531875156E+03  0.25500000920E-02 0. -1.
    10030    2    1    2    0    0  0.00000000000E+00  0.00000000000E+00  0.75259250247E+03  0.15832300056E+04  0.13929184383E+04 0.  0.
        4    1    3    3  502    0  0.42484624707E+03  0.55071810981E+03  0.33580515239E+03  0.77236745361E+03  0.12699999809E+01 0. -1.
       -4    1    3    3    0  502 -0.42484624707E+03 -0.55071810981E+03  0.41678735009E+03  0.81086255199E+03  0.12699999809E+01 0.  1.
</event>
<event>
 5   0  0.1648213E-03  0.1427467E+04  0.7818609E-02  0.8934173E-01
        2   -1    0    0  501    0  0.00000000000E+00  0.00000000000E+00  0.13095491709E+04  0.13095491709E+04  0.25500000920E-02 0.  1.
       -2   -1    0    0    0  501  0.00000000000E+00  0.00000000000E+00 -0.38900060788E+03  0.38900060789E+03  0.25500000920E-02 0. -1.
    10030    2    1    2    0    0  0.00000000000E+00  0.00000000000E+00  0.92054856302E+03  0.16985497788E+04  0.14274668802E+04 0.  0.
        4    1    3    3  502    0 -0.58945444847E+03  0.20749724893E+03  0.49969004689E+02  0.62690523164E+03  0.12699999809E+01 0.  1.
       -4    1    3    3    0  502  0.58945444847E+03 -0.20749724893E+03  0.87057955833E+03  0.10716445471E+04  0.12699999809E+01 0. -1.
</event>
<event>
 5   0  0.8609148E-04  0.1394844E+04  0.7818609E-02  0.8957559E-01
        1   -1    0    0  501    0  0.00000000000E+00  0.00000000000E+00  0.22755155139E+04  0.22755155139E+04  0.50400001928E-02 0.  1.
       -1   -1    0    0    0  501  0.00000000000E+00  0.00000000000E+00 -0.21375255369E+03  0.21375255375E+03  0.50400001928E-02 0. -1.
    10030    2    1    2    0    0  0.00000000000E+00  0.00000000000E+00  0.20617629602E+04  0.24892680676E+04  0.13948437219E+04 0.  0.
        5    1    3    3  502    0 -0.14137147348E+03 -0.27005379229E+03  0.21503104194E+04  0.21718130523E+04  0.46999998093E+01 0.  1.
       -5    1    3    3    0  502  0.14137147348E+03  0.27005379229E+03 -0.88547459208E+02  0.31745501536E+03  0.46999998093E+01 0. -1.
</event>
<event>
 5   0  0.8673728E-04  0.1378290E+04  0.7818609E-02  0.8969685E-01
        1   -1    0    0  501    0  0.00000000000E+00  0.00000000000E+00  0.10799702606E+04  0.10799702606E+04  0.50400001928E-02 0. -1.
       -1   -1    0    0    0  501  0.00000000000E+00  0.00000000000E+00 -0.43975381171E+03  0.43975381174E+03  0.50400001928E-02 0.  1.
    10030    2    1    2    0    0  0.00000000000E+00  0.00000000000E+00  0.64021644891E+03  0.15197240724E+04  0.13782903013E+04 0.  0.
        3    1    3    3  502    0 -0.54157234241E+03 -0.33260724431E+03  0.61389438965E+03  0.88362577649E+03  0.10100000352E+00 0.  1.
       -3    1    3    3    0  502  0.54157234241E+03  0.33260724431E+03  0.26322059268E+02  0.63609829589E+03  0.10100000352E+00 0. -1.
</event>
<event>
 5   0  0.9007180E-04  0.1441934E+04  0.7818609E-02  0.8924012E-01
       -1   -1    0    0    0  501  0.00000000000E+00  0.00000000000E+00  0.69634344614E+03  0.69634344616E+03  0.50400001928E-02 0. -1.
        1   -1    0    0  501    0  0.00000000000E+00  0.00000000000E+00 -0.74646141160E+03  0.74646141161E+03  0.50400001928E-02 0.  1.
    10030    2    1    2    0    0  0.00000000000E+00  0.00000000000E+00 -0.50117965460E+02  0.14428048578E+04  0.14419341341E+04 0.  0.
        2    1    3    3  502    0  0.30865533696E+03 -0.18393695108E+03  0.60037253313E+03  0.69967713808E+03  0.25500000920E-02 0. -1.
       -2    1    3    3    0  502 -0.30865533696E+03  0.18393695108E+03 -0.65049049859E+03  0.74312771969E+03  0.25500000920E-02 0.  1.
</event>
<event>
 5   0  0.1648213E-03  0.1468369E+04  0.7818609E-02  0.8905764E-01
       -2   -1    0    0    0  501  0.00000000000E+00  0.00000000000E+00  0.64638150137E+03  0.64638150137E+03  0.25500000920E-02 0.  1.
        2   -1    0    0  501    0  0.00000000000E+00  0.00000000000E+00 -0.83391434327E+03  0.83391434327E+03  0.25500000920E-02 0. -1.
    10030    2    1    2    0    0  0.00000000000E+00  0.00000000000E+00 -0.18753284190E+03  0.14802958446E+04  0.14683688981E+04 0.  0.
        4    1    3    3  502    0 -0.65342457680E+03  0.22150766689E+03  0.15926204125E+03  0.70809274445E+03  0.12699999809E+01 0.  1.
       -4    1    3    3    0  502  0.65342457680E+03 -0.22150766689E+03 -0.34679488315E+03  0.77220310019E+03  0.12699999809E+01 0. -1.
</event>
<event>
 5   0  0.8673728E-04  0.1398743E+04  0.7818609E-02  0.8954729E-01
       -1   -1    0    0    0  501  0.00000000000E+00  0.00000000000E+00  0.71121724638E+03  0.71121724639E+03  0.50400001928E-02 0.  1.
        1   -1    0    0  501    0  0.00000000000E+00  0.00000000000E+00 -0.68772283885E+03  0.68772283887E+03  0.50400001928E-02 0. -1.
    10030    2    1    2    0    0  0.00000000000E+00  0.00000000000E+00  0.23494407527E+02  0.13989400853E+04  0.13987427837E+04 0.  0.
        3    1    3    3  502    0 -0.37413920234E+03 -0.54530638181E+03 -0.21583959269E+03  0.69564785110E+03  0.10100000352E+00 0. -1.
       -3    1    3    3    0  502  0.37413920234E+03  0.54530638181E+03  0.23933400022E+03  0.70329223416E+03  0.10100000352E+00 0.  1.
</event>
<event>
 5   0  0.1578965E-03  0.1401352E+04  0.7818609E-02  0.8952841E-01
        2   -1    0    0  501    0  0.00000000000E+00  0.00000000000E+00  0.14609204123E+04  0.14609204123E+04  0.25500000920E-02 0.  1.
       -2   -1    0    0    0  501  0.00000000000E+00  0.00000000000E+00 -0.33605287806E+03  0.33605287806E+03  0.25500000920E-02 0. -1.
    10030    2    1    2    0    0  0.00000000000E+00  0.00000000000E+00  0.11248675342E+04  0.17969732903E+04  0.14013515036E+04 0.  0.
        2    1    3    3  502    0 -0.63492204326E+02  0.53268081649E+03 -0.15556436190E+02  0.53667691862E+03  0.25500000920E-02 0. -1.
       -2    1    3    3    0  502  0.63492204326E+02 -0.53268081649E+03  0.11404239704E+04  0.12602963717E+04  0.25500000920E-02 0.  1.
</event>
<event>
 5   0  0.1648213E-03  0.1175414E+04  0.7818609E-02  0.9134653E-01
        2   -1    0    0  501    0  0.00000000000E+00  0.00000000000E+00  0.13825569072E+04  0.13825569072E+04  0.25500000920E-02 0.  1.
       -2   -1    0    0    0  501  0.00000000000E+00  0.00000000000E+00 -0.24982652260E+03  0.24982652261E+03  0.25500000920E-02 0. -1.
    10030    2    1    2    0    0  0.00000000000E+00  0.00000000000E+00  0.11327303846E+04  0.16323834298E+04  0.11754137730E+04 0.  0.
        4    1    3    3  502    0 -0.48356550269E+02 -0.41241892549E+03  0.11439514506E+04  0.12169857272E+04  0.12699999809E+01 0.  1.
       -4    1    3    3    0  502  0.48356550269E+02  0.41241892549E+03 -0.11221066037E+02  0.41539770255E+03  0.12699999809E+01 0. -1.
</event>
<event>
 5   0  0.8609148E-04  0.1271531E+04  0.7818609E-02  0.9052451E-01
        1   -1    0    0  501    0  0.00000000000E+00  0.00000000000E+00  0.30846413918E+04  0.30846413918E+04  0.50400001928E-02 0. -1.
       -1   -1    0    0    0  501  0.00000000000E+00  0.00000000000E+00 -0.13103559417E+03  0.13103559426E+03  0.50400001928E-02 0.  1.
    10030    2    1    2    0    0  0.00000000000E+00  0.00000000000E+00  0.29536057977E+04  0.32156769861E+04  0.12715310735E+04 0.  0.
        5    1    3    3  502    0  0.35151756349E+03  0.43034690161E+03  0.22579781480E+04  0.23253495350E+04  0.46999998093E+01 0. -1.
       -5    1    3    3    0  502 -0.35151756349E+03 -0.43034690161E+03  0.69562764964E+03  0.89032745105E+03  0.46999998093E+01 0.  1.
</event>
<event>
 5   0  0.9007180E-04  0.1383554E+04  0.7818609E-02  0.8965809E-01
       -1   -1    0    0    0  501  0.00000000000E+00  0.00000000000E+00  0.35318144977E+03  0.35318144980E+03  0.50400001928E-02 0.  1.
        1   -1    0    0  501    0  0.00000000000E+00  0.00000000000E+00 -0.13549855338E+04  0.13549855338E+04  0.50400001928E-02 0. -1.
    10030    2    1    2    0    0  0.00000000000E+00  0.00000000000E+00 -0.10018040840E+04  0.17081669836E+04  0.13835544879E+04 0.  0.
        2    1    3    3  502    0 -0.59347458548E+03 -0.31736768960E+03 -0.69852421231E+03  0.96998474689E+03  0.25500000920E-02 0.  1.
       -2    1    3    3    0  502  0.59347458548E+03  0.31736768960E+03 -0.30327987173E+03  0.73818223672E+03  0.25500000920E-02 0. -1.
</event>
<event>
 5   0  0.1578965E-03  0.1386031E+04  0.7818609E-02  0.8963992E-01
       -2   -1    0    0    0  501  0.00000000000E+00  0.00000000000E+00  0.10904297110E+04  0.10904297110E+04  0.25500000920E-02 0. -1.
        2   -1    0    0  501    0  0.00000000000E+00  0.00000000000E+00 -0.44044172598E+03  0.44044172599E+03  0.25500000920E-02 0.  1.
    10030    2    1    2    0    0  0.00000000000E+00  0.00000000000E+00  0.64998798501E+03  0.15308714370E+04  0.13860313762E+04 0.  0.
        2    1    3    3  502    0  0.62534624387E+03 -0.24304605431E+03  0.51674939953E+03  0.84685255574E+03  0.25500000920E-02 0.  1.
       -2    1    3    3    0  502 -0.62534624387E+03  0.24304605431E+03  0.13323858548E+03  0.68401888125E+03  0.25500000920E-02 0. -1.
</event>
<event>
 5   0  0.1706986E-03  0.1393600E+04  0.7818609E-02  0.8958464E-01
       -2   -1    0    0    0  501  0.00000000000E+00  0.00000000000E+00  0.51615222855E+03  0.51615222856E+03  0.25500000920E-02 0.  1.
        2   -1    0    0  501    0  0.00000000000E+00  0.00000000000E+00 -0.94067295294E+03  0.94067295294E+03  0.25500000920E-02 0. -1.
    10030    2    1    2    0    0  0.00000000000E+00  0.00000000000E+00 -0.42452072439E+03  0.14568251815E+04  0.13936002885E+04 0.  0.
        3    1    3    3  502    0 -0.51239564749E+03  0.44321700567E+03 -0.41958979079E+02  0.67878654952E+03  0.10100000352E+00 0.  1.
       -3    1    3    3    0  502  0.51239564749E+03 -0.44321700567E+03 -0.38256174531E+03  0.77803863198E+03  0.10100000352E+00 0. -1.
</event>
<event>
 5   0  0.1605214E-03  0.1402042E+04  0.7818609E-02  0.8952342E-01
        2   -1    0    0  501    0  0.00000000000E+00  0.00000000000E+00  0.98089536707E+03  0.98089536707E+03  0.25500000920E-02 0.  1.
       -2   -1    0    0    0  501  0.00000000000E+00  0.00000000000E+00 -0.50100215057E+03  0.50100215058E+03  0.25500000920E-02 0. -1.
    10030    2    1    2    0    0  0.00000000000E+00  0.00000000000E+00  0.47989321650E+03  0.14818975176E+04  0.14020423508E+04 0.  0.
        5    1    3    3  502    0 -0.59171960609E+02  0.44526184821E+03 -0.32889738680E+03  0.55673603749E+03  0.46999998093E+01 0. -1.
       -5    1    3    3    0  502  0.59171960609E+02 -0.44526184821E+03  0.80879060330E+03  0.92516148016E+03  0.46999998093E+01 0.  1.
</event>
<event>
 5   0  0.9007180E-04  0.1363166E+04  0.7818609E-02  0.8980921E-01
       -1   -1    0    0    0  501  0.00000000000E+00  0.00000000000E+00  0.61848952802E+03  0.61848952804E+03  0.50400001928E-02 0. -1.
        1   -1    0    0  501    0  0.00000000000E+00  0.00000000000E+00 -0.75111304884E+03  0.75111304886E+03  0.50400001928E-02 0.  1.
    10030    2    1    2    0    0  0.00000000000E+00  0.00000000000E+00 -0.13262352083E+03  0.13696025769E+04  0.13631662482E+04 0.  0.
        2    1    3    3  502    0  0.19754574448E+03 -0.52702131244E+03  0.31992466879E+03  0.64740063225E+03  0.25500000920E-02 0. -1.
       -2    1    3    3    0  502 -0.19754574448E+03  0.52702131244E+03 -0.45254818962E+03  0.72220194465E+03  0.25500000920E-02 0.  1.
</event>
<event>
 5   0  0.1578965E-03  0.1393614E+04  0.7818609E-02  0.8958454E-01
        2   -1    0    0  501    0  0.00000000000E+00  0.00000000000E+00  0.10246983228E+04  0.10246983228E+04  0.25500000920E-02 0.  1.
       -2   -1    0    0    0  501  0.00000000000E+00  0.00000000000E+00 -0.47383711804E+03  0.47383711805E+03  0.25500000920E-02 0. -1.
    10030    2    1    2    0    0  0.00000000000E+00  0.00000000000E+00  0.55086120479E+03  0.14985354409E+04  0.13936141506E+04 0.  0.
        2    1    3    3  502    0  0.14011920673E+03  0.42019994170E+03  0.85382988667E+03  0.96188713396E+03  0.25500000920E-02 0.  1.
       -2    1    3    3    0  502 -0.14011920673E+03 -0.42019994170E+03 -0.30296868189E+03  0.53664830691E+03  0.25500000920E-02 0. -1.
</event>
<event>
 5   0  0.9007180E-04  0.1391857E+04  0.7818609E-02  0.8959734E-01
       -1   -1    0    0    0  501  0.00000000000E+00  0.00000000000E+00  0.23588850679E+03  0.23588850684E+03  0.50400001928E-02 0. -1.
        1   -1    0    0  501    0  0.00000000000E+00  0.00000000000E+00 -0.20531585841E+04  0.20531585841E+04  0.50400001928E-02 0.  1.
    10030    2    1    2    0    0  0.00000000000E+00  0.00000000000E+00 -0.18172700773E+04  0.22890470909E+04  0.13918570511E+04 0.  0.
        2    1    3    3  502    0  0.53804183854E+02  0.31651108213E+02 -0.20485450183E+04  0.20494958831E+04  0.25500000920E-02 0.  1.
       -2    1    3    3    0  502 -0.53804183854E+02 -0.31651108213E+02  0.23127494098E+03  0.23955120785E+03  0.25500000920E-02 0. -1.
</event>
<event>
 5   0  0.1605214E-03  0.1388838E+04  0.7818609E-02  0.8961938E-01
        2   -1    0    0  501    0  0.00000000000E+00  0.00000000000E+00  0.60668123023E+03  0.60668123023E+03  0.25500000920E-02 0. -1.
       -2   -1    0    0    0  501  0.00000000000E+00  0.00000000000E+00 -0.79484587497E+03  0.79484587498E+03  0.25500000920E-02 0.  1.
    10030    2    1    2    0    0  0.00000000000E+00  0.00000000000E+00 -0.18816464475E+03  0.14015271052E+04  0.13888384690E+04 0.  0.
        5    1    3    3  502    0  0.39437205460E+03 -0.10397956107E+03  0.47306199478E+03  0.62462053078E+03  0.46999998093E+01 0. -1.
       -5    1    3    3    0  502 -0.39437205460E+03  0.10397956107E+03 -0.66122663953E+03  0.77690657443E+03  0.46999998093E+01 0.  1.
</event>
<event>
 5   0  0.9639548E-04  0.1472380E+04  0.7818609E-02  0.8903030E-01
        1   -1    0    0  501    0  0.00000000000E+00  0.00000000000E+00  0.18424572791E+04  0.18424572791E+04  0.50400001928E-02 0.  1.
       -1   -1    0    0    0  501  0.00000000000E+00  0.00000000000E+00 -0.29415936208E+03  0.29415936212E+03  0.50400001928E-02 0. -1.
    10030    2    1    2    0    0  0.00000000000E+00  0.00000000000E+00  0.15482979170E+04  0.21366166412E+04  0.14723804643E+04 0.  0.
        1    1    3    3  502    0 -0.71290081245E+02 -0.40014954710E+03  0.16648810376E+04  0.17137767664E+04  0.50400001928E-02 0.  1.
       -1    1    3    3    0  502  0.71290081245E+02  0.40014954710E+03 -0.11658312055E+03  0.42283987484E+03  0.50400001928E-02 0. -1.
</event>
<event>
 5   0  0.8502300E-04  0.1404628E+04  0.7818609E-02  0.8950475E-01
       -1   -1    0    0    0  501  0.00000000000E+00  0.00000000000E+00  0.49633491228E+03  0.49633491230E+03  0.50400001928E-02 0. -1.
        1   -1    0    0  501    0  0.00000000000E+00  0.00000000000E+00 -0.99377509974E+03  0.99377509976E+03  0.50400001928E-02 0.  1.
    10030    2    1    2    0    0  0.00000000000E+00  0.00000000000E+00 -0.49744018747E+03  0.14901100121E+04  0.14046284590E+04 0.  0.
        4    1    3    3  502    0 -0.82317673008E+02  0.66813977852E+03 -0.36398356217E+02  0.67417610175E+03  0.12699999809E+01 0.  1.
       -4    1    3    3    0  502  0.82317673008E+02 -0.66813977852E+03 -0.46104183125E+03  0.81593391031E+03  0.12699999809E+01 0. -1.
</event>
<event>
 5   0  0.9639548E-04  0.1457002E+04  0.7818609E-02  0.8913560E-01
       -1   -1    0    0    0  501  0.00000000000E+00  0.00000000000E+00  0.75941003686E+03  0.75941003688E+03  0.50400001928E-02 0. -1.
        1   -1    0    0  501    0  0.00000000000E+00  0.00000000000E+00 -0.69885046736E+03  0.69885046737E+03  0.50400001928E-02 0.  1.
    10030    2    1    2    0    0  0.00000000000E+00  0.00000000000E+00  0.60559569506E+02  0.14582605043E+04  0.14570024835E+04 0.  0.
        1    1    3    3  502    0  0.35060505731E+03 -0.34266003935E+03  0.56960890784E+03  0.75152785490E+03  0.50400001928E-02 0. -1.
       -1    1    3    3    0  502 -0.35060505731E+03  0.34266003935E+03 -0.50904933833E+03  0.70673264935E+03  0.50400001928E-02 0.  1.
</event>
<event>
 5   0  0.1605214E-03  0.1389640E+04  0.7818609E-02  0.8961352E-01
       -2   -1    0    0    0  501  0.00000000000E+00  0.00000000000E+00  0.31134786302E+03  0.31134786303E+03  0.25500000920E-02 0. -1.
        2   -1    0    0  501    0  0.00000000000E+00  0.00000000000E+00 -0.15505963303E+04  0.15505963303E+04  0.25500000920E-02 0.  1.
    10030    2    1    2    0    0  0.00000000000E+00  0.00000000000E+00 -0.12392484673E+04  0.18619441933E+04  0.13896400309E+04 0.  0.
        5    1    3    3  502    0  0.48004697957E+03 -0.32072262652E+03 -0.11375941560E+04  0.12757157441E+04  0.46999998093E+01 0.  1.
       -5    1    3    3    0  502 -0.48004697957E+03  0.32072262652E+03 -0.10165431123E+03  0.58622844928E+03  0.46999998093E+01 0. -1.
</event>
<event>
 5   0  0.8609148E-04  0.1415433E+04  0.7818609E-02  0.8942722E-01
        1   -1    0    0  501    0  0.00000000000E+00  0.00000000000E+00  0.11999709479E+04  0.11999709479E+04  0.50400001928E-02 0. -1.
       -1   -1    0    0    0  501  0.00000000000E+00  0.00000000000E+00 -0.41739567895E+03  0.41739567898E+03  0.50400001928E-02 0.  1.
    10030    2    1    2    0    0  0.00000000000E+00  0.00000000000E+00  0.78257526899E+03  0.16173666269E+04  0.14154330625E+04 0.  0.
        5    1    3    3  502    0 -0.70523819439E+03 -0.49758915888E+02  0.35508590398E+03  0.79116682801E+03  0.46999998093E+01 0. -1.
       -5    1    3    3    0  502  0.70523819439E+03  0.49758915888E+02  0.42748936501E+03  0.82619979892E+03  0.46999998093E+01 0.  1.
</event>
<event>
 5   0  0.8673728E-04  0.1404725E+04  0.7818609E-02  0.8950405E-01
       -1   -1    0    0    0  501  0.00000000000E+00  0.00000000000E+00  0.45952001629E+03  0.45952001631E+03  0.50400001928E-02 0. -1.
        1   -1    0    0  501    0  0.00000000000E+00  0.00000000000E+00 -0.10735405840E+04  0.10735405840E+04  0.50400001928E-02 0.  1.
    10030    2    1    2    0    0  0.00000000000E+00  0.00000000000E+00 -0.61402056767E+03  0.15330606003E+04  0.14047254346E+04 0.  0.
        3    1    3    3  502    0 -0.32134403545E+03 -0.34831805515E+03 -0.87275779932E+03  0.99312317622E+03  0.10100000352E+00 0.  1.
       -3    1    3    3    0  502  0.32134403545E+03  0.34831805515E+03  0.25873723165E+03  0.53993742407E+03  0.10100000352E+00 0. -1.
</event>
<event>
 5   0  0.1648463E-03  0.1400601E+04  0.7818609E-02  0.8953383E-01
       -2   -1    0    0    0  501  0.00000000000E+00  0.00000000000E+00  0.11543892414E+04  0.11543892414E+04  0.25500000920E-02 0.  1.
        2   -1    0    0  501    0  0.00000000000E+00  0.00000000000E+00 -0.42483167297E+03  0.42483167298E+03  0.25500000920E-02 0. -1.
    10030    2    1    2    0    0  0.00000000000E+00  0.00000000000E+00  0.72955756843E+03  0.15792209144E+04  0.14006014604E+04 0.  0.
        1    1    3    3  502    0  0.16688751306E+03  0.60032633931E+03  0.72519715530E+03  0.95611404642E+03  0.50400001928E-02 0.  1.
       -1    1    3    3    0  502 -0.16688751306E+03 -0.60032633931E+03  0.43604131317E+01  0.62310686797E+03  0.50400001928E-02 0. -1.
</event>
<event>
 5   0  0.8673728E-04  0.1399605E+04  0.7818609E-02  0.8954104E-01
        1   -1    0    0  501    0  0.00000000000E+00  0.00000000000E+00  0.50564799621E+03  0.50564799623E+03  0.50400001928E-02 0.  1.
       -1   -1    0    0    0  501  0.00000000000E+00  0.00000000000E+00 -0.96850703481E+03  0.96850703482E+03  0.50400001928E-02 0. -1.
    10030    2    1    2    0    0  0.00000000000E+00  0.00000000000E+00 -0.46285903860E+03  0.14741550311E+04  0.13996051464E+04 0.  0.
        3    1    3    3  502    0 -0.15692229093E+03 -0.66776806790E+03 -0.37731653629E+03  0.78288350133E+03  0.10100000352E+00 0. -1.
       -3    1    3    3    0  502  0.15692229093E+03  0.66776806790E+03 -0.85542502311E+02  0.69127152972E+03  0.10100000352E+00 0.  1.
</event>
<event>
 5   0  0.1706986E-03  0.1393792E+04  0.7818609E-02  0.8958324E-01
       -2   -1    0    0    0  501  0.00000000000E+00  0.00000000000E+00  0.68342047140E+03  0.68342047141E+03  0.25500000920E-02 0. -1.
        2   -1    0    0  501    0  0.00000000000E+00  0.00000000000E+00 -0.71063738593E+03  0.71063738593E+03  0.25500000920E-02 0.  1.
    10030    2    1    2    0    0  0.00000000000E+00  0.00000000000E+00 -0.27216914525E+02  0.13940578573E+04  0.13937921470E+04 0.  0.
        3    1    3    3  502    0  0.39960495547E+03 -0.16818894428E+03 -0.55932450039E+03  0.70768322599E+03  0.10100000352E+00 0.  1.
       -3    1    3    3    0  502 -0.39960495547E+03  0.16818894428E+03  0.53210758587E+03  0.68637463134E+03  0.10100000352E+00 0. -1.
</event>
<event>
 5   0  0.9639548E-04  0.1393208E+04  0.7818609E-02  0.8958750E-01
        1   -1    0    0  501    0  0.00000000000E+00  0.00000000000E+00  0.54084860436E+03  0.54084860438E+03  0.50400001928E-02 0. -1.
       -1   -1    0    0    0  501  0.00000000000E+00  0.00000000000E+00 -0.89721397886E+03  0.89721397888E+03  0.50400001928E-02 0.  1.
    10030    2    1    2    0    0  0.00000000000E+00  0.00000000000E+00 -0.35636537450E+03  0.14380625833E+04  0.13932077064E+04 0.  0.
        1    1    3    3  502    0 -0.53212765329E+03  0.16566512827E+03  0.25318627320E+03  0.61213402379E+03  0.50400001928E-02 0. -1.
       -1    1    3    3    0  502  0.53212765329E+03 -0.16566512827E+03 -0.60955164770E+03  0.82592855947E+03  0.50400001928E-02 0.  1.
</event>
<event>
 5   0  0.9639548E-04  0.1390912E+04  0.7818609E-02  0.8960423E-01
       -1   -1    0    0    0  501  0.00000000000E+00  0.00000000000E+00  0.56127977568E+03  0.56127977570E+03  0.50400001928E-02 0. -1.
        1   -1    0    0  501    0  0.00000000000E+00  0.00000000000E+00 -0.86170772207E+03  0.86170772209E+03  0.50400001928E-02 0.  1.
    10030    2    1    2    0    0  0.00000000000E+00  0.00000000000E+00 -0.30042794639E+03  0.14229874978E+04  0.13909120993E+04 0.  0.
        1    1    3    3  502    0 -0.46394170626E+03  0.48844462626E+03 -0.32693732831E+03  0.74880443134E+03  0.50400001928E-02 0.  1.
       -1    1    3    3    0  502  0.46394170626E+03 -0.48844462626E+03  0.26509381921E+02  0.67418306645E+03  0.50400001928E-02 0. -1.
</event>
<event>
 5   0  0.1648463E-03  0.1436579E+04  0.7818609E-02  0.8927758E-01
       -2   -1    0    0    0  501  0.00000000000E+00  0.00000000000E+00  0.47575281344E+03  0.47575281345E+03  0.25500000920E-02 0. -1.
        2   -1    0    0  501    0  0.00000000000E+00  0.00000000000E+00 -0.10844704624E+04  0.10844704624E+04  0.25500000920E-02 0.  1.
    10030    2    1    2    0    0  0.00000000000E+00  0.00000000000E+00 -0.60871764897E+03  0.15602232759E+04  0.14365790944E+04 0.  0.
        1    1    3    3  502    0  0.71707118913E+03  0.41533135730E+02 -0.30965522397E+03  0.78217801644E+03  0.50400001928E-02 0. -1.
       -1    1    3    3    0  502 -0.71707118913E+03 -0.41533135730E+02 -0.29906242500E+03  0.77804525942E+03  0.50400001928E-02 0.  1.
</event>
<event>
 5   0  0.8673728E-04  0.1321990E+04  0.7818609E-02  0.9012307E-01
       -1   -1    0    0    0  501  0.00000000000E+00  0.00000000000E+00  0.57300952191E+03  0.57300952193E+03  0.50400001928E-02 0.  1.
        1   -1    0    0  501    0  0.00000000000E+00  0.00000000000E+00 -0.76249012319E+03  0.76249012321E+03  0.50400001928E-02 0. -1.
    10030    2    1    2    0    0  0.00000000000E+00  0.00000000000E+00 -0.18948060128E+03  0.13354996451E+04  0.13219895627E+04 0.  0.
        3    1    3    3  502    0  0.49828590664E+03  0.40886367902E+03  0.53234403140E+02  0.64675518139E+03  0.10100000352E+00 0.  1.
       -3    1    3    3    0  502 -0.49828590664E+03 -0.40886367902E+03 -0.24271500442E+03  0.68874446375E+03  0.10100000352E+00 0. -1.
</event>
<event>
 5   0  0.9639548E-04  0.1395414E+04  0.7818609E-02  0.8957145E-01
       -1   -1    0    0    0  501  0.00000000000E+00  0.00000000000E+00  0.49516522216E+03  0.49516522218E+03  0.50400001928E-02 0.  1.
        1   -1    0    0  501    0  0.00000000000E+00  0.00000000000E+00 -0.98309634776E+03  0.98309634777E+03  0.50400001928E-02 0. -1.
    10030    2    1    2    0    0  0.00000000000E+00  0.00000000000E+00 -0.48793112560E+03  0.14782615700E+04  0.13954140912E+04 0.  0.
        1    1    3    3  502    0 -0.62093067509E+03 -0.31347642606E+03 -0.30172557355E+03  0.75819568366E+03  0.50400001928E-02 0.  1.
       -1    1    3    3    0  502  0.62093067509E+03  0.31347642606E+03 -0.18620555205E+03  0.72006588629E+03  0.50400001928E-02 0. -1.
</event>
<event>
 5   0  0.1706986E-03  0.1403786E+04  0.7818609E-02  0.8951083E-01
        2   -1    0    0  501    0  0.00000000000E+00  0.00000000000E+00  0.10990110279E+04  0.10990110279E+04  0.25500000920E-02 0. -1.
       -2   -1    0    0    0  501  0.00000000000E+00  0.00000000000E+00 -0.44827005782E+03  0.44827005783E+03  0.25500000920E-02 0.  1.
    10030    2    1    2    0    0  0.00000000000E+00  0.00000000000E+00  0.65074097006E+03  0.15472810857E+04  0.14037859339E+04 0.  0.
        3    1    3    3  502    0  0.59884033912E+03 -0.33453939123E+03  0.16141224915E+03  0.70468452546E+03  0.10100000352E+00 0. -1.
       -3    1    3    3    0  502 -0.59884033912E+03  0.33453939123E+03  0.48932872090E+03  0.84259656025E+03  0.10100000352E+00 0.  1.
</event>
<event>
 5   0  0.1605214E-03  0.1390740E+04  0.7818609E-02  0.8960549E-01
        2   -1    0    0  501    0  0.00000000000E+00  0.00000000000E+00  0.93700377532E+03  0.93700377532E+03  0.25500000920E-02 0. -1.
       -2   -1    0    0    0  501  0.00000000000E+00  0.00000000000E+00 -0.51604828650E+03  0.51604828650E+03  0.25500000920E-02 0.  1.
    10030    2    1    2    0    0  0.00000000000E+00  0.00000000000E+00  0.42095548882E+03  0.14530520618E+04  0.13907396488E+04 0.  0.
        5    1    3    3  502    0  0.16012542257E+03  0.30002839938E+03 -0.42321184118E+03  0.54294340764E+03  0.46999998093E+01 0.  1.
       -5    1    3    3    0  502 -0.16012542257E+03 -0.30002839938E+03  0.84416733000E+03  0.91010865419E+03  0.46999998093E+01 0. -1.
</event>
<event>
 5   0  0.1578965E-03  0.1392071E+04  0.7818609E-02  0.8959578E-01
       -2   -1    0    0    0  501  0.00000000000E+00  0.00000000000E+00  0.43395048474E+03  0.43395048475E+03  0.25500000920E-02 0. -1.
        2   -1    0    0  501    0  0.00000000000E+00  0.00000000000E+00 -0.11164065624E+04  0.11164065624E+04  0.25500000920E-02 0.  1.
    10030    2    1    2    0    0  0.00000000000E+00  0.00000000000E+00 -0.68245607767E+03  0.15503570472E+04  0.13920706432E+04 0.  0.
        2    1    3    3  502    0  0.19782070140E+03 -0.44319029159E+03  0.21441458672E+03  0.53058861604E+03  0.25500000920E-02 0. -1.
       -2    1    3    3    0  502 -0.19782070140E+03  0.44319029159E+03 -0.89687066440E+03  0.10197684311E+04  0.25500000920E-02 0.  1.
</event>
<event>
 5   0  0.1578965E-03  0.1402758E+04  0.7818609E-02  0.8951825E-01
       -2   -1    0    0    0  501  0.00000000000E+00  0.00000000000E+00  0.71647311753E+03  0.71647311754E+03  0.25500000920E-02 0. -1.
        2   -1    0    0  501    0  0.00000000000E+00  0.00000000000E+00 -0.68660263844E+03  0.68660263845E+03  0.25500000920E-02 0.  1.
    10030    2    1    2    0    0  0.00000000000E+00  0.00000000000E+00  0.29870479089E+02  0.14030757560E+04  0.14027577594E+04 0.  0.
        2    1    3    3  502    0  0.19619243311E+02  0.19892363874E+03 -0.65750936642E+03  0.68722201340E+03  0.25500000920E-02 0.  1.
       -2    1    3    3    0  502 -0.19619243311E+02 -0.19892363874E+03  0.68737984551E+03  0.71585374259E+03  0.25500000920E-02 0. -1.
</event>
<event>
 5   0  0.1706986E-03  0.1418703E+04  0.7818609E-02  0.8940391E-01
       -2   -1    0    0    0  501  0.00000000000E+00  0.00000000000E+00  0.43278643801E+03  0.43278643802E+03  0.25500000920E-02 0. -1.
        2   -1    0    0  501    0  0.00000000000E+00  0.00000000000E+00 -0.11626506695E+04  0.11626506695E+04  0.25500000920E-02 0.  1.
    10030    2    1    2    0    0  0.00000000000E+00  0.00000000000E+00 -0.72986423151E+03  0.15954371075E+04  0.14187028469E+04 0.  0.
        3    1    3    3  502    0  0.53845893656E+03 -0.24350520486E+03 -0.80617054363E+03  0.99957179170E+03  0.10100000352E+00 0.  1.
       -3    1    3    3    0  502 -0.53845893656E+03  0.24350520486E+03  0.76306312117E+02  0.59586531584E+03  0.10100000352E+00 0. -1.
</event>
<event>
 5   0  0.9007180E-04  0.1399860E+04  0.7818609E-02  0.8953920E-01
        1   -1    0    0  501    0  0.00000000000E+00  0.00000000000E+00  0.73319974543E+03  0.73319974545E+03  0.50400001928E-02 0. -1.
       -1   -1    0    0    0  501  0.00000000000E+00  0.00000000000E+00 -0.66817028651E+03  0.66817028653E+03  0.50400001928E-02 0.  1.
    10030    2    1    2    0    0  0.00000000000E+00  0.00000000000E+00  0.65029458915E+02  0.14013700320E+04  0.13998603988E+04 0.  0.
        2    1    3    3  502    0  0.30300358390E+03 -0.49773633038E+03  0.42068236290E+03  0.71869762550E+03  0.25500000920E-02 0. -1.
       -2    1    3    3    0  502 -0.30300358390E+03  0.49773633038E+03 -0.35565290399E+03  0.68267240648E+03  0.25500000920E-02 0.  1.
</event>
<event>
 5   0  0.1648463E-03  0.1409572E+04  0.7818609E-02  0.8946919E-01
       -2   -1    0    0    0  501  0.00000000000E+00  0.00000000000E+00  0.39811468103E+03  0.39811468103E+03  0.25500000920E-02 0. -1.
        2   -1    0    0  501    0  0.00000000000E+00  0.00000000000E+00 -0.12476897736E+04  0.12476897736E+04  0.25500000920E-02 0.  1.
    10030    2    1    2    0    0  0.00000000000E+00  0.00000000000E+00 -0.84957509260E+03  0.16458044547E+04  0.14095724405E+04 0.  0.
        1    1    3    3  502    0 -0.27472558449E+03 -0.63288832407E+03 -0.59278213542E+03  0.90962214002E+03  0.50400001928E-02 0. -1.
       -1    1    3    3    0  502  0.27472558449E+03  0.63288832407E+03 -0.25679295718E+03  0.73618231465E+03  0.50400001928E-02 0.  1.
</event>
<event>
 5   0  0.8673728E-04  0.1298622E+04  0.7818609E-02  0.9030659E-01
       -1   -1    0    0    0  501  0.00000000000E+00  0.00000000000E+00  0.36202416118E+03  0.36202416122E+03  0.50400001928E-02 0.  1.
        1   -1    0    0  501    0  0.00000000000E+00  0.00000000000E+00 -0.11645759764E+04  0.11645759764E+04  0.50400001928E-02 0. -1.
    10030    2    1    2    0    0  0.00000000000E+00  0.00000000000E+00 -0.80255181518E+03  0.15266001376E+04  0.12986217941E+04 0.  0.
        3    1    3    3  502    0 -0.15999780151E+03  0.43326442299E+03  0.13522934498E+03  0.48125288847E+03  0.10100000352E+00 0.  1.
       -3    1    3    3    0  502  0.15999780151E+03 -0.43326442299E+03 -0.93778116016E+03  0.10453472491E+04  0.10100000352E+00 0. -1.
</event>
<event>
 5   0  0.8673728E-04  0.1405247E+04  0.7818609E-02  0.8950030E-01
       -1   -1    0    0    0  501  0.00000000000E+00  0.00000000000E+00  0.43226526255E+03  0.43226526258E+03  0.50400001928E-02 0.  1.
        1   -1    0    0  501    0  0.00000000000E+00  0.00000000000E+00 -0.11420753918E+04  0.11420753918E+04  0.50400001928E-02 0. -1.
    10030    2    1    2    0    0  0.00000000000E+00  0.00000000000E+00 -0.70981012920E+03  0.15743406543E+04  0.14052466248E+04 0.  0.
        3    1    3    3  502    0 -0.92195726549E+02  0.66798825389E+03 -0.57607076142E+03  0.88688550089E+03  0.10100000352E+00 0. -1.
       -3    1    3    3    0  502  0.92195726549E+02 -0.66798825389E+03 -0.13373936778E+03  0.68745515346E+03  0.10100000352E+00 0.  1.
</event>
<event>
 5   0  0.8502300E-04  0.1345577E+04  0.7818609E-02  0.8994183E-01
       -1   -1    0    0    0  501  0.00000000000E+00  0.00000000000E+00  0.22107448125E+04  0.22107448125E+04  0.50400001928E-02 0.  1.
        1   -1    0    0  501    0  0.00000000000E+00  0.00000000000E+00 -0.20474746211E+03  0.20474746217E+03  0.50400001928E-02 0. -1.
    10030    2    1    2    0    0  0.00000000000E+00  0.00000000000E+00  0.20059973504E+04  0.24154922747E+04  0.13455770358E+04 0.  0.
        4    1    3    3  502    0 -0.48518109547E+03  0.46484512811E+03  0.94182990812E+03  0.11569472232E+04  0.12699999809E+01 0.  1.
       -4    1    3    3    0  502  0.48518109547E+03 -0.46484512811E+03  0.10641674423E+04  0.12585450515E+04  0.12699999809E+01 0. -1.
</event>
<event>
 5   0  0.1648213E-03  0.1406552E+04  0.7818609E-02  0.8949090E-01
        2   -1    0    0  501    0  0.00000000000E+00  0.00000000000E+00  0.10450532979E+04  0.10450532979E+04  0.25500000920E-02 0. -1.
       -2   -1    0    0    0  501  0.00000000000E+00  0.00000000000E+00 -0.47327452095E+03  0.47327452095E+03  0.25500000920E-02 0.  1.
    10030    2    1    2    0    0  0.00000000000E+00  0.00000000000E+00  0.57177877693E+03  0.15183278188E+04  0.14065519527E+04 0.  0.
        4    1    3    3  502    0  0.15948276886E+03 -0.58320017991E+03 -0.10187601485E+03  0.61313745499E+03  0.12699999809E+01 0. -1.
       -4    1    3    3    0  502 -0.15948276886E+03  0.58320017991E+03  0.67365479178E+03  0.90519036385E+03  0.12699999809E+01 0.  1.
</event>
<event>
 5   0  0.8673728E-04  0.1397753E+04  0.7818609E-02  0.8955446E-01
        1   -1    0    0  501    0  0.00000000000E+00  0.00000000000E+00  0.16891419885E+04  0.16891419885E+04  0.50400001928E-02 0.  1.
       -1   -1    0    0    0  501  0.00000000000E+00  0.00000000000E+00 -0.28915785994E+03  0.28915785999E+03  0.50400001928E-02 0. -1.
    10030    2    1    2    0    0  0.00000000000E+00  0.00000000000E+00  0.13999841286E+04  0.19782998485E+04  0.13977534584E+04 0.  0.
        3    1    3    3  502    0  0.73448823710E+02  0.99574129630E+02  0.16735161645E+04  0.16780840563E+04  0.10100000352E+00 0.  1.
       -3    1    3    3    0  502 -0.73448823710E+02 -0.99574129630E+02 -0.27353203594E+03  0.30021579219E+03  0.10100000352E+00 0. -1.
</event>
<event>
 5   0  0.1605214E-03  0.1393118E+04  0.7818609E-02  0.8958815E-01
       -2   -1    0    0    0  501  0.00000000000E+00  0.00000000000E+00  0.10301511309E+04  0.10301511309E+04  0.25500000920E-02 0.  1.
        2   -1    0    0  501    0  0.00000000000E+00  0.00000000000E+00 -0.47099347824E+03  0.47099347825E+03  0.25500000920E-02 0. -1.
    10030    2    1    2    0    0  0.00000000000E+00  0.00000000000E+00  0.55915765266E+03  0.15011446092E+04  0.13931180341E+04 0.  0.
        5    1    3    3  502    0  0.21049880560E+02  0.13038662538E+03  0.10165178965E+04  0.10250729211E+04  0.46999998093E+01 0.  1.
       -5    1    3    3    0  502 -0.21049880560E+02 -0.13038662538E+03 -0.45736024385E+03  0.47607168809E+03  0.46999998093E+01 0. -1.
</event>
<event>
 5   0  0.8673728E-04  0.1375724E+04  0.7818609E-02  0.8971581E-01
       -1   -1    0    0    0  501  0.00000000000E+00  0.00000000000E+00  0.53559448413E+03  0.53559448416E+03  0.50400001928E-02 0.  1.
        1   -1    0    0  501    0  0.00000000000E+00  0.00000000000E+00 -0.88341878788E+03  0.88341878789E+03  0.50400001928E-02 0. -1.
    10030    2    1    2    0    0  0.00000000000E+00  0.00000000000E+00 -0.34782430374E+03  0.14190132720E+04  0.13757241439E+04 0.  0.
        3    1    3    3  502    0 -0.40411977922E+02 -0.21473536904E+03  0.49884581609E+03  0.54460220814E+03  0.10100000352E+00 0.  1.
       -3    1    3    3    0  502  0.40411977922E+02  0.21473536904E+03 -0.84667011983E+03  0.87441106391E+03  0.10100000352E+00 0. -1.
</event>
<event>
 5   0  0.1648463E-03  0.1387844E+04  0.7818609E-02  0.8962665E-01
        2   -1    0    0  501    0  0.00000000000E+00  0.00000000000E+00  0.15502970634E+04  0.15502970634E+04  0.25500000920E-02 0.  1.
       -2   -1    0    0    0  501  0.00000000000E+00  0.00000000000E+00 -0.31060339723E+03  0.31060339725E+03  0.25500000920E-02 0. -1.
    10030    2    1    2    0    0  0.00000000000E+00  0.00000000000E+00  0.12396936662E+04  0.18609004607E+04  0.13878437011E+04 0.  0.
        1    1    3    3  502    0  0.45335824053E+03  0.50431124610E+03  0.42249008409E+03  0.79897521762E+03  0.50400001928E-02 0. -1.
       -1    1    3    3    0  502 -0.45335824053E+03 -0.50431124610E+03  0.81720358212E+03  0.10619252431E+04  0.50400001928E-02 0.  1.
</event>
<event>
 5   0  0.8673728E-04  0.1397799E+04  0.7818609E-02  0.8955413E-01
       -1   -1    0    0    0  501  0.00000000000E+00  0.00000000000E+00  0.28197526042E+03  0.28197526046E+03  0.50400001928E-02 0. -1.
        1   -1    0    0  501    0  0.00000000000E+00  0.00000000000E+00 -0.17322824521E+04  0.17322824521E+04  0.50400001928E-02 0.  1.
    10030    2    1    2    0    0  0.00000000000E+00  0.00000000000E+00 -0.14503071917E+04  0.20142577125E+04  0.13977994071E+04 0.  0.
        3    1    3    3  502    0  0.50987432079E+03  0.21123842780E+03 -0.10724758536E+03  0.56222375541E+03  0.10100000352E+00 0. -1.
       -3    1    3    3    0  502 -0.50987432079E+03 -0.21123842780E+03 -0.13430596063E+04  0.14520339571E+04  0.10100000352E+00 0.  1.
</event>
<event>
 5   0  0.1605214E-03  0.1425466E+04  0.7818609E-02  0.8935588E-01
        2   -1    0    0  501    0  0.00000000000E+00  0.00000000000E+00  0.94825575782E+03  0.94825575782E+03  0.25500000920E-02 0. -1.
       -2   -1    0    0    0  501  0.00000000000E+00  0.00000000000E+00 -0.53570817623E+03  0.53570817623E+03  0.25500000920E-02 0.  1.
    10030    2    1    2    0    0  0.00000000000E+00  0.00000000000E+00  0.41254758159E+03  0.14839639341E+04  0.14254660468E+04 0.  0.
        5    1    3    3  502    0 -0.66519947518E+02  0.38477734663E+03 -0.41442199447E+03  0.56942619311E+03  0.46999998093E+01 0.  1.
       -5    1    3    3    0  502  0.66519947518E+02 -0.38477734663E+03  0.82696957605E+03  0.91453774095E+03  0.46999998093E+01 0. -1.
</event>
<event>
 5   0  0.1706986E-03  0.1397254E+04  0.7818609E-02  0.8955809E-01
        2   -1    0    0  501    0  0.00000000000E+00  0.00000000000E+00  0.35069394629E+03  0.35069394630E+03  0.25500000920E-02 0.  1.
       -2   -1    0    0    0  501  0.00000000000E+00  0.00000000000E+00 -0.13917538943E+04  0.13917538943E+04  0.25500000920E-02 0. -1.
    10030    2    1    2    0    0  0.00000000000E+00  0.00000000000E+00 -0.10410599480E+04  0.17424478406E+04  0.13972539718E+04 0.  0.
        3    1    3    3  502    0  0.44745444510E+02 -0.63579013490E+03 -0.87730097225E+03  0.10843838142E+04  0.10100000352E+00 0. -1.
       -3    1    3    3    0  502 -0.44745444510E+02  0.63579013490E+03 -0.16375897573E+03  0.65806402635E+03  0.10100000352E+00 0.  1.
</event>
<event>
 5   0  0.1706986E-03  0.1386678E+04  0.7818609E-02  0.8963519E-01
       -2   -1    0    0    0  501  0.00000000000E+00  0.00000000000E+00  0.32414220183E+03  0.32414220184E+03  0.25500000920E-02 0. -1.
        2   -1    0    0  501    0  0.00000000000E+00  0.00000000000E+00 -0.14830492569E+04  0.14830492569E+04  0.25500000920E-02 0.  1.
    10030    2    1    2    0    0  0.00000000000E+00  0.00000000000E+00 -0.11589070551E+04  0.18071914587E+04  0.13866778307E+04 0.  0.
        3    1    3    3  502    0 -0.34883679134E+03 -0.59579790319E+03 -0.66245949339E+03  0.95682539631E+03  0.10100000352E+00 0.  1.
       -3    1    3    3    0  502  0.34883679134E+03  0.59579790319E+03 -0.49644756167E+03  0.85036606242E+03  0.10100000352E+00 0. -1.
</event>
<event>
 5   0  0.9639548E-04  0.1210988E+04  0.7818609E-02  0.9103293E-01
        1   -1    0    0  501    0  0.00000000000E+00  0.00000000000E+00  0.49291180471E+03  0.49291180473E+03  0.50400001928E-02 0. -1.
       -1   -1    0    0    0  501  0.00000000000E+00  0.00000000000E+00 -0.74378994125E+03  0.74378994127E+03  0.50400001928E-02 0.  1.
    10030    2    1    2    0    0  0.00000000000E+00  0.00000000000E+00 -0.25087813654E+03  0.12367017460E+04  0.12109877659E+04 0.  0.
        1    1    3    3  502    0 -0.13290801110E+03  0.97164276913E+02  0.46961474197E+03  0.49763786233E+03  0.50400001928E-02 0. -1.
       -1    1    3    3    0  502  0.13290801110E+03 -0.97164276913E+02 -0.72049287852E+03  0.73906388367E+03  0.50400001928E-02 0.  1.
</event>
<event>
 5   0  0.8502300E-04  0.1390908E+04  0.7818609E-02  0.8960426E-01
        1   -1    0    0  501    0  0.00000000000E+00  0.00000000000E+00  0.21148060089E+04  0.21148060089E+04  0.50400001928E-02 0.  1.
       -1   -1    0    0    0  501  0.00000000000E+00  0.00000000000E+00 -0.22870001006E+03  0.22870001012E+03  0.50400001928E-02 0. -1.
    10030    2    1    2    0    0  0.00000000000E+00  0.00000000000E+00  0.18861059988E+04  0.23435060190E+04  0.13909078411E+04 0.  0.
        4    1    3    3  502    0 -0.51336901761E+03  0.32625666430E+03  0.37501419104E+03  0.71458268635E+03  0.12699999809E+01 0. -1.
       -4    1    3    3    0  502  0.51336901761E+03 -0.32625666430E+03  0.15110918078E+04  0.16289233327E+04  0.12699999809E+01 0.  1.
</event>
<event>
 5   0  0.9639548E-04  0.1366732E+04  0.7818609E-02  0.8978258E-01
       -1   -1    0    0    0  501  0.00000000000E+00  0.00000000000E+00  0.19985491879E+03  0.19985491885E+03  0.50400001928E-02 0. -1.
        1   -1    0    0  501    0  0.00000000000E+00  0.00000000000E+00 -0.23366401817E+04  0.23366401817E+04  0.50400001928E-02 0.  1.
    10030    2    1    2    0    0  0.00000000000E+00  0.00000000000E+00 -0.21367852629E+04  0.25364951006E+04  0.13667319179E+04 0.  0.
        1    1    3    3  502    0 -0.47450078017E+03 -0.22233910745E+03 -0.25433149421E+03  0.58246903614E+03  0.50400001928E-02 0. -1.
       -1    1    3    3    0  502  0.47450078017E+03  0.22233910745E+03 -0.18824537687E+04  0.19540260644E+04  0.50400001928E-02 0.  1.
</event>
<event>
 5   0  0.6048000E-04  0.1205394E+04  0.7818609E-02  0.9108148E-01
        3   -1    0    0  501    0  0.00000000000E+00  0.00000000000E+00  0.45067325341E+03  0.45067326473E+03  0.10100000352E+00 0. -1.
       -3   -1    0    0    0  501  0.00000000000E+00  0.00000000000E+00 -0.80600222704E+03  0.80600223337E+03  0.10100000352E+00 0.  1.
    10030    2    1    2    0    0  0.00000000000E+00  0.00000000000E+00 -0.35532897363E+03  0.12566754981E+04  0.12053939721E+04 0.  0.
        4    1    3    3  502    0 -0.54139517391E+03 -0.21353253447E+03 -0.14356909100E+02  0.58216201469E+03  0.12699999809E+01 0. -1.
       -4    1    3    3    0  502  0.54139517391E+03  0.21353253447E+03 -0.34097206453E+03  0.67451348341E+03  0.12699999809E+01 0.  1.
</event>
<event>
 5   0  0.8609148E-04  0.1410115E+04  0.7818609E-02  0.8946529E-01
       -1   -1    0    0    0  501  0.00000000000E+00  0.00000000000E+00  0.13989693021E+04  0.13989693021E+04  0.50400001928E-02 0.  1.
        1   -1    0    0  501    0  0.00000000000E+00  0.00000000000E+00 -0.35533761834E+03  0.35533761838E+03  0.50400001928E-02 0. -1.
    10030    2    1    2    0    0  0.00000000000E+00  0.00000000000E+00  0.10436316838E+04  0.17543069205E+04  0.14101154846E+04 0.  0.
        5    1    3    3  502    0 -0.18406827136E+03  0.21669464967E+03  0.13244659348E+04  0.13546474826E+04  0.46999998093E+01 0.  1.
       -5    1    3    3    0  502  0.18406827136E+03 -0.21669464967E+03 -0.28083425104E+03  0.39965943786E+03  0.46999998093E+01 0. -1.
</event>
<event>
 5   0  0.8502300E-04  0.1400693E+04  0.7818609E-02  0.8953317E-01
       -1   -1    0    0    0  501  0.00000000000E+00  0.00000000000E+00  0.82858806633E+03  0.82858806634E+03  0.50400001928E-02 0.  1.
        1   -1    0    0  501    0  0.00000000000E+00  0.00000000000E+00 -0.59195261746E+03  0.59195261748E+03  0.50400001928E-02 0. -1.
    10030    2    1    2    0    0  0.00000000000E+00  0.00000000000E+00  0.23663544886E+03  0.14205406838E+04  0.14006925068E+04 0.  0.
        4    1    3    3  502    0 -0.45652251753E+03 -0.42366715303E+03  0.44313192869E+03  0.76437829946E+03  0.12699999809E+01 0.  1.
       -4    1    3    3    0  502  0.45652251753E+03  0.42366715303E+03 -0.20649647983E+03  0.65616238436E+03  0.12699999809E+01 0. -1.
</event>
<event>
 5   0  0.9007180E-04  0.1416851E+04  0.7818609E-02  0.8941710E-01
       -1   -1    0    0    0  501  0.00000000000E+00  0.00000000000E+00  0.41523340321E+03  0.41523340324E+03  0.50400001928E-02 0.  1.
        1   -1    0    0  501    0  0.00000000000E+00  0.00000000000E+00 -0.12086378448E+04  0.12086378448E+04  0.50400001928E-02 0. -1.
    10030    2    1    2    0    0  0.00000000000E+00  0.00000000000E+00 -0.79340444161E+03  0.16238712481E+04  0.14168511645E+04 0.  0.
        2    1    3    3  502    0  0.29185691565E+03  0.31972315413E+03 -0.10394083610E+04  0.11259543043E+04  0.25500000920E-02 0. -1.
       -2    1    3    3    0  502 -0.29185691565E+03 -0.31972315413E+03  0.24600391939E+03  0.49791694374E+03  0.25500000920E-02 0.  1.
</event>
<event>
 5   0  0.1578965E-03  0.1405937E+04  0.7818609E-02  0.8949532E-01
        2   -1    0    0  501    0  0.00000000000E+00  0.00000000000E+00  0.10391175640E+04  0.10391175640E+04  0.25500000920E-02 0. -1.
       -2   -1    0    0    0  501  0.00000000000E+00  0.00000000000E+00 -0.47556216859E+03  0.47556216860E+03  0.25500000920E-02 0.  1.
    10030    2    1    2    0    0  0.00000000000E+00  0.00000000000E+00  0.56355539537E+03  0.15146797326E+04  0.14059374128E+04 0.  0.
        2    1    3    3  502    0  0.52378371287E+03 -0.41194627487E+02 -0.22137662017E+03  0.57013505695E+03  0.25500000920E-02 0.  1.
       -2    1    3    3    0  502 -0.52378371287E+03  0.41194627487E+02  0.78493201554E+03  0.94454467561E+03  0.25500000920E-02 0. -1.
</event>
<event>
 5   0  0.8609148E-04  0.1481921E+04  0.7818609E-02  0.8896565E-01
        1   -1    0    0  501    0  0.00000000000E+00  0.00000000000E+00  0.51601167376E+03  0.51601167378E+03  0.50400001928E-02 0. -1.
       -1   -1    0    0    0  501  0.00000000000E+00  0.00000000000E+00 -0.10639728380E+04  0.10639728380E+04  0.50400001928E-02 0.  1.
    10030    2    1    2    0    0  0.00000000000E+00  0.00000000000E+00 -0.54796116421E+03  0.15799845118E+04  0.14819209223E+04 0.  0.
        5    1    3    3  502    0  0.75259037353E+02  0.59116872259E+03 -0.74340680843E+03  0.95279596666E+03  0.46999998093E+01 0.  1.
       -5    1    3    3    0  502 -0.75259037353E+02 -0.59116872259E+03  0.19544564421E+03  0.62718854511E+03  0.46999998093E+01 0. -1.
</event>
<event>
 5   0  0.8673728E-04  0.1394303E+04  0.7818609E-02  0.8957953E-01
        1   -1    0    0  501    0  0.00000000000E+00  0.00000000000E+00  0.10986981419E+04  0.10986981419E+04  0.50400001928E-02 0.  1.
       -1   -1    0    0    0  501  0.00000000000E+00  0.00000000000E+00 -0.44235984684E+03  0.44235984687E+03  0.50400001928E-02 0. -1.
    10030    2    1    2    0    0  0.00000000000E+00  0.00000000000E+00  0.65633829501E+03  0.15410579887E+04  0.13943026096E+04 0.  0.
        3    1    3    3  502    0 -0.29925514410E+03 -0.49093371643E+03  0.76393965061E+03  0.95612413168E+03  0.10100000352E+00 0.  1.
       -3    1    3    3    0  502  0.29925514410E+03  0.49093371643E+03 -0.10760135559E+03  0.58493385705E+03  0.10100000352E+00 0. -1.
</event>
<event>
 5   0  0.1578965E-03  0.1385011E+04  0.7818609E-02  0.8964740E-01
        2   -1    0    0  501    0  0.00000000000E+00  0.00000000000E+00  0.90332783858E+03  0.90332783859E+03  0.25500000920E-02 0. -1.
       -2   -1    0    0    0  501  0.00000000000E+00  0.00000000000E+00 -0.53088578287E+03  0.53088578288E+03  0.25500000920E-02 0.  1.
    10030    2    1    2    0    0  0.00000000000E+00  0.00000000000E+00  0.37244205571E+03  0.14342136215E+04  0.13850110567E+04 0.  0.
        2    1    3    3  502    0  0.45979877506E+03 -0.10586922216E+03 -0.33867955478E+03  0.58079862825E+03  0.25500000920E-02 0.  1.
       -2    1    3    3    0  502 -0.45979877506E+03  0.10586922216E+03  0.71112161048E+03  0.85341499322E+03  0.25500000920E-02 0. -1.
</event>
<event>
 5   0  0.9007180E-04  0.1125618E+04  0.7818609E-02  0.9180576E-01
        1   -1    0    0  501    0  0.00000000000E+00  0.00000000000E+00  0.82495760186E+03  0.82495760188E+03  0.50400001928E-02 0. -1.
       -1   -1    0    0    0  501  0.00000000000E+00  0.00000000000E+00 -0.38396404290E+03  0.38396404293E+03  0.50400001928E-02 0.  1.
    10030    2    1    2    0    0  0.00000000000E+00  0.00000000000E+00  0.44099355897E+03  0.12089216448E+04  0.11256181521E+04 0.  0.
        2    1    3    3  502    0  0.37704026286E+02  0.49012665698E+03  0.51483800699E+03  0.71183137535E+03  0.25500000920E-02 0. -1.
       -2    1    3    3    0  502 -0.37704026286E+02 -0.49012665698E+03 -0.73844448020E+02  0.49709026946E+03  0.25500000920E-02 0.  1.
</event>
<event>
 5   0  0.8609148E-04  0.1396671E+04  0.7818609E-02  0.8956232E-01
       -1   -1    0    0    0  501  0.00000000000E+00  0.00000000000E+00  0.94143179798E+03  0.94143179800E+03  0.50400001928E-02 0. -1.
        1   -1    0    0  501    0  0.00000000000E+00  0.00000000000E+00 -0.51801113028E+03  0.51801113031E+03  0.50400001928E-02 0.  1.
    10030    2    1    2    0    0  0.00000000000E+00  0.00000000000E+00  0.42342066770E+03  0.14594429283E+04  0.13966705407E+04 0.  0.
        5    1    3    3  502    0 -0.53014548167E+03  0.20015066893E+03 -0.21471854207E+03  0.60600384843E+03  0.46999998093E+01 0.  1.
       -5    1    3    3    0  502  0.53014548167E+03 -0.20015066893E+03  0.63813920977E+03  0.85343907987E+03  0.46999998093E+01 0. -1.
</event>
<event>
 5   0  0.1648463E-03  0.1412475E+04  0.7818609E-02  0.8944838E-01
       -2   -1    0    0    0  501  0.00000000000E+00  0.00000000000E+00  0.46284349543E+03  0.46284349544E+03  0.25500000920E-02 0.  1.
        2   -1    0    0  501    0  0.00000000000E+00  0.00000000000E+00 -0.10776242517E+04  0.10776242517E+04  0.25500000920E-02 0. -1.
    10030    2    1    2    0    0  0.00000000000E+00  0.00000000000E+00 -0.61478075631E+03  0.15404677472E+04  0.14124749562E+04 0.  0.
        1    1    3    3  502    0  0.11957575366E+03  0.46593762339E+03  0.25654893455E+03  0.54517298685E+03  0.50400001928E-02 0.  1.
       -1    1    3    3    0  502 -0.11957575366E+03 -0.46593762339E+03 -0.87132969086E+03  0.99529476033E+03  0.50400001928E-02 0. -1.
</event>
<event>
 5   0  0.1578965E-03  0.1395951E+04  0.7818609E-02  0.8956754E-01
       -2   -1    0    0    0  501  0.00000000000E+00  0.00000000000E+00  0.37826209998E+03  0.37826209999E+03  0.25500000920E-02 0.  1.
        2   -1    0    0  501    0  0.00000000000E+00  0.00000000000E+00 -0.12879166446E+04  0.12879166446E+04  0.25500000920E-02 0. -1.
    10030    2    1    2    0    0  0.00000000000E+00  0.00000000000E+00 -0.90965454467E+03  0.16661787446E+04  0.13959513668E+04 0.  0.
        2    1    3    3  502    0 -0.15463144461E+03  0.58862758036E+03 -0.86270451993E+03  0.10557709982E+04  0.25500000920E-02 0. -1.
       -2    1    3    3    0  502  0.15463144461E+03 -0.58862758036E+03 -0.46950024736E+02  0.61040774639E+03  0.25500000920E-02 0.  1.
</event>
<event>
 5   0  0.1648213E-03  0.1406483E+04  0.7818609E-02  0.8949139E-01
       -2   -1    0    0    0  501  0.00000000000E+00  0.00000000000E+00  0.44097560113E+03  0.44097560114E+03  0.25500000920E-02 0.  1.
        2   -1    0    0  501    0  0.00000000000E+00  0.00000000000E+00 -0.11214874498E+04  0.11214874498E+04  0.25500000920E-02 0. -1.
    10030    2    1    2    0    0  0.00000000000E+00  0.00000000000E+00 -0.68051184863E+03  0.15624630509E+04  0.14064829929E+04 0.  0.
        4    1    3    3  502    0 -0.44869920672E+03  0.17377568874E+03 -0.90998452786E+03  0.10293699150E+04  0.12699999809E+01 0. -1.
       -4    1    3    3    0  502  0.44869920672E+03 -0.17377568874E+03  0.22947267924E+03  0.53309313588E+03  0.12699999809E+01 0.  1.
</event>
<event>
 5   0  0.1605214E-03  0.1373404E+04  0.7818609E-02  0.8973299E-01
       -2   -1    0    0    0  501  0.00000000000E+00  0.00000000000E+00  0.29590290180E+03  0.29590290181E+03  0.25500000920E-02 0. -1.
        2   -1    0    0  501    0  0.00000000000E+00  0.00000000000E+00 -0.15936288241E+04  0.15936288241E+04  0.25500000920E-02 0.  1.
    10030    2    1    2    0    0  0.00000000000E+00  0.00000000000E+00 -0.12977259223E+04  0.18895317260E+04  0.13734036456E+04 0.  0.
        5    1    3    3  502    0 -0.52380143559E+03  0.38315679694E+03 -0.95760789385E+03  0.11568111528E+04  0.46999998093E+01 0.  1.
       -5    1    3    3    0  502  0.52380143559E+03 -0.38315679694E+03 -0.34011802848E+03  0.73272057311E+03  0.46999998093E+01 0. -1.
</event>
<event>
 5   0  0.1648213E-03  0.1413995E+04  0.7818609E-02  0.8943750E-01
       -2   -1    0    0    0  501  0.00000000000E+00  0.00000000000E+00  0.29381485415E+03  0.29381485416E+03  0.25500000920E-02 0. -1.
        2   -1    0    0  501    0  0.00000000000E+00  0.00000000000E+00 -0.17012252224E+04  0.17012252224E+04  0.25500000920E-02 0.  1.
    10030    2    1    2    0    0  0.00000000000E+00  0.00000000000E+00 -0.14074103682E+04  0.19950400766E+04  0.14139946826E+04 0.  0.
        4    1    3    3  502    0 -0.68217768028E+02 -0.52404259818E+03 -0.41067089947E+02  0.53005889046E+03  0.12699999809E+01 0. -1.
       -4    1    3    3    0  502  0.68217768028E+02  0.52404259818E+03 -0.13663432783E+04  0.14649811861E+04  0.12699999809E+01 0.  1.
</event>
<event>
 5   0  0.1648463E-03  0.1387355E+04  0.7818609E-02  0.8963023E-01
       -2   -1    0    0    0  501  0.00000000000E+00  0.00000000000E+00  0.19399293183E+03  0.19399293184E+03  0.25500000920E-02 0.  1.
        2   -1    0    0  501    0  0.00000000000E+00  0.00000000000E+00 -0.24804430517E+04  0.24804430517E+04  0.25500000920E-02 0. -1.
    10030    2    1    2    0    0  0.00000000000E+00  0.00000000000E+00 -0.22864501199E+04  0.26744359836E+04  0.13873549219E+04 0.  0.
        1    1    3    3  502    0 -0.68337624844E+03  0.10011055861E+03 -0.12676072533E+04  0.14435558075E+04  0.50400001928E-02 0. -1.
       -1    1    3    3    0  502  0.68337624844E+03 -0.10011055861E+03 -0.10188428666E+04  0.12308801760E+04  0.50400001928E-02 0.  1.
</event>
<event>
 5   0  0.8502300E-04  0.1397605E+04  0.7818609E-02  0.8955554E-01
       -1   -1    0    0    0  501  0.00000000000E+00  0.00000000000E+00  0.32033006558E+03  0.32033006562E+03  0.50400001928E-02 0. -1.
        1   -1    0    0  501    0  0.00000000000E+00  0.00000000000E+00 -0.15244430903E+04  0.15244430903E+04  0.50400001928E-02 0.  1.
    10030    2    1    2    0    0  0.00000000000E+00  0.00000000000E+00 -0.12041130247E+04  0.18447731560E+04  0.13976050303E+04 0.  0.
        4    1    3    3  502    0 -0.22037573931E+03  0.65681497449E+03 -0.48142720070E+03  0.84364989164E+03  0.12699999809E+01 0. -1.
       -4    1    3    3    0  502  0.22037573931E+03 -0.65681497449E+03 -0.72268582404E+03  0.10011232643E+04  0.12699999809E+01 0.  1.
</event>
<event>
 5   0  0.1578965E-03  0.1381435E+04  0.7818609E-02  0.8967367E-01
       -2   -1    0    0    0  501  0.00000000000E+00  0.00000000000E+00  0.58348138140E+03  0.58348138141E+03  0.25500000920E-02 0.  1.
        2   -1    0    0  501    0  0.00000000000E+00  0.00000000000E+00 -0.81766275126E+03  0.81766275127E+03  0.25500000920E-02 0. -1.
    10030    2    1    2    0    0  0.00000000000E+00  0.00000000000E+00 -0.23418136986E+03  0.14011441327E+04  0.13814354732E+04 0.  0.
        2    1    3    3  502    0 -0.36685259157E+03 -0.22931991897E+03 -0.66321712254E+03  0.79184935487E+03  0.25500000920E-02 0. -1.
       -2    1    3    3    0  502  0.36685259157E+03  0.22931991897E+03  0.42903575268E+03  0.60929477781E+03  0.25500000920E-02 0.  1.
</event>
<event>
 5   0  0.1706986E-03  0.1428034E+04  0.7818609E-02  0.8933773E-01
        2   -1    0    0  501    0  0.00000000000E+00  0.00000000000E+00  0.14825278513E+04  0.14825278513E+04  0.25500000920E-02 0.  1.
       -2   -1    0    0    0  501  0.00000000000E+00  0.00000000000E+00 -0.34388571838E+03  0.34388571839E+03  0.25500000920E-02 0. -1.
    10030    2    1    2    0    0  0.00000000000E+00  0.00000000000E+00  0.11386421329E+04  0.18264135697E+04  0.14280338304E+04 0.  0.
        3    1    3    3  502    0  0.63293461597E+03 -0.19721836902E+02  0.99123600181E+03  0.11762414720E+04  0.10100000352E+00 0.  1.
       -3    1    3    3    0  502 -0.63293461597E+03  0.19721836902E+02  0.14740613112E+03  0.65017209771E+03  0.10100000352E+00 0. -1.
</event>
<event>
 5   0  0.6048000E-04  0.1395454E+04  0.7818609E-02  0.8957115E-01
        4   -1    0    0  501    0  0.00000000000E+00  0.00000000000E+00  0.80753832628E+03  0.80753932493E+03  0.12699999809E+01 0. -1.
       -4   -1    0    0    0  501  0.00000000000E+00  0.00000000000E+00 -0.60284645967E+03  0.60284779741E+03  0.12699999809E+01 0.  1.
    10030    2    1    2    0    0  0.00000000000E+00  0.00000000000E+00  0.20469186661E+03  0.14103871223E+04  0.13954544330E+04 0.  0.
        1    1    3    3  502    0 -0.38931530184E+03 -0.52411778086E+03  0.35106343264E+03  0.74129035218E+03  0.50400001928E-02 0. -1.
       -1    1    3    3    0  502  0.38931530184E+03  0.52411778086E+03 -0.14637156604E+03  0.66909677016E+03  0.50400001928E-02 0.  1.
</event>
<event>
 5   0  0.1648463E-03  0.1412529E+04  0.7818609E-02  0.8944799E-01
        2   -1    0    0  501    0  0.00000000000E+00  0.00000000000E+00  0.38737580960E+03  0.38737580961E+03  0.25500000920E-02 0. -1.
       -2   -1    0    0    0  501  0.00000000000E+00  0.00000000000E+00 -0.12876628668E+04  0.12876628668E+04  0.25500000920E-02 0.  1.
    10030    2    1    2    0    0  0.00000000000E+00  0.00000000000E+00 -0.90028705717E+03  0.16750386764E+04  0.14125288606E+04 0.  0.
        1    1    3    3  502    0  0.65736825296E+03 -0.25627446930E+03 -0.48763986421E+03  0.85767258369E+03  0.50400001928E-02 0. -1.
       -1    1    3    3    0  502 -0.65736825296E+03  0.25627446930E+03 -0.41264719296E+03  0.81736609270E+03  0.50400001928E-02 0.  1.
</event>
<event>
 5   0  0.9639548E-04  0.1393479E+04  0.7818609E-02  0.8958552E-01
        1   -1    0    0  501    0  0.00000000000E+00  0.00000000000E+00  0.77982070865E+03  0.77982070867E+03  0.50400001928E-02 0. -1.
       -1   -1    0    0    0  501  0.00000000000E+00  0.00000000000E+00 -0.62250971044E+03  0.62250971046E+03  0.50400001928E-02 0.  1.
    10030    2    1    2    0    0  0.00000000000E+00  0.00000000000E+00  0.15731099821E+03  0.14023304191E+04  0.13934790469E+04 0.  0.
        1    1    3    3  502    0 -0.14450770519E+03 -0.68092618471E+03  0.10889663051E+03  0.70455760732E+03  0.50400001928E-02 0.  1.
       -1    1    3    3    0  502  0.14450770519E+03  0.68092618471E+03  0.48414367703E+02  0.69777281181E+03  0.50400001928E-02 0. -1.
</event>
<event>
 5   0  0.1578965E-03  0.1373176E+04  0.7818609E-02  0.8973467E-01
       -2   -1    0    0    0  501  0.00000000000E+00  0.00000000000E+00  0.14016774550E+04  0.14016774550E+04  0.25500000920E-02 0. -1.
        2   -1    0    0  501    0  0.00000000000E+00  0.00000000000E+00 -0.33631371386E+03  0.33631371387E+03  0.25500000920E-02 0.  1.
    10030    2    1    2    0    0  0.00000000000E+00  0.00000000000E+00  0.10653637412E+04  0.17379911689E+04  0.13731763915E+04 0.  0.
        2    1    3    3  502    0 -0.47456755554E+03 -0.21845002036E+03 -0.31172709218E+02  0.52336078758E+03  0.25500000920E-02 0.  1.
       -2    1    3    3    0  502  0.47456755554E+03  0.21845002036E+03  0.10965364504E+04  0.12146303813E+04  0.25500000920E-02 0. -1.
</event>
<event>
 5   0  0.8609148E-04  0.1395352E+04  0.7818609E-02  0.8957190E-01
       -1   -1    0    0    0  501  0.00000000000E+00  0.00000000000E+00  0.29937029009E+03  0.29937029013E+03  0.50400001928E-02 0.  1.
        1   -1    0    0  501    0  0.00000000000E+00  0.00000000000E+00 -0.16259184945E+04  0.16259184945E+04  0.50400001928E-02 0. -1.
    10030    2    1    2    0    0  0.00000000000E+00  0.00000000000E+00 -0.13265482044E+04  0.19252887846E+04  0.13953518429E+04 0.  0.
        5    1    3    3  502    0  0.54091181736E+03 -0.24056332313E+03 -0.11726255311E+04  0.13135939375E+04  0.46999998093E+01 0. -1.
       -5    1    3    3    0  502 -0.54091181736E+03  0.24056332313E+03 -0.15392267334E+03  0.61169484710E+03  0.46999998093E+01 0.  1.
</event>
<event>
 5   0  0.1605214E-03  0.1407947E+04  0.7818609E-02  0.8948086E-01
       -2   -1    0    0    0  501  0.00000000000E+00  0.00000000000E+00  0.52948889860E+03  0.52948889861E+03  0.25500000920E-02 0.  1.
        2   -1    0    0  501    0  0.00000000000E+00  0.00000000000E+00 -0.93595691408E+03  0.93595691408E+03  0.25500000920E-02 0. -1.
    10030    2    1    2    0    0  0.00000000000E+00  0.00000000000E+00 -0.40646801547E+03  0.14654458127E+04  0.14079471518E+04 0.  0.
        5    1    3    3  502    0  0.46665575101E+03  0.26813273088E+03  0.26905214014E+03  0.60172576431E+03  0.46999998093E+01 0.  1.
       -5    1    3    3    0  502 -0.46665575101E+03 -0.26813273088E+03 -0.67552015562E+03  0.86372004838E+03  0.46999998093E+01 0. -1.
</event>
<event>
 5   0  0.8502300E-04  0.1408768E+04  0.7818609E-02  0.8947496E-01
        1   -1    0    0  501    0  0.00000000000E+00  0.00000000000E+00  0.15190793706E+04  0.15190793706E+04  0.50400001928E-02 0. -1.
       -1   -1    0    0    0  501  0.00000000000E+00  0.00000000000E+00 -0.32661699765E+03  0.32661699769E+03  0.50400001928E-02 0.  1.
    10030    2    1    2    0    0  0.00000000000E+00  0.00000000000E+00  0.11924623730E+04  0.18456963683E+04  0.14087684597E+04 0.  0.
        4    1    3    3  502    0 -0.52372085487E+03  0.46199530760E+03  0.71653918286E+03  0.10005764396E+04  0.12699999809E+01 0. -1.
       -4    1    3    3    0  502  0.52372085487E+03 -0.46199530760E+03  0.47592319011E+03  0.84511992868E+03  0.12699999809E+01 0.  1.
</event>
<event>
 5   0  0.1648213E-03  0.1400195E+04  0.7818609E-02  0.8953677E-01
        2   -1    0    0  501    0  0.00000000000E+00  0.00000000000E+00  0.87981433209E+03  0.87981433210E+03  0.25500000920E-02 0.  1.
       -2   -1    0    0    0  501  0.00000000000E+00  0.00000000000E+00 -0.55709098233E+03  0.55709098234E+03  0.25500000920E-02 0. -1.
    10030    2    1    2    0    0  0.00000000000E+00  0.00000000000E+00  0.32272334976E+03  0.14369053144E+04  0.14001951729E+04 0.  0.
        4    1    3    3  502    0 -0.45814555619E+03  0.46697150980E+03  0.41724880050E+03  0.77592391125E+03  0.12699999809E+01 0. -1.
       -4    1    3    3    0  502  0.45814555619E+03 -0.46697150980E+03 -0.94525450740E+02  0.66098140319E+03  0.12699999809E+01 0.  1.
</event>
<event>
 5   0  0.9639548E-04  0.1401125E+04  0.7818609E-02  0.8953005E-01
       -1   -1    0    0    0  501  0.00000000000E+00  0.00000000000E+00  0.57500227101E+03  0.57500227104E+03  0.50400001928E-02 0. -1.
        1   -1    0    0  501    0  0.00000000000E+00  0.00000000000E+00 -0.85354084882E+03  0.85354084884E+03  0.50400001928E-02 0.  1.
    10030    2    1    2    0    0  0.00000000000E+00  0.00000000000E+00 -0.27853857781E+03  0.14285431199E+04  0.14011251572E+04 0.  0.
        1    1    3    3  502    0  0.50534738559E+03 -0.12188694269E+03  0.33955413563E+03  0.62091015290E+03  0.50400001928E-02 0. -1.
       -1    1    3    3    0  502 -0.50534738559E+03  0.12188694269E+03 -0.61809271344E+03  0.80763296698E+03  0.50400001928E-02 0.  1.
</event>
<event>
 5   0  0.1648463E-03  0.1380594E+04  0.7818609E-02  0.8967987E-01
        2   -1    0    0  501    0  0.00000000000E+00  0.00000000000E+00  0.61098738728E+03  0.61098738729E+03  0.25500000920E-02 0. -1.
       -2   -1    0    0    0  501  0.00000000000E+00  0.00000000000E+00 -0.77990147326E+03  0.77990147327E+03  0.25500000920E-02 0.  1.
    10030    2    1    2    0    0  0.00000000000E+00  0.00000000000E+00 -0.16891408598E+03  0.13908888606E+04  0.13805940221E+04 0.  0.
        1    1    3    3  502    0 -0.98581088345E+02 -0.15249010583E+03  0.58649596167E+03  0.61396170600E+03  0.50400001928E-02 0. -1.
       -1    1    3    3    0  502  0.98581088345E+02  0.15249010583E+03 -0.75541004765E+03  0.77692715455E+03  0.50400001928E-02 0.  1.
</event>
<event>
 5   0  0.8502300E-04  0.1378226E+04  0.7818609E-02  0.8969732E-01
        1   -1    0    0  501    0  0.00000000000E+00  0.00000000000E+00  0.12196625001E+04  0.12196625001E+04  0.50400001928E-02 0. -1.
       -1   -1    0    0    0  501  0.00000000000E+00  0.00000000000E+00 -0.38935073573E+03  0.38935073576E+03  0.50400001928E-02 0.  1.
    10030    2    1    2    0    0  0.00000000000E+00  0.00000000000E+00  0.83031176437E+03  0.16090132359E+04  0.13782256590E+04 0.  0.
        4    1    3    3  502    0 -0.38791727756E+03 -0.15645456890E+03 -0.22419585679E+03  0.47457690785E+03  0.12699999809E+01 0.  1.
       -4    1    3    3    0  502  0.38791727756E+03  0.15645456890E+03  0.10545076212E+04  0.11344363280E+04  0.12699999809E+01 0. -1.
</event>
<event>
 5   0  0.1706986E-03  0.1390815E+04  0.7818609E-02  0.8960494E-01
        2   -1    0    0  501    0  0.00000000000E+00  0.00000000000E+00  0.62867933740E+03  0.62867933740E+03  0.25500000920E-02 0.  1.
       -2   -1    0    0    0  501  0.00000000000E+00  0.00000000000E+00 -0.76921859981E+03  0.76921859981E+03  0.25500000920E-02 0. -1.
    10030    2    1    2    0    0  0.00000000000E+00  0.00000000000E+00 -0.14053926241E+03  0.13978979372E+04  0.13908153575E+04 0.  0.
        3    1    3    3  502    0 -0.61837765656E+03  0.32731298673E+02  0.24777432866E+03  0.66697405660E+03  0.10100000352E+00 0.  1.
       -3    1    3    3    0  502  0.61837765656E+03 -0.32731298673E+02 -0.38831359107E+03  0.73092388061E+03  0.10100000352E+00 0. -1.
</event>
<event>
 5   0  0.8673728E-04  0.1383123E+04  0.7818609E-02  0.8966127E-01
        1   -1    0    0  501    0  0.00000000000E+00  0.00000000000E+00  0.22203247966E+04  0.22203247966E+04  0.50400001928E-02 0.  1.
       -1   -1    0    0    0  501  0.00000000000E+00  0.00000000000E+00 -0.21539958926E+03  0.21539958932E+03  0.50400001928E-02 0. -1.
    10030    2    1    2    0    0  0.00000000000E+00  0.00000000000E+00  0.20049252073E+04  0.24357243859E+04  0.13831226255E+04 0.  0.
        3    1    3    3  502    0  0.26557405787E+03  0.17876752435E+02  0.21265036517E+04  0.21430975128E+04  0.10100000352E+00 0.  1.
       -3    1    3    3    0  502 -0.26557405787E+03 -0.17876752435E+02 -0.12157844442E+03  0.29262687307E+03  0.10100000352E+00 0. -1.
</event>
<event>
 5   0  0.1648463E-03  0.1422430E+04  0.7818609E-02  0.8937741E-01
       -2   -1    0    0    0  501  0.00000000000E+00  0.00000000000E+00  0.52973859750E+03  0.52973859751E+03  0.25500000920E-02 0.  1.
        2   -1    0    0  501    0  0.00000000000E+00  0.00000000000E+00 -0.95486107828E+03  0.95486107828E+03  0.25500000920E-02 0. -1.
    10030    2    1    2    0    0  0.00000000000E+00  0.00000000000E+00 -0.42512248077E+03  0.14845996758E+04  0.14224299890E+04 0.  0.
        1    1    3    3  502    0  0.14965782763E+03 -0.23892030278E+03 -0.89405166399E+03  0.93744800088E+03  0.50400001928E-02 0. -1.
       -1    1    3    3    0  502 -0.14965782763E+03  0.23892030278E+03  0.46892918322E+03  0.54715167490E+03  0.50400001928E-02 0.  1.
</event>
<event>
 5   0  0.8502300E-04  0.1376026E+04  0.7818609E-02  0.8971358E-01
        1   -1    0    0  501    0  0.00000000000E+00  0.00000000000E+00  0.78903996120E+03  0.78903996122E+03  0.50400001928E-02 0. -1.
       -1   -1    0    0    0  501  0.00000000000E+00  0.00000000000E+00 -0.59992087731E+03  0.59992087733E+03  0.50400001928E-02 0.  1.
    10030    2    1    2    0    0  0.00000000000E+00  0.00000000000E+00  0.18911908389E+03  0.13889608385E+04  0.13760255024E+04 0.  0.
        4    1    3    3  502    0 -0.14533250244E+03  0.85341647380E+02  0.76787976925E+03  0.78615881727E+03  0.12699999809E+01 0. -1.
       -4    1    3    3    0  502  0.14533250244E+03 -0.85341647380E+02 -0.57876068536E+03  0.60280202128E+03  0.12699999809E+01 0.  1.
</event>
<event>
 5   0  0.1706986E-03  0.1405518E+04  0.7818609E-02  0.8949834E-01
        2   -1    0    0  501    0  0.00000000000E+00  0.00000000000E+00  0.16113147708E+04  0.16113147708E+04  0.25500000920E-02 0. -1.
       -2   -1    0    0    0  501  0.00000000000E+00  0.00000000000E+00 -0.30650158707E+03  0.30650158708E+03  0.25500000920E-02 0.  1.
    10030    2    1    2    0    0  0.00000000000E+00  0.00000000000E+00  0.13048131837E+04  0.19178163578E+04  0.14055184588E+04 0.  0.
        3    1    3    3  502    0  0.72385261695E+02 -0.41927462828E+03 -0.11078114689E+03  0.43966272611E+03  0.10100000352E+00 0.  1.
       -3    1    3    3    0  502 -0.72385261695E+02  0.41927462828E+03  0.14155943306E+04  0.14781536317E+04  0.10100000352E+00 0. -1.
</event>
<event>
 5   0  0.8502300E-04  0.1431492E+04  0.7818609E-02  0.8931334E-01
        1   -1    0    0  501    0  0.00000000000E+00  0.00000000000E+00  0.90878112488E+03  0.90878112489E+03  0.50400001928E-02 0.  1.
       -1   -1    0    0    0  501  0.00000000000E+00  0.00000000000E+00 -0.56371327700E+03  0.56371327702E+03  0.50400001928E-02 0. -1.
    10030    2    1    2    0    0  0.00000000000E+00  0.00000000000E+00  0.34506784788E+03  0.14724944019E+04  0.14314915103E+04 0.  0.
        4    1    3    3  502    0  0.99300374077E+02 -0.69340886683E+03  0.32376184055E+03  0.77168631139E+03  0.12699999809E+01 0.  1.
       -4    1    3    3    0  502 -0.99300374077E+02  0.69340886683E+03  0.21306007331E+02  0.70080809052E+03  0.12699999809E+01 0. -1.
</event>
<event>
 5   0  0.6048000E-04  0.1373019E+04  0.7818609E-02  0.8973584E-01
       -3   -1    0    0    0  501  0.00000000000E+00  0.00000000000E+00  0.53463316716E+03  0.53463317670E+03  0.10100000352E+00 0.  1.
        3   -1    0    0  501    0  0.00000000000E+00  0.00000000000E+00 -0.88153013398E+03  0.88153013976E+03  0.10100000352E+00 0. -1.
    10030    2    1    2    0    0  0.00000000000E+00  0.00000000000E+00 -0.34689696681E+03  0.14161633165E+04  0.13730189486E+04 0.  0.
        4    1    3    3  502    0  0.11472758188E+03  0.57422155907E+03 -0.54303891793E+03  0.79861486101E+03  0.12699999809E+01 0. -1.
       -4    1    3    3    0  502 -0.11472758188E+03 -0.57422155907E+03  0.19614195112E+03  0.61754845545E+03  0.12699999809E+01 0.  1.
</event>
<event>
 5   0  0.8502300E-04  0.1401552E+04  0.7818609E-02  0.8952696E-01
        1   -1    0    0  501    0  0.00000000000E+00  0.00000000000E+00  0.98156873838E+03  0.98156873839E+03  0.50400001928E-02 0.  1.
       -1   -1    0    0    0  501  0.00000000000E+00  0.00000000000E+00 -0.50030857624E+03  0.50030857627E+03  0.50400001928E-02 0. -1.
    10030    2    1    2    0    0  0.00000000000E+00  0.00000000000E+00  0.48126016214E+03  0.14818773147E+04  0.14015523651E+04 0.  0.
        4    1    3    3  502    0 -0.62799570045E+03 -0.24249941038E+03  0.44646958246E+03  0.80778788353E+03  0.12699999809E+01 0.  1.
       -4    1    3    3    0  502  0.62799570045E+03  0.24249941038E+03  0.34790579676E+02  0.67408943112E+03  0.12699999809E+01 0. -1.
</event>
<event>
 5   0  0.8609148E-04  0.1439064E+04  0.7818609E-02  0.8926018E-01
       -1   -1    0    0    0  501  0.00000000000E+00  0.00000000000E+00  0.90854449673E+03  0.90854449675E+03  0.50400001928E-02 0. -1.
        1   -1    0    0  501    0  0.00000000000E+00  0.00000000000E+00 -0.56984109312E+03  0.56984109314E+03  0.50400001928E-02 0.  1.
    10030    2    1    2    0    0  0.00000000000E+00  0.00000000000E+00  0.33870340362E+03  0.14783855899E+04  0.14390635694E+04 0.  0.
        5    1    3    3  502    0 -0.16575017831E+03 -0.11872367257E+03  0.87823216668E+03  0.90159983398E+03  0.46999998093E+01 0. -1.
       -5    1    3    3    0  502  0.16575017831E+03  0.11872367257E+03 -0.53952876307E+03  0.57678575590E+03  0.46999998093E+01 0.  1.
</event>
<event>
 5   0  0.1578965E-03  0.1403963E+04  0.7818609E-02  0.8950955E-01
        2   -1    0    0  501    0  0.00000000000E+00  0.00000000000E+00  0.98044883993E+03  0.98044883993E+03  0.25500000920E-02 0.  1.
       -2   -1    0    0    0  501  0.00000000000E+00  0.00000000000E+00 -0.50260425513E+03  0.50260425514E+03  0.25500000920E-02 0. -1.
    10030    2    1    2    0    0  0.00000000000E+00  0.00000000000E+00  0.47784458479E+03  0.14830530951E+04  0.14039626190E+04 0.  0.
        2    1    3    3  502    0 -0.20368731333E+03 -0.12220899714E+03  0.93670585423E+03  0.96635470607E+03  0.25500000920E-02 0.  1.
       -2    1    3    3    0  502  0.20368731333E+03  0.12220899714E+03 -0.45886126944E+03  0.51669838900E+03  0.25500000920E-02 0. -1.
</event>
<event>
 5   0  0.1648213E-03  0.1404712E+04  0.7818609E-02  0.8950415E-01
        2   -1    0    0  501    0  0.00000000000E+00  0.00000000000E+00  0.14412560304E+04  0.14412560304E+04  0.25500000920E-02 0. -1.
       -2   -1    0    0    0  501  0.00000000000E+00  0.00000000000E+00 -0.34227350786E+03  0.34227350787E+03  0.25500000920E-02 0.  1.
    10030    2    1    2    0    0  0.00000000000E+00  0.00000000000E+00  0.10989825225E+04  0.17835295382E+04  0.14047117245E+04 0.  0.
        4    1    3    3  502    0  0.32297056934E+03 -0.22921802400E+03 -0.18697723557E+03  0.43796459983E+03  0.12699999809E+01 0.  1.
       -4    1    3    3    0  502 -0.32297056934E+03  0.22921802400E+03  0.12859597581E+04  0.13455649384E+04  0.12699999809E+01 0. -1.
</event>
<event>
 5   0  0.1605214E-03  0.1405323E+04  0.7818609E-02  0.8949975E-01
       -2   -1    0    0    0  501  0.00000000000E+00  0.00000000000E+00  0.98056773196E+03  0.98056773196E+03  0.25500000920E-02 0. -1.
        2   -1    0    0  501    0  0.00000000000E+00  0.00000000000E+00 -0.50351741583E+03  0.50351741584E+03  0.25500000920E-02 0.  1.
    10030    2    1    2    0    0  0.00000000000E+00  0.00000000000E+00  0.47705031613E+03  0.14840851478E+04  0.14053226398E+04 0.  0.
        5    1    3    3  502    0 -0.69636865763E+03 -0.88039646445E+02  0.27242659505E+03  0.75293998855E+03  0.46999998093E+01 0. -1.
       -5    1    3    3    0  502  0.69636865763E+03  0.88039646445E+02  0.20462372107E+03  0.73114515925E+03  0.46999998093E+01 0.  1.
</event>
<event>
 5   0  0.6048000E-04  0.1387176E+04  0.7818609E-02  0.8963154E-01
        4   -1    0    0  501    0  0.00000000000E+00  0.00000000000E+00  0.48658394616E+03  0.48658560353E+03  0.12699999809E+01 0.  1.
       -4   -1    0    0    0  501  0.00000000000E+00  0.00000000000E+00 -0.98865232152E+03  0.98865313723E+03  0.12699999809E+01 0. -1.
    10030    2    1    2    0    0  0.00000000000E+00  0.00000000000E+00 -0.50206837536E+03  0.14752387408E+04  0.13871757959E+04 0.  0.
        4    1    3    3  502    0  0.31489212359E+03 -0.10980439143E+03  0.39572519868E+03  0.51750758414E+03  0.12699999809E+01 0.  1.
       -4    1    3    3    0  502 -0.31489212359E+03  0.10980439143E+03 -0.89779357403E+03  0.95773115662E+03  0.12699999809E+01 0. -1.
</event>
<event>
 5   0  0.8502300E-04  0.1443896E+04  0.7818609E-02  0.8922643E-01
        1   -1    0    0  501    0  0.00000000000E+00  0.00000000000E+00  0.10997814782E+04  0.10997814782E+04  0.50400001928E-02 0. -1.
       -1   -1    0    0    0  501  0.00000000000E+00  0.00000000000E+00 -0.47392071179E+03  0.47392071182E+03  0.50400001928E-02 0.  1.
    10030    2    1    2    0    0  0.00000000000E+00  0.00000000000E+00  0.62586076640E+03  0.15737021900E+04  0.14438964243E+04 0.  0.
        4    1    3    3  502    0  0.59823748649E+03  0.22118148120E+03 -0.55704336936E+02  0.64024520609E+03  0.12699999809E+01 0.  1.
       -4    1    3    3    0  502 -0.59823748649E+03 -0.22118148120E+03  0.68156510334E+03  0.93345698394E+03  0.12699999809E+01 0. -1.
</event>
<event>
 5   0  0.9639548E-04  0.1416866E+04  0.7818609E-02  0.8941700E-01
        1   -1    0    0  501    0  0.00000000000E+00  0.00000000000E+00  0.59714728346E+03  0.59714728348E+03  0.50400001928E-02 0.  1.
       -1   -1    0    0    0  501  0.00000000000E+00  0.00000000000E+00 -0.84045810822E+03  0.84045810823E+03  0.50400001928E-02 0. -1.
    10030    2    1    2    0    0  0.00000000000E+00  0.00000000000E+00 -0.24331082476E+03  0.14376053917E+04  0.14168659446E+04 0.  0.
        1    1    3    3  502    0 -0.32935443739E+03 -0.79638018855E+02  0.50959326230E+03  0.61196556479E+03  0.50400001928E-02 0.  1.
       -1    1    3    3    0  502  0.32935443739E+03  0.79638018855E+02 -0.75290408706E+03  0.82563982693E+03  0.50400001928E-02 0. -1.
</event>
<event>
 5   0  0.1706986E-03  0.1390700E+04  0.7818609E-02  0.8960578E-01
        2   -1    0    0  501    0  0.00000000000E+00  0.00000000000E+00  0.13488709924E+04  0.13488709924E+04  0.25500000920E-02 0.  1.
       -2   -1    0    0    0  501  0.00000000000E+00  0.00000000000E+00 -0.35845640852E+03  0.35845640853E+03  0.25500000920E-02 0. -1.
    10030    2    1    2    0    0  0.00000000000E+00  0.00000000000E+00  0.99041458387E+03  0.17073274009E+04  0.13906997541E+04 0.  0.
        3    1    3    3  502    0 -0.68999650740E+03 -0.76604566186E+02  0.44690484613E+03  0.82564362256E+03  0.10100000352E+00 0.  1.
       -3    1    3    3    0  502  0.68999650740E+03  0.76604566186E+02  0.54350973774E+03  0.88168377835E+03  0.10100000352E+00 0. -1.
</event>
<event>
 5   0  0.1648463E-03  0.1394030E+04  0.7818609E-02  0.8958151E-01
        2   -1    0    0  501    0  0.00000000000E+00  0.00000000000E+00  0.19133754754E+04  0.19133754754E+04  0.25500000920E-02 0. -1.
       -2   -1    0    0    0  501  0.00000000000E+00  0.00000000000E+00 -0.25391255558E+03  0.25391255559E+03  0.25500000920E-02 0.  1.
    10030    2    1    2    0    0  0.00000000000E+00  0.00000000000E+00  0.16594629198E+04  0.21672880310E+04  0.13940302102E+04 0.  0.
        1    1    3    3  502    0  0.42749507016E+03  0.37544495462E+03  0.14557130335E+04  0.15629495785E+04  0.50400001928E-02 0. -1.
       -1    1    3    3    0  502 -0.42749507016E+03 -0.37544495462E+03  0.20374988630E+03  0.60433845249E+03  0.50400001928E-02 0.  1.
</event>
<event>
 5   0  0.1605214E-03  0.1413399E+04  0.7818609E-02  0.8944176E-01
        2   -1    0    0  501    0  0.00000000000E+00  0.00000000000E+00  0.72108555945E+03  0.72108555946E+03  0.25500000920E-02 0.  1.
       -2   -1    0    0    0  501  0.00000000000E+00  0.00000000000E+00 -0.69260039462E+03  0.69260039462E+03  0.25500000920E-02 0. -1.
    10030    2    1    2    0    0  0.00000000000E+00  0.00000000000E+00  0.28485164834E+02  0.14136859541E+04  0.14133989430E+04 0.  0.
        5    1    3    3  502    0 -0.24596658439E+03 -0.46474048143E+02 -0.64675669675E+03  0.69352412545E+03  0.46999998093E+01 0. -1.
       -5    1    3    3    0  502  0.24596658439E+03  0.46474048143E+02  0.67524186158E+03  0.72016182863E+03  0.46999998093E+01 0.  1.
</event>
<event>
 5   0  0.8673728E-04  0.1390900E+04  0.7818609E-02  0.8960432E-01
       -1   -1    0    0    0  501  0.00000000000E+00  0.00000000000E+00  0.49677511838E+03  0.49677511840E+03  0.50400001928E-02 0.  1.
        1   -1    0    0  501    0  0.00000000000E+00  0.00000000000E+00 -0.97358122982E+03  0.97358122983E+03  0.50400001928E-02 0. -1.
    10030    2    1    2    0    0  0.00000000000E+00  0.00000000000E+00 -0.47680611144E+03  0.14703563482E+04  0.13909003282E+04 0.  0.
        3    1    3    3  502    0 -0.38286269326E+03  0.55576537328E+03 -0.41589922477E+03  0.79273650565E+03  0.10100000352E+00 0. -1.
       -3    1    3    3    0  502  0.38286269326E+03 -0.55576537328E+03 -0.60906886673E+02  0.67761984259E+03  0.10100000352E+00 0.  1.
</event>
<event>
 5   0  0.1578965E-03  0.1373705E+04  0.7818609E-02  0.8973075E-01
       -2   -1    0    0    0  501  0.00000000000E+00  0.00000000000E+00  0.61886503851E+03  0.61886503851E+03  0.25500000920E-02 0. -1.
        2   -1    0    0  501    0  0.00000000000E+00  0.00000000000E+00 -0.76230940155E+03  0.76230940156E+03  0.25500000920E-02 0.  1.
    10030    2    1    2    0    0  0.00000000000E+00  0.00000000000E+00 -0.14344436305E+03  0.13811744401E+04  0.13737054082E+04 0.  0.
        2    1    3    3  502    0 -0.18307847041E+03 -0.21921858519E+03 -0.69977211426E+03  0.75581447877E+03  0.25500000920E-02 0.  1.
       -2    1    3    3    0  502  0.18307847041E+03  0.21921858519E+03  0.55632775121E+03  0.62535996130E+03  0.25500000920E-02 0. -1.
</event>
<event>
 5   0  0.9639548E-04  0.1431565E+04  0.7818609E-02  0.8931282E-01
       -1   -1    0    0    0  501  0.00000000000E+00  0.00000000000E+00  0.63942388544E+03  0.63942388546E+03  0.50400001928E-02 0.  1.
        1   -1    0    0  501    0  0.00000000000E+00  0.00000000000E+00 -0.80125915770E+03  0.80125915772E+03  0.50400001928E-02 0. -1.
    10030    2    1    2    0    0  0.00000000000E+00  0.00000000000E+00 -0.16183527226E+03  0.14406830432E+04  0.14315645202E+04 0.  0.
        1    1    3    3  502    0  0.70666163110E+03  0.12842376817E+02  0.32978582370E+02  0.70754729484E+03  0.50400001928E-02 0. -1.
       -1    1    3    3    0  502 -0.70666163110E+03 -0.12842376817E+02 -0.19481385464E+03  0.73313574834E+03  0.50400001928E-02 0.  1.
</event>
<event>
 5   0  0.1706986E-03  0.1387023E+04  0.7818609E-02  0.8963266E-01
       -2   -1    0    0    0  501  0.00000000000E+00  0.00000000000E+00  0.32897821936E+03  0.32897821937E+03  0.25500000920E-02 0. -1.
        2   -1    0    0  501    0  0.00000000000E+00  0.00000000000E+00 -0.14619750434E+04  0.14619750434E+04  0.25500000920E-02 0.  1.
    10030    2    1    2    0    0  0.00000000000E+00  0.00000000000E+00 -0.11329968240E+04  0.17909532627E+04  0.13870226336E+04 0.  0.
        3    1    3    3  502    0 -0.26488105428E+03  0.12657210494E+03 -0.13777877748E+04  0.14087163069E+04  0.10100000352E+00 0.  1.
       -3    1    3    3    0  502  0.26488105428E+03 -0.12657210494E+03  0.24479095077E+03  0.38223695589E+03  0.10100000352E+00 0. -1.
</event>
<event>
 5   0  0.1578965E-03  0.1407307E+04  0.7818609E-02  0.8948547E-01
       -2   -1    0    0    0  501  0.00000000000E+00  0.00000000000E+00  0.28998443382E+03  0.28998443383E+03  0.25500000920E-02 0.  1.
        2   -1    0    0  501    0  0.00000000000E+00  0.00000000000E+00 -0.17074295693E+04  0.17074295693E+04  0.25500000920E-02 0. -1.
    10030    2    1    2    0    0  0.00000000000E+00  0.00000000000E+00 -0.14174451354E+04  0.19974140031E+04  0.14073066431E+04 0.  0.
        2    1    3    3  502    0  0.18529529644E+02 -0.41821386960E+03 -0.15114611308E+04  0.15683625009E+04  0.25500000920E-02 0. -1.
       -2    1    3    3    0  502 -0.18529529644E+02  0.41821386960E+03  0.94015995346E+02  0.42905150225E+03  0.25500000920E-02 0.  1.
</event>
<event>
 5   0  0.8673728E-04  0.1400812E+04  0.7818609E-02  0.8953231E-01
        1   -1    0    0  501    0  0.00000000000E+00  0.00000000000E+00  0.61934211325E+03  0.61934211327E+03  0.50400001928E-02 0. -1.
       -1   -1    0    0    0  501  0.00000000000E+00  0.00000000000E+00 -0.79207984961E+03  0.79207984962E+03  0.50400001928E-02 0.  1.
    10030    2    1    2    0    0  0.00000000000E+00  0.00000000000E+00 -0.17273773636E+03  0.14114219629E+04  0.14008117760E+04 0.  0.
        3    1    3    3  502    0  0.43392803851E+03  0.54927847418E+03 -0.11038240911E+03  0.70864989328E+03  0.10100000352E+00 0.  1.
       -3    1    3    3    0  502 -0.43392803851E+03 -0.54927847418E+03 -0.62355327250E+02  0.70277206962E+03  0.10100000352E+00 0. -1.
</event>
<event>
 5   0  0.1605214E-03  0.1392171E+04  0.7818609E-02  0.8959505E-01
        2   -1    0    0  501    0  0.00000000000E+00  0.00000000000E+00  0.10424520107E+04  0.10424520107E+04  0.25500000920E-02 0. -1.
       -2   -1    0    0    0  501  0.00000000000E+00  0.00000000000E+00 -0.46480336148E+03  0.46480336148E+03  0.25500000920E-02 0.  1.
    10030    2    1    2    0    0  0.00000000000E+00  0.00000000000E+00  0.57764864918E+03  0.15072553721E+04  0.13921712520E+04 0.  0.
        5    1    3    3  502    0  0.25648790835E+03  0.63646485107E+03  0.16238147376E+03  0.70516904838E+03  0.46999998093E+01 0. -1.
       -5    1    3    3    0  502 -0.25648790835E+03 -0.63646485107E+03  0.41526717542E+03  0.80208632376E+03  0.46999998093E+01 0.  1.
</event>
<event>
 5   0  0.1578965E-03  0.1409789E+04  0.7818609E-02  0.8946763E-01
       -2   -1    0    0    0  501  0.00000000000E+00  0.00000000000E+00  0.67137512402E+03  0.67137512402E+03  0.25500000920E-02 0. -1.
        2   -1    0    0  501    0  0.00000000000E+00  0.00000000000E+00 -0.74008701845E+03  0.74008701846E+03  0.25500000920E-02 0.  1.
    10030    2    1    2    0    0  0.00000000000E+00  0.00000000000E+00 -0.68711894435E+02  0.14114621425E+04  0.14097886562E+04 0.  0.
        2    1    3    3  502    0 -0.69014102181E+03  0.89127630256E+02  0.78194797441E+02  0.70025194810E+03  0.25500000920E-02 0. -1.
       -2    1    3    3    0  502  0.69014102181E+03 -0.89127630256E+02 -0.14690669188E+03  0.71121019438E+03  0.25500000920E-02 0.  1.
</event>
<event>
 5   0  0.6048000E-04  0.1397040E+04  0.7818609E-02  0.8955964E-01
       -4   -1    0    0    0  501  0.00000000000E+00  0.00000000000E+00  0.58386291558E+03  0.58386429681E+03  0.12699999809E+01 0.  1.
        4   -1    0    0  501    0  0.00000000000E+00  0.00000000000E+00 -0.83569047626E+03  0.83569144127E+03  0.12699999809E+01 0. -1.
    10030    2    1    2    0    0  0.00000000000E+00  0.00000000000E+00 -0.25182756068E+03  0.14195557381E+04  0.13970402189E+04 0.  0.
        2    1    3    3  502    0 -0.41955380297E+02 -0.35430047470E+03 -0.73612648880E+03  0.81802890403E+03  0.25500000920E-02 0. -1.
       -2    1    3    3    0  502  0.41955380297E+02  0.35430047470E+03  0.48429892812E+03  0.60152683406E+03  0.25500000920E-02 0.  1.
</event>
<event>
 5   0  0.9639548E-04  0.1339803E+04  0.7818609E-02  0.8998583E-01
        1   -1    0    0  501    0  0.00000000000E+00  0.00000000000E+00  0.73248077983E+03  0.73248077984E+03  0.50400001928E-02 0.  1.
       -1   -1    0    0    0  501  0.00000000000E+00  0.00000000000E+00 -0.61266852702E+03  0.61266852705E+03  0.50400001928E-02 0. -1.
    10030    2    1    2    0    0  0.00000000000E+00  0.00000000000E+00  0.11981225280E+03  0.13451493069E+04  0.13398028519E+04 0.  0.
        1    1    3    3  502    0  0.35286805965E+03 -0.56938373305E+03  0.67298759941E+02  0.67323311424E+03  0.50400001928E-02 0. -1.
       -1    1    3    3    0  502 -0.35286805965E+03  0.56938373305E+03  0.52513492862E+02  0.67191619265E+03  0.50400001928E-02 0.  1.
</event>
<event>
 5   0  0.1648213E-03  0.1399355E+04  0.7818609E-02  0.8954285E-01
       -2   -1    0    0    0  501  0.00000000000E+00  0.00000000000E+00  0.14537577422E+04  0.14537577422E+04  0.25500000920E-02 0. -1.
        2   -1    0    0  501    0  0.00000000000E+00  0.00000000000E+00 -0.33674725355E+03  0.33674725356E+03  0.25500000920E-02 0.  1.
    10030    2    1    2    0    0  0.00000000000E+00  0.00000000000E+00  0.11170104887E+04  0.17905049958E+04  0.13993554617E+04 0.  0.
        4    1    3    3  502    0 -0.39894738084E+02 -0.23260579674E+03 -0.28428097286E+03  0.36947845842E+03  0.12699999809E+01 0.  1.
       -4    1    3    3    0  502  0.39894738084E+02  0.23260579674E+03  0.14012914615E+04  0.14210265373E+04  0.12699999809E+01 0. -1.
</event>
<event>
 5   0  0.1706986E-03  0.1384616E+04  0.7818609E-02  0.8965030E-01
       -2   -1    0    0    0  501  0.00000000000E+00  0.00000000000E+00  0.30550719259E+03  0.30550719260E+03  0.25500000920E-02 0. -1.
        2   -1    0    0  501    0  0.00000000000E+00  0.00000000000E+00 -0.15688345141E+04  0.15688345141E+04  0.25500000920E-02 0.  1.
    10030    2    1    2    0    0  0.00000000000E+00  0.00000000000E+00 -0.12633273215E+04  0.18743417067E+04  0.13846157995E+04 0.  0.
        3    1    3    3  502    0 -0.24049762272E+03  0.44682118493E+03  0.58685855718E+01  0.50746697265E+03  0.10100000352E+00 0. -1.
       -3    1    3    3    0  502  0.24049762272E+03 -0.44682118493E+03 -0.12691959071E+04  0.13668747341E+04  0.10100000352E+00 0.  1.
</event>
<event>
 5   0  0.6048000E-04  0.1495252E+04  0.7818609E-02  0.8887616E-01
        4   -1    0    0  501    0  0.00000000000E+00  0.00000000000E+00  0.60710163914E+03  0.60710296750E+03  0.12699999809E+01 0. -1.
       -4   -1    0    0    0  501  0.00000000000E+00  0.00000000000E+00 -0.92067503003E+03  0.92067590596E+03  0.12699999809E+01 0.  1.
    10030    2    1    2    0    0  0.00000000000E+00  0.00000000000E+00 -0.31357339089E+03  0.15277788735E+04  0.14952524920E+04 0.  0.
        4    1    3    3  502    0 -0.74390502647E+03  0.63934151872E+02 -0.19584288673E+03  0.77190563760E+03  0.12699999809E+01 0.  1.
       -4    1    3    3    0  502  0.74390502647E+03 -0.63934151872E+02 -0.11773050416E+03  0.75587323586E+03  0.12699999809E+01 0. -1.
</event>
<event>
 5   0  0.1706986E-03  0.1393601E+04  0.7818609E-02  0.8958463E-01
        2   -1    0    0  501    0  0.00000000000E+00  0.00000000000E+00  0.16089141920E+04  0.16089141920E+04  0.25500000920E-02 0. -1.
       -2   -1    0    0    0  501  0.00000000000E+00  0.00000000000E+00 -0.30177559670E+03  0.30177559671E+03  0.25500000920E-02 0.  1.
    10030    2    1    2    0    0  0.00000000000E+00  0.00000000000E+00  0.13071385953E+04  0.19106897887E+04  0.13936011486E+04 0.  0.
        3    1    3    3  502    0 -0.67223128762E+03  0.18340152549E+03  0.65345848812E+03  0.95526908748E+03  0.10100000352E+00 0.  1.
       -3    1    3    3    0  502  0.67223128762E+03 -0.18340152549E+03  0.65368010715E+03  0.95542070120E+03  0.10100000352E+00 0. -1.
</event>
<event>
 5   0  0.8673728E-04  0.1400554E+04  0.7818609E-02  0.8953418E-01
        1   -1    0    0  501    0  0.00000000000E+00  0.00000000000E+00  0.77370116438E+03  0.77370116440E+03  0.50400001928E-02 0. -1.
       -1   -1    0    0    0  501  0.00000000000E+00  0.00000000000E+00 -0.63382053451E+03  0.63382053453E+03  0.50400001928E-02 0.  1.
    10030    2    1    2    0    0  0.00000000000E+00  0.00000000000E+00  0.13988062988E+03  0.14075216989E+04  0.14005537270E+04 0.  0.
        3    1    3    3  502    0  0.52896413756E+03  0.31905481437E+03 -0.26153187916E+03  0.67081887824E+03  0.10100000352E+00 0.  1.
       -3    1    3    3    0  502 -0.52896413756E+03 -0.31905481437E+03  0.40141250903E+03  0.73670282068E+03  0.10100000352E+00 0. -1.
</event>
<event>
 5   0  0.8673728E-04  0.1407085E+04  0.7818609E-02  0.8948706E-01
       -1   -1    0    0    0  501  0.00000000000E+00  0.00000000000E+00  0.22804934048E+03  0.22804934054E+03  0.50400001928E-02 0. -1.
        1   -1    0    0  501    0  0.00000000000E+00  0.00000000000E+00 -0.21704590218E+04  0.21704590218E+04  0.50400001928E-02 0.  1.
    10030    2    1    2    0    0  0.00000000000E+00  0.00000000000E+00 -0.19424096813E+04  0.23985083623E+04  0.14070845725E+04 0.  0.
        3    1    3    3  502    0  0.25066186218E+03  0.46405323948E+03 -0.17752449368E+03  0.55649953664E+03  0.10100000352E+00 0. -1.
       -3    1    3    3    0  502 -0.25066186218E+03 -0.46405323948E+03 -0.17648851876E+04  0.18420088257E+04  0.10100000352E+00 0.  1.
</event>
<event>
 5   0  0.1648213E-03  0.1367749E+04  0.7818609E-02  0.8977500E-01
       -2   -1    0    0    0  501  0.00000000000E+00  0.00000000000E+00  0.46815131472E+03  0.46815131472E+03  0.25500000920E-02 0.  1.
        2   -1    0    0  501    0  0.00000000000E+00  0.00000000000E+00 -0.99900262079E+03  0.99900262079E+03  0.25500000920E-02 0. -1.
    10030    2    1    2    0    0  0.00000000000E+00  0.00000000000E+00 -0.53085130607E+03  0.14671539355E+04  0.13677490857E+04 0.  0.
        4    1    3    3  502    0  0.51873021491E+03  0.10990095867E+03  0.19784634671E+03  0.56595410271E+03  0.12699999809E+01 0.  1.
       -4    1    3    3    0  502 -0.51873021491E+03 -0.10990095867E+03 -0.72869765278E+03  0.90119983280E+03  0.12699999809E+01 0. -1.
</event>
<event>
 5   0  0.8609148E-04  0.1302651E+04  0.7818609E-02  0.9027466E-01
       -1   -1    0    0    0  501  0.00000000000E+00  0.00000000000E+00  0.83204258760E+03  0.83204258761E+03  0.50400001928E-02 0.  1.
        1   -1    0    0  501    0  0.00000000000E+00  0.00000000000E+00 -0.50985959993E+03  0.50985959996E+03  0.50400001928E-02 0. -1.
    10030    2    1    2    0    0  0.00000000000E+00  0.00000000000E+00  0.32218298766E+03  0.13419021876E+04  0.13026509907E+04 0.  0.
        5    1    3    3  502    0  0.25954173841E+03  0.42669690712E+03  0.59174405360E+03  0.77434829340E+03  0.46999998093E+01 0.  1.
       -5    1    3    3    0  502 -0.25954173841E+03 -0.42669690712E+03 -0.26956106594E+03  0.56755389417E+03  0.46999998093E+01 0. -1.
</event>
<event>
 5   0  0.6048000E-04  0.1362477E+04  0.7818609E-02  0.8981436E-01
       -3   -1    0    0    0  501  0.00000000000E+00  0.00000000000E+00  0.68376363038E+03  0.68376363784E+03  0.10100000352E+00 0.  1.
        3   -1    0    0  501    0  0.00000000000E+00  0.00000000000E+00 -0.67872302515E+03  0.67872303266E+03  0.10100000352E+00 0. -1.
    10030    2    1    2    0    0  0.00000000000E+00  0.00000000000E+00  0.50406052295E+01  0.13624866705E+04  0.13624773464E+04 0.  0.
        5    1    3    3  502    0 -0.47022601116E+03 -0.10569880191E+03 -0.47891762065E+03  0.67946222534E+03  0.46999998093E+01 0. -1.
       -5    1    3    3    0  502  0.47022601116E+03  0.10569880191E+03  0.48395822588E+03  0.68302444516E+03  0.46999998093E+01 0.  1.
</event>
<event>
 5   0  0.8609148E-04  0.1385735E+04  0.7818609E-02  0.8964209E-01
        1   -1    0    0  501    0  0.00000000000E+00  0.00000000000E+00  0.67090094908E+03  0.67090094910E+03  0.50400001928E-02 0.  1.
       -1   -1    0    0    0  501  0.00000000000E+00  0.00000000000E+00 -0.71555378117E+03  0.71555378119E+03  0.50400001928E-02 0. -1.
    10030    2    1    2    0    0  0.00000000000E+00  0.00000000000E+00 -0.44652832093E+02  0.13864547303E+04  0.13857354884E+04 0.  0.
        5    1    3    3  502    0 -0.24639473343E+03 -0.53060371337E+03  0.34907098677E+03  0.68126596063E+03  0.46999998093E+01 0.  1.
       -5    1    3    3    0  502  0.24639473343E+03  0.53060371337E+03 -0.39372381886E+03  0.70518876965E+03  0.46999998093E+01 0. -1.
</event>
<event>
 5   0  0.6048000E-04  0.1400321E+04  0.7818609E-02  0.8953586E-01
       -3   -1    0    0    0  501  0.00000000000E+00  0.00000000000E+00  0.52177856150E+03  0.52177857128E+03  0.10100000352E+00 0.  1.
        3   -1    0    0  501    0  0.00000000000E+00  0.00000000000E+00 -0.93952617031E+03  0.93952617574E+03  0.10100000352E+00 0. -1.
    10030    2    1    2    0    0  0.00000000000E+00  0.00000000000E+00 -0.41774760880E+03  0.14613047470E+04  0.14003208557E+04 0.  0.
        1    1    3    3  502    0 -0.21237494947E+03  0.66713879425E+03 -0.20169415282E+03  0.72859990479E+03  0.50400001928E-02 0. -1.
       -1    1    3    3    0  502  0.21237494947E+03 -0.66713879425E+03 -0.21605345598E+03  0.73270484223E+03  0.50400001928E-02 0.  1.
</event>
<event>
 5   0  0.8673728E-04  0.1323904E+04  0.7818609E-02  0.9010821E-01
       -1   -1    0    0    0  501  0.00000000000E+00  0.00000000000E+00  0.41095481100E+03  0.41095481103E+03  0.50400001928E-02 0.  1.
        1   -1    0    0  501    0  0.00000000000E+00  0.00000000000E+00 -0.10662499971E+04  0.10662499971E+04  0.50400001928E-02 0. -1.
    10030    2    1    2    0    0  0.00000000000E+00  0.00000000000E+00 -0.65529518608E+03  0.14772048081E+04  0.13239041749E+04 0.  0.
        3    1    3    3  502    0 -0.50150054068E+03  0.42797912299E+03 -0.26152669041E+03  0.70927085237E+03  0.10100000352E+00 0.  1.
       -3    1    3    3    0  502  0.50150054068E+03 -0.42797912299E+03 -0.39376849567E+03  0.76793395576E+03  0.10100000352E+00 0. -1.
</event>
<event>
 5   0  0.1648463E-03  0.1412651E+04  0.7818609E-02  0.8944712E-01
        2   -1    0    0  501    0  0.00000000000E+00  0.00000000000E+00  0.18362624817E+04  0.18362624817E+04  0.25500000920E-02 0.  1.
       -2   -1    0    0    0  501  0.00000000000E+00  0.00000000000E+00 -0.27169081314E+03  0.27169081315E+03  0.25500000920E-02 0. -1.
    10030    2    1    2    0    0  0.00000000000E+00  0.00000000000E+00  0.15645716685E+04  0.21079532948E+04  0.14126509077E+04 0.  0.
        1    1    3    3  502    0 -0.22594293847E+03  0.25318469836E+03  0.17066568782E+04  0.17400662065E+04  0.50400001928E-02 0.  1.
       -1    1    3    3    0  502  0.22594293847E+03 -0.25318469836E+03 -0.14208520969E+03  0.36788708834E+03  0.50400001928E-02 0. -1.
</event>
<event>
 5   0  0.9007180E-04  0.1435129E+04  0.7818609E-02  0.8928776E-01
        1   -1    0    0  501    0  0.00000000000E+00  0.00000000000E+00  0.16683975012E+04  0.16683975012E+04  0.50400001928E-02 0. -1.
       -1   -1    0    0    0  501  0.00000000000E+00  0.00000000000E+00 -0.30861860266E+03  0.30861860270E+03  0.50400001928E-02 0.  1.
    10030    2    1    2    0    0  0.00000000000E+00  0.00000000000E+00  0.13597788986E+04  0.19770161039E+04  0.14351285734E+04 0.  0.
        2    1    3    3  502    0  0.27983212455E+03 -0.43356593722E+02  0.15881711330E+04  0.16132183237E+04  0.25500000920E-02 0. -1.
       -2    1    3    3    0  502 -0.27983212455E+03  0.43356593722E+02 -0.22839223444E+03  0.36379778024E+03  0.25500000920E-02 0.  1.
</event>
<event>
 5   0  0.8673728E-04  0.1407698E+04  0.7818609E-02  0.8948265E-01
       -1   -1    0    0    0  501  0.00000000000E+00  0.00000000000E+00  0.92151276949E+03  0.92151276950E+03  0.50400001928E-02 0. -1.
        1   -1    0    0  501    0  0.00000000000E+00  0.00000000000E+00 -0.53759836093E+03  0.53759836095E+03  0.50400001928E-02 0.  1.
    10030    2    1    2    0    0  0.00000000000E+00  0.00000000000E+00  0.38391440856E+03  0.14591111305E+04  0.14076984826E+04 0.  0.
        3    1    3    3  502    0  0.26440810364E+03  0.13912116013E+03 -0.46860728176E+03  0.55575096688E+03  0.10100000352E+00 0.  1.
       -3    1    3    3    0  502 -0.26440810364E+03 -0.13912116013E+03  0.85252169032E+03  0.90336016357E+03  0.10100000352E+00 0. -1.
</event>
<event>
 5   0  0.9007180E-04  0.1460385E+04  0.7818609E-02  0.8911233E-01
        1   -1    0    0  501    0  0.00000000000E+00  0.00000000000E+00  0.10839670166E+04  0.10839670166E+04  0.50400001928E-02 0. -1.
       -1   -1    0    0    0  501  0.00000000000E+00  0.00000000000E+00 -0.49187917731E+03  0.49187917733E+03  0.50400001928E-02 0.  1.
    10030    2    1    2    0    0  0.00000000000E+00  0.00000000000E+00  0.59208783933E+03  0.15758461940E+04  0.14603846129E+04 0.  0.
        2    1    3    3  502    0 -0.19722821248E+03 -0.68941759461E+03  0.14736330098E+03  0.73205978584E+03  0.25500000920E-02 0. -1.
       -2    1    3    3    0  502  0.19722821248E+03  0.68941759461E+03  0.44472453835E+03  0.84378640815E+03  0.25500000920E-02 0.  1.
</event>
<event>
 5   0  0.8673728E-04  0.1398767E+04  0.7818609E-02  0.8954711E-01
        1   -1    0    0  501    0  0.00000000000E+00  0.00000000000E+00  0.15158818262E+04  0.15158818262E+04  0.50400001928E-02 0.  1.
       -1   -1    0    0    0  501  0.00000000000E+00  0.00000000000E+00 -0.32267511664E+03  0.32267511668E+03  0.50400001928E-02 0. -1.
    10030    2    1    2    0    0  0.00000000000E+00  0.00000000000E+00  0.11932067096E+04  0.18385569429E+04  0.13987670930E+04 0.  0.
        3    1    3    3  502    0  0.42519035574E+03  0.38403181737E+03  0.11237959356E+04  0.12614216545E+04  0.10100000352E+00 0.  1.
       -3    1    3    3    0  502 -0.42519035574E+03 -0.38403181737E+03  0.69410773950E+02  0.57713528839E+03  0.10100000352E+00 0. -1.
</event>
<event>
 5   0  0.1605214E-03  0.1393580E+04  0.7818609E-02  0.8958479E-01
       -2   -1    0    0    0  501  0.00000000000E+00  0.00000000000E+00  0.45526550854E+03  0.45526550854E+03  0.25500000920E-02 0.  1.
        2   -1    0    0  501    0  0.00000000000E+00  0.00000000000E+00 -0.10664468410E+04  0.10664468410E+04  0.25500000920E-02 0. -1.
    10030    2    1    2    0    0  0.00000000000E+00  0.00000000000E+00 -0.61118133245E+03  0.15217123495E+04  0.13935802286E+04 0.  0.
        5    1    3    3  502    0  0.67876606678E+03 -0.81652730087E+02 -0.45251233088E+03  0.81986586789E+03  0.46999998093E+01 0. -1.
       -5    1    3    3    0  502 -0.67876606678E+03  0.81652730087E+02 -0.15866900157E+03  0.70184648164E+03  0.46999998093E+01 0.  1.
</event>
<event>
 5   0  0.1648463E-03  0.1072041E+04  0.7818609E-02  0.9232879E-01
        2   -1    0    0  501    0  0.00000000000E+00  0.00000000000E+00  0.50517540633E+03  0.50517540633E+03  0.25500000920E-02 0. -1.
       -2   -1    0    0    0  501  0.00000000000E+00  0.00000000000E+00 -0.56874888364E+03  0.56874888365E+03  0.25500000920E-02 0.  1.
    10030    2    1    2    0    0  0.00000000000E+00  0.00000000000E+00 -0.63573477315E+02  0.10739242900E+04  0.10720409477E+04 0.  0.
        1    1    3    3  502    0  0.22812922245E+02 -0.23644353077E+03  0.44956961795E+03  0.50846712192E+03  0.50400001928E-02 0. -1.
       -1    1    3    3    0  502 -0.22812922245E+02  0.23644353077E+03 -0.51314309527E+03  0.56545716806E+03  0.50400001928E-02 0.  1.
</event>
<event>
 5   0  0.9639548E-04  0.1391158E+04  0.7818609E-02  0.8960244E-01
       -1   -1    0    0    0  501  0.00000000000E+00  0.00000000000E+00  0.30764078514E+03  0.30764078518E+03  0.50400001928E-02 0. -1.
        1   -1    0    0  501    0  0.00000000000E+00  0.00000000000E+00 -0.15727112989E+04  0.15727112989E+04  0.50400001928E-02 0.  1.
    10030    2    1    2    0    0  0.00000000000E+00  0.00000000000E+00 -0.12650705138E+04  0.18803520841E+04  0.13911579908E+04 0.  0.
        1    1    3    3  502    0 -0.23368537755E+03  0.59471979742E+03 -0.10040032888E+04  0.11900937345E+04  0.50400001928E-02 0. -1.
       -1    1    3    3    0  502  0.23368537755E+03 -0.59471979742E+03 -0.26106722501E+03  0.69025834955E+03  0.50400001928E-02 0.  1.
</event>
<event>
 5   0  0.1578965E-03  0.1403393E+04  0.7818609E-02  0.8951366E-01
       -2   -1    0    0    0  501  0.00000000000E+00  0.00000000000E+00  0.41537001701E+03  0.41537001702E+03  0.25500000920E-02 0.  1.
        2   -1    0    0  501    0  0.00000000000E+00  0.00000000000E+00 -0.11853956338E+04  0.11853956338E+04  0.25500000920E-02 0. -1.
    10030    2    1    2    0    0  0.00000000000E+00  0.00000000000E+00 -0.77002561679E+03  0.16007656508E+04  0.14033927527E+04 0.  0.
        2    1    3    3  502    0  0.27647843911E+03 -0.40215611122E+03  0.19008681397E+03  0.52373930723E+03  0.25500000920E-02 0.  1.
       -2    1    3    3    0  502 -0.27647843911E+03  0.40215611122E+03 -0.96011243076E+03  0.10770263436E+04  0.25500000920E-02 0. -1.
</event>
<event>
 5   0  0.1605214E-03  0.1438410E+04  0.7818609E-02  0.8926475E-01
        2   -1    0    0  501    0  0.00000000000E+00  0.00000000000E+00  0.48796308608E+03  0.48796308608E+03  0.25500000920E-02 0. -1.
       -2   -1    0    0    0  501  0.00000000000E+00  0.00000000000E+00 -0.10600302481E+04  0.10600302482E+04  0.25500000920E-02 0.  1.
    10030    2    1    2    0    0  0.00000000000E+00  0.00000000000E+00 -0.57206716207E+03  0.15479933342E+04  0.14384097208E+04 0.  0.
        5    1    3    3  502    0 -0.22182992414E+03 -0.19174776265E+03  0.42069876581E+03  0.51282088615E+03  0.46999998093E+01 0. -1.
       -5    1    3    3    0  502  0.22182992414E+03  0.19174776265E+03 -0.99276592788E+03  0.10351724481E+04  0.46999998093E+01 0.  1.
</event>
<event>
 5   0  0.9007180E-04  0.1421936E+04  0.7818609E-02  0.8938091E-01
       -1   -1    0    0    0  501  0.00000000000E+00  0.00000000000E+00  0.83035207715E+03  0.83035207717E+03  0.50400001928E-02 0.  1.
        1   -1    0    0  501    0  0.00000000000E+00  0.00000000000E+00 -0.60874863696E+03  0.60874863698E+03  0.50400001928E-02 0. -1.
    10030    2    1    2    0    0  0.00000000000E+00  0.00000000000E+00  0.22160344019E+03  0.14391007142E+04  0.14219362787E+04 0.  0.
        2    1    3    3  502    0  0.70900855269E+03  0.52526673022E+02  0.11570958952E+03  0.72030610734E+03  0.25500000920E-02 0. -1.
       -2    1    3    3    0  502 -0.70900855269E+03 -0.52526673022E+02  0.10589385067E+03  0.71879460681E+03  0.25500000920E-02 0.  1.
</event>
<event>
 5   0  0.1578965E-03  0.1343300E+04  0.7818609E-02  0.8995916E-01
        2   -1    0    0  501    0  0.00000000000E+00  0.00000000000E+00  0.88973282324E+03  0.88973282324E+03  0.25500000920E-02 0. -1.
       -2   -1    0    0    0  501  0.00000000000E+00  0.00000000000E+00 -0.50702123530E+03  0.50702123530E+03  0.25500000920E-02 0.  1.
    10030    2    1    2    0    0  0.00000000000E+00  0.00000000000E+00  0.38271158794E+03  0.13967540585E+04  0.13432995721E+04 0.  0.
        2    1    3    3  502    0 -0.31478611531E+03  0.39964980783E+03  0.64733000945E+03  0.82331428290E+03  0.25500000920E-02 0. -1.
       -2    1    3    3    0  502  0.31478611531E+03 -0.39964980783E+03 -0.26461842150E+03  0.57343977565E+03  0.25500000920E-02 0.  1.
</event>
<event>
 5   0  0.1706986E-03  0.1403708E+04  0.7818609E-02  0.8951139E-01
        2   -1    0    0  501    0  0.00000000000E+00  0.00000000000E+00  0.76031818358E+03  0.76031818359E+03  0.25500000920E-02 0.  1.
       -2   -1    0    0    0  501  0.00000000000E+00  0.00000000000E+00 -0.64788541651E+03  0.64788541651E+03  0.25500000920E-02 0. -1.
    10030    2    1    2    0    0  0.00000000000E+00  0.00000000000E+00  0.11243276707E+03  0.14082036001E+04  0.14037080367E+04 0.  0.
        3    1    3    3  502    0  0.28613286297E+03  0.48862868322E+03  0.47223599762E+03  0.73731733533E+03  0.10100000352E+00 0.  1.
       -3    1    3    3    0  502 -0.28613286297E+03 -0.48862868322E+03 -0.35980323054E+03  0.67088626476E+03  0.10100000352E+00 0. -1.
</event>
<event>
 5   0  0.6048000E-04  0.1188962E+04  0.7818609E-02  0.9122573E-01
        3   -1    0    0  501    0  0.00000000000E+00  0.00000000000E+00  0.23661823680E+03  0.23661825836E+03  0.10100000352E+00 0.  1.
       -3   -1    0    0    0  501  0.00000000000E+00  0.00000000000E+00 -0.14935775266E+04  0.14935775300E+04  0.10100000352E+00 0. -1.
    10030    2    1    2    0    0  0.00000000000E+00  0.00000000000E+00 -0.12569592898E+04  0.17301957884E+04  0.11889620725E+04 0.  0.
        4    1    3    3  502    0 -0.10002235374E+03  0.23445849665E+03  0.15305474066E+03  0.29732578838E+03  0.12699999809E+01 0.  1.
       -4    1    3    3    0  502  0.10002235374E+03 -0.23445849665E+03 -0.14100140305E+04  0.14328700000E+04  0.12699999809E+01 0. -1.
</event>
<event>
 5   0  0.8609148E-04  0.1374255E+04  0.7818609E-02  0.8972668E-01
        1   -1    0    0  501    0  0.00000000000E+00  0.00000000000E+00  0.66901126837E+03  0.66901126839E+03  0.50400001928E-02 0. -1.
       -1   -1    0    0    0  501  0.00000000000E+00  0.00000000000E+00 -0.70573386517E+03  0.70573386519E+03  0.50400001928E-02 0.  1.
    10030    2    1    2    0    0  0.00000000000E+00  0.00000000000E+00 -0.36722596800E+02  0.13747451336E+04  0.13742545736E+04 0.  0.
        5    1    3    3  502    0 -0.48628646411E+03  0.29138137089E+03 -0.40675778350E+03  0.69774752806E+03  0.46999998093E+01 0.  1.
       -5    1    3    3    0  502  0.48628646411E+03 -0.29138137089E+03  0.37003518670E+03  0.67699760552E+03  0.46999998093E+01 0. -1.
</event>
<event>
 5   0  0.1648463E-03  0.1416771E+04  0.7818609E-02  0.8941767E-01
       -2   -1    0    0    0  501  0.00000000000E+00  0.00000000000E+00  0.26924818697E+03  0.26924818699E+03  0.25500000920E-02 0.  1.
        2   -1    0    0  501    0  0.00000000000E+00  0.00000000000E+00 -0.18637461546E+04  0.18637461546E+04  0.25500000920E-02 0. -1.
    10030    2    1    2    0    0  0.00000000000E+00  0.00000000000E+00 -0.15944979676E+04  0.21329943416E+04  0.14167713621E+04 0.  0.
        1    1    3    3  502    0  0.46975883401E+01  0.28061780017E+03  0.18197401048E+03  0.33448909941E+03  0.50400001928E-02 0.  1.
       -1    1    3    3    0  502 -0.46975883401E+01 -0.28061780017E+03 -0.17764719781E+04  0.17985052422E+04  0.50400001928E-02 0. -1.
</event>
<event>
 5   0  0.8502300E-04  0.1372645E+04  0.7818609E-02  0.8973861E-01
        1   -1    0    0  501    0  0.00000000000E+00  0.00000000000E+00  0.14172346330E+04  0.14172346330E+04  0.50400001928E-02 0.  1.
       -1   -1    0    0    0  501  0.00000000000E+00  0.00000000000E+00 -0.33236456350E+03  0.33236456354E+03  0.50400001928E-02 0. -1.
    10030    2    1    2    0    0  0.00000000000E+00  0.00000000000E+00  0.10848700695E+04  0.17495991965E+04  0.13726449945E+04 0.  0.
        4    1    3    3  502    0  0.22078192425E+01  0.18504986172E+03 -0.29996039700E+03  0.35245734275E+03  0.12699999809E+01 0. -1.
       -4    1    3    3    0  502 -0.22078192425E+01 -0.18504986172E+03  0.13848304665E+04  0.13971418538E+04  0.12699999809E+01 0.  1.
</event>
<event>
 5   0  0.9007180E-04  0.1376975E+04  0.7818609E-02  0.8970656E-01
        1   -1    0    0  501    0  0.00000000000E+00  0.00000000000E+00  0.99262967585E+03  0.99262967586E+03  0.50400001928E-02 0. -1.
       -1   -1    0    0    0  501  0.00000000000E+00  0.00000000000E+00 -0.47753441333E+03  0.47753441336E+03  0.50400001928E-02 0.  1.
    10030    2    1    2    0    0  0.00000000000E+00  0.00000000000E+00  0.51509526251E+03  0.14701640892E+04  0.13769746983E+04 0.  0.
        2    1    3    3  502    0 -0.22046041957E+03 -0.63604205650E+03  0.10333377524E+03  0.68105077883E+03  0.25500000920E-02 0.  1.
       -2    1    3    3    0  502  0.22046041957E+03  0.63604205650E+03  0.41176148728E+03  0.78911331039E+03  0.25500000920E-02 0. -1.
</event>
<event>
 5   0  0.1648213E-03  0.1422172E+04  0.7818609E-02  0.8937924E-01
        2   -1    0    0  501    0  0.00000000000E+00  0.00000000000E+00  0.16547177785E+04  0.16547177785E+04  0.25500000920E-02 0. -1.
       -2   -1    0    0    0  501  0.00000000000E+00  0.00000000000E+00 -0.30557672213E+03  0.30557672214E+03  0.25500000920E-02 0.  1.
    10030    2    1    2    0    0  0.00000000000E+00  0.00000000000E+00  0.13491410564E+04  0.19602945007E+04  0.14221719092E+04 0.  0.
        4    1    3    3  502    0 -0.46817669652E+03  0.10435106395E+03 -0.48998090805E+02  0.48216282469E+03  0.12699999809E+01 0.  1.
       -4    1    3    3    0  502  0.46817669652E+03 -0.10435106395E+03  0.13981391472E+04  0.14781316760E+04  0.12699999809E+01 0. -1.
</event>
<event>
 5   0  0.1578965E-03  0.1405325E+04  0.7818609E-02  0.8949973E-01
       -2   -1    0    0    0  501  0.00000000000E+00  0.00000000000E+00  0.56619859649E+03  0.56619859650E+03  0.25500000920E-02 0.  1.
        2   -1    0    0  501    0  0.00000000000E+00  0.00000000000E+00 -0.87201704446E+03  0.87201704446E+03  0.25500000920E-02 0. -1.
    10030    2    1    2    0    0  0.00000000000E+00  0.00000000000E+00 -0.30581844796E+03  0.14382156410E+04  0.14053253384E+04 0.  0.
        2    1    3    3  502    0  0.14035228045E+02 -0.20886271884E+03  0.53354563383E+03  0.57314183789E+03  0.25500000920E-02 0.  1.
       -2    1    3    3    0  502 -0.14035228045E+02  0.20886271884E+03 -0.83936408180E+03  0.86507380308E+03  0.25500000920E-02 0. -1.
</event>
<event>
 5   0  0.1605214E-03  0.1428715E+04  0.7818609E-02  0.8933292E-01
        2   -1    0    0  501    0  0.00000000000E+00  0.00000000000E+00  0.15052386100E+04  0.15052386100E+04  0.25500000920E-02 0. -1.
       -2   -1    0    0    0  501  0.00000000000E+00  0.00000000000E+00 -0.33902024602E+03  0.33902024603E+03  0.25500000920E-02 0.  1.
    10030    2    1    2    0    0  0.00000000000E+00  0.00000000000E+00  0.11662183640E+04  0.18442588560E+04  0.14287146165E+04 0.  0.
        5    1    3    3  502    0 -0.52349440001E+03 -0.34753012051E+03  0.10217342891E+04  0.11994943181E+04  0.46999998093E+01 0. -1.
       -5    1    3    3    0  502  0.52349440001E+03  0.34753012051E+03  0.14448407484E+03  0.64476453794E+03  0.46999998093E+01 0.  1.
</event>
<event>
 5   0  0.9007180E-04  0.1402166E+04  0.7818609E-02  0.8952252E-01
        1   -1    0    0  501    0  0.00000000000E+00  0.00000000000E+00  0.10819627422E+04  0.10819627422E+04  0.50400001928E-02 0. -1.
       -1   -1    0    0    0  501  0.00000000000E+00  0.00000000000E+00 -0.45428295717E+03  0.45428295719E+03  0.50400001928E-02 0.  1.
    10030    2    1    2    0    0  0.00000000000E+00  0.00000000000E+00  0.62767978505E+03  0.15362456994E+04  0.14021658020E+04 0.  0.
        2    1    3    3  502    0 -0.20932218761E+03 -0.27278073609E+03  0.98323991711E+03  0.10416265371E+04  0.25500000920E-02 0. -1.
       -2    1    3    3    0  502  0.20932218761E+03  0.27278073609E+03 -0.35556013206E+03  0.49461916231E+03  0.25500000920E-02 0.  1.
</event>
<event>
 5   0  0.1648213E-03  0.1384411E+04  0.7818609E-02  0.8965181E-01
       -2   -1    0    0    0  501  0.00000000000E+00  0.00000000000E+00  0.13039747318E+04  0.13039747318E+04  0.25500000920E-02 0.  1.
        2   -1    0    0  501    0  0.00000000000E+00  0.00000000000E+00 -0.36745216991E+03  0.36745216992E+03  0.25500000920E-02 0. -1.
    10030    2    1    2    0    0  0.00000000000E+00  0.00000000000E+00  0.93652256187E+03  0.16714269017E+04  0.13844108418E+04 0.  0.
        4    1    3    3  502    0 -0.18297843417E+03  0.22773279191E+03 -0.28937737821E+03  0.41119850657E+03  0.12699999809E+01 0. -1.
       -4    1    3    3    0  502  0.18297843417E+03 -0.22773279191E+03  0.12258999401E+04  0.12602283951E+04  0.12699999809E+01 0.  1.
</event>
<event>
 5   0  0.1706986E-03  0.1289793E+04  0.7818609E-02  0.9037699E-01
        2   -1    0    0  501    0  0.00000000000E+00  0.00000000000E+00  0.82701738049E+03  0.82701738050E+03  0.25500000920E-02 0.  1.
       -2   -1    0    0    0  501  0.00000000000E+00  0.00000000000E+00 -0.50288113332E+03  0.50288113333E+03  0.25500000920E-02 0. -1.
    10030    2    1    2    0    0  0.00000000000E+00  0.00000000000E+00  0.32413624717E+03  0.13298985138E+04  0.12897929099E+04 0.  0.
        3    1    3    3  502    0 -0.34236012103E+03 -0.35860263736E+03 -0.26316949774E+03  0.56130606512E+03  0.10100000352E+00 0. -1.
       -3    1    3    3    0  502  0.34236012103E+03  0.35860263736E+03  0.58730574492E+03  0.76859244871E+03  0.10100000352E+00 0.  1.
</event>
<event>
 5   0  0.8673728E-04  0.1379669E+04  0.7818609E-02  0.8968668E-01
       -1   -1    0    0    0  501  0.00000000000E+00  0.00000000000E+00  0.77882334325E+03  0.77882334327E+03  0.50400001928E-02 0.  1.
        1   -1    0    0  501    0  0.00000000000E+00  0.00000000000E+00 -0.61101342785E+03  0.61101342787E+03  0.50400001928E-02 0. -1.
    10030    2    1    2    0    0  0.00000000000E+00  0.00000000000E+00  0.16780991540E+03  0.13898367711E+04  0.13796688308E+04 0.  0.
        3    1    3    3  502    0 -0.62669346989E+03  0.15418007887E+02  0.37393142419E+03  0.72993639474E+03  0.10100000352E+00 0.  1.
       -3    1    3    3    0  502  0.62669346989E+03 -0.15418007887E+02 -0.20612150878E+03  0.65990037639E+03  0.10100000352E+00 0. -1.
</event>
<event>
 5   0  0.1706986E-03  0.1428251E+04  0.7818609E-02  0.8933619E-01
       -2   -1    0    0    0  501  0.00000000000E+00  0.00000000000E+00  0.26539437595E+03  0.26539437597E+03  0.25500000920E-02 0. -1.
        2   -1    0    0  501    0  0.00000000000E+00  0.00000000000E+00 -0.19215749735E+04  0.19215749735E+04  0.25500000920E-02 0.  1.
    10030    2    1    2    0    0  0.00000000000E+00  0.00000000000E+00 -0.16561805975E+04  0.21869693494E+04  0.14282509457E+04 0.  0.
        3    1    3    3  502    0  0.12266469430E+03  0.57823703635E+02 -0.19016778707E+04  0.19065070003E+04  0.10100000352E+00 0.  1.
       -3    1    3    3    0  502 -0.12266469430E+03 -0.57823703635E+02  0.24549727322E+03  0.28046234914E+03  0.10100000352E+00 0. -1.
</event>
<event>
 5   0  0.9007180E-04  0.1399318E+04  0.7818609E-02  0.8954312E-01
        1   -1    0    0  501    0  0.00000000000E+00  0.00000000000E+00  0.43246042755E+03  0.43246042758E+03  0.50400001928E-02 0. -1.
       -1   -1    0    0    0  501  0.00000000000E+00  0.00000000000E+00 -0.11319477656E+04  0.11319477656E+04  0.50400001928E-02 0.  1.
    10030    2    1    2    0    0  0.00000000000E+00  0.00000000000E+00 -0.69948733808E+03  0.15644081932E+04  0.13993178548E+04 0.  0.
        2    1    3    3  502    0  0.65012775742E+03 -0.21095680200E+03 -0.18259273115E+03  0.70746659197E+03  0.25500000920E-02 0.  1.
       -2    1    3    3    0  502 -0.65012775742E+03  0.21095680200E+03 -0.51689460694E+03  0.85694160126E+03  0.25500000920E-02 0. -1.
</event>
<event>
 5   0  0.9639548E-04  0.1386191E+04  0.7818609E-02  0.8963875E-01
       -1   -1    0    0    0  501  0.00000000000E+00  0.00000000000E+00  0.83231768017E+03  0.83231768018E+03  0.50400001928E-02 0. -1.
        1   -1    0    0  501    0  0.00000000000E+00  0.00000000000E+00 -0.57716100454E+03  0.57716100457E+03  0.50400001928E-02 0.  1.
    10030    2    1    2    0    0  0.00000000000E+00  0.00000000000E+00  0.25515667563E+03  0.14094786848E+04  0.13861909081E+04 0.  0.
        1    1    3    3  502    0  0.30469344938E+02  0.12301849017E+03  0.82043575607E+03  0.83016670601E+03  0.50400001928E-02 0. -1.
       -1    1    3    3    0  502 -0.30469344938E+02 -0.12301849017E+03 -0.56527908044E+03  0.57931197874E+03  0.50400001928E-02 0.  1.
</event>
<event>
 5   0  0.1648213E-03  0.1389786E+04  0.7818609E-02  0.8961245E-01
        2   -1    0    0  501    0  0.00000000000E+00  0.00000000000E+00  0.19510744496E+04  0.19510744496E+04  0.25500000920E-02 0. -1.
       -2   -1    0    0    0  501  0.00000000000E+00  0.00000000000E+00 -0.24749249358E+03  0.24749249359E+03  0.25500000920E-02 0.  1.
    10030    2    1    2    0    0  0.00000000000E+00  0.00000000000E+00  0.17035819560E+04  0.21985669431E+04  0.13897859989E+04 0.  0.
        4    1    3    3  502    0 -0.16625231451E+03  0.53558335117E+03  0.15009391846E+04  0.16022825615E+04  0.12699999809E+01 0. -1.
       -4    1    3    3    0  502  0.16625231451E+03 -0.53558335117E+03  0.20264277142E+03  0.59628438169E+03  0.12699999809E+01 0.  1.
</event>
<event>
 5   0  0.1648213E-03  0.1440315E+04  0.7818609E-02  0.8925143E-01
        2   -1    0    0  501    0  0.00000000000E+00  0.00000000000E+00  0.20615880075E+04  0.20615880075E+04  0.25500000920E-02 0. -1.
       -2   -1    0    0    0  501  0.00000000000E+00  0.00000000000E+00 -0.25156660101E+03  0.25156660103E+03  0.25500000920E-02 0.  1.
    10030    2    1    2    0    0  0.00000000000E+00  0.00000000000E+00  0.18100214065E+04  0.23131546086E+04  0.14403148097E+04 0.  0.
        4    1    3    3  502    0  0.42604977808E+03  0.50913583711E+03  0.45680154175E+03  0.80585791270E+03  0.12699999809E+01 0. -1.
       -4    1    3    3    0  502 -0.42604977808E+03 -0.50913583711E+03  0.13532198648E+04  0.15072966959E+04  0.12699999809E+01 0.  1.
</event>
<event>
 5   0  0.1648213E-03  0.1502541E+04  0.7818609E-02  0.8882765E-01
        2   -1    0    0  501    0  0.00000000000E+00  0.00000000000E+00  0.88522664538E+03  0.88522664539E+03  0.25500000920E-02 0.  1.
       -2   -1    0    0    0  501  0.00000000000E+00  0.00000000000E+00 -0.63758477236E+03  0.63758477237E+03  0.25500000920E-02 0. -1.
    10030    2    1    2    0    0  0.00000000000E+00  0.00000000000E+00  0.24764187302E+03  0.15228114178E+04  0.15025405541E+04 0.  0.
        4    1    3    3  502    0  0.44659795711E+03  0.34197964031E+03  0.62854111884E+03  0.84348406070E+03  0.12699999809E+01 0.  1.
       -4    1    3    3    0  502 -0.44659795711E+03 -0.34197964031E+03 -0.38089924582E+03  0.67932735706E+03  0.12699999809E+01 0. -1.
</event>
<event>
 5   0  0.8673728E-04  0.1580804E+04  0.7818609E-02  0.8832429E-01
       -1   -1    0    0    0  501  0.00000000000E+00  0.00000000000E+00  0.12483006313E+04  0.12483006314E+04  0.50400001928E-02 0.  1.
        1   -1    0    0  501    0  0.00000000000E+00  0.00000000000E+00 -0.50046836697E+03  0.50046836700E+03  0.50400001928E-02 0. -1.
    10030    2    1    2    0    0  0.00000000000E+00  0.00000000000E+00  0.74783226437E+03  0.17487689983E+04  0.15808035659E+04 0.  0.
        3    1    3    3  502    0 -0.56433749654E+03 -0.47391902308E+03  0.57792947185E+02  0.73919962485E+03  0.10100000352E+00 0. -1.
       -3    1    3    3    0  502  0.56433749654E+03  0.47391902308E+03  0.69003931718E+03  0.10095693735E+04  0.10100000352E+00 0.  1.
</event>
<event>
 5   0  0.1605214E-03  0.1389875E+04  0.7818609E-02  0.8961180E-01
        2   -1    0    0  501    0  0.00000000000E+00  0.00000000000E+00  0.92765524573E+03  0.92765524574E+03  0.25500000920E-02 0. -1.
       -2   -1    0    0    0  501  0.00000000000E+00  0.00000000000E+00 -0.52060075517E+03  0.52060075518E+03  0.25500000920E-02 0.  1.
    10030    2    1    2    0    0  0.00000000000E+00  0.00000000000E+00  0.40705449056E+03  0.14482560009E+04  0.13898748454E+04 0.  0.
        5    1    3    3  502    0 -0.15143152579E+03  0.50886570359E+03  0.67073604005E+03  0.85544417510E+03  0.46999998093E+01 0.  1.
       -5    1    3    3    0  502  0.15143152579E+03 -0.50886570359E+03 -0.26368154949E+03  0.59281182582E+03  0.46999998093E+01 0. -1.
</event>
<event>
 5   0  0.1648463E-03  0.1394296E+04  0.7818609E-02  0.8957958E-01
       -2   -1    0    0    0  501  0.00000000000E+00  0.00000000000E+00  0.38493371659E+03  0.38493371660E+03  0.25500000920E-02 0.  1.
        2   -1    0    0  501    0  0.00000000000E+00  0.00000000000E+00 -0.12625940825E+04  0.12625940825E+04  0.25500000920E-02 0. -1.
    10030    2    1    2    0    0  0.00000000000E+00  0.00000000000E+00 -0.87766036591E+03  0.16475277991E+04  0.13942955680E+04 0.  0.
        1    1    3    3  502    0 -0.62429185757E+03  0.30586571597E+03 -0.37719452368E+03  0.79092974932E+03  0.50400001928E-02 0.  1.
       -1    1    3    3    0  502  0.62429185757E+03 -0.30586571597E+03 -0.50046584223E+03  0.85659804979E+03  0.50400001928E-02 0. -1.
</event>
<event>
 5   0  0.9007180E-04  0.1539819E+04  0.7818609E-02  0.8858397E-01
        1   -1    0    0  501    0  0.00000000000E+00  0.00000000000E+00  0.56089933797E+03  0.56089933799E+03  0.50400001928E-02 0.  1.
       -1   -1    0    0    0  501  0.00000000000E+00  0.00000000000E+00 -0.10568038386E+04  0.10568038386E+04  0.50400001928E-02 0. -1.
    10030    2    1    2    0    0  0.00000000000E+00  0.00000000000E+00 -0.49590450062E+03  0.16177031766E+04  0.15398189159E+04 0.  0.
        2    1    3    3  502    0 -0.52857785607E+03 -0.38390115186E+03 -0.67597300141E+03  0.94006071238E+03  0.25500000920E-02 0. -1.
       -2    1    3    3    0  502  0.52857785607E+03  0.38390115186E+03  0.18006850078E+03  0.67764246422E+03  0.25500000920E-02 0.  1.
</event>
<event>
 5   0  0.9639548E-04  0.1394183E+04  0.7818609E-02  0.8958040E-01
       -1   -1    0    0    0  501  0.00000000000E+00  0.00000000000E+00  0.77253981196E+03  0.77253981198E+03  0.50400001928E-02 0.  1.
        1   -1    0    0  501    0  0.00000000000E+00  0.00000000000E+00 -0.62901159013E+03  0.62901159015E+03  0.50400001928E-02 0. -1.
    10030    2    1    2    0    0  0.00000000000E+00  0.00000000000E+00  0.14352822183E+03  0.14015514021E+04  0.13941829085E+04 0.  0.
        1    1    3    3  502    0 -0.16780249591E+03  0.35526196685E+03  0.65062661478E+03  0.76005508656E+03  0.50400001928E-02 0.  1.
       -1    1    3    3    0  502  0.16780249591E+03 -0.35526196685E+03 -0.50709839294E+03  0.64149631556E+03  0.50400001928E-02 0. -1.
</event>
<event>
 5   0  0.9007180E-04  0.1406226E+04  0.7818609E-02  0.8949324E-01
       -1   -1    0    0    0  501  0.00000000000E+00  0.00000000000E+00  0.12902612752E+04  0.12902612752E+04  0.50400001928E-02 0.  1.
        1   -1    0    0  501    0  0.00000000000E+00  0.00000000000E+00 -0.38315348200E+03  0.38315348204E+03  0.50400001928E-02 0. -1.
    10030    2    1    2    0    0  0.00000000000E+00  0.00000000000E+00  0.90710779321E+03  0.16734147573E+04  0.14062262980E+04 0.  0.
        2    1    3    3  502    0 -0.53403578422E+03 -0.42012660921E+03  0.23847073080E+03  0.72011726548E+03  0.25500000920E-02 0.  1.
       -2    1    3    3    0  502  0.53403578422E+03  0.42012660921E+03  0.66863706241E+03  0.95329749177E+03  0.25500000920E-02 0. -1.
</event>
<event>
 5   0  0.1706986E-03  0.1417531E+04  0.7818609E-02  0.8941226E-01
       -2   -1    0    0    0  501  0.00000000000E+00  0.00000000000E+00  0.57518371255E+03  0.57518371255E+03  0.25500000920E-02 0. -1.
        2   -1    0    0  501    0  0.00000000000E+00  0.00000000000E+00 -0.87337025443E+03  0.87337025443E+03  0.25500000920E-02 0.  1.
    10030    2    1    2    0    0  0.00000000000E+00  0.00000000000E+00 -0.29818654188E+03  0.14485539670E+04  0.14175307339E+04 0.  0.
        3    1    3    3  502    0  0.53484681756E+03 -0.16237664754E+03 -0.59443022811E+03  0.81595012116E+03  0.10100000352E+00 0.  1.
       -3    1    3    3    0  502 -0.53484681756E+03  0.16237664754E+03  0.29624368624E+03  0.63260384583E+03  0.10100000352E+00 0. -1.
</event>
<event>
 5   0  0.9007180E-04  0.1382216E+04  0.7818609E-02  0.8966793E-01
        1   -1    0    0  501    0  0.00000000000E+00  0.00000000000E+00  0.60435493910E+03  0.60435493913E+03  0.50400001928E-02 0.  1.
       -1   -1    0    0    0  501  0.00000000000E+00  0.00000000000E+00 -0.79031432795E+03  0.79031432796E+03  0.50400001928E-02 0. -1.
    10030    2    1    2    0    0  0.00000000000E+00  0.00000000000E+00 -0.18595938884E+03  0.13946692671E+04  0.13822161446E+04 0.  0.
        2    1    3    3  502    0  0.20953217117E+03  0.53677128143E+03 -0.47799746206E+03  0.74867129841E+03  0.25500000920E-02 0. -1.
       -2    1    3    3    0  502 -0.20953217117E+03 -0.53677128143E+03  0.29203807322E+03  0.64599796868E+03  0.25500000920E-02 0.  1.
</event>
<event>
 5   0  0.1578965E-03  0.1400715E+04  0.7818609E-02  0.8953301E-01
       -2   -1    0    0    0  501  0.00000000000E+00  0.00000000000E+00  0.40000053057E+03  0.40000053058E+03  0.25500000920E-02 0.  1.
        2   -1    0    0  501    0  0.00000000000E+00  0.00000000000E+00 -0.12262500224E+04  0.12262500224E+04  0.25500000920E-02 0. -1.
    10030    2    1    2    0    0  0.00000000000E+00  0.00000000000E+00 -0.82624949187E+03  0.16262505530E+04  0.14007150454E+04 0.  0.
        2    1    3    3  502    0  0.24098529295E+03 -0.47358503632E+03  0.11656256814E+03  0.54400692123E+03  0.25500000920E-02 0.  1.
       -2    1    3    3    0  502 -0.24098529295E+03  0.47358503632E+03 -0.94281206000E+03  0.10822436318E+04  0.25500000920E-02 0. -1.
</event>
<event>
 5   0  0.8673728E-04  0.1381184E+04  0.7818609E-02  0.8967552E-01
       -1   -1    0    0    0  501  0.00000000000E+00  0.00000000000E+00  0.33749745237E+03  0.33749745241E+03  0.50400001928E-02 0.  1.
        1   -1    0    0  501    0  0.00000000000E+00  0.00000000000E+00 -0.14130998793E+04  0.14130998793E+04  0.50400001928E-02 0. -1.
    10030    2    1    2    0    0  0.00000000000E+00  0.00000000000E+00 -0.10756024269E+04  0.17505973317E+04  0.13811844327E+04 0.  0.
        3    1    3    3  502    0 -0.22721718376E+03  0.74819095180E+02  0.28330617601E+03  0.37079366926E+03  0.10100000352E+00 0.  1.
       -3    1    3    3    0  502  0.22721718376E+03 -0.74819095180E+02 -0.13589086029E+04  0.13798036625E+04  0.10100000352E+00 0. -1.
</event>
<event>
 5   0  0.9639548E-04  0.1379555E+04  0.7818609E-02  0.8968752E-01
        1   -1    0    0  501    0  0.00000000000E+00  0.00000000000E+00  0.51229678676E+03  0.51229678679E+03  0.50400001928E-02 0.  1.
       -1   -1    0    0    0  501  0.00000000000E+00  0.00000000000E+00 -0.92874493575E+03  0.92874493576E+03  0.50400001928E-02 0. -1.
    10030    2    1    2    0    0  0.00000000000E+00  0.00000000000E+00 -0.41644814898E+03  0.14410417225E+04  0.13795550679E+04 0.  0.
        1    1    3    3  502    0  0.38475904176E+03 -0.54633184897E+03 -0.29498690143E+02  0.66887082622E+03  0.50400001928E-02 0. -1.
       -1    1    3    3    0  502 -0.38475904176E+03  0.54633184897E+03 -0.38694945884E+03  0.77217089633E+03  0.50400001928E-02 0.  1.
</event>
<event>
 5   0  0.1648213E-03  0.1420461E+04  0.7818609E-02  0.8939140E-01
        2   -1    0    0  501    0  0.00000000000E+00  0.00000000000E+00  0.84444210430E+03  0.84444210430E+03  0.25500000920E-02 0. -1.
       -2   -1    0    0    0  501  0.00000000000E+00  0.00000000000E+00 -0.59734960279E+03  0.59734960279E+03  0.25500000920E-02 0.  1.
    10030    2    1    2    0    0  0.00000000000E+00  0.00000000000E+00  0.24709250151E+03  0.14417917071E+04  0.14204607078E+04 0.  0.
        4    1    3    3  502    0 -0.35966984606E+03  0.58689850112E+03  0.30114026698E+03  0.75133169911E+03  0.12699999809E+01 0.  1.
       -4    1    3    3    0  502  0.35966984606E+03 -0.58689850112E+03 -0.54047765473E+02  0.69046000799E+03  0.12699999809E+01 0. -1.
</event>
<event>
 5   0  0.1605214E-03  0.1390494E+04  0.7818609E-02  0.8960728E-01
       -2   -1    0    0    0  501  0.00000000000E+00  0.00000000000E+00  0.95468036455E+03  0.95468036455E+03  0.25500000920E-02 0.  1.
        2   -1    0    0  501    0  0.00000000000E+00  0.00000000000E+00 -0.50631440444E+03  0.50631440445E+03  0.25500000920E-02 0. -1.
    10030    2    1    2    0    0  0.00000000000E+00  0.00000000000E+00  0.44836596011E+03  0.14609947690E+04  0.13904940420E+04 0.  0.
        5    1    3    3  502    0 -0.62206543136E+03 -0.30037427249E+03  0.30662275492E+03  0.75579739898E+03  0.46999998093E+01 0.  1.
       -5    1    3    3    0  502  0.62206543136E+03  0.30037427249E+03  0.14174320518E+03  0.70519737002E+03  0.46999998093E+01 0. -1.
</event>
<event>
 5   0  0.9007180E-04  0.1382454E+04  0.7818609E-02  0.8966618E-01
        1   -1    0    0  501    0  0.00000000000E+00  0.00000000000E+00  0.14178698649E+04  0.14178698649E+04  0.50400001928E-02 0.  1.
       -1   -1    0    0    0  501  0.00000000000E+00  0.00000000000E+00 -0.33698054663E+03  0.33698054667E+03  0.50400001928E-02 0. -1.
    10030    2    1    2    0    0  0.00000000000E+00  0.00000000000E+00  0.10808893183E+04  0.17548504116E+04  0.13824537058E+04 0.  0.
        2    1    3    3  502    0 -0.13858524336E+03 -0.63910919125E+03  0.25624060113E+03  0.70237146418E+03  0.25500000920E-02 0. -1.
       -2    1    3    3    0  502  0.13858524336E+03  0.63910919125E+03  0.82464871712E+03  0.10524789474E+04  0.25500000920E-02 0.  1.
</event>
<event>
 5   0  0.9007180E-04  0.1387902E+04  0.7818609E-02  0.8962622E-01
       -1   -1    0    0    0  501  0.00000000000E+00  0.00000000000E+00  0.70488850886E+03  0.70488850888E+03  0.50400001928E-02 0.  1.
        1   -1    0    0  501    0  0.00000000000E+00  0.00000000000E+00 -0.68318335348E+03  0.68318335349E+03  0.50400001928E-02 0. -1.
    10030    2    1    2    0    0  0.00000000000E+00  0.00000000000E+00  0.21705155382E+02  0.13880718624E+04  0.13879021512E+04 0.  0.
        2    1    3    3  502    0  0.20174598649E+03  0.21147577935E+03 -0.61862461269E+03  0.68419285274E+03  0.25500000920E-02 0. -1.
       -2    1    3    3    0  502 -0.20174598649E+03 -0.21147577935E+03  0.64032976807E+03  0.70387900963E+03  0.25500000920E-02 0.  1.
</event>
<event>
 5   0  0.9639548E-04  0.1396119E+04  0.7818609E-02  0.8956633E-01
        1   -1    0    0  501    0  0.00000000000E+00  0.00000000000E+00  0.97593778909E+03  0.97593778911E+03  0.50400001928E-02 0. -1.
       -1   -1    0    0    0  501  0.00000000000E+00  0.00000000000E+00 -0.49930124871E+03  0.49930124874E+03  0.50400001928E-02 0.  1.
    10030    2    1    2    0    0  0.00000000000E+00  0.00000000000E+00  0.47663654038E+03  0.14752390378E+04  0.13961188442E+04 0.  0.
        1    1    3    3  502    0 -0.57630661164E+03  0.83409843676E+02  0.64510311054E+03  0.86904806305E+03  0.50400001928E-02 0. -1.
       -1    1    3    3    0  502  0.57630661164E+03 -0.83409843676E+02 -0.16846657016E+03  0.60619097480E+03  0.50400001928E-02 0.  1.
</event>
<event>
 5   0  0.8609148E-04  0.1449310E+04  0.7818609E-02  0.8918879E-01
        1   -1    0    0  501    0  0.00000000000E+00  0.00000000000E+00  0.97736401579E+03  0.97736401580E+03  0.50400001928E-02 0.  1.
       -1   -1    0    0    0  501  0.00000000000E+00  0.00000000000E+00 -0.53728708619E+03  0.53728708621E+03  0.50400001928E-02 0. -1.
    10030    2    1    2    0    0  0.00000000000E+00  0.00000000000E+00  0.44007692960E+03  0.15146511020E+04  0.14493102694E+04 0.  0.
        5    1    3    3  502    0  0.16399770872E+02 -0.43814937727E+03  0.82298871857E+03  0.93251077751E+03  0.46999998093E+01 0.  1.
       -5    1    3    3    0  502 -0.16399770872E+02  0.43814937727E+03 -0.38291178896E+03  0.58214032450E+03  0.46999998093E+01 0. -1.
</event>
<event>
 5   0  0.8673728E-04  0.1397015E+04  0.7818609E-02  0.8955982E-01
       -1   -1    0    0    0  501  0.00000000000E+00  0.00000000000E+00  0.55589609600E+03  0.55589609603E+03  0.50400001928E-02 0. -1.
        1   -1    0    0  501    0  0.00000000000E+00  0.00000000000E+00 -0.87770471528E+03  0.87770471530E+03  0.50400001928E-02 0.  1.
    10030    2    1    2    0    0  0.00000000000E+00  0.00000000000E+00 -0.32180861928E+03  0.14336008113E+04  0.13970148527E+04 0.  0.
        3    1    3    3  502    0 -0.63479084543E+03 -0.16831327011E+03 -0.40509374705E+03  0.77161501310E+03  0.10100000352E+00 0.  1.
       -3    1    3    3    0  502  0.63479084543E+03  0.16831327011E+03  0.83285127772E+02  0.66198579822E+03  0.10100000352E+00 0. -1.
</event>
<event>
 5   0  0.1648463E-03  0.1381446E+04  0.7818609E-02  0.8967359E-01
       -2   -1    0    0    0  501  0.00000000000E+00  0.00000000000E+00  0.24467371761E+03  0.24467371762E+03  0.25500000920E-02 0.  1.
        2   -1    0    0  501    0  0.00000000000E+00  0.00000000000E+00 -0.19499369691E+04  0.19499369691E+04  0.25500000920E-02 0. -1.
    10030    2    1    2    0    0  0.00000000000E+00  0.00000000000E+00 -0.17052632515E+04  0.21946106867E+04  0.13814460936E+04 0.  0.
        1    1    3    3  502    0 -0.35121429351E+03 -0.14634292996E+03 -0.17684486429E+04  0.18089163429E+04  0.50400001928E-02 0. -1.
       -1    1    3    3    0  502  0.35121429351E+03  0.14634292996E+03  0.63185391424E+02  0.38569434379E+03  0.50400001928E-02 0.  1.
</event>
<event>
 5   0  0.8609148E-04  0.1409257E+04  0.7818609E-02  0.8947145E-01
       -1   -1    0    0    0  501  0.00000000000E+00  0.00000000000E+00  0.99393367421E+03  0.99393367422E+03  0.50400001928E-02 0.  1.
        1   -1    0    0  501    0  0.00000000000E+00  0.00000000000E+00 -0.49953145910E+03  0.49953145912E+03  0.50400001928E-02 0. -1.
    10030    2    1    2    0    0  0.00000000000E+00  0.00000000000E+00  0.49440221511E+03  0.14934651333E+04  0.14092567382E+04 0.  0.
        5    1    3    3  502    0 -0.58841040749E+03 -0.25563752011E+02  0.65709262348E+03  0.88242456839E+03  0.46999998093E+01 0.  1.
       -5    1    3    3    0  502  0.58841040749E+03  0.25563752011E+02 -0.16269040837E+03  0.61104056496E+03  0.46999998093E+01 0. -1.
</event>
<event>
 5   0  0.9639548E-04  0.1387459E+04  0.7818609E-02  0.8962947E-01
       -1   -1    0    0    0  501  0.00000000000E+00  0.00000000000E+00  0.14182973960E+04  0.14182973960E+04  0.50400001928E-02 0. -1.
        1   -1    0    0  501    0  0.00000000000E+00  0.00000000000E+00 -0.33932286542E+03  0.33932286546E+03  0.50400001928E-02 0.  1.
    10030    2    1    2    0    0  0.00000000000E+00  0.00000000000E+00  0.10789745306E+04  0.17576202615E+04  0.13874591691E+04 0.  0.
        1    1    3    3  502    0 -0.33561826199E+03 -0.54758447454E+02  0.13054742209E+04  0.13490370813E+04  0.50400001928E-02 0. -1.
       -1    1    3    3    0  502  0.33561826199E+03  0.54758447454E+02 -0.22649969031E+03  0.40858318014E+03  0.50400001928E-02 0.  1.
</event>
<event>
 5   0  0.8673728E-04  0.1408609E+04  0.7818609E-02  0.8947611E-01
       -1   -1    0    0    0  501  0.00000000000E+00  0.00000000000E+00  0.60159587191E+03  0.60159587193E+03  0.50400001928E-02 0.  1.
        1   -1    0    0  501    0  0.00000000000E+00  0.00000000000E+00 -0.82454794010E+03  0.82454794012E+03  0.50400001928E-02 0. -1.
    10030    2    1    2    0    0  0.00000000000E+00  0.00000000000E+00 -0.22295206820E+03  0.14261438120E+04  0.14086087278E+04 0.  0.
        3    1    3    3  502    0 -0.33495432400E+03  0.57754777238E+03  0.11556720584E+03  0.67757775776E+03  0.10100000352E+00 0.  1.
       -3    1    3    3    0  502  0.33495432400E+03 -0.57754777238E+03 -0.33851927403E+03  0.74856605429E+03  0.10100000352E+00 0. -1.
</event>
<event>
 5   0  0.8502300E-04  0.1401852E+04  0.7818609E-02  0.8952479E-01
       -1   -1    0    0    0  501  0.00000000000E+00  0.00000000000E+00  0.63441688627E+03  0.63441688629E+03  0.50400001928E-02 0. -1.
        1   -1    0    0  501    0  0.00000000000E+00  0.00000000000E+00 -0.77440756274E+03  0.77440756275E+03  0.50400001928E-02 0.  1.
    10030    2    1    2    0    0  0.00000000000E+00  0.00000000000E+00 -0.13999067647E+03  0.14088244490E+04  0.14018519675E+04 0.  0.
        4    1    3    3  502    0  0.40199404131E+03  0.15316155934E+03 -0.62613546084E+03  0.75967420697E+03  0.12699999809E+01 0.  1.
       -4    1    3    3    0  502 -0.40199404131E+03 -0.15316155934E+03  0.48614478437E+03  0.64915024207E+03  0.12699999809E+01 0. -1.
</event>
<event>
 5   0  0.8673728E-04  0.1391685E+04  0.7818609E-02  0.8959860E-01
        1   -1    0    0  501    0  0.00000000000E+00  0.00000000000E+00  0.10959663327E+04  0.10959663328E+04  0.50400001928E-02 0.  1.
       -1   -1    0    0    0  501  0.00000000000E+00  0.00000000000E+00 -0.44179873049E+03  0.44179873052E+03  0.50400001928E-02 0. -1.
    10030    2    1    2    0    0  0.00000000000E+00  0.00000000000E+00  0.65416760226E+03  0.15377650633E+04  0.13916846403E+04 0.  0.
        3    1    3    3  502    0  0.12208673909E+03  0.22031430797E+03 -0.38965801833E+03  0.46397946895E+03  0.10100000352E+00 0. -1.
       -3    1    3    3    0  502 -0.12208673909E+03 -0.22031430797E+03  0.10438256206E+04  0.10737855943E+04  0.10100000352E+00 0.  1.
</event>
<event>
 5   0  0.1648463E-03  0.1407875E+04  0.7818609E-02  0.8948138E-01
        2   -1    0    0  501    0  0.00000000000E+00  0.00000000000E+00  0.11192993531E+04  0.11192993531E+04  0.25500000920E-02 0. -1.
       -2   -1    0    0    0  501  0.00000000000E+00  0.00000000000E+00 -0.44271270537E+03  0.44271270538E+03  0.25500000920E-02 0.  1.
    10030    2    1    2    0    0  0.00000000000E+00  0.00000000000E+00  0.67658664773E+03  0.15620120585E+04  0.14078750580E+04 0.  0.
        1    1    3    3  502    0  0.28926320533E+03 -0.53129573111E+03 -0.61088902500E+02  0.60801333035E+03  0.50400001928E-02 0.  1.
       -1    1    3    3    0  502 -0.28926320533E+03  0.53129573111E+03  0.73767555023E+03  0.95399872813E+03  0.50400001928E-02 0. -1.
</event>
<event>
 5   0  0.1605214E-03  0.1420097E+04  0.7818609E-02  0.8939398E-01
       -2   -1    0    0    0  501  0.00000000000E+00  0.00000000000E+00  0.50690405390E+03  0.50690405391E+03  0.25500000920E-02 0.  1.
        2   -1    0    0  501    0  0.00000000000E+00  0.00000000000E+00 -0.99460419095E+03  0.99460419096E+03  0.25500000920E-02 0. -1.
    10030    2    1    2    0    0  0.00000000000E+00  0.00000000000E+00 -0.48770013705E+03  0.15015082449E+04  0.14200970339E+04 0.  0.
        5    1    3    3  502    0  0.32358966522E+03  0.25803111287E+03 -0.85386183038E+03  0.94889011061E+03  0.46999998093E+01 0. -1.
       -5    1    3    3    0  502 -0.32358966522E+03 -0.25803111287E+03  0.36616169333E+03  0.55261813425E+03  0.46999998093E+01 0.  1.
</event>
<event>
 5   0  0.8673728E-04  0.1494028E+04  0.7818609E-02  0.8888434E-01
       -1   -1    0    0    0  501  0.00000000000E+00  0.00000000000E+00  0.28344900728E+03  0.28344900732E+03  0.50400001928E-02 0. -1.
        1   -1    0    0  501    0  0.00000000000E+00  0.00000000000E+00 -0.19687131675E+04  0.19687131675E+04  0.50400001928E-02 0.  1.
    10030    2    1    2    0    0  0.00000000000E+00  0.00000000000E+00 -0.16852641602E+04  0.22521621748E+04  0.14940278351E+04 0.  0.
        3    1    3    3  502    0 -0.21971380335E+03  0.33261634435E+03 -0.17949759752E+04  0.18387078479E+04  0.10100000352E+00 0.  1.
       -3    1    3    3    0  502  0.21971380335E+03 -0.33261634435E+03  0.10971181504E+03  0.41345432694E+03  0.10100000352E+00 0. -1.
</event>
<event>
 5   0  0.6048000E-04  0.1424251E+04  0.7818609E-02  0.8936449E-01
        4   -1    0    0  501    0  0.00000000000E+00  0.00000000000E+00  0.81466523631E+03  0.81466622622E+03  0.12699999809E+01 0.  1.
       -4   -1    0    0    0  501  0.00000000000E+00  0.00000000000E+00 -0.62248992226E+03  0.62249121779E+03  0.12699999809E+01 0. -1.
    10030    2    1    2    0    0  0.00000000000E+00  0.00000000000E+00  0.19217531404E+03  0.14371574440E+04  0.14242507390E+04 0.  0.
        3    1    3    3  502    0 -0.12439987194E+03 -0.41768403593E+03  0.66438517051E+03  0.79457092006E+03  0.10100000352E+00 0.  1.
       -3    1    3    3    0  502  0.12439987194E+03  0.41768403593E+03 -0.47220985647E+03  0.64258652395E+03  0.10100000352E+00 0. -1.
</event>
<event>
 5   0  0.8502300E-04  0.1399454E+04  0.7818609E-02  0.8954214E-01
        1   -1    0    0  501    0  0.00000000000E+00  0.00000000000E+00  0.10162568875E+04  0.10162568875E+04  0.50400001928E-02 0. -1.
       -1   -1    0    0    0  501  0.00000000000E+00  0.00000000000E+00 -0.48178573998E+03  0.48178574000E+03  0.50400001928E-02 0.  1.
    10030    2    1    2    0    0  0.00000000000E+00  0.00000000000E+00  0.53447114748E+03  0.14980426275E+04  0.13994542887E+04 0.  0.
        4    1    3    3  502    0 -0.67555738144E+03  0.17554457521E+03  0.31992498598E+03  0.76781982461E+03  0.12699999809E+01 0. -1.
       -4    1    3    3    0  502  0.67555738144E+03 -0.17554457521E+03  0.21454616150E+03  0.73022280286E+03  0.12699999809E+01 0.  1.
</event>
<event>
 5   0  0.9007180E-04  0.1393095E+04  0.7818609E-02  0.8958832E-01
        1   -1    0    0  501    0  0.00000000000E+00  0.00000000000E+00  0.67189842783E+03  0.67189842785E+03  0.50400001928E-02 0.  1.
       -1   -1    0    0    0  501  0.00000000000E+00  0.00000000000E+00 -0.72210097081E+03  0.72210097083E+03  0.50400001928E-02 0. -1.
    10030    2    1    2    0    0  0.00000000000E+00  0.00000000000E+00 -0.50202542980E+02  0.13939993987E+04  0.13930951253E+04 0.  0.
        2    1    3    3  502    0 -0.12826797764E+03  0.52734904118E+03  0.41179274376E+03  0.68126569644E+03  0.25500000920E-02 0.  1.
       -2    1    3    3    0  502  0.12826797764E+03 -0.52734904118E+03 -0.46199528674E+03  0.71273370224E+03  0.25500000920E-02 0. -1.
</event>
<event>
 5   0  0.9639548E-04  0.1415560E+04  0.7818609E-02  0.8942632E-01
       -1   -1    0    0    0  501  0.00000000000E+00  0.00000000000E+00  0.46279143008E+03  0.46279143011E+03  0.50400001928E-02 0. -1.
        1   -1    0    0  501    0  0.00000000000E+00  0.00000000000E+00 -0.10824579641E+04  0.10824579641E+04  0.50400001928E-02 0.  1.
    10030    2    1    2    0    0  0.00000000000E+00  0.00000000000E+00 -0.61966653402E+03  0.15452493942E+04  0.14155596338E+04 0.  0.
        1    1    3    3  502    0 -0.62266787189E+02  0.43680905530E+03 -0.91395539588E+03  0.10148860868E+04  0.50400001928E-02 0.  1.
       -1    1    3    3    0  502  0.62266787189E+02 -0.43680905530E+03  0.29428886186E+03  0.53036330738E+03  0.50400001928E-02 0. -1.
</event>
<event>
 5   0  0.8609148E-04  0.1327484E+04  0.7818609E-02  0.9008049E-01
       -1   -1    0    0    0  501  0.00000000000E+00  0.00000000000E+00  0.87007850161E+03  0.87007850162E+03  0.50400001928E-02 0. -1.
        1   -1    0    0  501    0  0.00000000000E+00  0.00000000000E+00 -0.50633793757E+03  0.50633793759E+03  0.50400001928E-02 0.  1.
    10030    2    1    2    0    0  0.00000000000E+00  0.00000000000E+00  0.36374056404E+03  0.13764164392E+04  0.13274844693E+04 0.  0.
        5    1    3    3  502    0  0.17825757483E+03  0.14196084963E+03  0.82822881542E+03  0.85901903733E+03  0.46999998093E+01 0. -1.
       -5    1    3    3    0  502 -0.17825757483E+03 -0.14196084963E+03 -0.46448825137E+03  0.51739740188E+03  0.46999998093E+01 0.  1.
</event>
<event>
 5   0  0.1605214E-03  0.1397512E+04  0.7818609E-02  0.8955622E-01
       -2   -1    0    0    0  501  0.00000000000E+00  0.00000000000E+00  0.63088116142E+03  0.63088116142E+03  0.25500000920E-02 0. -1.
        2   -1    0    0  501    0  0.00000000000E+00  0.00000000000E+00 -0.77393308643E+03  0.77393308643E+03  0.25500000920E-02 0.  1.
    10030    2    1    2    0    0  0.00000000000E+00  0.00000000000E+00 -0.14305192501E+03  0.14048142479E+04  0.13975117952E+04 0.  0.
        5    1    3    3  502    0  0.60819023871E+03 -0.34076300406E+03 -0.11892021016E+03  0.70723326971E+03  0.46999998093E+01 0.  1.
       -5    1    3    3    0  502 -0.60819023871E+03  0.34076300406E+03 -0.24131714853E+02  0.69758097814E+03  0.46999998093E+01 0. -1.
</event>
<event>
 5   0  0.1648213E-03  0.1394931E+04  0.7818609E-02  0.8957496E-01
       -2   -1    0    0    0  501  0.00000000000E+00  0.00000000000E+00  0.69170512072E+03  0.69170512072E+03  0.25500000920E-02 0. -1.
        2   -1    0    0  501    0  0.00000000000E+00  0.00000000000E+00 -0.70327364016E+03  0.70327364016E+03  0.25500000920E-02 0.  1.
    10030    2    1    2    0    0  0.00000000000E+00  0.00000000000E+00 -0.11568519439E+02  0.13949787609E+04  0.13949307914E+04 0.  0.
        4    1    3    3  502    0  0.51659487448E+03 -0.37383778434E+03  0.27676998742E+03  0.69514616605E+03  0.12699999809E+01 0. -1.
       -4    1    3    3    0  502 -0.51659487448E+03  0.37383778434E+03 -0.28833850686E+03  0.69983259483E+03  0.12699999809E+01 0.  1.
</event>
<event>
 5   0  0.8609148E-04  0.1410235E+04  0.7818609E-02  0.8946443E-01
        1   -1    0    0  501    0  0.00000000000E+00  0.00000000000E+00  0.10494081905E+04  0.10494081906E+04  0.50400001928E-02 0.  1.
       -1   -1    0    0    0  501  0.00000000000E+00  0.00000000000E+00 -0.47378179419E+03  0.47378179422E+03  0.50400001928E-02 0. -1.
    10030    2    1    2    0    0  0.00000000000E+00  0.00000000000E+00  0.57562639635E+03  0.15231899848E+04  0.14102347257E+04 0.  0.
        5    1    3    3  502    0  0.40953102460E+00 -0.68425350316E+03  0.47163723299E+03  0.83106365210E+03  0.46999998093E+01 0. -1.
       -5    1    3    3    0  502 -0.40953102460E+00  0.68425350316E+03  0.10398916336E+03  0.69212633268E+03  0.46999998093E+01 0.  1.
</event>
<event>
 5   0  0.6048000E-04  0.1361813E+04  0.7818609E-02  0.8981934E-01
       -3   -1    0    0    0  501  0.00000000000E+00  0.00000000000E+00  0.60269427283E+03  0.60269428129E+03  0.10100000352E+00 0. -1.
        3   -1    0    0  501    0  0.00000000000E+00  0.00000000000E+00 -0.76926864194E+03  0.76926864857E+03  0.10100000352E+00 0.  1.
    10030    2    1    2    0    0  0.00000000000E+00  0.00000000000E+00 -0.16657436911E+03  0.13719629299E+04  0.13618132252E+04 0.  0.
        1    1    3    3  502    0  0.31432862510E+03 -0.54862911181E+03  0.17125661395E+03  0.65507649533E+03  0.50400001928E-02 0. -1.
       -1    1    3    3    0  502 -0.31432862510E+03  0.54862911181E+03 -0.33783098306E+03  0.71688643453E+03  0.50400001928E-02 0.  1.
</event>
<event>
 5   0  0.1706986E-03  0.1395411E+04  0.7818609E-02  0.8957147E-01
        2   -1    0    0  501    0  0.00000000000E+00  0.00000000000E+00  0.70582793783E+03  0.70582793783E+03  0.25500000920E-02 0. -1.
       -2   -1    0    0    0  501  0.00000000000E+00  0.00000000000E+00 -0.68967610071E+03  0.68967610072E+03  0.25500000920E-02 0.  1.
    10030    2    1    2    0    0  0.00000000000E+00  0.00000000000E+00  0.16151837111E+02  0.13955040386E+04  0.13954105632E+04 0.  0.
        3    1    3    3  502    0 -0.28280369825E+03 -0.45718928343E+03  0.45284459705E+03  0.70289985909E+03  0.10100000352E+00 0. -1.
       -3    1    3    3    0  502  0.28280369825E+03  0.45718928343E+03 -0.43669275994E+03  0.69260417946E+03  0.10100000352E+00 0.  1.
</event>
<event>
 5   0  0.1648213E-03  0.1368079E+04  0.7818609E-02  0.8977254E-01
        2   -1    0    0  501    0  0.00000000000E+00  0.00000000000E+00  0.83995555994E+03  0.83995555995E+03  0.25500000920E-02 0.  1.
       -2   -1    0    0    0  501  0.00000000000E+00  0.00000000000E+00 -0.55706515075E+03  0.55706515076E+03  0.25500000920E-02 0. -1.
    10030    2    1    2    0    0  0.00000000000E+00  0.00000000000E+00  0.28289040919E+03  0.13970207107E+04  0.13680789022E+04 0.  0.
        4    1    3    3  502    0  0.57405026786E+03 -0.27535941966E+03  0.39683981947E+03  0.75022661593E+03  0.12699999809E+01 0. -1.
       -4    1    3    3    0  502 -0.57405026786E+03  0.27535941966E+03 -0.11394941028E+03  0.64679409478E+03  0.12699999809E+01 0.  1.
</event>
<event>
 5   0  0.1648213E-03  0.1401673E+04  0.7818609E-02  0.8952608E-01
        2   -1    0    0  501    0  0.00000000000E+00  0.00000000000E+00  0.10459891522E+04  0.10459891522E+04  0.25500000920E-02 0.  1.
       -2   -1    0    0    0  501  0.00000000000E+00  0.00000000000E+00 -0.46957666830E+03  0.46957666831E+03  0.25500000920E-02 0. -1.
    10030    2    1    2    0    0  0.00000000000E+00  0.00000000000E+00  0.57641248388E+03  0.15155658205E+04  0.14016734301E+04 0.  0.
        4    1    3    3  502    0 -0.55121161035E+03  0.43035634824E+03  0.23830821823E+03  0.73880528262E+03  0.12699999809E+01 0. -1.
       -4    1    3    3    0  502  0.55121161035E+03 -0.43035634824E+03  0.33810426566E+03  0.77676053788E+03  0.12699999809E+01 0.  1.
</event>
<event>
 5   0  0.9639548E-04  0.1219365E+04  0.7818609E-02  0.9096073E-01
        1   -1    0    0  501    0  0.00000000000E+00  0.00000000000E+00  0.55152831691E+03  0.55152831693E+03  0.50400001928E-02 0. -1.
       -1   -1    0    0    0  501  0.00000000000E+00  0.00000000000E+00 -0.67396905986E+03  0.67396905988E+03  0.50400001928E-02 0.  1.
    10030    2    1    2    0    0  0.00000000000E+00  0.00000000000E+00 -0.12244074295E+03  0.12254973768E+04  0.12193654436E+04 0.  0.
        1    1    3    3  502    0  0.53013417706E+03  0.19819407750E+03  0.16661299015E+03  0.58998561555E+03  0.50400001928E-02 0.  1.
       -1    1    3    3    0  502 -0.53013417706E+03 -0.19819407750E+03 -0.28905373310E+03  0.63551176126E+03  0.50400001928E-02 0. -1.
</event>
<event>
 5   0  0.8673728E-04  0.1430532E+04  0.7818609E-02  0.8932010E-01
       -1   -1    0    0    0  501  0.00000000000E+00  0.00000000000E+00  0.48225117538E+03  0.48225117541E+03  0.50400001928E-02 0. -1.
        1   -1    0    0  501    0  0.00000000000E+00  0.00000000000E+00 -0.10608685654E+04  0.10608685654E+04  0.50400001928E-02 0.  1.
    10030    2    1    2    0    0  0.00000000000E+00  0.00000000000E+00 -0.57861739001E+03  0.15431197408E+04  0.14305315273E+04 0.  0.
        3    1    3    3  502    0 -0.11854900307E+03 -0.39754247457E+03 -0.91784339246E+03  0.10072389927E+04  0.10100000352E+00 0.  1.
       -3    1    3    3    0  502  0.11854900307E+03  0.39754247457E+03  0.33922600245E+03  0.53588074807E+03  0.10100000352E+00 0. -1.
</event>
<event>
 5   0  0.8673728E-04  0.1398900E+04  0.7818609E-02  0.8954615E-01
        1   -1    0    0  501    0  0.00000000000E+00  0.00000000000E+00  0.67100862171E+03  0.67100862173E+03  0.50400001928E-02 0. -1.
       -1   -1    0    0    0  501  0.00000000000E+00  0.00000000000E+00 -0.72909698984E+03  0.72909698985E+03  0.50400001928E-02 0.  1.
    10030    2    1    2    0    0  0.00000000000E+00  0.00000000000E+00 -0.58088368129E+02  0.14001056116E+04  0.13989000912E+04 0.  0.
        3    1    3    3  502    0 -0.12209104967E+02 -0.34646533281E+03 -0.63705684545E+03  0.72527837664E+03  0.10100000352E+00 0.  1.
       -3    1    3    3    0  502  0.12209104967E+02  0.34646533281E+03  0.57896847732E+03  0.67482723494E+03  0.10100000352E+00 0. -1.
</event>
<event>
 5   0  0.1648213E-03  0.1405787E+04  0.7818609E-02  0.8949640E-01
       -2   -1    0    0    0  501  0.00000000000E+00  0.00000000000E+00  0.36391496312E+03  0.36391496313E+03  0.25500000920E-02 0. -1.
        2   -1    0    0  501    0  0.00000000000E+00  0.00000000000E+00 -0.13576226262E+04  0.13576226262E+04  0.25500000920E-02 0.  1.
    10030    2    1    2    0    0  0.00000000000E+00  0.00000000000E+00 -0.99370766309E+03  0.17215375893E+04  0.14057868799E+04 0.  0.
        4    1    3    3  502    0  0.37265091923E+02  0.52876634574E+03 -0.10621334318E+04  0.11870600555E+04  0.12699999809E+01 0.  1.
       -4    1    3    3    0  502 -0.37265091923E+02 -0.52876634574E+03  0.68425768726E+02  0.53447753385E+03  0.12699999809E+01 0. -1.
</event>
<event>
 5   0  0.8502300E-04  0.1412212E+04  0.7818609E-02  0.8945026E-01
        1   -1    0    0  501    0  0.00000000000E+00  0.00000000000E+00  0.46515289531E+03  0.46515289534E+03  0.50400001928E-02 0. -1.
       -1   -1    0    0    0  501  0.00000000000E+00  0.00000000000E+00 -0.10718746162E+04  0.10718746162E+04  0.50400001928E-02 0.  1.
    10030    2    1    2    0    0  0.00000000000E+00  0.00000000000E+00 -0.60672172090E+03  0.15370275116E+04  0.14122118555E+04 0.  0.
        4    1    3    3  502    0 -0.32457997973E+03 -0.50242834198E+03  0.10503314800E+03  0.60730550561E+03  0.12699999809E+01 0. -1.
       -4    1    3    3    0  502  0.32457997973E+03  0.50242834198E+03 -0.71175486889E+03  0.92972200595E+03  0.12699999809E+01 0.  1.
</event>
<event>
 5   0  0.1706986E-03  0.1402668E+04  0.7818609E-02  0.8951890E-01
        2   -1    0    0  501    0  0.00000000000E+00  0.00000000000E+00  0.14671133679E+04  0.14671133679E+04  0.25500000920E-02 0.  1.
       -2   -1    0    0    0  501  0.00000000000E+00  0.00000000000E+00 -0.33526324723E+03  0.33526324724E+03  0.25500000920E-02 0. -1.
    10030    2    1    2    0    0  0.00000000000E+00  0.00000000000E+00  0.11318501206E+04  0.18023766151E+04  0.14026677323E+04 0.  0.
        3    1    3    3  502    0  0.92186083086E+02 -0.17628790192E+03  0.14300984775E+04  0.14438688874E+04  0.10100000352E+00 0.  1.
       -3    1    3    3    0  502 -0.92186083086E+02  0.17628790192E+03 -0.29824835688E+03  0.35850772775E+03  0.10100000352E+00 0. -1.
</event>
<event>
 5   0  0.8609148E-04  0.1417578E+04  0.7818609E-02  0.8941192E-01
       -1   -1    0    0    0  501  0.00000000000E+00  0.00000000000E+00  0.87941753099E+03  0.87941753100E+03  0.50400001928E-02 0. -1.
        1   -1    0    0  501    0  0.00000000000E+00  0.00000000000E+00 -0.57126620202E+03  0.57126620205E+03  0.50400001928E-02 0.  1.
    10030    2    1    2    0    0  0.00000000000E+00  0.00000000000E+00  0.30815132896E+03  0.14506837330E+04  0.14175775294E+04 0.  0.
        5    1    3    3  502    0 -0.49461359560E+03 -0.44647328058E+03 -0.93183332400E+02  0.67281960633E+03  0.46999998093E+01 0.  1.
       -5    1    3    3    0  502  0.49461359560E+03  0.44647328058E+03  0.40133466136E+03  0.77786412672E+03  0.46999998093E+01 0. -1.
</event>
<event>
 5   0  0.1706986E-03  0.1401087E+04  0.7818609E-02  0.8953032E-01
       -2   -1    0    0    0  501  0.00000000000E+00  0.00000000000E+00  0.31902714345E+03  0.31902714346E+03  0.25500000920E-02 0. -1.
        2   -1    0    0  501    0  0.00000000000E+00  0.00000000000E+00 -0.15383062737E+04  0.15383062737E+04  0.25500000920E-02 0.  1.
    10030    2    1    2    0    0  0.00000000000E+00  0.00000000000E+00 -0.12192791302E+04  0.18573334171E+04  0.14010873724E+04 0.  0.
        3    1    3    3  502    0  0.26100568347E+03  0.65002294178E+03 -0.59588520018E+03  0.91963741422E+03  0.10100000352E+00 0.  1.
       -3    1    3    3    0  502 -0.26100568347E+03 -0.65002294178E+03 -0.62339393003E+03  0.93769600290E+03  0.10100000352E+00 0. -1.
</event>
<event>
 5   0  0.1648463E-03  0.1406547E+04  0.7818609E-02  0.8949093E-01
        2   -1    0    0  501    0  0.00000000000E+00  0.00000000000E+00  0.17382786445E+04  0.17382786445E+04  0.25500000920E-02 0. -1.
       -2   -1    0    0    0  501  0.00000000000E+00  0.00000000000E+00 -0.28453069591E+03  0.28453069593E+03  0.25500000920E-02 0.  1.
    10030    2    1    2    0    0  0.00000000000E+00  0.00000000000E+00  0.14537479486E+04  0.20228093404E+04  0.14065470236E+04 0.  0.
        1    1    3    3  502    0 -0.53042450255E+03  0.28856210366E+03  0.12453530831E+04  0.13840240396E+04  0.50400001928E-02 0.  1.
       -1    1    3    3    0  502  0.53042450255E+03 -0.28856210366E+03  0.20839486550E+03  0.63878530084E+03  0.50400001928E-02 0. -1.
</event>
<event>
 5   0  0.8609148E-04  0.1409617E+04  0.7818609E-02  0.8946886E-01
       -1   -1    0    0    0  501  0.00000000000E+00  0.00000000000E+00  0.51627523966E+03  0.51627523969E+03  0.50400001928E-02 0.  1.
        1   -1    0    0  501    0  0.00000000000E+00  0.00000000000E+00 -0.96219085216E+03  0.96219085218E+03  0.50400001928E-02 0. -1.
    10030    2    1    2    0    0  0.00000000000E+00  0.00000000000E+00 -0.44591561250E+03  0.14784660919E+04  0.14096174131E+04 0.  0.
        5    1    3    3  502    0  0.63560297553E+02 -0.53830653499E+03 -0.69542524364E+03  0.88173249715E+03  0.46999998093E+01 0. -1.
       -5    1    3    3    0  502 -0.63560297553E+02  0.53830653499E+03  0.24950963114E+03  0.59673359472E+03  0.46999998093E+01 0.  1.
</event>
<event>
 5   0  0.9007180E-04  0.1405283E+04  0.7818609E-02  0.8950003E-01
       -1   -1    0    0    0  501  0.00000000000E+00  0.00000000000E+00  0.25906162801E+03  0.25906162806E+03  0.50400001928E-02 0.  1.
        1   -1    0    0  501    0  0.00000000000E+00  0.00000000000E+00 -0.19057446154E+04  0.19057446154E+04  0.50400001928E-02 0. -1.
    10030    2    1    2    0    0  0.00000000000E+00  0.00000000000E+00 -0.16466829874E+04  0.21648062435E+04  0.14052833205E+04 0.  0.
        2    1    3    3  502    0  0.58185788595E+02  0.64328119598E+03 -0.39724156785E+03  0.75828566275E+03  0.25500000920E-02 0.  1.
       -2    1    3    3    0  502 -0.58185788595E+02 -0.64328119598E+03 -0.12494414196E+04  0.14065205807E+04  0.25500000920E-02 0. -1.
</event>
<event>
 5   0  0.1578965E-03  0.1401384E+04  0.7818609E-02  0.8952817E-01
       -2   -1    0    0    0  501  0.00000000000E+00  0.00000000000E+00  0.86050037924E+03  0.86050037924E+03  0.25500000920E-02 0.  1.
        2   -1    0    0  501    0  0.00000000000E+00  0.00000000000E+00 -0.57056275666E+03  0.57056275666E+03  0.25500000920E-02 0. -1.
    10030    2    1    2    0    0  0.00000000000E+00  0.00000000000E+00  0.28993762258E+03  0.14310631359E+04  0.14013842706E+04 0.  0.
        2    1    3    3  502    0 -0.30865107361E+03  0.14023286023E+03  0.77117570374E+03  0.84240293588E+03  0.25500000920E-02 0.  1.
       -2    1    3    3    0  502  0.30865107361E+03 -0.14023286023E+03 -0.48123808116E+03  0.58866020003E+03  0.25500000920E-02 0. -1.
</event>
<event>
 5   0  0.1578965E-03  0.1392408E+04  0.7818609E-02  0.8959332E-01
        2   -1    0    0  501    0  0.00000000000E+00  0.00000000000E+00  0.13162371026E+04  0.13162371026E+04  0.25500000920E-02 0. -1.
       -2   -1    0    0    0  501  0.00000000000E+00  0.00000000000E+00 -0.36824678467E+03  0.36824678468E+03  0.25500000920E-02 0.  1.
    10030    2    1    2    0    0  0.00000000000E+00  0.00000000000E+00  0.94799031792E+03  0.16844838873E+04  0.13924081024E+04 0.  0.
        2    1    3    3  502    0  0.26196553425E+03  0.64877150191E+02  0.12503813696E+04  0.12791749509E+04  0.25500000920E-02 0. -1.
       -2    1    3    3    0  502 -0.26196553425E+03 -0.64877150191E+02 -0.30239105164E+03  0.40530893633E+03  0.25500000920E-02 0.  1.
</event>
<event>
 5   0  0.8673728E-04  0.1390548E+04  0.7818609E-02  0.8960689E-01
       -1   -1    0    0    0  501  0.00000000000E+00  0.00000000000E+00  0.52639088118E+03  0.52639088120E+03  0.50400001928E-02 0.  1.
        1   -1    0    0  501    0  0.00000000000E+00  0.00000000000E+00 -0.91834048489E+03  0.91834048491E+03  0.50400001928E-02 0. -1.
    10030    2    1    2    0    0  0.00000000000E+00  0.00000000000E+00 -0.39194960372E+03  0.14447313661E+04  0.13905481755E+04 0.  0.
        3    1    3    3  502    0 -0.43960644435E+03  0.38311396050E+03  0.19742955223E+03  0.61563671994E+03  0.10100000352E+00 0.  1.
       -3    1    3    3    0  502  0.43960644435E+03 -0.38311396050E+03 -0.58937915595E+03  0.82909464617E+03  0.10100000352E+00 0. -1.
</event>
<event>
 5   0  0.9007180E-04  0.1213726E+04  0.7818609E-02  0.9100926E-01
        1   -1    0    0  501    0  0.00000000000E+00  0.00000000000E+00  0.11235627115E+04  0.11235627115E+04  0.50400001928E-02 0. -1.
       -1   -1    0    0    0  501  0.00000000000E+00  0.00000000000E+00 -0.32778111789E+03  0.32778111793E+03  0.50400001928E-02 0.  1.
    10030    2    1    2    0    0  0.00000000000E+00  0.00000000000E+00  0.79578159365E+03  0.14513438295E+04  0.12137259026E+04 0.  0.
        2    1    3    3  502    0 -0.58968720636E+03  0.14172644278E+03  0.42368342178E+03  0.73981418466E+03  0.25500000920E-02 0.  1.
       -2    1    3    3    0  502  0.58968720636E+03 -0.14172644278E+03  0.37209817187E+03  0.71152964481E+03  0.25500000920E-02 0. -1.
</event>
<event>
 5   0  0.1648463E-03  0.1399437E+04  0.7818609E-02  0.8954226E-01
       -2   -1    0    0    0  501  0.00000000000E+00  0.00000000000E+00  0.72979314884E+03  0.72979314885E+03  0.25500000920E-02 0.  1.
        2   -1    0    0  501    0  0.00000000000E+00  0.00000000000E+00 -0.67088322875E+03  0.67088322875E+03  0.25500000920E-02 0. -1.
    10030    2    1    2    0    0  0.00000000000E+00  0.00000000000E+00  0.58909920098E+02  0.14006763776E+04  0.13994370068E+04 0.  0.
        1    1    3    3  502    0  0.30113804038E+03  0.65462807983E+02  0.65821229927E+03  0.72678258752E+03  0.50400001928E-02 0.  1.
       -1    1    3    3    0  502 -0.30113804038E+03 -0.65462807983E+02 -0.59930237917E+03  0.67389379007E+03  0.50400001928E-02 0. -1.
</event>
<event>
 5   0  0.8502300E-04  0.1377272E+04  0.7818609E-02  0.8970436E-01
        1   -1    0    0  501    0  0.00000000000E+00  0.00000000000E+00  0.78131281664E+03  0.78131281666E+03  0.50400001928E-02 0.  1.
       -1   -1    0    0    0  501  0.00000000000E+00  0.00000000000E+00 -0.60695252969E+03  0.60695252971E+03  0.50400001928E-02 0. -1.
    10030    2    1    2    0    0  0.00000000000E+00  0.00000000000E+00  0.17436028696E+03  0.13882653464E+04  0.13772723631E+04 0.  0.
        4    1    3    3  502    0 -0.13472458951E+03  0.15834578530E+03 -0.57456124756E+03  0.61102073847E+03  0.12699999809E+01 0. -1.
       -4    1    3    3    0  502  0.13472458951E+03 -0.15834578530E+03  0.74892153452E+03  0.77724460790E+03  0.12699999809E+01 0.  1.
</event>
<event>
 5   0  0.1648463E-03  0.1394381E+04  0.7818609E-02  0.8957896E-01
       -2   -1    0    0    0  501  0.00000000000E+00  0.00000000000E+00  0.29612175078E+03  0.29612175079E+03  0.25500000920E-02 0.  1.
        2   -1    0    0  501    0  0.00000000000E+00  0.00000000000E+00 -0.16414683758E+04  0.16414683758E+04  0.25500000920E-02 0. -1.
    10030    2    1    2    0    0  0.00000000000E+00  0.00000000000E+00 -0.13453466250E+04  0.19375901265E+04  0.13943808508E+04 0.  0.
        1    1    3    3  502    0 -0.60125057353E+03 -0.35152216248E+03 -0.71671208802E+03  0.99937295342E+03  0.50400001928E-02 0.  1.
       -1    1    3    3    0  502  0.60125057353E+03  0.35152216248E+03 -0.62863453695E+03  0.93821717313E+03  0.50400001928E-02 0. -1.
</event>
<event>
 5   0  0.9639548E-04  0.1397818E+04  0.7818609E-02  0.8955399E-01
       -1   -1    0    0    0  501  0.00000000000E+00  0.00000000000E+00  0.66072967342E+03  0.66072967344E+03  0.50400001928E-02 0. -1.
        1   -1    0    0  501    0  0.00000000000E+00  0.00000000000E+00 -0.73929451527E+03  0.73929451528E+03  0.50400001928E-02 0.  1.
    10030    2    1    2    0    0  0.00000000000E+00  0.00000000000E+00 -0.78564841850E+02  0.14000241887E+04  0.13978180478E+04 0.  0.
        1    1    3    3  502    0  0.34691172432E+03  0.60672767980E+03 -0.36520947269E+02  0.69985712937E+03  0.50400001928E-02 0. -1.
       -1    1    3    3    0  502 -0.34691172432E+03 -0.60672767980E+03 -0.42043894580E+02  0.70016705936E+03  0.50400001928E-02 0.  1.
</event>
<event>
 5   0  0.1648213E-03  0.1414684E+04  0.7818609E-02  0.8943258E-01
        2   -1    0    0  501    0  0.00000000000E+00  0.00000000000E+00  0.11019400848E+04  0.11019400849E+04  0.25500000920E-02 0. -1.
       -2   -1    0    0    0  501  0.00000000000E+00  0.00000000000E+00 -0.45404714853E+03  0.45404714854E+03  0.25500000920E-02 0.  1.
    10030    2    1    2    0    0  0.00000000000E+00  0.00000000000E+00  0.64789293632E+03  0.15559872334E+04  0.14146840685E+04 0.  0.
        4    1    3    3  502    0  0.49200840050E+03 -0.27443539635E+03  0.79438810874E+03  0.97387942433E+03  0.12699999809E+01 0.  1.
       -4    1    3    3    0  502 -0.49200840050E+03  0.27443539635E+03 -0.14649517242E+03  0.58210780906E+03  0.12699999809E+01 0. -1.
</event>
<event>
 5   0  0.6048000E-04  0.1397752E+04  0.7818609E-02  0.8955448E-01
       -3   -1    0    0    0  501  0.00000000000E+00  0.00000000000E+00  0.32524179771E+03  0.32524181339E+03  0.10100000352E+00 0.  1.
        3   -1    0    0  501    0  0.00000000000E+00  0.00000000000E+00 -0.15017365877E+04  0.15017365911E+04  0.10100000352E+00 0. -1.
    10030    2    1    2    0    0  0.00000000000E+00  0.00000000000E+00 -0.11764947900E+04  0.18269784045E+04  0.13977518019E+04 0.  0.
        1    1    3    3  502    0 -0.25708930599E+03 -0.10220580552E+03  0.25061780416E+03  0.37329642608E+03  0.50400001928E-02 0.  1.
       -1    1    3    3    0  502  0.25708930599E+03  0.10220580552E+03 -0.14271125942E+04  0.14536819784E+04  0.50400001928E-02 0. -1.
</event>
<event>
 5   0  0.1706986E-03  0.1402560E+04  0.7818609E-02  0.8951967E-01
        2   -1    0    0  501    0  0.00000000000E+00  0.00000000000E+00  0.10406992532E+04  0.10406992532E+04  0.25500000920E-02 0.  1.
       -2   -1    0    0    0  501  0.00000000000E+00  0.00000000000E+00 -0.47256102769E+03  0.47256102770E+03  0.25500000920E-02 0. -1.
    10030    2    1    2    0    0  0.00000000000E+00  0.00000000000E+00  0.56813822549E+03  0.15132602809E+04  0.14025603853E+04 0.  0.
        3    1    3    3  502    0  0.29757481557E+03  0.22117840489E+03 -0.35816280380E+03  0.51551068067E+03  0.10100000352E+00 0. -1.
       -3    1    3    3    0  502 -0.29757481557E+03 -0.22117840489E+03  0.92630102930E+03  0.99774960021E+03  0.10100000352E+00 0.  1.
</event>
<event>
 5   0  0.1578965E-03  0.1415846E+04  0.7818609E-02  0.8942428E-01
       -2   -1    0    0    0  501  0.00000000000E+00  0.00000000000E+00  0.92744506696E+03  0.92744506696E+03  0.25500000920E-02 0.  1.
        2   -1    0    0  501    0  0.00000000000E+00  0.00000000000E+00 -0.54036067595E+03  0.54036067595E+03  0.25500000920E-02 0. -1.
    10030    2    1    2    0    0  0.00000000000E+00  0.00000000000E+00  0.38708439101E+03  0.14678057429E+04  0.14158458155E+04 0.  0.
        2    1    3    3  502    0 -0.32213259821E+03  0.35753767797E+03 -0.34469548054E+03  0.59196078950E+03  0.25500000920E-02 0. -1.
       -2    1    3    3    0  502  0.32213259821E+03 -0.35753767797E+03  0.73177987155E+03  0.87584495341E+03  0.25500000920E-02 0.  1.
</event>
<event>
 5   0  0.1648463E-03  0.1380329E+04  0.7818609E-02  0.8968182E-01
       -2   -1    0    0    0  501  0.00000000000E+00  0.00000000000E+00  0.58840208675E+03  0.58840208675E+03  0.25500000920E-02 0.  1.
        2   -1    0    0  501    0  0.00000000000E+00  0.00000000000E+00 -0.80952613489E+03  0.80952613489E+03  0.25500000920E-02 0. -1.
    10030    2    1    2    0    0  0.00000000000E+00  0.00000000000E+00 -0.22112404814E+03  0.13979282216E+04  0.13803287537E+04 0.  0.
        1    1    3    3  502    0 -0.43362773196E+03  0.52070250397E+03 -0.24323910123E+03  0.71995094830E+03  0.50400001928E-02 0.  1.
       -1    1    3    3    0  502  0.43362773196E+03 -0.52070250397E+03  0.22115053088E+02  0.67797727334E+03  0.50400001928E-02 0. -1.
</event>
<event>
 5   0  0.8502300E-04  0.1405518E+04  0.7818609E-02  0.8949834E-01
        1   -1    0    0  501    0  0.00000000000E+00  0.00000000000E+00  0.51387512240E+03  0.51387512242E+03  0.50400001928E-02 0. -1.
       -1   -1    0    0    0  501  0.00000000000E+00  0.00000000000E+00 -0.96107022922E+03  0.96107022923E+03  0.50400001928E-02 0.  1.
    10030    2    1    2    0    0  0.00000000000E+00  0.00000000000E+00 -0.44719510682E+03  0.14749453517E+04  0.14055178145E+04 0.  0.
        4    1    3    3  502    0  0.84944317514E+02 -0.45433755689E+03 -0.77911427144E+03  0.90590220970E+03  0.12699999809E+01 0.  1.
       -4    1    3    3    0  502 -0.84944317514E+02  0.45433755689E+03  0.33191916462E+03  0.56904314196E+03  0.12699999809E+01 0. -1.
</event>
<event>
 5   0  0.1578965E-03  0.1399073E+04  0.7818609E-02  0.8954490E-01
        2   -1    0    0  501    0  0.00000000000E+00  0.00000000000E+00  0.60683992119E+03  0.60683992120E+03  0.25500000920E-02 0. -1.
       -2   -1    0    0    0  501  0.00000000000E+00  0.00000000000E+00 -0.80639290601E+03  0.80639290602E+03  0.25500000920E-02 0.  1.
    10030    2    1    2    0    0  0.00000000000E+00  0.00000000000E+00 -0.19955298482E+03  0.14132328272E+04  0.13990731325E+04 0.  0.
        2    1    3    3  502    0 -0.68570474507E+03  0.88913199602E+02 -0.20693908574E+03  0.72174811374E+03  0.25500000920E-02 0.  1.
       -2    1    3    3    0  502  0.68570474507E+03 -0.88913199602E+02  0.73861009211E+01  0.69148471347E+03  0.25500000920E-02 0. -1.
</event>
<event>
 5   0  0.8609148E-04  0.1339517E+04  0.7818609E-02  0.8998802E-01
       -1   -1    0    0    0  501  0.00000000000E+00  0.00000000000E+00  0.52979093019E+03  0.52979093022E+03  0.50400001928E-02 0.  1.
        1   -1    0    0  501    0  0.00000000000E+00  0.00000000000E+00 -0.84670432906E+03  0.84670432908E+03  0.50400001928E-02 0. -1.
    10030    2    1    2    0    0  0.00000000000E+00  0.00000000000E+00 -0.31691339887E+03  0.13764952593E+04  0.13395167399E+04 0.  0.
        5    1    3    3  502    0  0.15470609455E+03 -0.53956548368E+03 -0.53390470188E+03  0.77468781297E+03  0.46999998093E+01 0. -1.
       -5    1    3    3    0  502 -0.15470609455E+03  0.53956548368E+03  0.21699130301E+03  0.60180744632E+03  0.46999998093E+01 0.  1.
</event>
<event>
 5   0  0.8502300E-04  0.1395350E+04  0.7818609E-02  0.8957191E-01
        1   -1    0    0  501    0  0.00000000000E+00  0.00000000000E+00  0.35892524487E+03  0.35892524491E+03  0.50400001928E-02 0. -1.
       -1   -1    0    0    0  501  0.00000000000E+00  0.00000000000E+00 -0.13561339638E+04  0.13561339638E+04  0.50400001928E-02 0.  1.
    10030    2    1    2    0    0  0.00000000000E+00  0.00000000000E+00 -0.99720871892E+03  0.17150592087E+04  0.13953504435E+04 0.  0.
        4    1    3    3  502    0 -0.24683132076E+03 -0.55977915260E+03 -0.86397205244E+02  0.61785474876E+03  0.12699999809E+01 0. -1.
       -4    1    3    3    0  502  0.24683132076E+03  0.55977915260E+03 -0.91081151367E+03  0.10972044599E+04  0.12699999809E+01 0.  1.
</event>
<event>
 5   0  0.9007180E-04  0.1370784E+04  0.7818609E-02  0.8975242E-01
        1   -1    0    0  501    0  0.00000000000E+00  0.00000000000E+00  0.16290469183E+04  0.16290469183E+04  0.50400001928E-02 0.  1.
       -1   -1    0    0    0  501  0.00000000000E+00  0.00000000000E+00 -0.28836622451E+03  0.28836622455E+03  0.50400001928E-02 0. -1.
    10030    2    1    2    0    0  0.00000000000E+00  0.00000000000E+00  0.13406806938E+04  0.19174131428E+04  0.13707838771E+04 0.  0.
        2    1    3    3  502    0 -0.29888896326E+03 -0.60362775353E+03  0.49307108393E+03  0.83475755222E+03  0.25500000920E-02 0. -1.
       -2    1    3    3    0  502  0.29888896326E+03  0.60362775353E+03  0.84760960985E+03  0.10826555906E+04  0.25500000920E-02 0.  1.
</event>
<event>
 5   0  0.8609148E-04  0.1393597E+04  0.7818609E-02  0.8958467E-01
        1   -1    0    0  501    0  0.00000000000E+00  0.00000000000E+00  0.11639862685E+04  0.11639862685E+04  0.50400001928E-02 0.  1.
       -1   -1    0    0    0  501  0.00000000000E+00  0.00000000000E+00 -0.41712510655E+03  0.41712510658E+03  0.50400001928E-02 0. -1.
    10030    2    1    2    0    0  0.00000000000E+00  0.00000000000E+00  0.74686116193E+03  0.15811113751E+04  0.13935966365E+04 0.  0.
        5    1    3    3  502    0  0.17601799775E+03  0.11667877232E+02  0.11382140305E+04  0.11518123737E+04  0.46999998093E+01 0.  1.
       -5    1    3    3    0  502 -0.17601799775E+03 -0.11667877232E+02 -0.39135286857E+03  0.42929900142E+03  0.46999998093E+01 0. -1.
</event>
<event>
 5   0  0.1706986E-03  0.1372251E+04  0.7818609E-02  0.8974153E-01
       -2   -1    0    0    0  501  0.00000000000E+00  0.00000000000E+00  0.75290223257E+03  0.75290223258E+03  0.25500000920E-02 0.  1.
        2   -1    0    0  501    0  0.00000000000E+00  0.00000000000E+00 -0.62527155614E+03  0.62527155615E+03  0.25500000920E-02 0. -1.
    10030    2    1    2    0    0  0.00000000000E+00  0.00000000000E+00  0.12763067643E+03  0.13781737887E+04  0.13722512169E+04 0.  0.
        3    1    3    3  502    0 -0.16027112399E+03 -0.15841020145E+00 -0.60620829897E+03  0.62703697675E+03  0.10100000352E+00 0. -1.
       -3    1    3    3    0  502  0.16027112399E+03  0.15841020145E+00  0.73383897540E+03  0.75113681197E+03  0.10100000352E+00 0.  1.
</event>
<event>
 5   0  0.1648213E-03  0.1239534E+04  0.7818609E-02  0.9078939E-01
       -2   -1    0    0    0  501  0.00000000000E+00  0.00000000000E+00  0.15924754385E+04  0.15924754385E+04  0.25500000920E-02 0. -1.
        2   -1    0    0  501    0  0.00000000000E+00  0.00000000000E+00 -0.24120399243E+03  0.24120399245E+03  0.25500000920E-02 0.  1.
    10030    2    1    2    0    0  0.00000000000E+00  0.00000000000E+00  0.13512714460E+04  0.18336794309E+04  0.12395344830E+04 0.  0.
        4    1    3    3  502    0  0.36927791542E+03 -0.28307343939E+03  0.12812815657E+04  0.13631510607E+04  0.12699999809E+01 0. -1.
       -4    1    3    3    0  502 -0.36927791542E+03  0.28307343939E+03  0.69989880360E+02  0.47052837020E+03  0.12699999809E+01 0.  1.
</event>
<event>
 5   0  0.1605214E-03  0.1415739E+04  0.7818609E-02  0.8942504E-01
       -2   -1    0    0    0  501  0.00000000000E+00  0.00000000000E+00  0.54101224246E+03  0.54101224246E+03  0.25500000920E-02 0. -1.
        2   -1    0    0  501    0  0.00000000000E+00  0.00000000000E+00 -0.92618880321E+03  0.92618880322E+03  0.25500000920E-02 0.  1.
    10030    2    1    2    0    0  0.00000000000E+00  0.00000000000E+00 -0.38517656076E+03  0.14672010457E+04  0.14157393565E+04 0.  0.
        5    1    3    3  502    0  0.37266545740E+03  0.42235989313E+03 -0.63687898256E+03  0.85023782019E+03  0.46999998093E+01 0.  1.
       -5    1    3    3    0  502 -0.37266545740E+03 -0.42235989313E+03  0.25170242180E+03  0.61696322548E+03  0.46999998093E+01 0. -1.
</event>
<event>
 5   0  0.9007180E-04  0.1313944E+04  0.7818609E-02  0.9018580E-01
        1   -1    0    0  501    0  0.00000000000E+00  0.00000000000E+00  0.19613853559E+04  0.19613853559E+04  0.50400001928E-02 0. -1.
       -1   -1    0    0    0  501  0.00000000000E+00  0.00000000000E+00 -0.22005490334E+03  0.22005490340E+03  0.50400001928E-02 0.  1.
    10030    2    1    2    0    0  0.00000000000E+00  0.00000000000E+00  0.17413304525E+04  0.21814402593E+04  0.13139443899E+04 0.  0.
        2    1    3    3  502    0 -0.62404269887E+01 -0.84191039004E+02 -0.21101206713E+03  0.22727332985E+03  0.25500000920E-02 0.  1.
       -2    1    3    3    0  502  0.62404269887E+01  0.84191039004E+02  0.19523425196E+04  0.19541669294E+04  0.25500000920E-02 0. -1.
</event>
<event>
 5   0  0.9007180E-04  0.1417092E+04  0.7818609E-02  0.8941539E-01
        1   -1    0    0  501    0  0.00000000000E+00  0.00000000000E+00  0.12088225349E+04  0.12088225349E+04  0.50400001928E-02 0.  1.
       -1   -1    0    0    0  501  0.00000000000E+00  0.00000000000E+00 -0.41531108061E+03  0.41531108064E+03  0.50400001928E-02 0. -1.
    10030    2    1    2    0    0  0.00000000000E+00  0.00000000000E+00  0.79351145428E+03  0.16241336155E+04  0.14170919423E+04 0.  0.
        2    1    3    3  502    0 -0.60167499525E+02 -0.62732391589E+03  0.76792681889E+03  0.99341180918E+03  0.25500000920E-02 0.  1.
       -2    1    3    3    0  502  0.60167499525E+02  0.62732391589E+03  0.25584635392E+02  0.63072180636E+03  0.25500000920E-02 0. -1.
</event>
<event>
 5   0  0.6048000E-04  0.1408822E+04  0.7818609E-02  0.8947458E-01
       -3   -1    0    0    0  501  0.00000000000E+00  0.00000000000E+00  0.45338883197E+03  0.45338884322E+03  0.10100000352E+00 0.  1.
        3   -1    0    0  501    0  0.00000000000E+00  0.00000000000E+00 -0.10944127603E+04  0.10944127650E+04  0.10100000352E+00 0. -1.
    10030    2    1    2    0    0  0.00000000000E+00  0.00000000000E+00 -0.64102392834E+03  0.15478016082E+04  0.14088215436E+04 0.  0.
        3    1    3    3  502    0 -0.16458233757E+03  0.64412909197E+03 -0.64724914846E+02  0.66796628490E+03  0.10100000352E+00 0.  1.
       -3    1    3    3    0  502  0.16458233757E+03 -0.64412909197E+03 -0.57629901349E+03  0.87983532330E+03  0.10100000352E+00 0. -1.
</event>
<event>
 5   0  0.6048000E-04  0.1394791E+04  0.7818609E-02  0.8957598E-01
        3   -1    0    0  501    0  0.00000000000E+00  0.00000000000E+00  0.14555335707E+04  0.14555335742E+04  0.10100000352E+00 0.  1.
       -3   -1    0    0    0  501  0.00000000000E+00  0.00000000000E+00 -0.33414561754E+03  0.33414563280E+03  0.10100000352E+00 0. -1.
    10030    2    1    2    0    0  0.00000000000E+00  0.00000000000E+00  0.11213879532E+04  0.17896792070E+04  0.13947905658E+04 0.  0.
        1    1    3    3  502    0  0.64455546479E+03 -0.70981569075E+02  0.23137998077E+03  0.68849606090E+03  0.50400001928E-02 0.  1.
       -1    1    3    3    0  502 -0.64455546479E+03  0.70981569075E+02  0.89000797241E+03  0.11011831461E+04  0.50400001928E-02 0. -1.
</event>
<event>
 5   0  0.8502300E-04  0.1413675E+04  0.7818609E-02  0.8943979E-01
        1   -1    0    0  501    0  0.00000000000E+00  0.00000000000E+00  0.98453660232E+03  0.98453660233E+03  0.50400001928E-02 0.  1.
       -1   -1    0    0    0  501  0.00000000000E+00  0.00000000000E+00 -0.50746661156E+03  0.50746661159E+03  0.50400001928E-02 0. -1.
    10030    2    1    2    0    0  0.00000000000E+00  0.00000000000E+00  0.47706999076E+03  0.14920032139E+04  0.14136752860E+04 0.  0.
        4    1    3    3  502    0  0.31369454021E+03 -0.13225969286E+03 -0.41523931056E+03  0.53695641243E+03  0.12699999809E+01 0. -1.
       -4    1    3    3    0  502 -0.31369454021E+03  0.13225969286E+03  0.89230930132E+03  0.95504680149E+03  0.12699999809E+01 0.  1.
</event>
<event>
 5   0  0.8673728E-04  0.1409247E+04  0.7818609E-02  0.8947152E-01
        1   -1    0    0  501    0  0.00000000000E+00  0.00000000000E+00  0.10739740159E+04  0.10739740159E+04  0.50400001928E-02 0. -1.
       -1   -1    0    0    0  501  0.00000000000E+00  0.00000000000E+00 -0.46229652669E+03  0.46229652672E+03  0.50400001928E-02 0.  1.
    10030    2    1    2    0    0  0.00000000000E+00  0.00000000000E+00  0.61167748917E+03  0.15362705426E+04  0.14092472563E+04 0.  0.
        3    1    3    3  502    0  0.22739128224E+03  0.41809481459E+03 -0.26059591938E+03  0.54260511666E+03  0.10100000352E+00 0.  1.
       -3    1    3    3    0  502 -0.22739128224E+03 -0.41809481459E+03  0.87227340855E+03  0.99366542593E+03  0.10100000352E+00 0. -1.
</event>
<event>
 5   0  0.1648213E-03  0.1432996E+04  0.7818609E-02  0.8930275E-01
        2   -1    0    0  501    0  0.00000000000E+00  0.00000000000E+00  0.10211819406E+04  0.10211819406E+04  0.25500000920E-02 0.  1.
       -2   -1    0    0    0  501  0.00000000000E+00  0.00000000000E+00 -0.50272089146E+03  0.50272089147E+03  0.25500000920E-02 0. -1.
    10030    2    1    2    0    0  0.00000000000E+00  0.00000000000E+00  0.51846104917E+03  0.15239028321E+04  0.14329961557E+04 0.  0.
        4    1    3    3  502    0 -0.26459421295E+01  0.33383447136E+03  0.93341630634E+03  0.99132238405E+03  0.12699999809E+01 0.  1.
       -4    1    3    3    0  502  0.26459421295E+01 -0.33383447136E+03 -0.41495525718E+03  0.53258044804E+03  0.12699999809E+01 0. -1.
</event>
<event>
 5   0  0.1605214E-03  0.1405493E+04  0.7818609E-02  0.8949852E-01
        2   -1    0    0  501    0  0.00000000000E+00  0.00000000000E+00  0.12906735399E+04  0.12906735399E+04  0.25500000920E-02 0. -1.
       -2   -1    0    0    0  501  0.00000000000E+00  0.00000000000E+00 -0.38263161369E+03  0.38263161369E+03  0.25500000920E-02 0.  1.
    10030    2    1    2    0    0  0.00000000000E+00  0.00000000000E+00  0.90804192619E+03  0.16733051536E+04  0.14054927952E+04 0.  0.
        5    1    3    3  502    0 -0.19039493984E+03  0.33242227099E+02  0.12583895204E+04  0.12731541752E+04  0.46999998093E+01 0. -1.
       -5    1    3    3    0  502  0.19039493984E+03 -0.33242227099E+02 -0.35034759417E+03  0.40015097841E+03  0.46999998093E+01 0.  1.
</event>
<event>
 5   0  0.8609148E-04  0.1404269E+04  0.7818609E-02  0.8950734E-01
       -1   -1    0    0    0  501  0.00000000000E+00  0.00000000000E+00  0.47034504379E+03  0.47034504382E+03  0.50400001928E-02 0.  1.
        1   -1    0    0  501    0  0.00000000000E+00  0.00000000000E+00 -0.10481517017E+04  0.10481517018E+04  0.50400001928E-02 0. -1.
    10030    2    1    2    0    0  0.00000000000E+00  0.00000000000E+00 -0.57780665795E+03  0.15184967456E+04  0.14042691453E+04 0.  0.
        5    1    3    3  502    0 -0.47186591697E+03 -0.40446997933E+03  0.64345924325E+02  0.62483269421E+03  0.46999998093E+01 0.  1.
       -5    1    3    3    0  502  0.47186591697E+03  0.40446997933E+03 -0.64215258227E+03  0.89366405136E+03  0.46999998093E+01 0. -1.
</event>
<event>
 5   0  0.1648463E-03  0.1398735E+04  0.7818609E-02  0.8954734E-01
        2   -1    0    0  501    0  0.00000000000E+00  0.00000000000E+00  0.11760701997E+04  0.11760701997E+04  0.25500000920E-02 0.  1.
       -2   -1    0    0    0  501  0.00000000000E+00  0.00000000000E+00 -0.41588944488E+03  0.41588944489E+03  0.25500000920E-02 0. -1.
    10030    2    1    2    0    0  0.00000000000E+00  0.00000000000E+00  0.76018075479E+03  0.15919596446E+04  0.13987354038E+04 0.  0.
        1    1    3    3  502    0  0.15933551173E+03 -0.97536284417E+02  0.11471458432E+04  0.11622584556E+04  0.50400001928E-02 0.  1.
       -1    1    3    3    0  502 -0.15933551173E+03  0.97536284417E+02 -0.38696508842E+03  0.42970118892E+03  0.50400001928E-02 0. -1.
</event>
<event>
 5   0  0.1578965E-03  0.1423842E+04  0.7818609E-02  0.8936739E-01
       -2   -1    0    0    0  501  0.00000000000E+00  0.00000000000E+00  0.31678107826E+03  0.31678107827E+03  0.25500000920E-02 0. -1.
        2   -1    0    0  501    0  0.00000000000E+00  0.00000000000E+00 -0.15999418610E+04  0.15999418610E+04  0.25500000920E-02 0.  1.
    10030    2    1    2    0    0  0.00000000000E+00  0.00000000000E+00 -0.12831607828E+04  0.19167229393E+04  0.14238417158E+04 0.  0.
        2    1    3    3  502    0  0.91793675650E+02  0.69797598466E+03 -0.49889503363E+03  0.86283996699E+03  0.25500000920E-02 0. -1.
       -2    1    3    3    0  502 -0.91793675650E+02 -0.69797598466E+03 -0.78426574912E+03  0.10538829723E+04  0.25500000920E-02 0.  1.
</event>
<event>
 5   0  0.1578965E-03  0.1379974E+04  0.7818609E-02  0.8968443E-01
       -2   -1    0    0    0  501  0.00000000000E+00  0.00000000000E+00  0.34111490462E+03  0.34111490463E+03  0.25500000920E-02 0. -1.
        2   -1    0    0  501    0  0.00000000000E+00  0.00000000000E+00 -0.13956645814E+04  0.13956645814E+04  0.25500000920E-02 0.  1.
    10030    2    1    2    0    0  0.00000000000E+00  0.00000000000E+00 -0.10545496768E+04  0.17367794860E+04  0.13799738991E+04 0.  0.
        2    1    3    3  502    0  0.43078789745E+03 -0.51081763184E+03 -0.74369267184E+03  0.99979580702E+03  0.25500000920E-02 0. -1.
       -2    1    3    3    0  502 -0.43078789745E+03  0.51081763184E+03 -0.31085700493E+03  0.73698367900E+03  0.25500000920E-02 0.  1.
</event>
<event>
 5   0  0.8502300E-04  0.1405659E+04  0.7818609E-02  0.8949733E-01
       -1   -1    0    0    0  501  0.00000000000E+00  0.00000000000E+00  0.64887325730E+03  0.64887325732E+03  0.50400001928E-02 0. -1.
        1   -1    0    0  501    0  0.00000000000E+00  0.00000000000E+00 -0.76127219683E+03  0.76127219685E+03  0.50400001928E-02 0.  1.
    10030    2    1    2    0    0  0.00000000000E+00  0.00000000000E+00 -0.11239893953E+03  0.14101454542E+04  0.14056588065E+04 0.  0.
        4    1    3    3  502    0  0.44890412031E+03  0.39992215661E+03 -0.42138736838E+03  0.73418088214E+03  0.12699999809E+01 0.  1.
       -4    1    3    3    0  502 -0.44890412031E+03 -0.39992215661E+03  0.30898842885E+03  0.67596457203E+03  0.12699999809E+01 0. -1.
</event>
<event>
 5   0  0.9639548E-04  0.1390776E+04  0.7818609E-02  0.8960522E-01
        1   -1    0    0  501    0  0.00000000000E+00  0.00000000000E+00  0.17017591870E+04  0.17017591870E+04  0.50400001928E-02 0. -1.
       -1   -1    0    0    0  501  0.00000000000E+00  0.00000000000E+00 -0.28415567666E+03  0.28415567670E+03  0.50400001928E-02 0.  1.
    10030    2    1    2    0    0  0.00000000000E+00  0.00000000000E+00  0.14176035104E+04  0.19859148637E+04  0.13907760903E+04 0.  0.
        1    1    3    3  502    0  0.14654286556E+02 -0.60719203093E+03  0.22527132038E+03  0.64779941212E+03  0.50400001928E-02 0.  1.
       -1    1    3    3    0  502 -0.14654286556E+02  0.60719203093E+03  0.11923321900E+04  0.13381154516E+04  0.50400001928E-02 0. -1.
</event>
<event>
 5   0  0.1605214E-03  0.1432205E+04  0.7818609E-02  0.8930831E-01
        2   -1    0    0  501    0  0.00000000000E+00  0.00000000000E+00  0.55749931141E+03  0.55749931141E+03  0.25500000920E-02 0.  1.
       -2   -1    0    0    0  501  0.00000000000E+00  0.00000000000E+00 -0.91982654708E+03  0.91982654709E+03  0.25500000920E-02 0. -1.
    10030    2    1    2    0    0  0.00000000000E+00  0.00000000000E+00 -0.36232723567E+03  0.14773258585E+04  0.14322048270E+04 0.  0.
        5    1    3    3  502    0  0.55059319499E+03  0.26733220313E+03  0.20224707462E+03  0.64462806516E+03  0.46999998093E+01 0.  1.
       -5    1    3    3    0  502 -0.55059319499E+03 -0.26733220313E+03 -0.56457431029E+03  0.83269779334E+03  0.46999998093E+01 0. -1.
</event>
<event>
 5   0  0.8609148E-04  0.1390741E+04  0.7818609E-02  0.8960548E-01
        1   -1    0    0  501    0  0.00000000000E+00  0.00000000000E+00  0.55988039032E+03  0.55988039034E+03  0.50400001928E-02 0.  1.
       -1   -1    0    0    0  501  0.00000000000E+00  0.00000000000E+00 -0.86364939602E+03  0.86364939604E+03  0.50400001928E-02 0. -1.
    10030    2    1    2    0    0  0.00000000000E+00  0.00000000000E+00 -0.30376900571E+03  0.14235297864E+04  0.13907413289E+04 0.  0.
        5    1    3    3  502    0  0.49758893902E+03  0.40837150891E+03  0.11729119727E+03  0.65432511527E+03  0.46999998093E+01 0.  1.
       -5    1    3    3    0  502 -0.49758893902E+03 -0.40837150891E+03 -0.42106020298E+03  0.76920467111E+03  0.46999998093E+01 0. -1.
</event>
<event>
 5   0  0.1578965E-03  0.1270230E+04  0.7818609E-02  0.9053512E-01
        2   -1    0    0  501    0  0.00000000000E+00  0.00000000000E+00  0.27064936511E+04  0.27064936511E+04  0.25500000920E-02 0.  1.
       -2   -1    0    0    0  501  0.00000000000E+00  0.00000000000E+00 -0.14903817038E+03  0.14903817040E+03  0.25500000920E-02 0. -1.
    10030    2    1    2    0    0  0.00000000000E+00  0.00000000000E+00  0.25574554807E+04  0.28555318215E+04  0.12702296830E+04 0.  0.
        2    1    3    3  502    0 -0.34262634421E+03 -0.33096145350E+03  0.22230200007E+04  0.22734876773E+04  0.25500000920E-02 0.  1.
       -2    1    3    3    0  502  0.34262634421E+03  0.33096145350E+03  0.33443548002E+03  0.58204414416E+03  0.25500000920E-02 0. -1.
</event>
<event>
 5   0  0.1648213E-03  0.1359540E+04  0.7818609E-02  0.8983638E-01
        2   -1    0    0  501    0  0.00000000000E+00  0.00000000000E+00  0.10212462262E+04  0.10212462262E+04  0.25500000920E-02 0.  1.
       -2   -1    0    0    0  501  0.00000000000E+00  0.00000000000E+00 -0.45247388455E+03  0.45247388456E+03  0.25500000920E-02 0. -1.
    10030    2    1    2    0    0  0.00000000000E+00  0.00000000000E+00  0.56877234167E+03  0.14737201108E+04  0.13595399914E+04 0.  0.
        4    1    3    3  502    0 -0.18085702669E+03  0.42716794588E+03  0.82301179717E+03  0.94473898473E+03  0.12699999809E+01 0.  1.
       -4    1    3    3    0  502  0.18085702669E+03 -0.42716794588E+03 -0.25423945550E+03  0.52898112606E+03  0.12699999809E+01 0. -1.
</event>
<event>
 5   0  0.8502300E-04  0.1388584E+04  0.7818609E-02  0.8962124E-01
        1   -1    0    0  501    0  0.00000000000E+00  0.00000000000E+00  0.18100388973E+04  0.18100388973E+04  0.50400001928E-02 0. -1.
       -1   -1    0    0    0  501  0.00000000000E+00  0.00000000000E+00 -0.26631544485E+03  0.26631544490E+03  0.50400001928E-02 0.  1.
    10030    2    1    2    0    0  0.00000000000E+00  0.00000000000E+00  0.15437234524E+04  0.20763543422E+04  0.13885839034E+04 0.  0.
        4    1    3    3  502    0  0.26422200317E+03 -0.60140839583E+03  0.11080037392E+04  0.12880913106E+04  0.12699999809E+01 0. -1.
       -4    1    3    3    0  502 -0.26422200317E+03  0.60140839583E+03  0.43571971323E+03  0.78826303156E+03  0.12699999809E+01 0.  1.
</event>
<event>
 5   0  0.1605214E-03  0.1409513E+04  0.7818609E-02  0.8946961E-01
       -2   -1    0    0    0  501  0.00000000000E+00  0.00000000000E+00  0.43167109318E+03  0.43167109318E+03  0.25500000920E-02 0. -1.
        2   -1    0    0  501    0  0.00000000000E+00  0.00000000000E+00 -0.11506027286E+04  0.11506027286E+04  0.25500000920E-02 0.  1.
    10030    2    1    2    0    0  0.00000000000E+00  0.00000000000E+00 -0.71893163544E+03  0.15822738218E+04  0.14095133028E+04 0.  0.
        5    1    3    3  502    0 -0.61347062762E+03  0.52097980041E+02 -0.74442535667E+03  0.96604948741E+03  0.46999998093E+01 0.  1.
       -5    1    3    3    0  502  0.61347062762E+03 -0.52097980041E+02  0.25493721227E+02  0.61622433439E+03  0.46999998093E+01 0. -1.
</event>
<event>
 5   0  0.1706986E-03  0.1383532E+04  0.7818609E-02  0.8965826E-01
        2   -1    0    0  501    0  0.00000000000E+00  0.00000000000E+00  0.85984260468E+03  0.85984260469E+03  0.25500000920E-02 0.  1.
       -2   -1    0    0    0  501  0.00000000000E+00  0.00000000000E+00 -0.55654397004E+03  0.55654397005E+03  0.25500000920E-02 0. -1.
    10030    2    1    2    0    0  0.00000000000E+00  0.00000000000E+00  0.30329863464E+03  0.14163865747E+04  0.13835320261E+04 0.  0.
        3    1    3    3  502    0 -0.52276773358E+03 -0.26593177610E+03  0.52714871790E+03  0.78860103588E+03  0.10100000352E+00 0.  1.
       -3    1    3    3    0  502  0.52276773358E+03  0.26593177610E+03 -0.22385008326E+03  0.62778553885E+03  0.10100000352E+00 0. -1.
</event>
<event>
 5   0  0.1648213E-03  0.1405705E+04  0.7818609E-02  0.8949699E-01
        2   -1    0    0  501    0  0.00000000000E+00  0.00000000000E+00  0.98186427995E+03  0.98186427995E+03  0.25500000920E-02 0.  1.
       -2   -1    0    0    0  501  0.00000000000E+00  0.00000000000E+00 -0.50312632519E+03  0.50312632520E+03  0.25500000920E-02 0. -1.
    10030    2    1    2    0    0  0.00000000000E+00  0.00000000000E+00  0.47873795476E+03  0.14849906052E+04  0.14057051853E+04 0.  0.
        4    1    3    3  502    0 -0.61933139190E+03  0.32615142839E+03  0.17210651354E+03  0.72081092676E+03  0.12699999809E+01 0. -1.
       -4    1    3    3    0  502  0.61933139190E+03 -0.32615142839E+03  0.30663144121E+03  0.76417967839E+03  0.12699999809E+01 0.  1.
</event>
<event>
 5   0  0.9007180E-04  0.1375925E+04  0.7818609E-02  0.8971432E-01
        1   -1    0    0  501    0  0.00000000000E+00  0.00000000000E+00  0.21197274707E+04  0.21197274707E+04  0.50400001928E-02 0.  1.
       -1   -1    0    0    0  501  0.00000000000E+00  0.00000000000E+00 -0.22327988064E+03  0.22327988069E+03  0.50400001928E-02 0. -1.
    10030    2    1    2    0    0  0.00000000000E+00  0.00000000000E+00  0.18964475900E+04  0.23430073514E+04  0.13759251385E+04 0.  0.
        2    1    3    3  502    0 -0.17075063516E+02 -0.49527022775E+03  0.17608078851E+04  0.18292152866E+04  0.25500000920E-02 0.  1.
       -2    1    3    3    0  502  0.17075063516E+02  0.49527022775E+03  0.13563970490E+03  0.51379206479E+03  0.25500000920E-02 0. -1.
</event>
<event>
 5   0  0.1605214E-03  0.1406269E+04  0.7818609E-02  0.8949293E-01
        2   -1    0    0  501    0  0.00000000000E+00  0.00000000000E+00  0.10932072870E+04  0.10932072870E+04  0.25500000920E-02 0. -1.
       -2   -1    0    0    0  501  0.00000000000E+00  0.00000000000E+00 -0.45224565956E+03  0.45224565957E+03  0.25500000920E-02 0.  1.
    10030    2    1    2    0    0  0.00000000000E+00  0.00000000000E+00  0.64096162746E+03  0.15454529466E+04  0.14062691784E+04 0.  0.
        5    1    3    3  502    0  0.65015684241E+03  0.52051046314E+02  0.60908005113E+03  0.89242020923E+03  0.46999998093E+01 0. -1.
       -5    1    3    3    0  502 -0.65015684241E+03 -0.52051046314E+02  0.31881576328E+02  0.65303273736E+03  0.46999998093E+01 0.  1.
</event>
<event>
 5   0  0.8609148E-04  0.1402156E+04  0.7818609E-02  0.8952259E-01
       -1   -1    0    0    0  501  0.00000000000E+00  0.00000000000E+00  0.59203695730E+03  0.59203695732E+03  0.50400001928E-02 0. -1.
        1   -1    0    0  501    0  0.00000000000E+00  0.00000000000E+00 -0.83020200673E+03  0.83020200675E+03  0.50400001928E-02 0.  1.
    10030    2    1    2    0    0  0.00000000000E+00  0.00000000000E+00 -0.23816504943E+03  0.14222389641E+04  0.14021558687E+04 0.  0.
        5    1    3    3  502    0 -0.69665275595E+03  0.31409226566E+02 -0.46103565439E+02  0.69889858394E+03  0.46999998093E+01 0.  1.
       -5    1    3    3    0  502  0.69665275595E+03 -0.31409226566E+02 -0.19206148400E+03  0.72334038013E+03  0.46999998093E+01 0. -1.
</event>
<event>
 5   0  0.1648213E-03  0.1389315E+04  0.7818609E-02  0.8961589E-01
        2   -1    0    0  501    0  0.00000000000E+00  0.00000000000E+00  0.16643957818E+04  0.16643957819E+04  0.25500000920E-02 0. -1.
       -2   -1    0    0    0  501  0.00000000000E+00  0.00000000000E+00 -0.28992449965E+03  0.28992449967E+03  0.25500000920E-02 0.  1.
    10030    2    1    2    0    0  0.00000000000E+00  0.00000000000E+00  0.13744712822E+04  0.19543202815E+04  0.13893151036E+04 0.  0.
        4    1    3    3  502    0  0.26663259714E+03  0.23416215398E+03  0.15272746241E+04  0.15679586240E+04  0.12699999809E+01 0. -1.
       -4    1    3    3    0  502 -0.26663259714E+03 -0.23416215398E+03 -0.15280334190E+03  0.38636165753E+03  0.12699999809E+01 0.  1.
</event>
<event>
 5   0  0.9639548E-04  0.1438977E+04  0.7818609E-02  0.8926078E-01
        1   -1    0    0  501    0  0.00000000000E+00  0.00000000000E+00  0.99673983845E+03  0.99673983846E+03  0.50400001928E-02 0. -1.
       -1   -1    0    0    0  501  0.00000000000E+00  0.00000000000E+00 -0.51935678909E+03  0.51935678911E+03  0.50400001928E-02 0.  1.
    10030    2    1    2    0    0  0.00000000000E+00  0.00000000000E+00  0.47738304935E+03  0.15160966276E+04  0.14389768616E+04 0.  0.
        1    1    3    3  502    0 -0.14593850635E+03  0.35000222945E+03  0.88290512849E+03  0.96089597470E+03  0.50400001928E-02 0. -1.
       -1    1    3    3    0  502  0.14593850635E+03 -0.35000222945E+03 -0.40552207914E+03  0.55520065287E+03  0.50400001928E-02 0.  1.
</event>
<event>
 5   0  0.1605214E-03  0.1407343E+04  0.7818609E-02  0.8948520E-01
       -2   -1    0    0    0  501  0.00000000000E+00  0.00000000000E+00  0.23741124768E+03  0.23741124769E+03  0.25500000920E-02 0. -1.
        2   -1    0    0  501    0  0.00000000000E+00  0.00000000000E+00 -0.20856374902E+04  0.20856374902E+04  0.25500000920E-02 0.  1.
    10030    2    1    2    0    0  0.00000000000E+00  0.00000000000E+00 -0.18482262425E+04  0.23230487379E+04  0.14073433110E+04 0.  0.
        5    1    3    3  502    0  0.65299513564E+03  0.17648291666E+03 -0.12441154035E+04  0.14161193785E+04  0.46999998093E+01 0.  1.
       -5    1    3    3    0  502 -0.65299513564E+03 -0.17648291666E+03 -0.60411083904E+03  0.90692935937E+03  0.46999998093E+01 0. -1.
</event>
<event>
 5   0  0.8609148E-04  0.1431187E+04  0.7818609E-02  0.8931548E-01
        1   -1    0    0  501    0  0.00000000000E+00  0.00000000000E+00  0.53588318155E+03  0.53588318158E+03  0.50400001928E-02 0. -1.
       -1   -1    0    0    0  501  0.00000000000E+00  0.00000000000E+00 -0.95557067405E+03  0.95557067406E+03  0.50400001928E-02 0.  1.
    10030    2    1    2    0    0  0.00000000000E+00  0.00000000000E+00 -0.41968749249E+03  0.14914538556E+04  0.14311872736E+04 0.  0.
        5    1    3    3  502    0  0.59383215912E+03  0.38831120127E+03 -0.11303440531E+03  0.71848527405E+03  0.46999998093E+01 0. -1.
       -5    1    3    3    0  502 -0.59383215912E+03 -0.38831120127E+03 -0.30665308719E+03  0.77296858159E+03  0.46999998093E+01 0.  1.
</event>
<event>
 5   0  0.8609148E-04  0.1329311E+04  0.7818609E-02  0.9006639E-01
       -1   -1    0    0    0  501  0.00000000000E+00  0.00000000000E+00  0.49981756761E+03  0.49981756763E+03  0.50400001928E-02 0.  1.
        1   -1    0    0  501    0  0.00000000000E+00  0.00000000000E+00 -0.88385596584E+03  0.88385596585E+03  0.50400001928E-02 0. -1.
    10030    2    1    2    0    0  0.00000000000E+00  0.00000000000E+00 -0.38403839823E+03  0.13836735335E+04  0.13293107071E+04 0.  0.
        5    1    3    3  502    0  0.33000688188E+03  0.23269225819E+03  0.35748531913E+03  0.53932186355E+03  0.46999998093E+01 0.  1.
       -5    1    3    3    0  502 -0.33000688188E+03 -0.23269225819E+03 -0.74152371736E+03  0.84435166994E+03  0.46999998093E+01 0. -1.
</event>
<event>
 5   0  0.1605214E-03  0.1382546E+04  0.7818609E-02  0.8966551E-01
       -2   -1    0    0    0  501  0.00000000000E+00  0.00000000000E+00  0.32679916974E+03  0.32679916975E+03  0.25500000920E-02 0.  1.
        2   -1    0    0  501    0  0.00000000000E+00  0.00000000000E+00 -0.14622382708E+04  0.14622382708E+04  0.25500000920E-02 0. -1.
    10030    2    1    2    0    0  0.00000000000E+00  0.00000000000E+00 -0.11354391011E+04  0.17890374406E+04  0.13825458443E+04 0.  0.
        5    1    3    3  502    0 -0.61408955938E+03 -0.15357893089E+03 -0.92712949288E+03  0.11226235618E+04  0.46999998093E+01 0. -1.
       -5    1    3    3    0  502  0.61408955938E+03  0.15357893089E+03 -0.20830960820E+03  0.66641387877E+03  0.46999998093E+01 0.  1.
</event>
<event>
 5   0  0.8502300E-04  0.1380270E+04  0.7818609E-02  0.8968225E-01
        1   -1    0    0  501    0  0.00000000000E+00  0.00000000000E+00  0.16504618799E+04  0.16504618799E+04  0.50400001928E-02 0.  1.
       -1   -1    0    0    0  501  0.00000000000E+00  0.00000000000E+00 -0.28857751059E+03  0.28857751063E+03  0.50400001928E-02 0. -1.
    10030    2    1    2    0    0  0.00000000000E+00  0.00000000000E+00  0.13618843693E+04  0.19390393906E+04  0.13802698007E+04 0.  0.
        4    1    3    3  502    0 -0.14608924771E+03 -0.57942436245E+03  0.11659835988E+04  0.13101885459E+04  0.12699999809E+01 0.  1.
       -4    1    3    3    0  502  0.14608924771E+03  0.57942436245E+03  0.19590077053E+03  0.62885084471E+03  0.12699999809E+01 0. -1.
</event>
<event>
 5   0  0.8502300E-04  0.1148649E+04  0.7818609E-02  0.9159031E-01
       -1   -1    0    0    0  501  0.00000000000E+00  0.00000000000E+00  0.34078272934E+03  0.34078272938E+03  0.50400001928E-02 0. -1.
        1   -1    0    0  501    0  0.00000000000E+00  0.00000000000E+00 -0.96791405900E+03  0.96791405901E+03  0.50400001928E-02 0.  1.
    10030    2    1    2    0    0  0.00000000000E+00  0.00000000000E+00 -0.62713132966E+03  0.13086967884E+04  0.11486485882E+04 0.  0.
        4    1    3    3  502    0  0.42624379095E+02  0.29609692438E+03 -0.87213853646E+03  0.92201814842E+03  0.12699999809E+01 0.  1.
       -4    1    3    3    0  502 -0.42624379095E+02 -0.29609692438E+03  0.24500720681E+03  0.38667863997E+03  0.12699999809E+01 0. -1.
</event>
<event>
 5   0  0.8609148E-04  0.1417647E+04  0.7818609E-02  0.8941143E-01
        1   -1    0    0  501    0  0.00000000000E+00  0.00000000000E+00  0.53102191083E+03  0.53102191086E+03  0.50400001928E-02 0.  1.
       -1   -1    0    0    0  501  0.00000000000E+00  0.00000000000E+00 -0.94615777200E+03  0.94615777201E+03  0.50400001928E-02 0. -1.
    10030    2    1    2    0    0  0.00000000000E+00  0.00000000000E+00 -0.41513586117E+03  0.14771796829E+04  0.14176466528E+04 0.  0.
        5    1    3    3  502    0  0.11132679148E+03  0.44071134322E+03 -0.77427131541E+03  0.89785204929E+03  0.46999998093E+01 0. -1.
       -5    1    3    3    0  502 -0.11132679148E+03 -0.44071134322E+03  0.35913545424E+03  0.57932763359E+03  0.46999998093E+01 0.  1.
</event>
<event>
 5   0  0.8502300E-04  0.1388094E+04  0.7818609E-02  0.8962482E-01
        1   -1    0    0  501    0  0.00000000000E+00  0.00000000000E+00  0.69767183757E+03  0.69767183759E+03  0.50400001928E-02 0. -1.
       -1   -1    0    0    0  501  0.00000000000E+00  0.00000000000E+00 -0.69044068040E+03  0.69044068041E+03  0.50400001928E-02 0.  1.
    10030    2    1    2    0    0  0.00000000000E+00  0.00000000000E+00  0.72311571797E+01  0.13881125180E+04  0.13880936831E+04 0.  0.
        4    1    3    3  502    0 -0.15243207910E+03  0.41201458669E+03 -0.53370711954E+03  0.69125715962E+03  0.12699999809E+01 0.  1.
       -4    1    3    3    0  502  0.15243207910E+03 -0.41201458669E+03  0.54093827672E+03  0.69685535838E+03  0.12699999809E+01 0. -1.
</event>
<event>
 5   0  0.8502300E-04  0.1408181E+04  0.7818609E-02  0.8947918E-01
       -1   -1    0    0    0  501  0.00000000000E+00  0.00000000000E+00  0.33965564415E+03  0.33965564419E+03  0.50400001928E-02 0.  1.
        1   -1    0    0  501    0  0.00000000000E+00  0.00000000000E+00 -0.14595470658E+04  0.14595470658E+04  0.50400001928E-02 0. -1.
    10030    2    1    2    0    0  0.00000000000E+00  0.00000000000E+00 -0.11198914217E+04  0.17992027100E+04  0.14081809527E+04 0.  0.
        4    1    3    3  502    0 -0.42381277700E+02 -0.12289462235E+03  0.32418807553E+03  0.34928324053E+03  0.12699999809E+01 0.  1.
       -4    1    3    3    0  502  0.42381277700E+02  0.12289462235E+03 -0.14440794972E+04  0.14499194695E+04  0.12699999809E+01 0. -1.
</event>
<event>
 5   0  0.8502300E-04  0.1321495E+04  0.7818609E-02  0.9012691E-01
       -1   -1    0    0    0  501  0.00000000000E+00  0.00000000000E+00  0.42277050998E+03  0.42277051001E+03  0.50400001928E-02 0. -1.
        1   -1    0    0  501    0  0.00000000000E+00  0.00000000000E+00 -0.10326822043E+04  0.10326822043E+04  0.50400001928E-02 0.  1.
    10030    2    1    2    0    0  0.00000000000E+00  0.00000000000E+00 -0.60991169433E+03  0.14554527143E+04  0.13214954895E+04 0.  0.
        4    1    3    3  502    0  0.14520077518E+03  0.17141123072E+03 -0.98933073737E+03  0.10145156460E+04  0.12699999809E+01 0.  1.
       -4    1    3    3    0  502 -0.14520077518E+03 -0.17141123072E+03  0.37941904304E+03  0.44093706836E+03  0.12699999809E+01 0. -1.
</event>
<event>
 5   0  0.8673728E-04  0.1387686E+04  0.7818609E-02  0.8962780E-01
        1   -1    0    0  501    0  0.00000000000E+00  0.00000000000E+00  0.95937531798E+03  0.95937531799E+03  0.50400001928E-02 0.  1.
       -1   -1    0    0    0  501  0.00000000000E+00  0.00000000000E+00 -0.50180399375E+03  0.50180399377E+03  0.50400001928E-02 0. -1.
    10030    2    1    2    0    0  0.00000000000E+00  0.00000000000E+00  0.45757132423E+03  0.14611793118E+04  0.13876863710E+04 0.  0.
        3    1    3    3  502    0 -0.20772313910E+03  0.66197112378E+03  0.22038275417E+03  0.72795826788E+03  0.10100000352E+00 0. -1.
       -3    1    3    3    0  502  0.20772313910E+03 -0.66197112378E+03  0.23718857006E+03  0.73322104389E+03  0.10100000352E+00 0.  1.
</event>
<event>
 5   0  0.1578965E-03  0.1397019E+04  0.7818609E-02  0.8955979E-01
        2   -1    0    0  501    0  0.00000000000E+00  0.00000000000E+00  0.98788494375E+03  0.98788494376E+03  0.25500000920E-02 0.  1.
       -2   -1    0    0    0  501  0.00000000000E+00  0.00000000000E+00 -0.49389927623E+03  0.49389927624E+03  0.25500000920E-02 0. -1.
    10030    2    1    2    0    0  0.00000000000E+00  0.00000000000E+00  0.49398566752E+03  0.14817842200E+04  0.13970191963E+04 0.  0.
        2    1    3    3  502    0  0.54806655672E+03  0.43039620374E+03  0.19614877516E+03  0.72394211425E+03  0.25500000920E-02 0.  1.
       -2    1    3    3    0  502 -0.54806655672E+03 -0.43039620374E+03  0.29783689236E+03  0.75784210574E+03  0.25500000920E-02 0. -1.
</event>
<event>
 5   0  0.8673728E-04  0.1406165E+04  0.7818609E-02  0.8949368E-01
        1   -1    0    0  501    0  0.00000000000E+00  0.00000000000E+00  0.19222195502E+04  0.19222195502E+04  0.50400001928E-02 0.  1.
       -1   -1    0    0    0  501  0.00000000000E+00  0.00000000000E+00 -0.25716362437E+03  0.25716362442E+03  0.50400001928E-02 0. -1.
    10030    2    1    2    0    0  0.00000000000E+00  0.00000000000E+00  0.16650559259E+04  0.21793831747E+04  0.14061649212E+04 0.  0.
        3    1    3    3  502    0 -0.39998233005E+03  0.54300343828E+03  0.52454920523E+03  0.85439480175E+03  0.10100000352E+00 0. -1.
       -3    1    3    3    0  502  0.39998233005E+03 -0.54300343828E+03  0.11405067206E+04  0.13249883729E+04  0.10100000352E+00 0.  1.
</event>
<event>
 5   0  0.9639548E-04  0.1400825E+04  0.7818609E-02  0.8953222E-01
        1   -1    0    0  501    0  0.00000000000E+00  0.00000000000E+00  0.29607899386E+03  0.29607899391E+03  0.50400001928E-02 0.  1.
       -1   -1    0    0    0  501  0.00000000000E+00  0.00000000000E+00 -0.16569138654E+04  0.16569138654E+04  0.50400001928E-02 0. -1.
    10030    2    1    2    0    0  0.00000000000E+00  0.00000000000E+00 -0.13608348715E+04  0.19529928593E+04  0.14008246003E+04 0.  0.
        1    1    3    3  502    0  0.45716113620E+03  0.46202497403E+03 -0.10442781075E+04  0.12300325797E+04  0.50400001928E-02 0. -1.
       -1    1    3    3    0  502 -0.45716113620E+03 -0.46202497403E+03 -0.31655676394E+03  0.72296027962E+03  0.50400001928E-02 0.  1.
</event>
<event>
 5   0  0.1605214E-03  0.1392846E+04  0.7818609E-02  0.8959013E-01
        2   -1    0    0  501    0  0.00000000000E+00  0.00000000000E+00  0.42414333469E+03  0.42414333470E+03  0.25500000920E-02 0. -1.
       -2   -1    0    0    0  501  0.00000000000E+00  0.00000000000E+00 -0.11434933817E+04  0.11434933817E+04  0.25500000920E-02 0.  1.
    10030    2    1    2    0    0  0.00000000000E+00  0.00000000000E+00 -0.71935004696E+03  0.15676367164E+04  0.13928461453E+04 0.  0.
        5    1    3    3  502    0 -0.59759881352E+03 -0.43299637657E+02 -0.75915925506E+03  0.96713187575E+03  0.46999998093E+01 0.  1.
       -5    1    3    3    0  502  0.59759881352E+03  0.43299637657E+02  0.39809208097E+02  0.60050484060E+03  0.46999998093E+01 0. -1.
</event>
<event>
 5   0  0.6048000E-04  0.1391328E+04  0.7818609E-02  0.8960120E-01
        4   -1    0    0  501    0  0.00000000000E+00  0.00000000000E+00  0.86512926329E+03  0.86513019546E+03  0.12699999809E+01 0.  1.
       -4   -1    0    0    0  501  0.00000000000E+00  0.00000000000E+00 -0.55939256491E+03  0.55939400656E+03  0.12699999809E+01 0. -1.
    10030    2    1    2    0    0  0.00000000000E+00  0.00000000000E+00  0.30573669838E+03  0.14245242020E+04  0.13913282407E+04 0.  0.
        5    1    3    3  502    0 -0.17579573468E+03 -0.30293869301E+03 -0.46251317327E+03  0.58018662300E+03  0.46999998093E+01 0. -1.
       -5    1    3    3    0  502  0.17579573468E+03  0.30293869301E+03  0.76824987165E+03  0.84433757902E+03  0.46999998093E+01 0.  1.
</event>
<event>
 5   0  0.8673728E-04  0.1398422E+04  0.7818609E-02  0.8954961E-01
        1   -1    0    0  501    0  0.00000000000E+00  0.00000000000E+00  0.56020437082E+03  0.56020437084E+03  0.50400001928E-02 0.  1.
       -1   -1    0    0    0  501  0.00000000000E+00  0.00000000000E+00 -0.87271060804E+03  0.87271060806E+03  0.50400001928E-02 0. -1.
    10030    2    1    2    0    0  0.00000000000E+00  0.00000000000E+00 -0.31250623723E+03  0.14329149789E+04  0.13984223927E+04 0.  0.
        3    1    3    3  502    0 -0.14309501814E+03  0.65473018198E+03  0.48034656529E+02  0.67190411060E+03  0.10100000352E+00 0. -1.
       -3    1    3    3    0  502  0.14309501814E+03 -0.65473018198E+03 -0.36054089376E+03  0.76101086830E+03  0.10100000352E+00 0.  1.
</event>
<event>
 5   0  0.8502300E-04  0.1420534E+04  0.7818609E-02  0.8939088E-01
        1   -1    0    0  501    0  0.00000000000E+00  0.00000000000E+00  0.62428521559E+03  0.62428521561E+03  0.50400001928E-02 0.  1.
       -1   -1    0    0    0  501  0.00000000000E+00  0.00000000000E+00 -0.80809088213E+03  0.80809088215E+03  0.50400001928E-02 0. -1.
    10030    2    1    2    0    0  0.00000000000E+00  0.00000000000E+00 -0.18380566654E+03  0.14323760978E+04  0.14205339709E+04 0.  0.
        4    1    3    3  502    0 -0.38916729312E+03 -0.37784544816E+03 -0.55426571146E+03  0.77551947527E+03  0.12699999809E+01 0. -1.
       -4    1    3    3    0  502  0.38916729312E+03  0.37784544816E+03  0.37046004491E+03  0.65685662248E+03  0.12699999809E+01 0.  1.
</event>
<event>
 5   0  0.8502300E-04  0.1397177E+04  0.7818609E-02  0.8955864E-01
       -1   -1    0    0    0  501  0.00000000000E+00  0.00000000000E+00  0.49693233779E+03  0.49693233781E+03  0.50400001928E-02 0.  1.
        1   -1    0    0  501    0  0.00000000000E+00  0.00000000000E+00 -0.98207739282E+03  0.98207739284E+03  0.50400001928E-02 0. -1.
    10030    2    1    2    0    0  0.00000000000E+00  0.00000000000E+00 -0.48514505504E+03  0.14790097307E+04  0.13971771752E+04 0.  0.
        4    1    3    3  502    0 -0.56790439135E+03 -0.27455135563E+03  0.75228704977E+02  0.63525964419E+03  0.12699999809E+01 0.  1.
       -4    1    3    3    0  502  0.56790439135E+03  0.27455135563E+03 -0.56037376001E+03  0.84375008646E+03  0.12699999809E+01 0. -1.
</event>
<event>
 5   0  0.1648213E-03  0.1411722E+04  0.7818609E-02  0.8945377E-01
       -2   -1    0    0    0  501  0.00000000000E+00  0.00000000000E+00  0.31680300822E+03  0.31680300823E+03  0.25500000920E-02 0.  1.
        2   -1    0    0  501    0  0.00000000000E+00  0.00000000000E+00 -0.15727122653E+04  0.15727122653E+04  0.25500000920E-02 0. -1.
    10030    2    1    2    0    0  0.00000000000E+00  0.00000000000E+00 -0.12559092571E+04  0.18895152735E+04  0.14117223193E+04 0.  0.
        4    1    3    3  502    0  0.99088920772E+02 -0.70365092726E+02  0.30269287985E+03  0.32618162564E+03  0.12699999809E+01 0.  1.
       -4    1    3    3    0  502 -0.99088920772E+02  0.70365092726E+02 -0.15586021369E+04  0.15633336479E+04  0.12699999809E+01 0. -1.
</event>
<event>
 5   0  0.6048000E-04  0.1393613E+04  0.7818609E-02  0.8958455E-01
        3   -1    0    0  501    0  0.00000000000E+00  0.00000000000E+00  0.14880326472E+04  0.14880326506E+04  0.10100000352E+00 0.  1.
       -3   -1    0    0    0  501  0.00000000000E+00  0.00000000000E+00 -0.32629624680E+03  0.32629626243E+03  0.10100000352E+00 0. -1.
    10030    2    1    2    0    0  0.00000000000E+00  0.00000000000E+00  0.11617364004E+04  0.18143289131E+04  0.13936132680E+04 0.  0.
        3    1    3    3  502    0  0.15169265990E+03  0.43226435798E+03 -0.10268684588E+03  0.46947602364E+03  0.10100000352E+00 0. -1.
       -3    1    3    3    0  502 -0.15169265990E+03 -0.43226435798E+03  0.12644232463E+04  0.13448528894E+04  0.10100000352E+00 0.  1.
</event>
<event>
 5   0  0.8673728E-04  0.1434405E+04  0.7818609E-02  0.8929284E-01
       -1   -1    0    0    0  501  0.00000000000E+00  0.00000000000E+00  0.96204754941E+03  0.96204754942E+03  0.50400001928E-02 0.  1.
        1   -1    0    0  501    0  0.00000000000E+00  0.00000000000E+00 -0.53467149903E+03  0.53467149906E+03  0.50400001928E-02 0. -1.
    10030    2    1    2    0    0  0.00000000000E+00  0.00000000000E+00  0.42737605037E+03  0.14967190485E+04  0.14344049713E+04 0.  0.
        3    1    3    3  502    0  0.21304447603E+03 -0.44220114035E+03  0.75932921684E+03  0.90416296487E+03  0.10100000352E+00 0.  1.
       -3    1    3    3    0  502 -0.21304447603E+03  0.44220114035E+03 -0.33195316647E+03  0.59255608361E+03  0.10100000352E+00 0. -1.
</event>
<event>
 5   0  0.1578965E-03  0.1401734E+04  0.7818609E-02  0.8952565E-01
        2   -1    0    0  501    0  0.00000000000E+00  0.00000000000E+00  0.73191308764E+03  0.73191308764E+03  0.25500000920E-02 0.  1.
       -2   -1    0    0    0  501  0.00000000000E+00  0.00000000000E+00 -0.67113734866E+03  0.67113734866E+03  0.25500000920E-02 0. -1.
    10030    2    1    2    0    0  0.00000000000E+00  0.00000000000E+00  0.60775738979E+02  0.14030504363E+04  0.14017335112E+04 0.  0.
        2    1    3    3  502    0 -0.20377803133E+03  0.38835020292E+03 -0.51681838714E+03  0.67782196148E+03  0.25500000920E-02 0. -1.
       -2    1    3    3    0  502  0.20377803133E+03 -0.38835020292E+03  0.57759412612E+03  0.72522847483E+03  0.25500000920E-02 0.  1.
</event>
<event>
 5   0  0.1605214E-03  0.1326681E+04  0.7818609E-02  0.9008671E-01
        2   -1    0    0  501    0  0.00000000000E+00  0.00000000000E+00  0.51040302253E+03  0.51040302254E+03  0.25500000920E-02 0.  1.
       -2   -1    0    0    0  501  0.00000000000E+00  0.00000000000E+00 -0.86210401873E+03  0.86210401874E+03  0.25500000920E-02 0. -1.
    10030    2    1    2    0    0  0.00000000000E+00  0.00000000000E+00 -0.35170099620E+03  0.13725070413E+04  0.13266808160E+04 0.  0.
        5    1    3    3  502    0 -0.55901529088E+03  0.32613345180E+02  0.19201128847E+03  0.59198999199E+03  0.46999998093E+01 0.  1.
       -5    1    3    3    0  502  0.55901529088E+03 -0.32613345180E+02 -0.54371228467E+03  0.78051704928E+03  0.46999998093E+01 0. -1.
</event>
<event>
 5   0  0.1706986E-03  0.1366758E+04  0.7818609E-02  0.8978238E-01
       -2   -1    0    0    0  501  0.00000000000E+00  0.00000000000E+00  0.65964756588E+03  0.65964756589E+03  0.25500000920E-02 0.  1.
        2   -1    0    0  501    0  0.00000000000E+00  0.00000000000E+00 -0.70796461436E+03  0.70796461436E+03  0.25500000920E-02 0. -1.
    10030    2    1    2    0    0  0.00000000000E+00  0.00000000000E+00 -0.48317048476E+02  0.13676121802E+04  0.13667584053E+04 0.  0.
        3    1    3    3  502    0 -0.35654190048E+03 -0.33761941930E+03  0.45142578762E+03  0.66700393628E+03  0.10100000352E+00 0.  1.
       -3    1    3    3    0  502  0.35654190048E+03  0.33761941930E+03 -0.49974283609E+03  0.70060824397E+03  0.10100000352E+00 0. -1.
</event>
<event>
 5   0  0.9007180E-04  0.1396614E+04  0.7818609E-02  0.8956273E-01
        1   -1    0    0  501    0  0.00000000000E+00  0.00000000000E+00  0.11333143699E+04  0.11333143699E+04  0.50400001928E-02 0. -1.
       -1   -1    0    0    0  501  0.00000000000E+00  0.00000000000E+00 -0.43027146834E+03  0.43027146837E+03  0.50400001928E-02 0.  1.
    10030    2    1    2    0    0  0.00000000000E+00  0.00000000000E+00  0.70304290159E+03  0.15635858383E+04  0.13966142461E+04 0.  0.
        2    1    3    3  502    0  0.43075345448E+03  0.51242208112E+02  0.96417310269E+03  0.10572625381E+04  0.25500000920E-02 0. -1.
       -2    1    3    3    0  502 -0.43075345448E+03 -0.51242208112E+02 -0.26113020110E+03  0.50632330025E+03  0.25500000920E-02 0.  1.
</event>
<event>
 5   0  0.1706986E-03  0.1380404E+04  0.7818609E-02  0.8968127E-01
        2   -1    0    0  501    0  0.00000000000E+00  0.00000000000E+00  0.84075620390E+03  0.84075620391E+03  0.25500000920E-02 0. -1.
       -2   -1    0    0    0  501  0.00000000000E+00  0.00000000000E+00 -0.56660750137E+03  0.56660750138E+03  0.25500000920E-02 0.  1.
    10030    2    1    2    0    0  0.00000000000E+00  0.00000000000E+00  0.27414870253E+03  0.14073637053E+04  0.13804039582E+04 0.  0.
        3    1    3    3  502    0  0.30206603119E+03 -0.36085788959E+03 -0.37767888843E+03  0.60341002365E+03  0.10100000352E+00 0.  1.
       -3    1    3    3    0  502 -0.30206603119E+03  0.36085788959E+03  0.65182759096E+03  0.80395368163E+03  0.10100000352E+00 0. -1.
</event>
<event>
 5   0  0.8609148E-04  0.1422427E+04  0.7818609E-02  0.8937743E-01
        1   -1    0    0  501    0  0.00000000000E+00  0.00000000000E+00  0.92945319991E+03  0.92945319992E+03  0.50400001928E-02 0.  1.
       -1   -1    0    0    0  501  0.00000000000E+00  0.00000000000E+00 -0.54421717525E+03  0.54421717527E+03  0.50400001928E-02 0. -1.
    10030    2    1    2    0    0  0.00000000000E+00  0.00000000000E+00  0.38523602466E+03  0.14736703752E+04  0.14224266519E+04 0.  0.
        5    1    3    3  502    0 -0.47145036466E+02 -0.50886016366E+03 -0.31981261590E+03  0.60287935768E+03  0.46999998093E+01 0. -1.
       -5    1    3    3    0  502  0.47145036466E+02  0.50886016366E+03  0.70504864056E+03  0.87079101751E+03  0.46999998093E+01 0.  1.
</event>
<event>
 5   0  0.8673728E-04  0.1404186E+04  0.7818609E-02  0.8950794E-01
       -1   -1    0    0    0  501  0.00000000000E+00  0.00000000000E+00  0.68740903949E+03  0.68740903951E+03  0.50400001928E-02 0. -1.
        1   -1    0    0  501    0  0.00000000000E+00  0.00000000000E+00 -0.71709051369E+03  0.71709051371E+03  0.50400001928E-02 0.  1.
    10030    2    1    2    0    0  0.00000000000E+00  0.00000000000E+00 -0.29681474203E+02  0.14044995532E+04  0.14041858869E+04 0.  0.
        3    1    3    3  502    0 -0.64562626979E+03  0.11013682296E+03  0.23814083121E+03  0.69690348378E+03  0.10100000352E+00 0. -1.
       -3    1    3    3    0  502  0.64562626979E+03 -0.11013682296E+03 -0.26782230541E+03  0.70759606944E+03  0.10100000352E+00 0.  1.
</event>
<event>
 5   0  0.8502300E-04  0.1415525E+04  0.7818609E-02  0.8942657E-01
        1   -1    0    0  501    0  0.00000000000E+00  0.00000000000E+00  0.79940406817E+03  0.79940406818E+03  0.50400001928E-02 0. -1.
       -1   -1    0    0    0  501  0.00000000000E+00  0.00000000000E+00 -0.62662612695E+03  0.62662612697E+03  0.50400001928E-02 0.  1.
    10030    2    1    2    0    0  0.00000000000E+00  0.00000000000E+00  0.17277794121E+03  0.14260301952E+04  0.14155246026E+04 0.  0.
        4    1    3    3  502    0  0.52300721398E+03 -0.46940182614E+03  0.17098385642E+03  0.72326462123E+03  0.12699999809E+01 0. -1.
       -4    1    3    3    0  502 -0.52300721398E+03  0.46940182614E+03  0.17940847891E+01  0.70276557393E+03  0.12699999809E+01 0.  1.
</event>
<event>
 5   0  0.1648213E-03  0.1429030E+04  0.7818609E-02  0.8933069E-01
       -2   -1    0    0    0  501  0.00000000000E+00  0.00000000000E+00  0.44026110301E+03  0.44026110302E+03  0.25500000920E-02 0. -1.
        2   -1    0    0  501    0  0.00000000000E+00  0.00000000000E+00 -0.11596115723E+04  0.11596115723E+04  0.25500000920E-02 0.  1.
    10030    2    1    2    0    0  0.00000000000E+00  0.00000000000E+00 -0.71935046924E+03  0.15998726753E+04  0.14290302584E+04 0.  0.
        4    1    3    3  502    0 -0.47826559369E+03 -0.17433029875E+03  0.20166696462E+03  0.54754014345E+03  0.12699999809E+01 0. -1.
       -4    1    3    3    0  502  0.47826559369E+03  0.17433029875E+03 -0.92101743386E+03  0.10523325318E+04  0.12699999809E+01 0.  1.
</event>
<event>
 5   0  0.8502300E-04  0.1398662E+04  0.7818609E-02  0.8954788E-01
        1   -1    0    0  501    0  0.00000000000E+00  0.00000000000E+00  0.12905957257E+04  0.12905957258E+04  0.50400001928E-02 0. -1.
       -1   -1    0    0    0  501  0.00000000000E+00  0.00000000000E+00 -0.37894400743E+03  0.37894400747E+03  0.50400001928E-02 0.  1.
    10030    2    1    2    0    0  0.00000000000E+00  0.00000000000E+00  0.91165171831E+03  0.16695397332E+04  0.13986615264E+04 0.  0.
        4    1    3    3  502    0  0.68017352506E+03  0.11221002907E+03  0.59622692166E+03  0.91143582869E+03  0.12699999809E+01 0.  1.
       -4    1    3    3    0  502 -0.68017352506E+03 -0.11221002907E+03  0.31542479665E+03  0.75810390453E+03  0.12699999809E+01 0. -1.
</event>
<event>
 5   0  0.6048000E-04  0.1114354E+04  0.7818609E-02  0.9191314E-01
        4   -1    0    0  501    0  0.00000000000E+00  0.00000000000E+00  0.10646360685E+04  0.10646368260E+04  0.12699999809E+01 0. -1.
       -4   -1    0    0    0  501  0.00000000000E+00  0.00000000000E+00 -0.29159610181E+03  0.29159886743E+03  0.12699999809E+01 0.  1.
    10030    2    1    2    0    0  0.00000000000E+00  0.00000000000E+00  0.77303996673E+03  0.13562356935E+04  0.11143538334E+04 0.  0.
        1    1    3    3  502    0  0.24468421902E+03  0.44122247538E+03  0.98772161451E+02  0.51410463888E+03  0.50400001928E-02 0.  1.
       -1    1    3    3    0  502 -0.24468421902E+03 -0.44122247538E+03  0.67426780528E+03  0.84213105458E+03  0.50400001928E-02 0. -1.
</event>
<event>
 5   0  0.8673728E-04  0.1380628E+04  0.7818609E-02  0.8967962E-01
        1   -1    0    0  501    0  0.00000000000E+00  0.00000000000E+00  0.10881420754E+04  0.10881420754E+04  0.50400001928E-02 0.  1.
       -1   -1    0    0    0  501  0.00000000000E+00  0.00000000000E+00 -0.43793296224E+03  0.43793296227E+03  0.50400001928E-02 0. -1.
    10030    2    1    2    0    0  0.00000000000E+00  0.00000000000E+00  0.65020911314E+03  0.15260750377E+04  0.13806278028E+04 0.  0.
        3    1    3    3  502    0 -0.28996207907E+03 -0.48916079907E+03 -0.10750491305E+03  0.57871721175E+03  0.10100000352E+00 0. -1.
       -3    1    3    3    0  502  0.28996207907E+03  0.48916079907E+03  0.75771402619E+03  0.94735782592E+03  0.10100000352E+00 0.  1.
</event>
<event>
 5   0  0.1578965E-03  0.1407540E+04  0.7818609E-02  0.8948379E-01
        2   -1    0    0  501    0  0.00000000000E+00  0.00000000000E+00  0.15839089962E+04  0.15839089962E+04  0.25500000920E-02 0. -1.
       -2   -1    0    0    0  501  0.00000000000E+00  0.00000000000E+00 -0.31270232579E+03  0.31270232581E+03  0.25500000920E-02 0.  1.
    10030    2    1    2    0    0  0.00000000000E+00  0.00000000000E+00  0.12712066704E+04  0.18966113220E+04  0.14075397358E+04 0.  0.
        2    1    3    3  502    0 -0.18161035273E+03 -0.67767697422E+03  0.56102108159E+03  0.89831679023E+03  0.25500000920E-02 0.  1.
       -2    1    3    3    0  502  0.18161035273E+03  0.67767697422E+03  0.71018558878E+03  0.99829453175E+03  0.25500000920E-02 0. -1.
</event>
<event>
 5   0  0.1648213E-03  0.1170618E+04  0.7818609E-02  0.9138971E-01
        2   -1    0    0  501    0  0.00000000000E+00  0.00000000000E+00  0.11569237889E+04  0.11569237890E+04  0.25500000920E-02 0. -1.
       -2   -1    0    0    0  501  0.00000000000E+00  0.00000000000E+00 -0.29611835242E+03  0.29611835243E+03  0.25500000920E-02 0.  1.
    10030    2    1    2    0    0  0.00000000000E+00  0.00000000000E+00  0.86080543653E+03  0.14530421414E+04  0.11706175571E+04 0.  0.
        4    1    3    3  502    0  0.26644296479E+02 -0.41726300669E+03 -0.78009164649E+02  0.42532972851E+03  0.12699999809E+01 0.  1.
       -4    1    3    3    0  502 -0.26644296479E+02  0.41726300669E+03  0.93881460118E+03  0.10277124129E+04  0.12699999809E+01 0. -1.
</event>
<event>
 5   0  0.1578965E-03  0.1352474E+04  0.7818609E-02  0.8988957E-01
       -2   -1    0    0    0  501  0.00000000000E+00  0.00000000000E+00  0.24609459659E+03  0.24609459660E+03  0.25500000920E-02 0.  1.
        2   -1    0    0  501    0  0.00000000000E+00  0.00000000000E+00 -0.18582152222E+04  0.18582152222E+04  0.25500000920E-02 0. -1.
    10030    2    1    2    0    0  0.00000000000E+00  0.00000000000E+00 -0.16121206256E+04  0.21043098188E+04  0.13524743628E+04 0.  0.
        2    1    3    3  502    0 -0.27533318745E+03 -0.59982454401E+03 -0.57686840636E+03  0.87657002343E+03  0.25500000920E-02 0.  1.
       -2    1    3    3    0  502  0.27533318745E+03  0.59982454401E+03 -0.10352522193E+04  0.12277397954E+04  0.25500000920E-02 0. -1.
</event>
<event>
 5   0  0.8502300E-04  0.1409289E+04  0.7818609E-02  0.8947122E-01
       -1   -1    0    0    0  501  0.00000000000E+00  0.00000000000E+00  0.33182740751E+03  0.33182740755E+03  0.50400001928E-02 0. -1.
        1   -1    0    0  501    0  0.00000000000E+00  0.00000000000E+00 -0.14963311075E+04  0.14963311075E+04  0.50400001928E-02 0.  1.
    10030    2    1    2    0    0  0.00000000000E+00  0.00000000000E+00 -0.11645037000E+04  0.18281585150E+04  0.14092887174E+04 0.  0.
        4    1    3    3  502    0  0.59889099549E+03 -0.23158998213E+03 -0.20579465531E+03  0.67428287637E+03  0.12699999809E+01 0. -1.
       -4    1    3    3    0  502 -0.59889099549E+03  0.23158998213E+03 -0.95870904467E+03  0.11538756387E+04  0.12699999809E+01 0.  1.
</event>
<event>
 5   0  0.1605214E-03  0.1393845E+04  0.7818609E-02  0.8958286E-01
        2   -1    0    0  501    0  0.00000000000E+00  0.00000000000E+00  0.11971731271E+04  0.11971731271E+04  0.25500000920E-02 0.  1.
       -2   -1    0    0    0  501  0.00000000000E+00  0.00000000000E+00 -0.40570673709E+03  0.40570673710E+03  0.25500000920E-02 0. -1.
    10030    2    1    2    0    0  0.00000000000E+00  0.00000000000E+00  0.79146639002E+03  0.16028798642E+04  0.13938453331E+04 0.  0.
        5    1    3    3  502    0 -0.21280326551E+03  0.52607618784E+02  0.11564764416E+04  0.11770780099E+04  0.46999998093E+01 0.  1.
       -5    1    3    3    0  502  0.21280326551E+03 -0.52607618784E+02 -0.36501005160E+03  0.42580185431E+03  0.46999998093E+01 0. -1.
</event>
<event>
 5   0  0.9007180E-04  0.1401651E+04  0.7818609E-02  0.8952624E-01
        1   -1    0    0  501    0  0.00000000000E+00  0.00000000000E+00  0.80083533123E+03  0.80083533125E+03  0.50400001928E-02 0.  1.
       -1   -1    0    0    0  501  0.00000000000E+00  0.00000000000E+00 -0.61330525937E+03  0.61330525940E+03  0.50400001928E-02 0. -1.
    10030    2    1    2    0    0  0.00000000000E+00  0.00000000000E+00  0.18753007186E+03  0.14141405906E+04  0.14016511985E+04 0.  0.
        2    1    3    3  502    0  0.46979125237E+03 -0.51458036743E+03  0.16966666121E+03  0.71713565752E+03  0.25500000920E-02 0.  1.
       -2    1    3    3    0  502 -0.46979125237E+03  0.51458036743E+03  0.17863410643E+02  0.69700493312E+03  0.25500000920E-02 0. -1.
</event>
<event>
 5   0  0.9639548E-04  0.1388582E+04  0.7818609E-02  0.8962125E-01
        1   -1    0    0  501    0  0.00000000000E+00  0.00000000000E+00  0.10694130190E+04  0.10694130190E+04  0.50400001928E-02 0.  1.
       -1   -1    0    0    0  501  0.00000000000E+00  0.00000000000E+00 -0.45075223999E+03  0.45075224002E+03  0.50400001928E-02 0. -1.
    10030    2    1    2    0    0  0.00000000000E+00  0.00000000000E+00  0.61866077904E+03  0.15201652591E+04  0.13885824626E+04 0.  0.
        1    1    3    3  502    0  0.30941483930E+03 -0.54379665388E+03  0.63882961017E+03  0.89417873739E+03  0.50400001928E-02 0.  1.
       -1    1    3    3    0  502 -0.30941483930E+03  0.54379665388E+03 -0.20168831125E+02  0.62598652168E+03  0.50400001928E-02 0. -1.
</event>
<event>
 5   0  0.8609148E-04  0.1378582E+04  0.7818609E-02  0.8969469E-01
       -1   -1    0    0    0  501  0.00000000000E+00  0.00000000000E+00  0.14337841390E+04  0.14337841390E+04  0.50400001928E-02 0.  1.
        1   -1    0    0  501    0  0.00000000000E+00  0.00000000000E+00 -0.33137650998E+03  0.33137651002E+03  0.50400001928E-02 0. -1.
    10030    2    1    2    0    0  0.00000000000E+00  0.00000000000E+00  0.11024076290E+04  0.17651606490E+04  0.13785824372E+04 0.  0.
        5    1    3    3  502    0 -0.28226581471E+03  0.32726955809E+03  0.12387305460E+04  0.13119660092E+04  0.46999998093E+01 0.  1.
       -5    1    3    3    0  502  0.28226581471E+03 -0.32726955809E+03 -0.13632291701E+03  0.45319463976E+03  0.46999998093E+01 0. -1.
</event>
<event>
 5   0  0.8502300E-04  0.1421387E+04  0.7818609E-02  0.8938481E-01
       -1   -1    0    0    0  501  0.00000000000E+00  0.00000000000E+00  0.55681879668E+03  0.55681879670E+03  0.50400001928E-02 0. -1.
        1   -1    0    0  501    0  0.00000000000E+00  0.00000000000E+00 -0.90709140053E+03  0.90709140054E+03  0.50400001928E-02 0.  1.
    10030    2    1    2    0    0  0.00000000000E+00  0.00000000000E+00 -0.35027260385E+03  0.14639101972E+04  0.14213874098E+04 0.  0.
        4    1    3    3  502    0  0.24229154846E+03  0.21774266321E+03  0.47539827826E+03  0.57630044049E+03  0.12699999809E+01 0. -1.
       -4    1    3    3    0  502 -0.24229154846E+03 -0.21774266321E+03 -0.82567088211E+03  0.88760975676E+03  0.12699999809E+01 0.  1.
</event>
<event>
 5   0  0.1648463E-03  0.1399469E+04  0.7818609E-02  0.8954203E-01
        2   -1    0    0  501    0  0.00000000000E+00  0.00000000000E+00  0.10506172653E+04  0.10506172653E+04  0.25500000920E-02 0.  1.
       -2   -1    0    0    0  501  0.00000000000E+00  0.00000000000E+00 -0.46603844658E+03  0.46603844659E+03  0.25500000920E-02 0. -1.
    10030    2    1    2    0    0  0.00000000000E+00  0.00000000000E+00  0.58457881868E+03  0.15166557119E+04  0.13994685252E+04 0.  0.
        1    1    3    3  502    0 -0.25490452976E+03  0.55763162967E+03  0.65771721468E+03  0.89917811818E+03  0.50400001928E-02 0.  1.
       -1    1    3    3    0  502  0.25490452976E+03 -0.55763162967E+03 -0.73138396000E+02  0.61747759367E+03  0.50400001928E-02 0. -1.
</event>
<event>
 5   0  0.9639548E-04  0.1392980E+04  0.7818609E-02  0.8958916E-01
        1   -1    0    0  501    0  0.00000000000E+00  0.00000000000E+00  0.74811535006E+03  0.74811535008E+03  0.50400001928E-02 0. -1.
       -1   -1    0    0    0  501  0.00000000000E+00  0.00000000000E+00 -0.64842702428E+03  0.64842702430E+03  0.50400001928E-02 0.  1.
    10030    2    1    2    0    0  0.00000000000E+00  0.00000000000E+00  0.99688325778E+02  0.13965423744E+04  0.13929798423E+04 0.  0.
        1    1    3    3  502    0  0.32992385995E+03 -0.50284881639E+03 -0.30232550787E+03  0.67313252651E+03  0.50400001928E-02 0.  1.
       -1    1    3    3    0  502 -0.32992385995E+03  0.50284881639E+03  0.40201383365E+03  0.72340984786E+03  0.50400001928E-02 0. -1.
</event>
<event>
 5   0  0.1706986E-03  0.1432882E+04  0.7818609E-02  0.8930355E-01
       -2   -1    0    0    0  501  0.00000000000E+00  0.00000000000E+00  0.39608897731E+03  0.39608897731E+03  0.25500000920E-02 0. -1.
        2   -1    0    0  501    0  0.00000000000E+00  0.00000000000E+00 -0.12958903134E+04  0.12958903134E+04  0.25500000920E-02 0.  1.
    10030    2    1    2    0    0  0.00000000000E+00  0.00000000000E+00 -0.89980133607E+03  0.16919792907E+04  0.14328822268E+04 0.  0.
        3    1    3    3  502    0  0.70404919696E+03  0.12681320422E+03 -0.49595271112E+03  0.87048030556E+03  0.10100000352E+00 0. -1.
       -3    1    3    3    0  502 -0.70404919696E+03 -0.12681320422E+03 -0.40384862495E+03  0.82149898513E+03  0.10100000352E+00 0.  1.
</event>
<event>
 5   0  0.1648463E-03  0.1381736E+04  0.7818609E-02  0.8967146E-01
       -2   -1    0    0    0  501  0.00000000000E+00  0.00000000000E+00  0.10681217374E+04  0.10681217374E+04  0.25500000920E-02 0. -1.
        2   -1    0    0  501    0  0.00000000000E+00  0.00000000000E+00 -0.44685814626E+03  0.44685814626E+03  0.25500000920E-02 0.  1.
    10030    2    1    2    0    0  0.00000000000E+00  0.00000000000E+00  0.62126359111E+03  0.15149798836E+04  0.13817364431E+04 0.  0.
        1    1    3    3  502    0  0.21559560393E+03  0.15939270768E+03 -0.38748748466E+03  0.47120489227E+03  0.50400001928E-02 0.  1.
       -1    1    3    3    0  502 -0.21559560393E+03 -0.15939270768E+03  0.10087510758E+04  0.10437749914E+04  0.50400001928E-02 0. -1.
</event>
<event>
 5   0  0.1648463E-03  0.1404360E+04  0.7818609E-02  0.8950669E-01
       -2   -1    0    0    0  501  0.00000000000E+00  0.00000000000E+00  0.31312778254E+03  0.31312778255E+03  0.25500000920E-02 0.  1.
        2   -1    0    0  501    0  0.00000000000E+00  0.00000000000E+00 -0.15746173365E+04  0.15746173365E+04  0.25500000920E-02 0. -1.
    10030    2    1    2    0    0  0.00000000000E+00  0.00000000000E+00 -0.12614895540E+04  0.18877451191E+04  0.14043595479E+04 0.  0.
        1    1    3    3  502    0  0.16994154720E+03 -0.68081296265E+03 -0.59595053175E+03  0.92062123368E+03  0.50400001928E-02 0.  1.
       -1    1    3    3    0  502 -0.16994154720E+03  0.68081296265E+03 -0.66553902223E+03  0.96712388540E+03  0.50400001928E-02 0. -1.
</event>
<event>
 5   0  0.1605214E-03  0.1407484E+04  0.7818609E-02  0.8948419E-01
       -2   -1    0    0    0  501  0.00000000000E+00  0.00000000000E+00  0.49784080665E+03  0.49784080665E+03  0.25500000920E-02 0. -1.
        2   -1    0    0  501    0  0.00000000000E+00  0.00000000000E+00 -0.99480111243E+03  0.99480111244E+03  0.25500000920E-02 0.  1.
    10030    2    1    2    0    0  0.00000000000E+00  0.00000000000E+00 -0.49696030579E+03  0.14926419191E+04  0.14074836955E+04 0.  0.
        5    1    3    3  502    0  0.43386635210E+03  0.27640923495E+03 -0.75773012018E+03  0.91587067956E+03  0.46999998093E+01 0.  1.
       -5    1    3    3    0  502 -0.43386635210E+03 -0.27640923495E+03  0.26076981439E+03  0.57677123953E+03  0.46999998093E+01 0. -1.
</event>
<event>
 5   0  0.8609148E-04  0.1384136E+04  0.7818609E-02  0.8965382E-01
        1   -1    0    0  501    0  0.00000000000E+00  0.00000000000E+00  0.12082321888E+04  0.12082321888E+04  0.50400001928E-02 0.  1.
       -1   -1    0    0    0  501  0.00000000000E+00  0.00000000000E+00 -0.39641258637E+03  0.39641258640E+03  0.50400001928E-02 0. -1.
    10030    2    1    2    0    0  0.00000000000E+00  0.00000000000E+00  0.81181960242E+03  0.16046447752E+04  0.13841364773E+04 0.  0.
        5    1    3    3  502    0  0.68490012223E+03  0.75964994595E+02  0.47993795677E+03  0.83977460677E+03  0.46999998093E+01 0. -1.
       -5    1    3    3    0  502 -0.68490012223E+03 -0.75964994595E+02  0.33188164565E+03  0.76487016843E+03  0.46999998093E+01 0.  1.
</event>
<event>
 5   0  0.1706986E-03  0.1442273E+04  0.7818609E-02  0.8923775E-01
       -2   -1    0    0    0  501  0.00000000000E+00  0.00000000000E+00  0.54216902790E+03  0.54216902791E+03  0.25500000920E-02 0.  1.
        2   -1    0    0  501    0  0.00000000000E+00  0.00000000000E+00 -0.95917976443E+03  0.95917976444E+03  0.25500000920E-02 0. -1.
    10030    2    1    2    0    0  0.00000000000E+00  0.00000000000E+00 -0.41701073653E+03  0.15013487923E+04  0.14422725963E+04 0.  0.
        3    1    3    3  502    0  0.16921025740E+03  0.45057215720E+03  0.35051093487E+03  0.59540348145E+03  0.10100000352E+00 0.  1.
       -3    1    3    3    0  502 -0.16921025740E+03 -0.45057215720E+03 -0.76752167140E+03  0.90594531089E+03  0.10100000352E+00 0. -1.
</event>
<event>
 5   0  0.9007180E-04  0.1393205E+04  0.7818609E-02  0.8958752E-01
       -1   -1    0    0    0  501  0.00000000000E+00  0.00000000000E+00  0.70085958640E+03  0.70085958642E+03  0.50400001928E-02 0.  1.
        1   -1    0    0  501    0  0.00000000000E+00  0.00000000000E+00 -0.69237164868E+03  0.69237164870E+03  0.50400001928E-02 0. -1.
    10030    2    1    2    0    0  0.00000000000E+00  0.00000000000E+00  0.84879377173E+01  0.13932312351E+04  0.13932053795E+04 0.  0.
        2    1    3    3  502    0  0.26909646510E+03 -0.62453994027E+03  0.15521783682E+03  0.69753539079E+03  0.25500000920E-02 0. -1.
       -2    1    3    3    0  502 -0.26909646510E+03  0.62453994027E+03 -0.14672989911E+03  0.69569584433E+03  0.25500000920E-02 0.  1.
</event>
<event>
 5   0  0.9639548E-04  0.1406373E+04  0.7818609E-02  0.8949218E-01
        1   -1    0    0  501    0  0.00000000000E+00  0.00000000000E+00  0.62351150589E+03  0.62351150592E+03  0.50400001928E-02 0.  1.
       -1   -1    0    0    0  501  0.00000000000E+00  0.00000000000E+00 -0.79304292270E+03  0.79304292271E+03  0.50400001928E-02 0. -1.
    10030    2    1    2    0    0  0.00000000000E+00  0.00000000000E+00 -0.16953141680E+03  0.14165544286E+04  0.14063731894E+04 0.  0.
        1    1    3    3  502    0 -0.45141370451E+03 -0.31843311160E+03 -0.52299865102E+03  0.76072437070E+03  0.50400001928E-02 0. -1.
       -1    1    3    3    0  502  0.45141370451E+03  0.31843311160E+03  0.35346723422E+03  0.65583005793E+03  0.50400001928E-02 0.  1.
</event>
<event>
 5   0  0.8673728E-04  0.1395417E+04  0.7818609E-02  0.8957142E-01
       -1   -1    0    0    0  501  0.00000000000E+00  0.00000000000E+00  0.49376552954E+03  0.49376552957E+03  0.50400001928E-02 0. -1.
        1   -1    0    0  501    0  0.00000000000E+00  0.00000000000E+00 -0.98588763245E+03  0.98588763246E+03  0.50400001928E-02 0.  1.
    10030    2    1    2    0    0  0.00000000000E+00  0.00000000000E+00 -0.49212210291E+03  0.14796531620E+04  0.13954172551E+04 0.  0.
        3    1    3    3  502    0  0.14911622135E+03 -0.67044980767E+03 -0.37618282159E+03  0.78310415497E+03  0.10100000352E+00 0. -1.
       -3    1    3    3    0  502 -0.14911622135E+03  0.67044980767E+03 -0.11593928131E+03  0.69654900705E+03  0.10100000352E+00 0.  1.
</event>
<event>
 5   0  0.8673728E-04  0.1411651E+04  0.7818609E-02  0.8945428E-01
        1   -1    0    0  501    0  0.00000000000E+00  0.00000000000E+00  0.46515825596E+03  0.46515825599E+03  0.50400001928E-02 0. -1.
       -1   -1    0    0    0  501  0.00000000000E+00  0.00000000000E+00 -0.10710114236E+04  0.10710114236E+04  0.50400001928E-02 0.  1.
    10030    2    1    2    0    0  0.00000000000E+00  0.00000000000E+00 -0.60585316760E+03  0.15361696796E+04  0.14116512401E+04 0.  0.
        3    1    3    3  502    0 -0.16825339842E+03  0.30797170181E+03  0.36349201294E+03  0.50525461786E+03  0.10100000352E+00 0. -1.
       -3    1    3    3    0  502  0.16825339842E+03 -0.30797170181E+03 -0.96934518054E+03  0.10309150617E+04  0.10100000352E+00 0.  1.
</event>
<event>
 5   0  0.1578965E-03  0.1411169E+04  0.7818609E-02  0.8945774E-01
       -2   -1    0    0    0  501  0.00000000000E+00  0.00000000000E+00  0.66336842964E+03  0.66336842964E+03  0.25500000920E-02 0. -1.
        2   -1    0    0  501    0  0.00000000000E+00  0.00000000000E+00 -0.75048663804E+03  0.75048663805E+03  0.25500000920E-02 0.  1.
    10030    2    1    2    0    0  0.00000000000E+00  0.00000000000E+00 -0.87118208405E+02  0.14138550677E+04  0.14111685123E+04 0.  0.
        2    1    3    3  502    0  0.12879791284E+02 -0.17195946130E+02  0.66304063349E+03  0.66338862762E+03  0.25500000920E-02 0. -1.
       -2    1    3    3    0  502 -0.12879791284E+02  0.17195946130E+02 -0.75015884190E+03  0.75046644007E+03  0.25500000920E-02 0.  1.
</event>
<event>
 5   0  0.8609148E-04  0.1400949E+04  0.7818609E-02  0.8953132E-01
        1   -1    0    0  501    0  0.00000000000E+00  0.00000000000E+00  0.40401585029E+03  0.40401585033E+03  0.50400001928E-02 0.  1.
       -1   -1    0    0    0  501  0.00000000000E+00  0.00000000000E+00 -0.12144687282E+04  0.12144687282E+04  0.50400001928E-02 0. -1.
    10030    2    1    2    0    0  0.00000000000E+00  0.00000000000E+00 -0.81045287793E+03  0.16184845786E+04  0.14009491296E+04 0.  0.
        5    1    3    3  502    0  0.40746121664E+02  0.66655230238E+03 -0.16099989024E+03  0.68694633916E+03  0.46999998093E+01 0.  1.
       -5    1    3    3    0  502 -0.40746121664E+02 -0.66655230238E+03 -0.64945298770E+03  0.93153823940E+03  0.46999998093E+01 0. -1.
</event>
<event>
 5   0  0.1605214E-03  0.1408797E+04  0.7818609E-02  0.8947475E-01
       -2   -1    0    0    0  501  0.00000000000E+00  0.00000000000E+00  0.37859681395E+03  0.37859681396E+03  0.25500000920E-02 0.  1.
        2   -1    0    0  501    0  0.00000000000E+00  0.00000000000E+00 -0.13105687753E+04  0.13105687753E+04  0.25500000920E-02 0. -1.
    10030    2    1    2    0    0  0.00000000000E+00  0.00000000000E+00 -0.93197196131E+03  0.16891655892E+04  0.14087968807E+04 0.  0.
        5    1    3    3  502    0  0.42729993340E+03  0.38362491669E+03 -0.95509177277E+03  0.11144396324E+04  0.46999998093E+01 0. -1.
       -5    1    3    3    0  502 -0.42729993340E+03 -0.38362491669E+03  0.23119811457E+02  0.57472595685E+03  0.46999998093E+01 0.  1.
</event>
<event>
 5   0  0.9007180E-04  0.1419161E+04  0.7818609E-02  0.8940064E-01
        1   -1    0    0  501    0  0.00000000000E+00  0.00000000000E+00  0.65727400740E+03  0.65727400742E+03  0.50400001928E-02 0. -1.
       -1   -1    0    0    0  501  0.00000000000E+00  0.00000000000E+00 -0.76605004194E+03  0.76605004195E+03  0.50400001928E-02 0.  1.
    10030    2    1    2    0    0  0.00000000000E+00  0.00000000000E+00 -0.10877603454E+03  0.14233240494E+04  0.14191614157E+04 0.  0.
        2    1    3    3  502    0 -0.51923744589E+03 -0.47201928637E+03 -0.16003001501E+03  0.71973560259E+03  0.25500000920E-02 0.  1.
       -2    1    3    3    0  502  0.51923744589E+03  0.47201928637E+03  0.51253980474E+02  0.70358844678E+03  0.25500000920E-02 0. -1.
</event>
<event>
 5   0  0.6048000E-04  0.1355236E+04  0.7818609E-02  0.8986874E-01
        4   -1    0    0  501    0  0.00000000000E+00  0.00000000000E+00  0.91869419582E+03  0.91869507364E+03  0.12699999809E+01 0.  1.
       -4   -1    0    0    0  501  0.00000000000E+00  0.00000000000E+00 -0.49980101317E+03  0.49980262671E+03  0.12699999809E+01 0. -1.
    10030    2    1    2    0    0  0.00000000000E+00  0.00000000000E+00  0.41889318265E+03  0.14184977004E+04  0.13552358568E+04 0.  0.
        5    1    3    3  502    0 -0.55157153489E+03 -0.13517868118E+02 -0.20227261016E+03  0.58766503187E+03  0.46999998093E+01 0. -1.
       -5    1    3    3    0  502  0.55157153489E+03  0.13517868118E+02  0.62116579281E+03  0.83083266848E+03  0.46999998093E+01 0.  1.
</event>
<event>
 5   0  0.9639548E-04  0.1405271E+04  0.7818609E-02  0.8950012E-01
       -1   -1    0    0    0  501  0.00000000000E+00  0.00000000000E+00  0.31284419323E+03  0.31284419327E+03  0.50400001928E-02 0. -1.
        1   -1    0    0  501    0  0.00000000000E+00  0.00000000000E+00 -0.15780914529E+04  0.15780914529E+04  0.50400001928E-02 0.  1.
    10030    2    1    2    0    0  0.00000000000E+00  0.00000000000E+00 -0.12652472596E+04  0.18909356461E+04  0.14052711446E+04 0.  0.
        1    1    3    3  502    0 -0.28313704389E+03 -0.50833202256E+02  0.22997562134E+03  0.36829252845E+03  0.50400001928E-02 0. -1.
       -1    1    3    3    0  502  0.28313704389E+03  0.50833202256E+02 -0.14952228810E+04  0.15226431177E+04  0.50400001928E-02 0.  1.
</event>
<event>
 5   0  0.9007180E-04  0.1527512E+04  0.7818609E-02  0.8866361E-01
        1   -1    0    0  501    0  0.00000000000E+00  0.00000000000E+00  0.20817051602E+04  0.20817051602E+04  0.50400001928E-02 0. -1.
       -1   -1    0    0    0  501  0.00000000000E+00  0.00000000000E+00 -0.28021411103E+03  0.28021411107E+03  0.50400001928E-02 0.  1.
    10030    2    1    2    0    0  0.00000000000E+00  0.00000000000E+00  0.18014910491E+04  0.23619192713E+04  0.15275119128E+04 0.  0.
        2    1    3    3  502    0 -0.32012500225E+03 -0.38249419497E+03  0.17950910456E+04  0.18630978741E+04  0.25500000920E-02 0. -1.
       -2    1    3    3    0  502  0.32012500225E+03  0.38249419497E+03  0.64000035251E+01  0.49882139719E+03  0.25500000920E-02 0.  1.
</event>
<event>
 5   0  0.1648463E-03  0.1420513E+04  0.7818609E-02  0.8939102E-01
        2   -1    0    0  501    0  0.00000000000E+00  0.00000000000E+00  0.11853925377E+04  0.11853925377E+04  0.25500000920E-02 0. -1.
       -2   -1    0    0    0  501  0.00000000000E+00  0.00000000000E+00 -0.42556754059E+03  0.42556754060E+03  0.25500000920E-02 0.  1.
    10030    2    1    2    0    0  0.00000000000E+00  0.00000000000E+00  0.75982499714E+03  0.16109600783E+04  0.14205134099E+04 0.  0.
        1    1    3    3  502    0 -0.15476802139E+03  0.64518732375E+03  0.66735984805E+03  0.94105737869E+03  0.50400001928E-02 0. -1.
       -1    1    3    3    0  502  0.15476802139E+03 -0.64518732375E+03  0.92465149089E+02  0.66990269965E+03  0.50400001928E-02 0.  1.
</event>
<event>
 5   0  0.1648463E-03  0.1395113E+04  0.7818609E-02  0.8957364E-01
       -2   -1    0    0    0  501  0.00000000000E+00  0.00000000000E+00  0.31942070508E+03  0.31942070509E+03  0.25500000920E-02 0. -1.
        2   -1    0    0  501    0  0.00000000000E+00  0.00000000000E+00 -0.15233350499E+04  0.15233350499E+04  0.25500000920E-02 0.  1.
    10030    2    1    2    0    0  0.00000000000E+00  0.00000000000E+00 -0.12039143448E+04  0.18427557550E+04  0.13951125485E+04 0.  0.
        1    1    3    3  502    0  0.28451238547E+03  0.61954895498E+03 -0.79696516698E+03  0.10487810460E+04  0.50400001928E-02 0. -1.
       -1    1    3    3    0  502 -0.28451238547E+03 -0.61954895498E+03 -0.40694917783E+03  0.79397470896E+03  0.50400001928E-02 0.  1.
</event>
<event>
 5   0  0.6048000E-04  0.1374999E+04  0.7818609E-02  0.8972117E-01
        3   -1    0    0  501    0  0.00000000000E+00  0.00000000000E+00  0.16685651611E+04  0.16685651642E+04  0.10100000352E+00 0.  1.
       -3   -1    0    0    0  501  0.00000000000E+00  0.00000000000E+00 -0.28327060450E+03  0.28327062250E+03  0.10100000352E+00 0. -1.
    10030    2    1    2    0    0  0.00000000000E+00  0.00000000000E+00  0.13852945566E+04  0.19518357867E+04  0.13749988835E+04 0.  0.
        3    1    3    3  502    0 -0.51898273151E+03  0.26830208739E+03  0.17822836428E+03  0.61081457558E+03  0.10100000352E+00 0.  1.
       -3    1    3    3    0  502  0.51898273151E+03 -0.26830208739E+03  0.12070661923E+04  0.13410212111E+04  0.10100000352E+00 0. -1.
</event>
<event>
 5   0  0.8502300E-04  0.1335107E+04  0.7818609E-02  0.9002179E-01
        1   -1    0    0  501    0  0.00000000000E+00  0.00000000000E+00  0.46768007851E+03  0.46768007854E+03  0.50400001928E-02 0.  1.
       -1   -1    0    0    0  501  0.00000000000E+00  0.00000000000E+00 -0.95284690044E+03  0.95284690045E+03  0.50400001928E-02 0. -1.
    10030    2    1    2    0    0  0.00000000000E+00  0.00000000000E+00 -0.48516682193E+03  0.14205269790E+04  0.13351067571E+04 0.  0.
        4    1    3    3  502    0 -0.35484538181E+03  0.54762531146E+03 -0.39236359137E+03  0.76141941627E+03  0.12699999809E+01 0.  1.
       -4    1    3    3    0  502  0.35484538181E+03 -0.54762531146E+03 -0.92803230562E+02  0.65910756272E+03  0.12699999809E+01 0. -1.
</event>
<event>
 5   0  0.1605214E-03  0.1366881E+04  0.7818609E-02  0.8978147E-01
       -2   -1    0    0    0  501  0.00000000000E+00  0.00000000000E+00  0.57195591382E+03  0.57195591383E+03  0.25500000920E-02 0. -1.
        2   -1    0    0  501    0  0.00000000000E+00  0.00000000000E+00 -0.81665503211E+03  0.81665503212E+03  0.25500000920E-02 0.  1.
    10030    2    1    2    0    0  0.00000000000E+00  0.00000000000E+00 -0.24469911829E+03  0.13886109459E+04  0.13668806461E+04 0.  0.
        5    1    3    3  502    0 -0.31374052634E+03  0.55399400776E+03  0.13004758265E+03  0.64982839447E+03  0.46999998093E+01 0. -1.
       -5    1    3    3    0  502  0.31374052634E+03 -0.55399400776E+03 -0.37474670094E+03  0.73878255148E+03  0.46999998093E+01 0.  1.
</event>
<event>
 5   0  0.8609148E-04  0.1364540E+04  0.7818609E-02  0.8979894E-01
       -1   -1    0    0    0  501  0.00000000000E+00  0.00000000000E+00  0.77093813960E+03  0.77093813962E+03  0.50400001928E-02 0. -1.
        1   -1    0    0  501    0  0.00000000000E+00  0.00000000000E+00 -0.60380028232E+03  0.60380028234E+03  0.50400001928E-02 0.  1.
    10030    2    1    2    0    0  0.00000000000E+00  0.00000000000E+00  0.16713785728E+03  0.13747384220E+04  0.13645404594E+04 0.  0.
        5    1    3    3  502    0  0.64449515870E+03 -0.12064091465E+03 -0.10636678835E+03  0.66427721889E+03  0.46999998093E+01 0.  1.
       -5    1    3    3    0  502 -0.64449515870E+03  0.12064091465E+03  0.27350464564E+03  0.71046120306E+03  0.46999998093E+01 0. -1.
</event>
<event>
 5   0  0.9007180E-04  0.1369940E+04  0.7818609E-02  0.8975869E-01
       -1   -1    0    0    0  501  0.00000000000E+00  0.00000000000E+00  0.38724155030E+03  0.38724155034E+03  0.50400001928E-02 0.  1.
        1   -1    0    0  501    0  0.00000000000E+00  0.00000000000E+00 -0.12116057573E+04  0.12116057573E+04  0.50400001928E-02 0. -1.
    10030    2    1    2    0    0  0.00000000000E+00  0.00000000000E+00 -0.82436420698E+03  0.15988473076E+04  0.13699402788E+04 0.  0.
        2    1    3    3  502    0 -0.46204525584E+03  0.50487703225E+03 -0.44513993573E+03  0.81641668192E+03  0.25500000920E-02 0. -1.
       -2    1    3    3    0  502  0.46204525584E+03 -0.50487703225E+03 -0.37922427125E+03  0.78243062571E+03  0.25500000920E-02 0.  1.
</event>
<event>
 5   0  0.1605214E-03  0.1288594E+04  0.7818609E-02  0.9038660E-01
       -2   -1    0    0    0  501  0.00000000000E+00  0.00000000000E+00  0.57664788348E+03  0.57664788348E+03  0.25500000920E-02 0. -1.
        2   -1    0    0  501    0  0.00000000000E+00  0.00000000000E+00 -0.71988214240E+03  0.71988214241E+03  0.25500000920E-02 0.  1.
    10030    2    1    2    0    0  0.00000000000E+00  0.00000000000E+00 -0.14323425893E+03  0.12965300259E+04  0.12885938286E+04 0.  0.
        5    1    3    3  502    0  0.21925034804E+03  0.30208267707E+03  0.45675686104E+03  0.58989285383E+03  0.46999998093E+01 0. -1.
       -5    1    3    3    0  502 -0.21925034804E+03 -0.30208267707E+03 -0.59999111996E+03  0.70663717206E+03  0.46999998093E+01 0.  1.
</event>
<event>
 5   0  0.1648463E-03  0.1310103E+04  0.7818609E-02  0.9021592E-01
        2   -1    0    0  501    0  0.00000000000E+00  0.00000000000E+00  0.15964239384E+04  0.15964239384E+04  0.25500000920E-02 0. -1.
       -2   -1    0    0    0  501  0.00000000000E+00  0.00000000000E+00 -0.26878344606E+03  0.26878344607E+03  0.25500000920E-02 0.  1.
    10030    2    1    2    0    0  0.00000000000E+00  0.00000000000E+00  0.13276404923E+04  0.18652073845E+04  0.13101027861E+04 0.  0.
        1    1    3    3  502    0  0.49465005303E+03 -0.29375267591E+02  0.53862384612E+02  0.49844030517E+03  0.50400001928E-02 0.  1.
       -1    1    3    3    0  502 -0.49465005303E+03  0.29375267591E+02  0.12737781077E+04  0.13667670793E+04  0.50400001928E-02 0. -1.
</event>
<event>
 5   0  0.9007180E-04  0.1344176E+04  0.7818609E-02  0.8995248E-01
       -1   -1    0    0    0  501  0.00000000000E+00  0.00000000000E+00  0.90798774138E+03  0.90798774139E+03  0.50400001928E-02 0.  1.
        1   -1    0    0  501    0  0.00000000000E+00  0.00000000000E+00 -0.49747630765E+03  0.49747630768E+03  0.50400001928E-02 0. -1.
    10030    2    1    2    0    0  0.00000000000E+00  0.00000000000E+00  0.41051143373E+03  0.14054640491E+04  0.13441761626E+04 0.  0.
        2    1    3    3  502    0  0.26758752924E+03 -0.59883075886E+03  0.35857371432E+03  0.74751352641E+03  0.25500000920E-02 0. -1.
       -2    1    3    3    0  502 -0.26758752924E+03  0.59883075886E+03  0.51937719411E+02  0.65795052266E+03  0.25500000920E-02 0.  1.
</event>
<event>
 5   0  0.6048000E-04  0.1384307E+04  0.7818609E-02  0.8965257E-01
       -3   -1    0    0    0  501  0.00000000000E+00  0.00000000000E+00  0.11144357827E+04  0.11144357872E+04  0.10100000352E+00 0. -1.
        3   -1    0    0  501    0  0.00000000000E+00  0.00000000000E+00 -0.42988221542E+03  0.42988222729E+03  0.10100000352E+00 0.  1.
    10030    2    1    2    0    0  0.00000000000E+00  0.00000000000E+00  0.68455356723E+03  0.15443180145E+04  0.13843065208E+04 0.  0.
        2    1    3    3  502    0  0.15254640369E+03  0.46550239597E+03 -0.20323771037E+03  0.53034748313E+03  0.25500000920E-02 0.  1.
       -2    1    3    3    0  502 -0.15254640369E+03 -0.46550239597E+03  0.88779127760E+03  0.10139705314E+04  0.25500000920E-02 0. -1.
</event>
<event>
 5   0  0.8673728E-04  0.1354195E+04  0.7818609E-02  0.8987658E-01
        1   -1    0    0  501    0  0.00000000000E+00  0.00000000000E+00  0.29107240045E+03  0.29107240049E+03  0.50400001928E-02 0.  1.
       -1   -1    0    0    0  501  0.00000000000E+00  0.00000000000E+00 -0.15750765537E+04  0.15750765537E+04  0.50400001928E-02 0. -1.
    10030    2    1    2    0    0  0.00000000000E+00  0.00000000000E+00 -0.12840041532E+04  0.18661489542E+04  0.13541954267E+04 0.  0.
        3    1    3    3  502    0 -0.10933991313E+03  0.64648507331E+02  0.27450647078E+03  0.30247059164E+03  0.10100000352E+00 0.  1.
       -3    1    3    3    0  502  0.10933991313E+03 -0.64648507331E+02 -0.15585106240E+04  0.15636783625E+04  0.10100000352E+00 0. -1.
</event>
<event>
 5   0  0.8673728E-04  0.1320168E+04  0.7818609E-02  0.9013723E-01
       -1   -1    0    0    0  501  0.00000000000E+00  0.00000000000E+00  0.11921829507E+04  0.11921829507E+04  0.50400001928E-02 0.  1.
        1   -1    0    0  501    0  0.00000000000E+00  0.00000000000E+00 -0.36547300877E+03  0.36547300881E+03  0.50400001928E-02 0. -1.
    10030    2    1    2    0    0  0.00000000000E+00  0.00000000000E+00  0.82670994189E+03  0.15576559595E+04  0.13201677015E+04 0.  0.
        3    1    3    3  502    0  0.23949237293E+03  0.26494558820E+03  0.10683365767E+04  0.11264527565E+04  0.10100000352E+00 0.  1.
       -3    1    3    3    0  502 -0.23949237293E+03 -0.26494558820E+03 -0.24162663479E+03  0.43120320296E+03  0.10100000352E+00 0. -1.
</event>
<event>
 5   0  0.8609148E-04  0.1399505E+04  0.7818609E-02  0.8954177E-01
       -1   -1    0    0    0  501  0.00000000000E+00  0.00000000000E+00  0.48559503812E+03  0.48559503814E+03  0.50400001928E-02 0. -1.
        1   -1    0    0  501    0  0.00000000000E+00  0.00000000000E+00 -0.10083584857E+04  0.10083584857E+04  0.50400001928E-02 0.  1.
    10030    2    1    2    0    0  0.00000000000E+00  0.00000000000E+00 -0.52276344759E+03  0.14939535239E+04  0.13995054517E+04 0.  0.
        5    1    3    3  502    0  0.51505109123E+03  0.45299791880E+03 -0.40909291022E+03  0.79866378420E+03  0.46999998093E+01 0.  1.
       -5    1    3    3    0  502 -0.51505109123E+03 -0.45299791880E+03 -0.11367053737E+03  0.69528973966E+03  0.46999998093E+01 0. -1.
</event>
<event>
 5   0  0.8502300E-04  0.1385005E+04  0.7818609E-02  0.8964745E-01
        1   -1    0    0  501    0  0.00000000000E+00  0.00000000000E+00  0.10977480303E+04  0.10977480303E+04  0.50400001928E-02 0. -1.
       -1   -1    0    0    0  501  0.00000000000E+00  0.00000000000E+00 -0.43685771118E+03  0.43685771121E+03  0.50400001928E-02 0.  1.
    10030    2    1    2    0    0  0.00000000000E+00  0.00000000000E+00  0.66089031908E+03  0.15346057415E+04  0.13850049704E+04 0.  0.
        4    1    3    3  502    0  0.11944652325E+03 -0.28213006930E+03 -0.35767850795E+03  0.47095687262E+03  0.12699999809E+01 0.  1.
       -4    1    3    3    0  502 -0.11944652325E+03  0.28213006930E+03  0.10185688270E+04  0.10636488689E+04  0.12699999809E+01 0. -1.
</event>
<event>
 5   0  0.8609148E-04  0.1394802E+04  0.7818609E-02  0.8957590E-01
        1   -1    0    0  501    0  0.00000000000E+00  0.00000000000E+00  0.93807395252E+03  0.93807395253E+03  0.50400001928E-02 0. -1.
       -1   -1    0    0    0  501  0.00000000000E+00  0.00000000000E+00 -0.51847547350E+03  0.51847547352E+03  0.50400001928E-02 0.  1.
    10030    2    1    2    0    0  0.00000000000E+00  0.00000000000E+00  0.41959847902E+03  0.14565494261E+04  0.13948022609E+04 0.  0.
        5    1    3    3  502    0 -0.54486047634E+03 -0.37554275823E+03 -0.20037200573E+02  0.66206410667E+03  0.46999998093E+01 0.  1.
       -5    1    3    3    0  502  0.54486047634E+03  0.37554275823E+03  0.43963567959E+03  0.79448531938E+03  0.46999998093E+01 0. -1.
</event>
<event>
 5   0  0.1648213E-03  0.1417244E+04  0.7818609E-02  0.8941430E-01
       -2   -1    0    0    0  501  0.00000000000E+00  0.00000000000E+00  0.88160561772E+03  0.88160561772E+03  0.25500000920E-02 0. -1.
        2   -1    0    0  501    0  0.00000000000E+00  0.00000000000E+00 -0.56958016351E+03  0.56958016352E+03  0.25500000920E-02 0.  1.
    10030    2    1    2    0    0  0.00000000000E+00  0.00000000000E+00  0.31202545421E+03  0.14511857812E+04  0.14172439055E+04 0.  0.
        4    1    3    3  502    0 -0.44084471897E+03 -0.13519825610E+03 -0.39494505247E+03  0.60712918071E+03  0.12699999809E+01 0.  1.
       -4    1    3    3    0  502  0.44084471897E+03  0.13519825610E+03  0.70697050667E+03  0.84405660054E+03  0.12699999809E+01 0. -1.
</event>
<event>
 5   0  0.8609148E-04  0.1381884E+04  0.7818609E-02  0.8967037E-01
       -1   -1    0    0    0  501  0.00000000000E+00  0.00000000000E+00  0.45558077028E+03  0.45558077031E+03  0.50400001928E-02 0.  1.
        1   -1    0    0  501    0  0.00000000000E+00  0.00000000000E+00 -0.10478957827E+04  0.10478957827E+04  0.50400001928E-02 0. -1.
    10030    2    1    2    0    0  0.00000000000E+00  0.00000000000E+00 -0.59231501246E+03  0.15034765531E+04  0.13818844639E+04 0.  0.
        5    1    3    3  502    0  0.23873001311E+03 -0.60729195363E+03 -0.49053091550E+02  0.65438813551E+03  0.46999998093E+01 0.  1.
       -5    1    3    3    0  502 -0.23873001311E+03  0.60729195363E+03 -0.54326192091E+03  0.84908841755E+03  0.46999998093E+01 0. -1.
</event>
<event>
 5   0  0.1706986E-03  0.1434291E+04  0.7818609E-02  0.8929364E-01
        2   -1    0    0  501    0  0.00000000000E+00  0.00000000000E+00  0.11969532056E+04  0.11969532056E+04  0.25500000920E-02 0.  1.
       -2   -1    0    0    0  501  0.00000000000E+00  0.00000000000E+00 -0.42967261965E+03  0.42967261966E+03  0.25500000920E-02 0. -1.
    10030    2    1    2    0    0  0.00000000000E+00  0.00000000000E+00  0.76728058594E+03  0.16266258253E+04  0.14342914898E+04 0.  0.
        3    1    3    3  502    0 -0.49775894470E+03 -0.45609561616E+03  0.10931340599E+03  0.68391272033E+03  0.10100000352E+00 0. -1.
       -3    1    3    3    0  502  0.49775894470E+03  0.45609561616E+03  0.65796717996E+03  0.94271310493E+03  0.10100000352E+00 0.  1.
</event>
<event>
 5   0  0.1706986E-03  0.1406941E+04  0.7818609E-02  0.8948810E-01
       -2   -1    0    0    0  501  0.00000000000E+00  0.00000000000E+00  0.32709421295E+03  0.32709421296E+03  0.25500000920E-02 0.  1.
        2   -1    0    0  501    0  0.00000000000E+00  0.00000000000E+00 -0.15129303719E+04  0.15129303719E+04  0.25500000920E-02 0. -1.
    10030    2    1    2    0    0  0.00000000000E+00  0.00000000000E+00 -0.11858361590E+04  0.18400245849E+04  0.14069410354E+04 0.  0.
        3    1    3    3  502    0 -0.27942739236E+03  0.57967239041E+03 -0.96460346850E+03  0.11595514691E+04  0.10100000352E+00 0. -1.
       -3    1    3    3    0  502  0.27942739236E+03 -0.57967239041E+03 -0.22123269049E+03  0.68047311582E+03  0.10100000352E+00 0.  1.
</event>
<event>
 5   0  0.9007180E-04  0.1358321E+04  0.7818609E-02  0.8984553E-01
       -1   -1    0    0    0  501  0.00000000000E+00  0.00000000000E+00  0.28277174932E+03  0.28277174936E+03  0.50400001928E-02 0.  1.
        1   -1    0    0  501    0  0.00000000000E+00  0.00000000000E+00 -0.16312065717E+04  0.16312065717E+04  0.50400001928E-02 0. -1.
    10030    2    1    2    0    0  0.00000000000E+00  0.00000000000E+00 -0.13484348224E+04  0.19139783211E+04  0.13583212224E+04 0.  0.
        2    1    3    3  502    0 -0.13672066705E+02  0.28191296590E+03 -0.15446540618E+04  0.15702286510E+04  0.25500000920E-02 0. -1.
       -2    1    3    3    0  502  0.13672066705E+02 -0.28191296590E+03  0.19621923942E+03  0.34374967007E+03  0.25500000920E-02 0.  1.
</event>
<event>
 5   0  0.1605214E-03  0.1377977E+04  0.7818609E-02  0.8969916E-01
        2   -1    0    0  501    0  0.00000000000E+00  0.00000000000E+00  0.76032923429E+03  0.76032923429E+03  0.25500000920E-02 0. -1.
       -2   -1    0    0    0  501  0.00000000000E+00  0.00000000000E+00 -0.62434181803E+03  0.62434181803E+03  0.25500000920E-02 0.  1.
    10030    2    1    2    0    0  0.00000000000E+00  0.00000000000E+00  0.13598741626E+03  0.13846710523E+04  0.13779772661E+04 0.  0.
        5    1    3    3  502    0  0.39187694935E+03  0.32055108177E+03 -0.40156921243E+03  0.64622013419E+03  0.46999998093E+01 0.  1.
       -5    1    3    3    0  502 -0.39187694935E+03 -0.32055108177E+03  0.53755662869E+03  0.73845091814E+03  0.46999998093E+01 0. -1.
</event>
<event>
 5   0  0.8609148E-04  0.1391623E+04  0.7818609E-02  0.8959904E-01
        1   -1    0    0  501    0  0.00000000000E+00  0.00000000000E+00  0.22276194493E+04  0.22276194493E+04  0.50400001928E-02 0. -1.
       -1   -1    0    0    0  501  0.00000000000E+00  0.00000000000E+00 -0.21734134468E+03  0.21734134474E+03  0.50400001928E-02 0.  1.
    10030    2    1    2    0    0  0.00000000000E+00  0.00000000000E+00  0.20102781046E+04  0.24449607941E+04  0.13916232344E+04 0.  0.
        5    1    3    3  502    0  0.61365311501E+03 -0.10180248956E+03  0.45739395385E+03  0.77211735602E+03  0.46999998093E+01 0.  1.
       -5    1    3    3    0  502 -0.61365311501E+03  0.10180248956E+03  0.15528841508E+04  0.16728434380E+04  0.46999998093E+01 0. -1.
</event>
<event>
 5   0  0.9007180E-04  0.1401663E+04  0.7818609E-02  0.8952616E-01
        1   -1    0    0  501    0  0.00000000000E+00  0.00000000000E+00  0.11688309916E+04  0.11688309916E+04  0.50400001928E-02 0.  1.
       -1   -1    0    0    0  501  0.00000000000E+00  0.00000000000E+00 -0.42021857507E+03  0.42021857510E+03  0.50400001928E-02 0. -1.
    10030    2    1    2    0    0  0.00000000000E+00  0.00000000000E+00  0.74861241652E+03  0.15890495667E+04  0.14016625754E+04 0.  0.
        2    1    3    3  502    0 -0.51705514706E+03 -0.45341777252E+03  0.52737855406E+03  0.86663824104E+03  0.25500000920E-02 0.  1.
       -2    1    3    3    0  502  0.51705514706E+03  0.45341777252E+03  0.22123386246E+03  0.72241132566E+03  0.25500000920E-02 0. -1.
</event>
<event>
 5   0  0.1605214E-03  0.1388706E+04  0.7818609E-02  0.8962034E-01
       -2   -1    0    0    0  501  0.00000000000E+00  0.00000000000E+00  0.43557955544E+03  0.43557955545E+03  0.25500000920E-02 0.  1.
        2   -1    0    0  501    0  0.00000000000E+00  0.00000000000E+00 -0.11068617611E+04  0.11068617611E+04  0.25500000920E-02 0. -1.
    10030    2    1    2    0    0  0.00000000000E+00  0.00000000000E+00 -0.67128220568E+03  0.15424413166E+04  0.13887063820E+04 0.  0.
        5    1    3    3  502    0  0.11477419971E+03 -0.68123148948E+03 -0.41303096966E+03  0.80490131760E+03  0.46999998093E+01 0. -1.
       -5    1    3    3    0  502 -0.11477419971E+03  0.68123148948E+03 -0.25825123603E+03  0.73753999898E+03  0.46999998093E+01 0.  1.
</event>
<event>
 5   0  0.1648463E-03  0.1377740E+04  0.7818609E-02  0.8970091E-01
        2   -1    0    0  501    0  0.00000000000E+00  0.00000000000E+00  0.12653001915E+04  0.12653001915E+04  0.25500000920E-02 0. -1.
       -2   -1    0    0    0  501  0.00000000000E+00  0.00000000000E+00 -0.37504268059E+03  0.37504268060E+03  0.25500000920E-02 0.  1.
    10030    2    1    2    0    0  0.00000000000E+00  0.00000000000E+00  0.89025751091E+03  0.16403428721E+04  0.13777395626E+04 0.  0.
        1    1    3    3  502    0 -0.37826392713E+03 -0.44805871300E+02  0.11285091779E+04  0.11910600864E+04  0.50400001928E-02 0. -1.
       -1    1    3    3    0  502  0.37826392713E+03  0.44805871300E+02 -0.23825166702E+03  0.44928278571E+03  0.50400001928E-02 0.  1.
</event>
<event>
 5   0  0.9007180E-04  0.1420704E+04  0.7818609E-02  0.8938967E-01
        1   -1    0    0  501    0  0.00000000000E+00  0.00000000000E+00  0.98734290474E+03  0.98734290475E+03  0.50400001928E-02 0.  1.
       -1   -1    0    0    0  501  0.00000000000E+00  0.00000000000E+00 -0.51106864518E+03  0.51106864520E+03  0.50400001928E-02 0. -1.
    10030    2    1    2    0    0  0.00000000000E+00  0.00000000000E+00  0.47627425956E+03  0.14984115500E+04  0.14207040518E+04 0.  0.
        2    1    3    3  502    0  0.16397240966E+03  0.59347447731E+03 -0.13550105138E+03  0.63044384467E+03  0.25500000920E-02 0. -1.
       -2    1    3    3    0  502 -0.16397240966E+03 -0.59347447731E+03  0.61177531094E+03  0.86796770529E+03  0.25500000920E-02 0.  1.
</event>
<event>
 5   0  0.1648463E-03  0.1376905E+04  0.7818609E-02  0.8970707E-01
       -2   -1    0    0    0  501  0.00000000000E+00  0.00000000000E+00  0.29943352468E+03  0.29943352469E+03  0.25500000920E-02 0. -1.
        2   -1    0    0  501    0  0.00000000000E+00  0.00000000000E+00 -0.15828788910E+04  0.15828788910E+04  0.25500000920E-02 0.  1.
    10030    2    1    2    0    0  0.00000000000E+00  0.00000000000E+00 -0.12834453663E+04  0.18823124157E+04  0.13769052335E+04 0.  0.
        1    1    3    3  502    0  0.30927149409E+02 -0.34735265737E+03 -0.14532046839E+04  0.14944611773E+04  0.50400001928E-02 0.  1.
       -1    1    3    3    0  502 -0.30927149409E+02  0.34735265737E+03  0.16975931761E+03  0.38785123836E+03  0.50400001928E-02 0. -1.
</event>
<event>
 5   0  0.8502300E-04  0.1438002E+04  0.7818609E-02  0.8926761E-01
        1   -1    0    0  501    0  0.00000000000E+00  0.00000000000E+00  0.48958087260E+03  0.48958087263E+03  0.50400001928E-02 0.  1.
       -1   -1    0    0    0  501  0.00000000000E+00  0.00000000000E+00 -0.10559280256E+04  0.10559280256E+04  0.50400001928E-02 0. -1.
    10030    2    1    2    0    0  0.00000000000E+00  0.00000000000E+00 -0.56634715302E+03  0.15455088983E+04  0.14380016192E+04 0.  0.
        4    1    3    3  502    0  0.31741139666E+02 -0.66874910335E+03 -0.56493270967E+03  0.87600424801E+03  0.12699999809E+01 0. -1.
       -4    1    3    3    0  502 -0.31741139666E+02  0.66874910335E+03 -0.14144433574E+01  0.66950465026E+03  0.12699999809E+01 0.  1.
</event>
<event>
 5   0  0.1706986E-03  0.1385938E+04  0.7818609E-02  0.8964061E-01
       -2   -1    0    0    0  501  0.00000000000E+00  0.00000000000E+00  0.43982653412E+03  0.43982653413E+03  0.25500000920E-02 0.  1.
        2   -1    0    0  501    0  0.00000000000E+00  0.00000000000E+00 -0.10918080340E+04  0.10918080340E+04  0.25500000920E-02 0. -1.
    10030    2    1    2    0    0  0.00000000000E+00  0.00000000000E+00 -0.65198149991E+03  0.15316345682E+04  0.13859381567E+04 0.  0.
        3    1    3    3  502    0 -0.14236724359E+03  0.56885936807E+03  0.82063334885E+02  0.59211807422E+03  0.10100000352E+00 0.  1.
       -3    1    3    3    0  502  0.14236724359E+03 -0.56885936807E+03 -0.73404483479E+03  0.93951649393E+03  0.10100000352E+00 0. -1.
</event>
<event>
 5   0  0.8502300E-04  0.1357589E+04  0.7818609E-02  0.8985103E-01
        1   -1    0    0  501    0  0.00000000000E+00  0.00000000000E+00  0.51264360341E+03  0.51264360344E+03  0.50400001928E-02 0.  1.
       -1   -1    0    0    0  501  0.00000000000E+00  0.00000000000E+00 -0.89879614012E+03  0.89879614013E+03  0.50400001928E-02 0. -1.
    10030    2    1    2    0    0  0.00000000000E+00  0.00000000000E+00 -0.38615253670E+03  0.14114397436E+04  0.13575891750E+04 0.  0.
        4    1    3    3  502    0  0.68281163630E+02  0.40644672478E+01  0.50905008107E+03  0.51362674691E+03  0.12699999809E+01 0.  1.
       -4    1    3    3    0  502 -0.68281163630E+02 -0.40644672478E+01 -0.89520261777E+03  0.89781299666E+03  0.12699999809E+01 0. -1.
</event>
<event>
 5   0  0.1706986E-03  0.1419354E+04  0.7818609E-02  0.8939927E-01
        2   -1    0    0  501    0  0.00000000000E+00  0.00000000000E+00  0.17576957825E+04  0.17576957825E+04  0.25500000920E-02 0.  1.
       -2   -1    0    0    0  501  0.00000000000E+00  0.00000000000E+00 -0.28653497924E+03  0.28653497925E+03  0.25500000920E-02 0. -1.
    10030    2    1    2    0    0  0.00000000000E+00  0.00000000000E+00  0.14711608032E+04  0.20442307617E+04  0.14193538312E+04 0.  0.
        3    1    3    3  502    0 -0.19800567955E+03  0.57310103031E+03  0.20445977287E+03  0.63988659073E+03  0.10100000352E+00 0. -1.
       -3    1    3    3    0  502  0.19800567955E+03 -0.57310103031E+03  0.12667010304E+04  0.14043441710E+04  0.10100000352E+00 0.  1.
</event>
<event>
 5   0  0.1648213E-03  0.1277437E+04  0.7818609E-02  0.9047652E-01
       -2   -1    0    0    0  501  0.00000000000E+00  0.00000000000E+00  0.15112329127E+04  0.15112329127E+04  0.25500000920E-02 0.  1.
        2   -1    0    0  501    0  0.00000000000E+00  0.00000000000E+00 -0.26995267654E+03  0.26995267655E+03  0.25500000920E-02 0. -1.
    10030    2    1    2    0    0  0.00000000000E+00  0.00000000000E+00  0.12412802361E+04  0.17811855892E+04  0.12774370742E+04 0.  0.
        4    1    3    3  502    0 -0.55825854335E+03 -0.33552047315E+02  0.10508156817E+04  0.11903753824E+04  0.12699999809E+01 0.  1.
       -4    1    3    3    0  502  0.55825854335E+03  0.33552047315E+02  0.19046455437E+03  0.59081020681E+03  0.12699999809E+01 0. -1.
</event>
<event>
 5   0  0.1578965E-03  0.1388473E+04  0.7818609E-02  0.8962205E-01
        2   -1    0    0  501    0  0.00000000000E+00  0.00000000000E+00  0.24248402462E+04  0.24248402462E+04  0.25500000920E-02 0.  1.
       -2   -1    0    0    0  501  0.00000000000E+00  0.00000000000E+00 -0.19876128103E+03  0.19876128104E+03  0.25500000920E-02 0. -1.
    10030    2    1    2    0    0  0.00000000000E+00  0.00000000000E+00  0.22260789651E+04  0.26236015272E+04  0.13884730514E+04 0.  0.
        2    1    3    3  502    0  0.33944675697E+03  0.59448222694E+03  0.89487001207E+03  0.11266878705E+04  0.25500000920E-02 0. -1.
       -2    1    3    3    0  502 -0.33944675697E+03 -0.59448222694E+03  0.13312089531E+04  0.14969136567E+04  0.25500000920E-02 0.  1.
</event>
<event>
 5   0  0.1578965E-03  0.1484943E+04  0.7818609E-02  0.8894528E-01
       -2   -1    0    0    0  501  0.00000000000E+00  0.00000000000E+00  0.38317418270E+03  0.38317418270E+03  0.25500000920E-02 0.  1.
        2   -1    0    0  501    0  0.00000000000E+00  0.00000000000E+00 -0.14386764518E+04  0.14386764518E+04  0.25500000920E-02 0. -1.
    10030    2    1    2    0    0  0.00000000000E+00  0.00000000000E+00 -0.10555022691E+04  0.18218506345E+04  0.14849426569E+04 0.  0.
        2    1    3    3  502    0 -0.70636173883E+03 -0.93623623522E+01 -0.80813912828E+03  0.10733701182E+04  0.25500000920E-02 0. -1.
       -2    1    3    3    0  502  0.70636173883E+03  0.93623623522E+01 -0.24736314085E+03  0.74848051636E+03  0.25500000920E-02 0.  1.
</event>
<event>
 5   0  0.8502300E-04  0.1409393E+04  0.7818609E-02  0.8947047E-01
       -1   -1    0    0    0  501  0.00000000000E+00  0.00000000000E+00  0.81054223380E+03  0.81054223381E+03  0.50400001928E-02 0.  1.
        1   -1    0    0  501    0  0.00000000000E+00  0.00000000000E+00 -0.61267299771E+03  0.61267299773E+03  0.50400001928E-02 0. -1.
    10030    2    1    2    0    0  0.00000000000E+00  0.00000000000E+00  0.19786923609E+03  0.14232152315E+04  0.14093932598E+04 0.  0.
        4    1    3    3  502    0  0.46092624098E+03 -0.25720552264E+03 -0.37253610859E+03  0.64605916572E+03  0.12699999809E+01 0. -1.
       -4    1    3    3    0  502 -0.46092624098E+03  0.25720552264E+03  0.57040534468E+03  0.77715606582E+03  0.12699999809E+01 0.  1.
</event>
<event>
 5   0  0.1578965E-03  0.1388705E+04  0.7818609E-02  0.8962035E-01
        2   -1    0    0  501    0  0.00000000000E+00  0.00000000000E+00  0.13220578609E+04  0.13220578609E+04  0.25500000920E-02 0. -1.
       -2   -1    0    0    0  501  0.00000000000E+00  0.00000000000E+00 -0.36467786640E+03  0.36467786641E+03  0.25500000920E-02 0.  1.
    10030    2    1    2    0    0  0.00000000000E+00  0.00000000000E+00  0.95737999450E+03  0.16867357273E+04  0.13887047778E+04 0.  0.
        2    1    3    3  502    0 -0.43888025936E+03  0.30661621935E+03  0.10157290742E+04  0.11481876764E+04  0.25500000920E-02 0. -1.
       -2    1    3    3    0  502  0.43888025936E+03 -0.30661621935E+03 -0.58349079717E+02  0.53854805090E+03  0.25500000920E-02 0.  1.
</event>
<event>
 5   0  0.6048000E-04  0.1404552E+04  0.7818609E-02  0.8950530E-01
       -4   -1    0    0    0  501  0.00000000000E+00  0.00000000000E+00  0.12188392686E+04  0.12188399302E+04  0.12699999809E+01 0.  1.
        4   -1    0    0  501    0  0.00000000000E+00  0.00000000000E+00 -0.40463861840E+03  0.40464061140E+03  0.12699999809E+01 0. -1.
    10030    2    1    2    0    0  0.00000000000E+00  0.00000000000E+00  0.81420065015E+03  0.16234805416E+04  0.14045520176E+04 0.  0.
        2    1    3    3  502    0 -0.79564607975E+02 -0.33690515654E+03  0.11133704179E+04  0.11659456672E+04  0.25500000920E-02 0.  1.
       -2    1    3    3    0  502  0.79564607975E+02  0.33690515654E+03 -0.29916976777E+03  0.45753487441E+03  0.25500000920E-02 0. -1.
</event>
<event>
 5   0  0.1605214E-03  0.1394033E+04  0.7818609E-02  0.8958149E-01
       -2   -1    0    0    0  501  0.00000000000E+00  0.00000000000E+00  0.35867850695E+03  0.35867850696E+03  0.25500000920E-02 0.  1.
        2   -1    0    0  501    0  0.00000000000E+00  0.00000000000E+00 -0.13545060393E+04  0.13545060393E+04  0.25500000920E-02 0. -1.
    10030    2    1    2    0    0  0.00000000000E+00  0.00000000000E+00 -0.99582753236E+03  0.17131845463E+04  0.13940332906E+04 0.  0.
        5    1    3    3  502    0  0.16041084644E+03  0.51144334306E+03 -0.10454537418E+04  0.11748623533E+04  0.46999998093E+01 0. -1.
       -5    1    3    3    0  502 -0.16041084644E+03 -0.51144334306E+03  0.49626209487E+02  0.53832219300E+03  0.46999998093E+01 0.  1.
</event>
<event>
 5   0  0.1706986E-03  0.1432993E+04  0.7818609E-02  0.8930277E-01
       -2   -1    0    0    0  501  0.00000000000E+00  0.00000000000E+00  0.54694117673E+03  0.54694117674E+03  0.25500000920E-02 0.  1.
        2   -1    0    0  501    0  0.00000000000E+00  0.00000000000E+00 -0.93861480475E+03  0.93861480476E+03  0.25500000920E-02 0. -1.
    10030    2    1    2    0    0  0.00000000000E+00  0.00000000000E+00 -0.39167362802E+03  0.14855559815E+04  0.14329927925E+04 0.  0.
        3    1    3    3  502    0 -0.85133046918E+02 -0.10744169654E+03 -0.92489369462E+03  0.93499717132E+03  0.10100000352E+00 0. -1.
       -3    1    3    3    0  502  0.85133046918E+02  0.10744169654E+03  0.53322006660E+03  0.55055881017E+03  0.10100000352E+00 0.  1.
</event>
<event>
 5   0  0.8609148E-04  0.1383020E+04  0.7818609E-02  0.8966202E-01
        1   -1    0    0  501    0  0.00000000000E+00  0.00000000000E+00  0.73397688404E+03  0.73397688406E+03  0.50400001928E-02 0. -1.
       -1   -1    0    0    0  501  0.00000000000E+00  0.00000000000E+00 -0.65150004330E+03  0.65150004332E+03  0.50400001928E-02 0.  1.
    10030    2    1    2    0    0  0.00000000000E+00  0.00000000000E+00  0.82476840742E+02  0.13854769274E+04  0.13830198433E+04 0.  0.
        5    1    3    3  502    0 -0.26314606288E+02  0.54745005759E+03  0.46361511656E+03  0.71788236527E+03  0.46999998093E+01 0. -1.
       -5    1    3    3    0  502  0.26314606288E+02 -0.54745005759E+03 -0.38113827581E+03  0.66759456211E+03  0.46999998093E+01 0.  1.
</event>
<event>
 5   0  0.9639548E-04  0.1399070E+04  0.7818609E-02  0.8954492E-01
        1   -1    0    0  501    0  0.00000000000E+00  0.00000000000E+00  0.29568978522E+03  0.29568978526E+03  0.50400001928E-02 0.  1.
       -1   -1    0    0    0  501  0.00000000000E+00  0.00000000000E+00 -0.16549417442E+04  0.16549417442E+04  0.50400001928E-02 0. -1.
    10030    2    1    2    0    0  0.00000000000E+00  0.00000000000E+00 -0.13592519589E+04  0.19506315294E+04  0.13990702183E+04 0.  0.
        1    1    3    3  502    0  0.50926717808E+03  0.33294780468E+03 -0.19837868860E+03  0.63996984572E+03  0.50400001928E-02 0.  1.
       -1    1    3    3    0  502 -0.50926717808E+03 -0.33294780468E+03 -0.11608732703E+04  0.13106616837E+04  0.50400001928E-02 0. -1.
</event>
<event>
 5   0  0.1706986E-03  0.1392638E+04  0.7818609E-02  0.8959165E-01
        2   -1    0    0  501    0  0.00000000000E+00  0.00000000000E+00  0.79838558739E+03  0.79838558740E+03  0.25500000920E-02 0. -1.
       -2   -1    0    0    0  501  0.00000000000E+00  0.00000000000E+00 -0.60730108040E+03  0.60730108041E+03  0.25500000920E-02 0.  1.
    10030    2    1    2    0    0  0.00000000000E+00  0.00000000000E+00  0.19108450699E+03  0.14056866678E+04  0.13926384022E+04 0.  0.
        3    1    3    3  502    0  0.29665542881E+03  0.41986598412E+03  0.56958983473E+03  0.76728383151E+03  0.10100000352E+00 0. -1.
       -3    1    3    3    0  502 -0.29665542881E+03 -0.41986598412E+03 -0.37850532774E+03  0.63840283630E+03  0.10100000352E+00 0.  1.
</event>
<event>
 5   0  0.9007180E-04  0.1394022E+04  0.7818609E-02  0.8958157E-01
        1   -1    0    0  501    0  0.00000000000E+00  0.00000000000E+00  0.45151590808E+03  0.45151590810E+03  0.50400001928E-02 0.  1.
       -1   -1    0    0    0  501  0.00000000000E+00  0.00000000000E+00 -0.10759843045E+04  0.10759843045E+04  0.50400001928E-02 0. -1.
    10030    2    1    2    0    0  0.00000000000E+00  0.00000000000E+00 -0.62446839644E+03  0.15275002126E+04  0.13940215642E+04 0.  0.
        2    1    3    3  502    0  0.19134296401E+03  0.43346646232E+03 -0.87237480044E+03  0.99274523231E+03  0.25500000920E-02 0. -1.
       -2    1    3    3    0  502 -0.19134296401E+03 -0.43346646232E+03  0.24790640400E+03  0.53475498032E+03  0.25500000920E-02 0.  1.
</event>
<event>
 5   0  0.1648213E-03  0.1431917E+04  0.7818609E-02  0.8931034E-01
       -2   -1    0    0    0  501  0.00000000000E+00  0.00000000000E+00  0.55870035148E+03  0.55870035148E+03  0.25500000920E-02 0.  1.
        2   -1    0    0  501    0  0.00000000000E+00  0.00000000000E+00 -0.91747968815E+03  0.91747968816E+03  0.25500000920E-02 0. -1.
    10030    2    1    2    0    0  0.00000000000E+00  0.00000000000E+00 -0.35877933668E+03  0.14761800396E+04  0.14319165119E+04 0.  0.
        4    1    3    3  502    0 -0.63416510952E+03  0.28619814842E+03 -0.35348824174E+03  0.78040394427E+03  0.12699999809E+01 0. -1.
       -4    1    3    3    0  502  0.63416510952E+03 -0.28619814842E+03 -0.52910949379E+01  0.69577609536E+03  0.12699999809E+01 0.  1.
</event>
<event>
 5   0  0.8502300E-04  0.1352617E+04  0.7818609E-02  0.8988849E-01
        1   -1    0    0  501    0  0.00000000000E+00  0.00000000000E+00  0.81072120934E+03  0.81072120935E+03  0.50400001928E-02 0.  1.
       -1   -1    0    0    0  501  0.00000000000E+00  0.00000000000E+00 -0.56418086437E+03  0.56418086439E+03  0.50400001928E-02 0. -1.
    10030    2    1    2    0    0  0.00000000000E+00  0.00000000000E+00  0.24654034496E+03  0.13749020737E+04  0.13526173039E+04 0.  0.
        4    1    3    3  502    0 -0.14296703793E+03  0.53205503864E+03 -0.27545467376E+03  0.61595375498E+03  0.12699999809E+01 0. -1.
       -4    1    3    3    0  502  0.14296703793E+03 -0.53205503864E+03  0.52199501873E+03  0.75894831876E+03  0.12699999809E+01 0.  1.
</event>
<event>
 5   0  0.1648213E-03  0.1444551E+04  0.7818609E-02  0.8922187E-01
        2   -1    0    0  501    0  0.00000000000E+00  0.00000000000E+00  0.26009779701E+04  0.26009779701E+04  0.25500000920E-02 0.  1.
       -2   -1    0    0    0  501  0.00000000000E+00  0.00000000000E+00 -0.20057136903E+03  0.20057136905E+03  0.25500000920E-02 0. -1.
    10030    2    1    2    0    0  0.00000000000E+00  0.00000000000E+00  0.24004066011E+04  0.28015493392E+04  0.14445507430E+04 0.  0.
        4    1    3    3  502    0  0.36094231521E+03 -0.59891539341E+03  0.84949452918E+03  0.11002824962E+04  0.12699999809E+01 0. -1.
       -4    1    3    3    0  502 -0.36094231521E+03  0.59891539341E+03  0.15509120719E+04  0.17012668430E+04  0.12699999809E+01 0.  1.
</event>
<event>
 5   0  0.1648463E-03  0.1138676E+04  0.7818609E-02  0.9168295E-01
        2   -1    0    0  501    0  0.00000000000E+00  0.00000000000E+00  0.57450909796E+03  0.57450909797E+03  0.25500000920E-02 0.  1.
       -2   -1    0    0    0  501  0.00000000000E+00  0.00000000000E+00 -0.56421327438E+03  0.56421327438E+03  0.25500000920E-02 0. -1.
    10030    2    1    2    0    0  0.00000000000E+00  0.00000000000E+00  0.10295823584E+02  0.11387223724E+04  0.11386758263E+04 0.  0.
        1    1    3    3  502    0 -0.41306587737E+03 -0.35180398747E+03  0.17765480271E+03  0.57092091712E+03  0.50400001928E-02 0. -1.
       -1    1    3    3    0  502  0.41306587737E+03  0.35180398747E+03 -0.16735897913E+03  0.56780145524E+03  0.50400001928E-02 0.  1.
</event>
<event>
 5   0  0.1578965E-03  0.1428199E+04  0.7818609E-02  0.8933656E-01
       -2   -1    0    0    0  501  0.00000000000E+00  0.00000000000E+00  0.31707371075E+03  0.31707371076E+03  0.25500000920E-02 0. -1.
        2   -1    0    0  501    0  0.00000000000E+00  0.00000000000E+00 -0.16082637995E+04  0.16082637995E+04  0.25500000920E-02 0.  1.
    10030    2    1    2    0    0  0.00000000000E+00  0.00000000000E+00 -0.12911900888E+04  0.19253375103E+04  0.14281991049E+04 0.  0.
        2    1    3    3  502    0 -0.48565267916E+03 -0.68657660914E+02  0.54068619464E+02  0.49345295094E+03  0.25500000920E-02 0. -1.
       -2    1    3    3    0  502  0.48565267916E+03  0.68657660914E+02 -0.13452587082E+04  0.14318845593E+04  0.25500000920E-02 0.  1.
</event>
<event>
 5   0  0.8673728E-04  0.1371832E+04  0.7818609E-02  0.8974464E-01
        1   -1    0    0  501    0  0.00000000000E+00  0.00000000000E+00  0.14967364292E+04  0.14967364292E+04  0.50400001928E-02 0. -1.
       -1   -1    0    0    0  501  0.00000000000E+00  0.00000000000E+00 -0.31433790831E+03  0.31433790835E+03  0.50400001928E-02 0.  1.
    10030    2    1    2    0    0  0.00000000000E+00  0.00000000000E+00  0.11823985209E+04  0.18110743375E+04  0.13718323491E+04 0.  0.
        3    1    3    3  502    0 -0.23430957447E+03  0.20033762426E+03  0.14001243610E+04  0.14336611792E+04  0.10100000352E+00 0. -1.
       -3    1    3    3    0  502  0.23430957447E+03 -0.20033762426E+03 -0.21772584015E+03  0.37741315829E+03  0.10100000352E+00 0.  1.
</event>
<event>
 5   0  0.9639548E-04  0.1411580E+04  0.7818609E-02  0.8945478E-01
       -1   -1    0    0    0  501  0.00000000000E+00  0.00000000000E+00  0.44551438166E+03  0.44551438169E+03  0.50400001928E-02 0.  1.
        1   -1    0    0  501    0  0.00000000000E+00  0.00000000000E+00 -0.11181228879E+04  0.11181228879E+04  0.50400001928E-02 0. -1.
    10030    2    1    2    0    0  0.00000000000E+00  0.00000000000E+00 -0.67260850621E+03  0.15636372696E+04  0.14115804292E+04 0.  0.
        1    1    3    3  502    0  0.15812553988E+03  0.54543408737E+03  0.12793234541E+03  0.58212431237E+03  0.50400001928E-02 0.  1.
       -1    1    3    3    0  502 -0.15812553988E+03 -0.54543408737E+03 -0.80054085162E+03  0.98151295720E+03  0.50400001928E-02 0. -1.
</event>
<event>
 5   0  0.9007180E-04  0.1403455E+04  0.7818609E-02  0.8951321E-01
       -1   -1    0    0    0  501  0.00000000000E+00  0.00000000000E+00  0.59188786383E+03  0.59188786385E+03  0.50400001928E-02 0. -1.
        1   -1    0    0  501    0  0.00000000000E+00  0.00000000000E+00 -0.83195102087E+03  0.83195102088E+03  0.50400001928E-02 0.  1.
    10030    2    1    2    0    0  0.00000000000E+00  0.00000000000E+00 -0.24006315704E+03  0.14238388847E+04  0.14034553254E+04 0.  0.
        2    1    3    3  502    0 -0.34316944227E+03 -0.58269324213E+03 -0.31017032263E+03  0.74397735824E+03  0.25500000920E-02 0. -1.
       -2    1    3    3    0  502  0.34316944227E+03  0.58269324213E+03  0.70107165586E+02  0.67986152649E+03  0.25500000920E-02 0.  1.
</event>
<event>
 5   0  0.1578965E-03  0.1404197E+04  0.7818609E-02  0.8950786E-01
        2   -1    0    0  501    0  0.00000000000E+00  0.00000000000E+00  0.78038537825E+03  0.78038537825E+03  0.25500000920E-02 0.  1.
       -2   -1    0    0    0  501  0.00000000000E+00  0.00000000000E+00 -0.63166518776E+03  0.63166518777E+03  0.25500000920E-02 0. -1.
    10030    2    1    2    0    0  0.00000000000E+00  0.00000000000E+00  0.14872019049E+03  0.14120505660E+04  0.14041969612E+04 0.  0.
        2    1    3    3  502    0 -0.36343078428E+03  0.29755633130E+03 -0.45040198506E+03  0.65075621657E+03  0.25500000920E-02 0. -1.
       -2    1    3    3    0  502  0.36343078428E+03 -0.29755633130E+03  0.59912217555E+03  0.76129434944E+03  0.25500000920E-02 0.  1.
</event>
<event>
 5   0  0.1605214E-03  0.1412543E+04  0.7818609E-02  0.8944789E-01
       -2   -1    0    0    0  501  0.00000000000E+00  0.00000000000E+00  0.20650745190E+03  0.20650745191E+03  0.25500000920E-02 0. -1.
        2   -1    0    0  501    0  0.00000000000E+00  0.00000000000E+00 -0.24155031788E+04  0.24155031788E+04  0.25500000920E-02 0.  1.
    10030    2    1    2    0    0  0.00000000000E+00  0.00000000000E+00 -0.22089957269E+04  0.26220106307E+04  0.14125429643E+04 0.  0.
        5    1    3    3  502    0 -0.34112209202E+03 -0.60454582017E+03 -0.86277805737E+03  0.11073608249E+04  0.46999998093E+01 0. -1.
       -5    1    3    3    0  502  0.34112209202E+03  0.60454582017E+03 -0.13462176695E+04  0.15146498058E+04  0.46999998093E+01 0.  1.
</event>
<event>
 5   0  0.9639548E-04  0.1395615E+04  0.7818609E-02  0.8956999E-01
       -1   -1    0    0    0  501  0.00000000000E+00  0.00000000000E+00  0.33697726037E+03  0.33697726041E+03  0.50400001928E-02 0. -1.
        1   -1    0    0  501    0  0.00000000000E+00  0.00000000000E+00 -0.14450091115E+04  0.14450091115E+04  0.50400001928E-02 0.  1.
    10030    2    1    2    0    0  0.00000000000E+00  0.00000000000E+00 -0.11080318511E+04  0.17819863719E+04  0.13956148633E+04 0.  0.
        1    1    3    3  502    0  0.50682872845E+03  0.14281892708E+03 -0.11386704055E+04  0.12545289547E+04  0.50400001928E-02 0.  1.
       -1    1    3    3    0  502 -0.50682872845E+03 -0.14281892708E+03  0.30638554352E+02  0.52745741719E+03  0.50400001928E-02 0. -1.
</event>
<event>
 5   0  0.1648463E-03  0.1401995E+04  0.7818609E-02  0.8952375E-01
        2   -1    0    0  501    0  0.00000000000E+00  0.00000000000E+00  0.21653816003E+04  0.21653816003E+04  0.25500000920E-02 0.  1.
       -2   -1    0    0    0  501  0.00000000000E+00  0.00000000000E+00 -0.22693356379E+03  0.22693356380E+03  0.25500000920E-02 0. -1.
    10030    2    1    2    0    0  0.00000000000E+00  0.00000000000E+00  0.19384480365E+04  0.23923151641E+04  0.14019953831E+04 0.  0.
        1    1    3    3  502    0 -0.13570831842E+03 -0.25409776054E+03 -0.12126886245E+03  0.31255168633E+03  0.50400001928E-02 0. -1.
       -1    1    3    3    0  502  0.13570831842E+03  0.25409776054E+03  0.20597168990E+04  0.20797634778E+04  0.50400001928E-02 0.  1.
</event>
<event>
 5   0  0.9639548E-04  0.1430808E+04  0.7818609E-02  0.8931815E-01
        1   -1    0    0  501    0  0.00000000000E+00  0.00000000000E+00  0.17452164626E+04  0.17452164627E+04  0.50400001928E-02 0. -1.
       -1   -1    0    0    0  501  0.00000000000E+00  0.00000000000E+00 -0.29326036159E+03  0.29326036164E+03  0.50400001928E-02 0.  1.
    10030    2    1    2    0    0  0.00000000000E+00  0.00000000000E+00  0.14519561010E+04  0.20384768243E+04  0.14308078990E+04 0.  0.
        1    1    3    3  502    0  0.13316943673E+03 -0.51492974984E+03  0.14076298491E+04  0.15047619540E+04  0.50400001928E-02 0. -1.
       -1    1    3    3    0  502 -0.13316943673E+03  0.51492974984E+03  0.44326251991E+02  0.53371487031E+03  0.50400001928E-02 0.  1.
</event>
<event>
 5   0  0.1605214E-03  0.1397968E+04  0.7818609E-02  0.8955291E-01
        2   -1    0    0  501    0  0.00000000000E+00  0.00000000000E+00  0.50277118105E+03  0.50277118105E+03  0.25500000920E-02 0. -1.
       -2   -1    0    0    0  501  0.00000000000E+00  0.00000000000E+00 -0.97177177441E+03  0.97177177441E+03  0.25500000920E-02 0.  1.
    10030    2    1    2    0    0  0.00000000000E+00  0.00000000000E+00 -0.46900059336E+03  0.14745429555E+04  0.13979683011E+04 0.  0.
        5    1    3    3  502    0 -0.53864314464E+03  0.42194303557E+03 -0.38509474674E+03  0.78517031050E+03  0.46999998093E+01 0. -1.
       -5    1    3    3    0  502  0.53864314464E+03 -0.42194303557E+03 -0.83905846623E+02  0.68937264496E+03  0.46999998093E+01 0.  1.
</event>
<event>
 5   0  0.1648463E-03  0.1433913E+04  0.7818609E-02  0.8929630E-01
        2   -1    0    0  501    0  0.00000000000E+00  0.00000000000E+00  0.13221025942E+04  0.13221025942E+04  0.25500000920E-02 0. -1.
       -2   -1    0    0    0  501  0.00000000000E+00  0.00000000000E+00 -0.38879468228E+03  0.38879468229E+03  0.25500000920E-02 0.  1.
    10030    2    1    2    0    0  0.00000000000E+00  0.00000000000E+00  0.93330791191E+03  0.17108972765E+04  0.14339127701E+04 0.  0.
        1    1    3    3  502    0  0.58344712251E+02  0.56954315522E+03 -0.48267655744E+02  0.57455485179E+03  0.50400001928E-02 0.  1.
       -1    1    3    3    0  502 -0.58344712251E+02 -0.56954315522E+03  0.98157556766E+03  0.11363424247E+04  0.50400001928E-02 0. -1.
</event>
<event>
 5   0  0.1605214E-03  0.1388233E+04  0.7818609E-02  0.8962381E-01
        2   -1    0    0  501    0  0.00000000000E+00  0.00000000000E+00  0.21379608286E+03  0.21379608288E+03  0.25500000920E-02 0.  1.
       -2   -1    0    0    0  501  0.00000000000E+00  0.00000000000E+00 -0.22535372074E+04  0.22535372074E+04  0.25500000920E-02 0. -1.
    10030    2    1    2    0    0  0.00000000000E+00  0.00000000000E+00 -0.20397411245E+04  0.24673332902E+04  0.13882325850E+04 0.  0.
        5    1    3    3  502    0  0.19440629151E+03 -0.20056020685E+03 -0.21492131071E+04  0.21672926135E+04  0.46999998093E+01 0. -1.
       -5    1    3    3    0  502 -0.19440629151E+03  0.20056020685E+03  0.10947198258E+03  0.30004067677E+03  0.46999998093E+01 0.  1.
</event>
<event>
 5   0  0.1605214E-03  0.1396127E+04  0.7818609E-02  0.8956627E-01
       -2   -1    0    0    0  501  0.00000000000E+00  0.00000000000E+00  0.96966493131E+03  0.96966493131E+03  0.25500000920E-02 0.  1.
        2   -1    0    0  501    0  0.00000000000E+00  0.00000000000E+00 -0.50253742665E+03  0.50253742665E+03  0.25500000920E-02 0. -1.
    10030    2    1    2    0    0  0.00000000000E+00  0.00000000000E+00  0.46712750466E+03  0.14722023580E+04  0.13961273857E+04 0.  0.
        5    1    3    3  502    0  0.33864547911E+03 -0.21194411262E+03  0.83717961699E+03  0.92762754837E+03  0.46999998093E+01 0.  1.
       -5    1    3    3    0  502 -0.33864547911E+03  0.21194411262E+03 -0.37005211233E+03  0.54457480959E+03  0.46999998093E+01 0. -1.
</event>
<event>
 5   0  0.9007180E-04  0.1384300E+04  0.7818609E-02  0.8965262E-01
        1   -1    0    0  501    0  0.00000000000E+00  0.00000000000E+00  0.54179318470E+03  0.54179318472E+03  0.50400001928E-02 0. -1.
       -1   -1    0    0    0  501  0.00000000000E+00  0.00000000000E+00 -0.88423275960E+03  0.88423275962E+03  0.50400001928E-02 0.  1.
    10030    2    1    2    0    0  0.00000000000E+00  0.00000000000E+00 -0.34243957490E+03  0.14260259443E+04  0.13842995093E+04 0.  0.
        2    1    3    3  502    0 -0.96766559903E+02 -0.42572027962E+02  0.53342724652E+03  0.54380214418E+03  0.25500000920E-02 0. -1.
       -2    1    3    3    0  502  0.96766559903E+02  0.42572027962E+02 -0.87586682143E+03  0.88222380016E+03  0.25500000920E-02 0.  1.
</event>
<event>
 5   0  0.1706986E-03  0.1398894E+04  0.7818609E-02  0.8954619E-01
       -2   -1    0    0    0  501  0.00000000000E+00  0.00000000000E+00  0.14152473165E+04  0.14152473165E+04  0.25500000920E-02 0.  1.
        2   -1    0    0  501    0  0.00000000000E+00  0.00000000000E+00 -0.34568258908E+03  0.34568258909E+03  0.25500000920E-02 0. -1.
    10030    2    1    2    0    0  0.00000000000E+00  0.00000000000E+00  0.10695647274E+04  0.17609299056E+04  0.13988943585E+04 0.  0.
        3    1    3    3  502    0  0.15923986034E+03 -0.59898775526E+03  0.12672358516E+03  0.63261563473E+03  0.10100000352E+00 0. -1.
       -3    1    3    3    0  502 -0.15923986034E+03  0.59898775526E+03  0.94284114224E+03  0.11283142708E+04  0.10100000352E+00 0.  1.
</event>
<event>
 5   0  0.9007180E-04  0.1377975E+04  0.7818609E-02  0.8969917E-01
       -1   -1    0    0    0  501  0.00000000000E+00  0.00000000000E+00  0.63063970170E+03  0.63063970172E+03  0.50400001928E-02 0. -1.
        1   -1    0    0  501    0  0.00000000000E+00  0.00000000000E+00 -0.75273426969E+03  0.75273426971E+03  0.50400001928E-02 0.  1.
    10030    2    1    2    0    0  0.00000000000E+00  0.00000000000E+00 -0.12209456799E+03  0.13833739714E+04  0.13779754937E+04 0.  0.
        2    1    3    3  502    0  0.26758552011E+03  0.55740160174E+03  0.24412645282E+03  0.66475279704E+03  0.25500000920E-02 0. -1.
       -2    1    3    3    0  502 -0.26758552011E+03 -0.55740160174E+03 -0.36622102081E+03  0.71862117439E+03  0.25500000920E-02 0.  1.
</event>
<event>
 5   0  0.1648213E-03  0.1405468E+04  0.7818609E-02  0.8949870E-01
       -2   -1    0    0    0  501  0.00000000000E+00  0.00000000000E+00  0.76983304303E+03  0.76983304303E+03  0.25500000920E-02 0. -1.
        2   -1    0    0  501    0  0.00000000000E+00  0.00000000000E+00 -0.64148321056E+03  0.64148321056E+03  0.25500000920E-02 0.  1.
    10030    2    1    2    0    0  0.00000000000E+00  0.00000000000E+00  0.12834983247E+03  0.14113162536E+04  0.14054678538E+04 0.  0.
        4    1    3    3  502    0  0.36424974878E+03  0.92592994605E+02 -0.53208210392E+03  0.65143251404E+03  0.12699999809E+01 0.  1.
       -4    1    3    3    0  502 -0.36424974878E+03 -0.92592994605E+02  0.66043193639E+03  0.75988373955E+03  0.12699999809E+01 0. -1.
</event>
<event>
 5   0  0.8673728E-04  0.1378221E+04  0.7818609E-02  0.8969736E-01
       -1   -1    0    0    0  501  0.00000000000E+00  0.00000000000E+00  0.32045073221E+03  0.32045073225E+03  0.50400001928E-02 0.  1.
        1   -1    0    0  501    0  0.00000000000E+00  0.00000000000E+00 -0.14818912766E+04  0.14818912766E+04  0.50400001928E-02 0. -1.
    10030    2    1    2    0    0  0.00000000000E+00  0.00000000000E+00 -0.11614405444E+04  0.18023420089E+04  0.13782208019E+04 0.  0.
        3    1    3    3  502    0  0.64733550854E+03 -0.25959248389E+02 -0.27359556747E+03  0.70325790997E+03  0.10100000352E+00 0.  1.
       -3    1    3    3    0  502 -0.64733550854E+03  0.25959248389E+02 -0.88784497696E+03  0.10990840989E+04  0.10100000352E+00 0. -1.
</event>
<event>
 5   0  0.1706986E-03  0.1255708E+04  0.7818609E-02  0.9065446E-01
        2   -1    0    0  501    0  0.00000000000E+00  0.00000000000E+00  0.80324650727E+03  0.80324650728E+03  0.25500000920E-02 0.  1.
       -2   -1    0    0    0  501  0.00000000000E+00  0.00000000000E+00 -0.49075922632E+03  0.49075922632E+03  0.25500000920E-02 0. -1.
    10030    2    1    2    0    0  0.00000000000E+00  0.00000000000E+00  0.31248728096E+03  0.12940057336E+04  0.12557079827E+04 0.  0.
        3    1    3    3  502    0 -0.60707574652E+03 -0.10567857401E+03  0.32190651866E+02  0.61704551800E+03  0.10100000352E+00 0. -1.
       -3    1    3    3    0  502  0.60707574652E+03  0.10567857401E+03  0.28029662909E+03  0.67696021560E+03  0.10100000352E+00 0.  1.
</event>
<event>
 5   0  0.8502300E-04  0.1534846E+04  0.7818609E-02  0.8861606E-01
       -1   -1    0    0    0  501  0.00000000000E+00  0.00000000000E+00  0.67412225604E+03  0.67412225606E+03  0.50400001928E-02 0.  1.
        1   -1    0    0  501    0  0.00000000000E+00  0.00000000000E+00 -0.87363677130E+03  0.87363677131E+03  0.50400001928E-02 0. -1.
    10030    2    1    2    0    0  0.00000000000E+00  0.00000000000E+00 -0.19951451526E+03  0.15477590274E+04  0.15348459092E+04 0.  0.
        4    1    3    3  502    0 -0.25863437218E+03  0.20591064281E+03 -0.79814840849E+03  0.86390591279E+03  0.12699999809E+01 0. -1.
       -4    1    3    3    0  502  0.25863437218E+03 -0.20591064281E+03  0.59863389322E+03  0.68385311457E+03  0.12699999809E+01 0.  1.
</event>
<event>
 5   0  0.1648463E-03  0.1384780E+04  0.7818609E-02  0.8964910E-01
       -2   -1    0    0    0  501  0.00000000000E+00  0.00000000000E+00  0.25051565918E+03  0.25051565919E+03  0.25500000920E-02 0.  1.
        2   -1    0    0  501    0  0.00000000000E+00  0.00000000000E+00 -0.19136684257E+04  0.19136684257E+04  0.25500000920E-02 0. -1.
    10030    2    1    2    0    0  0.00000000000E+00  0.00000000000E+00 -0.16631527665E+04  0.21641840849E+04  0.13847799928E+04 0.  0.
        1    1    3    3  502    0  0.29255024254E+03  0.62664340122E+03 -0.77889442542E+03  0.10416065105E+04  0.50400001928E-02 0. -1.
       -1    1    3    3    0  502 -0.29255024254E+03 -0.62664340122E+03 -0.88425834108E+03  0.11225775744E+04  0.50400001928E-02 0.  1.
</event>
<event>
 5   0  0.8609148E-04  0.1383371E+04  0.7818609E-02  0.8965944E-01
       -1   -1    0    0    0  501  0.00000000000E+00  0.00000000000E+00  0.12341922081E+04  0.12341922081E+04  0.50400001928E-02 0.  1.
        1   -1    0    0  501    0  0.00000000000E+00  0.00000000000E+00 -0.38764516398E+03  0.38764516402E+03  0.50400001928E-02 0. -1.
    10030    2    1    2    0    0  0.00000000000E+00  0.00000000000E+00  0.84654704409E+03  0.16218373721E+04  0.13833707253E+04 0.  0.
        5    1    3    3  502    0  0.26872853089E+03  0.12400353452E+03  0.11561894177E+04  0.11934772556E+04  0.46999998093E+01 0.  1.
       -5    1    3    3    0  502 -0.26872853089E+03 -0.12400353452E+03 -0.30964237364E+03  0.42836011653E+03  0.46999998093E+01 0. -1.
</event>
<event>
 5   0  0.8502300E-04  0.1393806E+04  0.7818609E-02  0.8958315E-01
       -1   -1    0    0    0  501  0.00000000000E+00  0.00000000000E+00  0.39499445723E+03  0.39499445726E+03  0.50400001928E-02 0.  1.
        1   -1    0    0  501    0  0.00000000000E+00  0.00000000000E+00 -0.12295706800E+04  0.12295706800E+04  0.50400001928E-02 0. -1.
    10030    2    1    2    0    0  0.00000000000E+00  0.00000000000E+00 -0.83457622276E+03  0.16245651373E+04  0.13938057302E+04 0.  0.
        4    1    3    3  502    0 -0.62907317396E+03 -0.16329958600E+03 -0.71047279202E+03  0.96289823662E+03  0.12699999809E+01 0. -1.
       -4    1    3    3    0  502  0.62907317396E+03  0.16329958600E+03 -0.12410343074E+03  0.66166690064E+03  0.12699999809E+01 0.  1.
</event>
<event>
 5   0  0.1706986E-03  0.1416223E+04  0.7818609E-02  0.8942159E-01
        2   -1    0    0  501    0  0.00000000000E+00  0.00000000000E+00  0.11880781583E+04  0.11880781583E+04  0.25500000920E-02 0.  1.
       -2   -1    0    0    0  501  0.00000000000E+00  0.00000000000E+00 -0.42204450840E+03  0.42204450841E+03  0.25500000920E-02 0. -1.
    10030    2    1    2    0    0  0.00000000000E+00  0.00000000000E+00  0.76603364992E+03  0.16101226667E+04  0.14162229518E+04 0.  0.
        3    1    3    3  502    0 -0.30542686515E+03  0.47312927805E+03 -0.10504213677E+03  0.57286188947E+03  0.10100000352E+00 0. -1.
       -3    1    3    3    0  502  0.30542686515E+03 -0.47312927805E+03  0.87107578670E+03  0.10372607773E+04  0.10100000352E+00 0.  1.
</event>
<event>
 5   0  0.8609148E-04  0.1227538E+04  0.7818609E-02  0.9089088E-01
       -1   -1    0    0    0  501  0.00000000000E+00  0.00000000000E+00  0.70226233754E+03  0.70226233756E+03  0.50400001928E-02 0. -1.
        1   -1    0    0  501    0  0.00000000000E+00  0.00000000000E+00 -0.53642675046E+03  0.53642675048E+03  0.50400001928E-02 0.  1.
    10030    2    1    2    0    0  0.00000000000E+00  0.00000000000E+00  0.16583558708E+03  0.12386890880E+04  0.12275378670E+04 0.  0.
        5    1    3    3  502    0  0.54132720292E+03 -0.94526860982E+02 -0.19291449717E+03  0.58241614099E+03  0.46999998093E+01 0. -1.
       -5    1    3    3    0  502 -0.54132720292E+03  0.94526860982E+02  0.35875008426E+03  0.65627294705E+03  0.46999998093E+01 0.  1.
</event>
<event>
 5   0  0.8673728E-04  0.1434027E+04  0.7818609E-02  0.8929550E-01
       -1   -1    0    0    0  501  0.00000000000E+00  0.00000000000E+00  0.10234227317E+04  0.10234227317E+04  0.50400001928E-02 0.  1.
        1   -1    0    0  501    0  0.00000000000E+00  0.00000000000E+00 -0.50234234244E+03  0.50234234246E+03  0.50400001928E-02 0. -1.
    10030    2    1    2    0    0  0.00000000000E+00  0.00000000000E+00  0.52108038922E+03  0.15257650741E+04  0.14340272973E+04 0.  0.
        3    1    3    3  502    0  0.26151597154E+01 -0.26293571104E+03 -0.44919105196E+03  0.52049460954E+03  0.10100000352E+00 0. -1.
       -3    1    3    3    0  502 -0.26151597154E+01  0.26293571104E+03  0.97027144118E+03  0.10052704646E+04  0.10100000352E+00 0.  1.
</event>
<event>
 5   0  0.9007180E-04  0.1384079E+04  0.7818609E-02  0.8965424E-01
       -1   -1    0    0    0  501  0.00000000000E+00  0.00000000000E+00  0.39972522605E+03  0.39972522608E+03  0.50400001928E-02 0. -1.
        1   -1    0    0  501    0  0.00000000000E+00  0.00000000000E+00 -0.11981197490E+04  0.11981197491E+04  0.50400001928E-02 0.  1.
    10030    2    1    2    0    0  0.00000000000E+00  0.00000000000E+00 -0.79839452300E+03  0.15978449751E+04  0.13840790260E+04 0.  0.
        2    1    3    3  502    0 -0.13855986488E+03 -0.45616640357E+03  0.17990697675E+03  0.50956171774E+03  0.25500000920E-02 0. -1.
       -2    1    3    3    0  502  0.13855986488E+03  0.45616640357E+03 -0.97830149975E+03  0.10882832574E+04  0.25500000920E-02 0.  1.
</event>
<event>
 5   0  0.1578965E-03  0.1407335E+04  0.7818609E-02  0.8948526E-01
       -2   -1    0    0    0  501  0.00000000000E+00  0.00000000000E+00  0.96237027587E+03  0.96237027588E+03  0.25500000920E-02 0.  1.
        2   -1    0    0  501    0  0.00000000000E+00  0.00000000000E+00 -0.51450897895E+03  0.51450897896E+03  0.25500000920E-02 0. -1.
    10030    2    1    2    0    0  0.00000000000E+00  0.00000000000E+00  0.44786129692E+03  0.14768792548E+04  0.14073352806E+04 0.  0.
        2    1    3    3  502    0 -0.63851686004E+02  0.66759652157E+03  0.44749798016E+03  0.80623606697E+03  0.25500000920E-02 0.  1.
       -2    1    3    3    0  502  0.63851686004E+02 -0.66759652157E+03  0.36331676419E+00  0.67064318786E+03  0.25500000920E-02 0. -1.
</event>
<event>
 5   0  0.8502300E-04  0.1352710E+04  0.7818609E-02  0.8988779E-01
       -1   -1    0    0    0  501  0.00000000000E+00  0.00000000000E+00  0.39948781068E+03  0.39948781071E+03  0.50400001928E-02 0.  1.
        1   -1    0    0  501    0  0.00000000000E+00  0.00000000000E+00 -0.11451073352E+04  0.11451073353E+04  0.50400001928E-02 0. -1.
    10030    2    1    2    0    0  0.00000000000E+00  0.00000000000E+00 -0.74561952457E+03  0.15445951460E+04  0.13527104973E+04 0.  0.
        4    1    3    3  502    0  0.33699834167E+03  0.37715645748E+03 -0.88555080059E+03  0.10198120950E+04  0.12699999809E+01 0. -1.
       -4    1    3    3    0  502 -0.33699834167E+03 -0.37715645748E+03  0.13993127602E+03  0.52478305100E+03  0.12699999809E+01 0.  1.
</event>
<event>
 5   0  0.9007180E-04  0.1402516E+04  0.7818609E-02  0.8952000E-01
       -1   -1    0    0    0  501  0.00000000000E+00  0.00000000000E+00  0.41088184384E+03  0.41088184387E+03  0.50400001928E-02 0.  1.
        1   -1    0    0  501    0  0.00000000000E+00  0.00000000000E+00 -0.11968464996E+04  0.11968464996E+04  0.50400001928E-02 0. -1.
    10030    2    1    2    0    0  0.00000000000E+00  0.00000000000E+00 -0.78596465580E+03  0.16077283435E+04  0.14025155922E+04 0.  0.
        2    1    3    3  502    0 -0.20214794899E+02 -0.44524808942E+03  0.22762772233E+03  0.50046865940E+03  0.25500000920E-02 0.  1.
       -2    1    3    3    0  502  0.20214794899E+02  0.44524808942E+03 -0.10135923781E+04  0.11072596841E+04  0.25500000920E-02 0. -1.
</event>
<event>
 5   0  0.8673728E-04  0.1391248E+04  0.7818609E-02  0.8960178E-01
       -1   -1    0    0    0  501  0.00000000000E+00  0.00000000000E+00  0.84620041206E+03  0.84620041207E+03  0.50400001928E-02 0. -1.
        1   -1    0    0  501    0  0.00000000000E+00  0.00000000000E+00 -0.57184204391E+03  0.57184204393E+03  0.50400001928E-02 0.  1.
    10030    2    1    2    0    0  0.00000000000E+00  0.00000000000E+00  0.27435836815E+03  0.14180424560E+04  0.13912483218E+04 0.  0.
        3    1    3    3  502    0  0.47525583619E+03  0.19980555241E+03 -0.33882963185E+03  0.61692454824E+03  0.10100000352E+00 0.  1.
       -3    1    3    3    0  502 -0.47525583619E+03 -0.19980555241E+03  0.61318799999E+03  0.80111790777E+03  0.10100000352E+00 0. -1.
</event>
<event>
 5   0  0.1648463E-03  0.1395378E+04  0.7818609E-02  0.8957171E-01
       -2   -1    0    0    0  501  0.00000000000E+00  0.00000000000E+00  0.32290555804E+03  0.32290555805E+03  0.25500000920E-02 0.  1.
        2   -1    0    0  501    0  0.00000000000E+00  0.00000000000E+00 -0.15074690961E+04  0.15074690961E+04  0.25500000920E-02 0. -1.
    10030    2    1    2    0    0  0.00000000000E+00  0.00000000000E+00 -0.11845635380E+04  0.18303746541E+04  0.13953782995E+04 0.  0.
        1    1    3    3  502    0 -0.36543105580E+02  0.52762363264E+03  0.45935272624E+01  0.52890755034E+03  0.50400001928E-02 0.  1.
       -1    1    3    3    0  502  0.36543105580E+02 -0.52762363264E+03 -0.11891570653E+04  0.13014671038E+04  0.50400001928E-02 0. -1.
</event>
<event>
 5   0  0.1648213E-03  0.1239242E+04  0.7818609E-02  0.9079185E-01
       -2   -1    0    0    0  501  0.00000000000E+00  0.00000000000E+00  0.30121462952E+03  0.30121462953E+03  0.25500000920E-02 0.  1.
        2   -1    0    0  501    0  0.00000000000E+00  0.00000000000E+00 -0.12746069870E+04  0.12746069870E+04  0.25500000920E-02 0. -1.
    10030    2    1    2    0    0  0.00000000000E+00  0.00000000000E+00 -0.97339235747E+03  0.15758216165E+04  0.12392421416E+04 0.  0.
        4    1    3    3  502    0 -0.19305289161E+03  0.77152653563E+02  0.25553846634E+03  0.32942900842E+03  0.12699999809E+01 0.  1.
       -4    1    3    3    0  502  0.19305289161E+03 -0.77152653563E+02 -0.12289308238E+04  0.12463926081E+04  0.12699999809E+01 0. -1.
</event>
<event>
 5   0  0.9639548E-04  0.1430803E+04  0.7818609E-02  0.8931818E-01
       -1   -1    0    0    0  501  0.00000000000E+00  0.00000000000E+00  0.34669915576E+03  0.34669915579E+03  0.50400001928E-02 0. -1.
        1   -1    0    0  501    0  0.00000000000E+00  0.00000000000E+00 -0.14762067365E+04  0.14762067365E+04  0.50400001928E-02 0.  1.
    10030    2    1    2    0    0  0.00000000000E+00  0.00000000000E+00 -0.11295075807E+04  0.18229058923E+04  0.14308034516E+04 0.  0.
        1    1    3    3  502    0  0.41132335510E+03 -0.58328357960E+03 -0.50242984382E+03  0.87283582916E+03  0.50400001928E-02 0.  1.
       -1    1    3    3    0  502 -0.41132335510E+03  0.58328357960E+03 -0.62707773689E+03  0.95007006311E+03  0.50400001928E-02 0. -1.
</event>
<event>
 5   0  0.1648463E-03  0.1229599E+04  0.7818609E-02  0.9087336E-01
       -2   -1    0    0    0  501  0.00000000000E+00  0.00000000000E+00  0.94210201085E+03  0.94210201085E+03  0.25500000920E-02 0.  1.
        2   -1    0    0  501    0  0.00000000000E+00  0.00000000000E+00 -0.40120785610E+03  0.40120785611E+03  0.25500000920E-02 0. -1.
    10030    2    1    2    0    0  0.00000000000E+00  0.00000000000E+00  0.54089415475E+03  0.13433098670E+04  0.12295994925E+04 0.  0.
        1    1    3    3  502    0  0.29703692134E+03 -0.66791942041E+02  0.85396371079E+03  0.90661243954E+03  0.50400001928E-02 0.  1.
       -1    1    3    3    0  502 -0.29703692134E+03  0.66791942041E+02 -0.31306955605E+03  0.43669742741E+03  0.50400001928E-02 0. -1.
</event>
<event>
 5   0  0.1648213E-03  0.1485342E+04  0.7818609E-02  0.8894259E-01
        2   -1    0    0  501    0  0.00000000000E+00  0.00000000000E+00  0.19602845678E+04  0.19602845678E+04  0.25500000920E-02 0. -1.
       -2   -1    0    0    0  501  0.00000000000E+00  0.00000000000E+00 -0.28136752804E+03  0.28136752805E+03  0.25500000920E-02 0.  1.
    10030    2    1    2    0    0  0.00000000000E+00  0.00000000000E+00  0.16789170398E+04  0.22416520959E+04  0.14853422813E+04 0.  0.
        4    1    3    3  502    0  0.57441923688E+03 -0.16204785513E+03  0.15064792140E+04  0.16204006301E+04  0.12699999809E+01 0. -1.
       -4    1    3    3    0  502 -0.57441923688E+03  0.16204785513E+03  0.17243782582E+03  0.62125146577E+03  0.12699999809E+01 0.  1.
</event>
<event>
 5   0  0.1605214E-03  0.1399754E+04  0.7818609E-02  0.8953996E-01
       -2   -1    0    0    0  501  0.00000000000E+00  0.00000000000E+00  0.75019530047E+03  0.75019530047E+03  0.25500000920E-02 0.  1.
        2   -1    0    0  501    0  0.00000000000E+00  0.00000000000E+00 -0.65293411625E+03  0.65293411625E+03  0.25500000920E-02 0. -1.
    10030    2    1    2    0    0  0.00000000000E+00  0.00000000000E+00  0.97261184219E+02  0.14031294167E+04  0.13997544149E+04 0.  0.
        5    1    3    3  502    0 -0.12104762538E+03 -0.18556468151E+03  0.71409814903E+03  0.74769314233E+03  0.46999998093E+01 0.  1.
       -5    1    3    3    0  502  0.12104762538E+03  0.18556468151E+03 -0.61683696482E+03  0.65543627440E+03  0.46999998093E+01 0. -1.
</event>
<event>
 5   0  0.1648463E-03  0.1400379E+04  0.7818609E-02  0.8953544E-01
        2   -1    0    0  501    0  0.00000000000E+00  0.00000000000E+00  0.23835789410E+04  0.23835789410E+04  0.25500000920E-02 0.  1.
       -2   -1    0    0    0  501  0.00000000000E+00  0.00000000000E+00 -0.20568450925E+03  0.20568450927E+03  0.25500000920E-02 0. -1.
    10030    2    1    2    0    0  0.00000000000E+00  0.00000000000E+00  0.21778944318E+04  0.25892634503E+04  0.14003788984E+04 0.  0.
        1    1    3    3  502    0  0.28345799175E+03  0.42222511326E+03  0.19904954072E+03  0.54611647021E+03  0.50400001928E-02 0. -1.
       -1    1    3    3    0  502 -0.28345799175E+03 -0.42222511326E+03  0.19788448910E+04  0.20431469801E+04  0.50400001928E-02 0.  1.
</event>
<event>
 5   0  0.1605214E-03  0.1396413E+04  0.7818609E-02  0.8956419E-01
        2   -1    0    0  501    0  0.00000000000E+00  0.00000000000E+00  0.79129943961E+03  0.79129943962E+03  0.25500000920E-02 0.  1.
       -2   -1    0    0    0  501  0.00000000000E+00  0.00000000000E+00 -0.61606521833E+03  0.61606521834E+03  0.25500000920E-02 0. -1.
    10030    2    1    2    0    0  0.00000000000E+00  0.00000000000E+00  0.17523422128E+03  0.14073646580E+04  0.13964126353E+04 0.  0.
        5    1    3    3  502    0  0.26625036212E+03 -0.63951115766E+03  0.17551463134E+03  0.71462665212E+03  0.46999998093E+01 0.  1.
       -5    1    3    3    0  502 -0.26625036212E+03  0.63951115766E+03 -0.28041006069E+00  0.69273800584E+03  0.46999998093E+01 0. -1.
</event>
<event>
 5   0  0.1648463E-03  0.1400415E+04  0.7818609E-02  0.8953518E-01
        2   -1    0    0  501    0  0.00000000000E+00  0.00000000000E+00  0.13448896890E+04  0.13448896890E+04  0.25500000920E-02 0.  1.
       -2   -1    0    0    0  501  0.00000000000E+00  0.00000000000E+00 -0.36455833705E+03  0.36455833706E+03  0.25500000920E-02 0. -1.
    10030    2    1    2    0    0  0.00000000000E+00  0.00000000000E+00  0.98033135193E+03  0.17094480261E+04  0.14004152935E+04 0.  0.
        1    1    3    3  502    0 -0.44281306541E+03  0.34762980118E+03 -0.18081040114E+02  0.56325554911E+03  0.50400001928E-02 0. -1.
       -1    1    3    3    0  502  0.44281306541E+03 -0.34762980118E+03  0.99841239205E+03  0.11461924769E+04  0.50400001928E-02 0.  1.
</event>
<event>
 5   0  0.8502300E-04  0.1399287E+04  0.7818609E-02  0.8954335E-01
       -1   -1    0    0    0  501  0.00000000000E+00  0.00000000000E+00  0.99847624051E+03  0.99847624052E+03  0.50400001928E-02 0.  1.
        1   -1    0    0  501    0  0.00000000000E+00  0.00000000000E+00 -0.49024801539E+03  0.49024801541E+03  0.50400001928E-02 0. -1.
    10030    2    1    2    0    0  0.00000000000E+00  0.00000000000E+00  0.50822822512E+03  0.14887242559E+04  0.13992869546E+04 0.  0.
        4    1    3    3  502    0 -0.24023877288E+02  0.43356343657E+03  0.83776215393E+03  0.94361085182E+03  0.12699999809E+01 0.  1.
       -4    1    3    3    0  502  0.24023877288E+02 -0.43356343657E+03 -0.32953392881E+03  0.54511340412E+03  0.12699999809E+01 0. -1.
</event>
<event>
 5   0  0.8673728E-04  0.1423859E+04  0.7818609E-02  0.8936727E-01
       -1   -1    0    0    0  501  0.00000000000E+00  0.00000000000E+00  0.99128558602E+03  0.99128558604E+03  0.50400001928E-02 0. -1.
        1   -1    0    0  501    0  0.00000000000E+00  0.00000000000E+00 -0.51129962202E+03  0.51129962204E+03  0.50400001928E-02 0.  1.
    10030    2    1    2    0    0  0.00000000000E+00  0.00000000000E+00  0.47998596401E+03  0.15025852081E+04  0.14238594670E+04 0.  0.
        3    1    3    3  502    0  0.13091913765E+03  0.59705142353E+03  0.62518656764E+03  0.87433888024E+03  0.10100000352E+00 0. -1.
       -3    1    3    3    0  502 -0.13091913765E+03 -0.59705142353E+03 -0.14520060363E+03  0.62824632784E+03  0.10100000352E+00 0.  1.
</event>
<event>
 5   0  0.1648463E-03  0.1405624E+04  0.7818609E-02  0.8949758E-01
        2   -1    0    0  501    0  0.00000000000E+00  0.00000000000E+00  0.97184974076E+03  0.97184974076E+03  0.25500000920E-02 0. -1.
       -2   -1    0    0    0  501  0.00000000000E+00  0.00000000000E+00 -0.50825198109E+03  0.50825198110E+03  0.25500000920E-02 0.  1.
    10030    2    1    2    0    0  0.00000000000E+00  0.00000000000E+00  0.46359775967E+03  0.14801017219E+04  0.14056237848E+04 0.  0.
        1    1    3    3  502    0 -0.99610905723E+01  0.55387033474E+03 -0.22363779980E+03  0.59739889233E+03  0.50400001928E-02 0.  1.
       -1    1    3    3    0  502  0.99610905723E+01 -0.55387033474E+03  0.68723555947E+03  0.88270282953E+03  0.50400001928E-02 0. -1.
</event>
<event>
 5   0  0.9007180E-04  0.1391406E+04  0.7818609E-02  0.8960063E-01
        1   -1    0    0  501    0  0.00000000000E+00  0.00000000000E+00  0.40324480911E+03  0.40324480914E+03  0.50400001928E-02 0.  1.
       -1   -1    0    0    0  501  0.00000000000E+00  0.00000000000E+00 -0.12002708831E+04  0.12002708831E+04  0.50400001928E-02 0. -1.
    10030    2    1    2    0    0  0.00000000000E+00  0.00000000000E+00 -0.79702607401E+03  0.16035156923E+04  0.13914064872E+04 0.  0.
        2    1    3    3  502    0  0.22385796322E+03  0.56064403419E+03 -0.79701299091E+03  0.99983190010E+03  0.25500000920E-02 0. -1.
       -2    1    3    3    0  502 -0.22385796322E+03 -0.56064403419E+03 -0.13083104532E-01  0.60368379218E+03  0.25500000920E-02 0.  1.
</event>
<event>
 5   0  0.1578965E-03  0.1409554E+04  0.7818609E-02  0.8946932E-01
        2   -1    0    0  501    0  0.00000000000E+00  0.00000000000E+00  0.13941784592E+04  0.13941784592E+04  0.25500000920E-02 0.  1.
       -2   -1    0    0    0  501  0.00000000000E+00  0.00000000000E+00 -0.35627483467E+03  0.35627483468E+03  0.25500000920E-02 0. -1.
    10030    2    1    2    0    0  0.00000000000E+00  0.00000000000E+00  0.10379036245E+04  0.17504532939E+04  0.14095541140E+04 0.  0.
        2    1    3    3  502    0  0.18334014445E+02 -0.29877129583E+03 -0.27341231698E+03  0.40540685537E+03  0.25500000920E-02 0. -1.
       -2    1    3    3    0  502 -0.18334014445E+02  0.29877129583E+03  0.13113159415E+04  0.13450464385E+04  0.25500000920E-02 0.  1.
</event>
<event>
 5   0  0.8502300E-04  0.1496426E+04  0.7818609E-02  0.8886833E-01
        1   -1    0    0  501    0  0.00000000000E+00  0.00000000000E+00  0.94808837386E+03  0.94808837387E+03  0.50400001928E-02 0.  1.
       -1   -1    0    0    0  501  0.00000000000E+00  0.00000000000E+00 -0.59047545681E+03  0.59047545683E+03  0.50400001928E-02 0. -1.
    10030    2    1    2    0    0  0.00000000000E+00  0.00000000000E+00  0.35761291704E+03  0.15385638307E+04  0.14964262971E+04 0.  0.
        4    1    3    3  502    0  0.51857981822E+03  0.45649839478E+03 -0.11651949325E+03  0.70063843565E+03  0.12699999809E+01 0.  1.
       -4    1    3    3    0  502 -0.51857981822E+03 -0.45649839478E+03  0.47413241029E+03  0.83792539506E+03  0.12699999809E+01 0. -1.
</event>
<event>
 5   0  0.1605214E-03  0.1385313E+04  0.7818609E-02  0.8964519E-01
       -2   -1    0    0    0  501  0.00000000000E+00  0.00000000000E+00  0.91909709074E+03  0.91909709074E+03  0.25500000920E-02 0.  1.
        2   -1    0    0  501    0  0.00000000000E+00  0.00000000000E+00 -0.52200508128E+03  0.52200508128E+03  0.25500000920E-02 0. -1.
    10030    2    1    2    0    0  0.00000000000E+00  0.00000000000E+00  0.39709200946E+03  0.14411021720E+04  0.13853134686E+04 0.  0.
        5    1    3    3  502    0  0.26757649129E+03  0.29669478779E+03 -0.39003654771E+03  0.55836867242E+03  0.46999998093E+01 0. -1.
       -5    1    3    3    0  502 -0.26757649129E+03 -0.29669478779E+03  0.78712855718E+03  0.88273349960E+03  0.46999998093E+01 0.  1.
</event>
<event>
 5   0  0.8502300E-04  0.1320414E+04  0.7818609E-02  0.9013531E-01
        1   -1    0    0  501    0  0.00000000000E+00  0.00000000000E+00  0.12650962756E+04  0.12650962756E+04  0.50400001928E-02 0. -1.
       -1   -1    0    0    0  501  0.00000000000E+00  0.00000000000E+00 -0.34453774826E+03  0.34453774830E+03  0.50400001928E-02 0.  1.
    10030    2    1    2    0    0  0.00000000000E+00  0.00000000000E+00  0.92055852735E+03  0.16096340239E+04  0.13204142110E+04 0.  0.
        4    1    3    3  502    0 -0.25275212220E+03 -0.47015399345E+03  0.93389269771E+03  0.10756791327E+04  0.12699999809E+01 0. -1.
       -4    1    3    3    0  502  0.25275212220E+03  0.47015399345E+03 -0.13334170355E+02  0.53395489120E+03  0.12699999809E+01 0.  1.
</event>
<event>
 5   0  0.1648463E-03  0.1384446E+04  0.7818609E-02  0.8965155E-01
       -2   -1    0    0    0  501  0.00000000000E+00  0.00000000000E+00  0.27477272921E+03  0.27477272922E+03  0.25500000920E-02 0.  1.
        2   -1    0    0  501    0  0.00000000000E+00  0.00000000000E+00 -0.17438864441E+04  0.17438864441E+04  0.25500000920E-02 0. -1.
    10030    2    1    2    0    0  0.00000000000E+00  0.00000000000E+00 -0.14691137149E+04  0.20186591733E+04  0.13844456475E+04 0.  0.
        1    1    3    3  502    0 -0.53444097215E+03  0.21681526135E+03 -0.17639534220E+03  0.60311800424E+03  0.50400001928E-02 0.  1.
       -1    1    3    3    0  502  0.53444097215E+03 -0.21681526135E+03 -0.12927183727E+04  0.14155411691E+04  0.50400001928E-02 0. -1.
</event>
<event>
 5   0  0.9007180E-04  0.1386740E+04  0.7818609E-02  0.8963473E-01
        1   -1    0    0  501    0  0.00000000000E+00  0.00000000000E+00  0.17199219024E+04  0.17199219024E+04  0.50400001928E-02 0. -1.
       -1   -1    0    0    0  501  0.00000000000E+00  0.00000000000E+00 -0.27952537711E+03  0.27952537715E+03  0.50400001928E-02 0.  1.
    10030    2    1    2    0    0  0.00000000000E+00  0.00000000000E+00  0.14403965253E+04  0.19994472796E+04  0.13867398003E+04 0.  0.
        2    1    3    3  502    0  0.43487475122E+03 -0.20219463979E+03 -0.18176835773E+01  0.47958526415E+03  0.25500000920E-02 0.  1.
       -2    1    3    3    0  502 -0.43487475122E+03  0.20219463979E+03  0.14422142089E+04  0.15198620154E+04  0.25500000920E-02 0. -1.
</event>
<event>
 5   0  0.9007180E-04  0.1407709E+04  0.7818609E-02  0.8948257E-01
        1   -1    0    0  501    0  0.00000000000E+00  0.00000000000E+00  0.10762498004E+04  0.10762498004E+04  0.50400001928E-02 0. -1.
       -1   -1    0    0    0  501  0.00000000000E+00  0.00000000000E+00 -0.46031231760E+03  0.46031231763E+03  0.50400001928E-02 0.  1.
    10030    2    1    2    0    0  0.00000000000E+00  0.00000000000E+00  0.61593748282E+03  0.15365621181E+04  0.14077088335E+04 0.  0.
        2    1    3    3  502    0  0.54243568315E+03 -0.11943354480E+03  0.77987287870E+03  0.95744584647E+03  0.25500000920E-02 0. -1.
       -2    1    3    3    0  502 -0.54243568315E+03  0.11943354480E+03 -0.16393539589E+03  0.57911627158E+03  0.25500000920E-02 0.  1.
</event>
<event>
 5   0  0.8609148E-04  0.1398625E+04  0.7818609E-02  0.8954814E-01
        1   -1    0    0  501    0  0.00000000000E+00  0.00000000000E+00  0.67358331468E+03  0.67358331470E+03  0.50400001928E-02 0. -1.
       -1   -1    0    0    0  501  0.00000000000E+00  0.00000000000E+00 -0.72602455971E+03  0.72602455973E+03  0.50400001928E-02 0.  1.
    10030    2    1    2    0    0  0.00000000000E+00  0.00000000000E+00 -0.52441245032E+02  0.13996078744E+04  0.13986250813E+04 0.  0.
        5    1    3    3  502    0 -0.21890184690E+03  0.53546926872E+03 -0.41939692806E+03  0.71453567412E+03  0.46999998093E+01 0.  1.
       -5    1    3    3    0  502  0.21890184690E+03 -0.53546926872E+03  0.36695568303E+03  0.68507220030E+03  0.46999998093E+01 0. -1.
</event>
<event>
 5   0  0.8609148E-04  0.1406025E+04  0.7818609E-02  0.8949469E-01
        1   -1    0    0  501    0  0.00000000000E+00  0.00000000000E+00  0.87653799235E+03  0.87653799237E+03  0.50400001928E-02 0. -1.
       -1   -1    0    0    0  501  0.00000000000E+00  0.00000000000E+00 -0.56383932530E+03  0.56383932532E+03  0.50400001928E-02 0.  1.
    10030    2    1    2    0    0  0.00000000000E+00  0.00000000000E+00  0.31269866706E+03  0.14403773177E+04  0.14060250214E+04 0.  0.
        5    1    3    3  502    0  0.23688070072E+03 -0.66103097521E+03  0.19078738129E+03  0.72766498570E+03  0.46999998093E+01 0. -1.
       -5    1    3    3    0  502 -0.23688070072E+03  0.66103097521E+03  0.12191128577E+03  0.71271233198E+03  0.46999998093E+01 0.  1.
</event>
<event>
 5   0  0.8502300E-04  0.1419411E+04  0.7818609E-02  0.8939887E-01
       -1   -1    0    0    0  501  0.00000000000E+00  0.00000000000E+00  0.26008370972E+03  0.26008370977E+03  0.50400001928E-02 0.  1.
        1   -1    0    0  501    0  0.00000000000E+00  0.00000000000E+00 -0.19366138488E+04  0.19366138488E+04  0.50400001928E-02 0. -1.
    10030    2    1    2    0    0  0.00000000000E+00  0.00000000000E+00 -0.16765301391E+04  0.21966975586E+04  0.14194107428E+04 0.  0.
        4    1    3    3  502    0 -0.54125601233E+03 -0.18343366630E+03 -0.18702708115E+03  0.60132081521E+03  0.12699999809E+01 0.  1.
       -4    1    3    3    0  502  0.54125601233E+03  0.18343366630E+03 -0.14895030579E+04  0.15953767434E+04  0.12699999809E+01 0. -1.
</event>
<event>
 5   0  0.1648213E-03  0.1397309E+04  0.7818609E-02  0.8955769E-01
        2   -1    0    0  501    0  0.00000000000E+00  0.00000000000E+00  0.16007444608E+04  0.16007444608E+04  0.25500000920E-02 0. -1.
       -2   -1    0    0    0  501  0.00000000000E+00  0.00000000000E+00 -0.30493185796E+03  0.30493185798E+03  0.25500000920E-02 0.  1.
    10030    2    1    2    0    0  0.00000000000E+00  0.00000000000E+00  0.12958126028E+04  0.19056763188E+04  0.13973088171E+04 0.  0.
        4    1    3    3  502    0 -0.58010354066E+03  0.14182574033E+03  0.11424326221E+04  0.12891037846E+04  0.12699999809E+01 0. -1.
       -4    1    3    3    0  502  0.58010354066E+03 -0.14182574033E+03  0.15337998072E+03  0.61657253417E+03  0.12699999809E+01 0.  1.
</event>
<event>
 5   0  0.1648463E-03  0.1403743E+04  0.7818609E-02  0.8951114E-01
       -2   -1    0    0    0  501  0.00000000000E+00  0.00000000000E+00  0.99728884529E+03  0.99728884529E+03  0.25500000920E-02 0. -1.
        2   -1    0    0  501    0  0.00000000000E+00  0.00000000000E+00 -0.49396282574E+03  0.49396282575E+03  0.25500000920E-02 0.  1.
    10030    2    1    2    0    0  0.00000000000E+00  0.00000000000E+00  0.50332601955E+03  0.14912516710E+04  0.14037430194E+04 0.  0.
        1    1    3    3  502    0  0.24074899972E+03  0.62008455729E+03  0.13740040986E+02  0.66532227364E+03  0.50400001928E-02 0.  1.
       -1    1    3    3    0  502 -0.24074899972E+03 -0.62008455729E+03  0.48958597856E+03  0.82592939739E+03  0.50400001928E-02 0. -1.
</event>
<event>
 5   0  0.1605214E-03  0.1394593E+04  0.7818609E-02  0.8957742E-01
        2   -1    0    0  501    0  0.00000000000E+00  0.00000000000E+00  0.13150611460E+04  0.13150611460E+04  0.25500000920E-02 0. -1.
       -2   -1    0    0    0  501  0.00000000000E+00  0.00000000000E+00 -0.36973370939E+03  0.36973370940E+03  0.25500000920E-02 0.  1.
    10030    2    1    2    0    0  0.00000000000E+00  0.00000000000E+00  0.94532743659E+03  0.16847948554E+04  0.13945930383E+04 0.  0.
        5    1    3    3  502    0  0.35972362509E+03 -0.58231519475E+03  0.31190014880E+03  0.75219403434E+03  0.46999998093E+01 0.  1.
       -5    1    3    3    0  502 -0.35972362509E+03  0.58231519475E+03  0.63342728780E+03  0.93260082104E+03  0.46999998093E+01 0. -1.
</event>
<event>
 5   0  0.1578965E-03  0.1395663E+04  0.7818609E-02  0.8956964E-01
       -2   -1    0    0    0  501  0.00000000000E+00  0.00000000000E+00  0.25907884806E+03  0.25907884807E+03  0.25500000920E-02 0. -1.
        2   -1    0    0  501    0  0.00000000000E+00  0.00000000000E+00 -0.18796159331E+04  0.18796159332E+04  0.25500000920E-02 0.  1.
    10030    2    1    2    0    0  0.00000000000E+00  0.00000000000E+00 -0.16205370851E+04  0.21386947812E+04  0.13956628974E+04 0.  0.
        2    1    3    3  502    0 -0.85410427602E+02  0.68697377036E+03 -0.94509092529E+03  0.11715053390E+04  0.25500000920E-02 0. -1.
       -2    1    3    3    0  502  0.85410427602E+02 -0.68697377036E+03 -0.67544615980E+03  0.96718944220E+03  0.25500000920E-02 0.  1.
</event>
<event>
 5   0  0.9007180E-04  0.1413253E+04  0.7818609E-02  0.8944281E-01
        1   -1    0    0  501    0  0.00000000000E+00  0.00000000000E+00  0.17300564680E+04  0.17300564680E+04  0.50400001928E-02 0.  1.
       -1   -1    0    0    0  501  0.00000000000E+00  0.00000000000E+00 -0.28861530267E+03  0.28861530271E+03  0.50400001928E-02 0. -1.
    10030    2    1    2    0    0  0.00000000000E+00  0.00000000000E+00  0.14414411654E+04  0.20186717708E+04  0.14132526614E+04 0.  0.
        2    1    3    3  502    0  0.29407077545E+03  0.10291455494E+03 -0.18520988551E+03  0.36245238072E+03  0.25500000920E-02 0. -1.
       -2    1    3    3    0  502 -0.29407077545E+03 -0.10291455494E+03  0.16266510509E+04  0.16562193900E+04  0.25500000920E-02 0.  1.
</event>
<event>
 5   0  0.9639548E-04  0.1414011E+04  0.7818609E-02  0.8943739E-01
       -1   -1    0    0    0  501  0.00000000000E+00  0.00000000000E+00  0.46707488499E+03  0.46707488502E+03  0.50400001928E-02 0. -1.
        1   -1    0    0  501    0  0.00000000000E+00  0.00000000000E+00 -0.10701850133E+04  0.10701850133E+04  0.50400001928E-02 0.  1.
    10030    2    1    2    0    0  0.00000000000E+00  0.00000000000E+00 -0.60311012831E+03  0.15372598983E+04  0.14140106676E+04 0.  0.
        1    1    3    3  502    0 -0.39808993396E+03  0.19562526092E+02 -0.93640442973E+03  0.10176991422E+04  0.50400001928E-02 0.  1.
       -1    1    3    3    0  502  0.39808993396E+03 -0.19562526092E+02  0.33329430142E+03  0.51956075615E+03  0.50400001928E-02 0. -1.
</event>
<event>
 5   0  0.1605214E-03  0.1409865E+04  0.7818609E-02  0.8946709E-01
        2   -1    0    0  501    0  0.00000000000E+00  0.00000000000E+00  0.65033091182E+03  0.65033091183E+03  0.25500000920E-02 0.  1.
       -2   -1    0    0    0  501  0.00000000000E+00  0.00000000000E+00 -0.76411831727E+03  0.76411831727E+03  0.25500000920E-02 0. -1.
    10030    2    1    2    0    0  0.00000000000E+00  0.00000000000E+00 -0.11378740545E+03  0.14144492291E+04  0.14098649042E+04 0.  0.
        5    1    3    3  502    0 -0.39475423303E+03 -0.14806404757E+03 -0.62366764749E+03  0.75281956085E+03  0.46999998093E+01 0. -1.
       -5    1    3    3    0  502  0.39475423303E+03  0.14806404757E+03  0.50988024205E+03  0.66162966825E+03  0.46999998093E+01 0.  1.
</event>
<event>
 5   0  0.1648463E-03  0.1374154E+04  0.7818609E-02  0.8972743E-01
       -2   -1    0    0    0  501  0.00000000000E+00  0.00000000000E+00  0.46453214686E+03  0.46453214687E+03  0.25500000920E-02 0.  1.
        2   -1    0    0  501    0  0.00000000000E+00  0.00000000000E+00 -0.10162369728E+04  0.10162369728E+04  0.25500000920E-02 0. -1.
    10030    2    1    2    0    0  0.00000000000E+00  0.00000000000E+00 -0.55170482593E+03  0.14807691197E+04  0.13741539109E+04 0.  0.
        1    1    3    3  502    0  0.67625963442E+03  0.82746873190E+02 -0.37163402268E+03  0.77607086339E+03  0.50400001928E-02 0. -1.
       -1    1    3    3    0  502 -0.67625963442E+03 -0.82746873190E+02 -0.18007080325E+03  0.70469825626E+03  0.50400001928E-02 0.  1.
</event>
<event>
 5   0  0.8609148E-04  0.1425310E+04  0.7818609E-02  0.8935699E-01
        1   -1    0    0  501    0  0.00000000000E+00  0.00000000000E+00  0.10976403815E+04  0.10976403815E+04  0.50400001928E-02 0.  1.
       -1   -1    0    0    0  501  0.00000000000E+00  0.00000000000E+00 -0.46269920339E+03  0.46269920341E+03  0.50400001928E-02 0. -1.
    10030    2    1    2    0    0  0.00000000000E+00  0.00000000000E+00  0.63494117807E+03  0.15603395849E+04  0.14253102541E+04 0.  0.
        5    1    3    3  502    0  0.19090120897E+03 -0.42849776817E+03 -0.26982446363E+03  0.54118475596E+03  0.46999998093E+01 0. -1.
       -5    1    3    3    0  502 -0.19090120897E+03  0.42849776817E+03  0.90476564170E+03  0.10191548289E+04  0.46999998093E+01 0.  1.
</event>
<event>
 5   0  0.8673728E-04  0.1395611E+04  0.7818609E-02  0.8957002E-01
        1   -1    0    0  501    0  0.00000000000E+00  0.00000000000E+00  0.72240388475E+03  0.72240388477E+03  0.50400001928E-02 0. -1.
       -1   -1    0    0    0  501  0.00000000000E+00  0.00000000000E+00 -0.67404450116E+03  0.67404450117E+03  0.50400001928E-02 0.  1.
    10030    2    1    2    0    0  0.00000000000E+00  0.00000000000E+00  0.48359383597E+02  0.13964483859E+04  0.13956107855E+04 0.  0.
        3    1    3    3  502    0  0.63188931942E+02  0.91355752408E+02 -0.66514133920E+03  0.67435282007E+03  0.10100000352E+00 0.  1.
       -3    1    3    3    0  502 -0.63188931942E+02 -0.91355752408E+02  0.71350072280E+03  0.72209556588E+03  0.10100000352E+00 0. -1.
</event>
<event>
 5   0  0.1605214E-03  0.1385626E+04  0.7818609E-02  0.8964290E-01
        2   -1    0    0  501    0  0.00000000000E+00  0.00000000000E+00  0.60932791140E+03  0.60932791141E+03  0.25500000920E-02 0.  1.
       -2   -1    0    0    0  501  0.00000000000E+00  0.00000000000E+00 -0.78773613768E+03  0.78773613769E+03  0.25500000920E-02 0. -1.
    10030    2    1    2    0    0  0.00000000000E+00  0.00000000000E+00 -0.17840822628E+03  0.13970640491E+04  0.13856256573E+04 0.  0.
        5    1    3    3  502    0 -0.59563598865E+02 -0.28671697384E+03  0.54384282950E+03  0.61769050388E+03  0.46999998093E+01 0.  1.
       -5    1    3    3    0  502  0.59563598865E+02  0.28671697384E+03 -0.72225105578E+03  0.77937354521E+03  0.46999998093E+01 0. -1.
</event>
<event>
 5   0  0.8673728E-04  0.1400527E+04  0.7818609E-02  0.8953437E-01
        1   -1    0    0  501    0  0.00000000000E+00  0.00000000000E+00  0.12233584947E+04  0.12233584947E+04  0.50400001928E-02 0. -1.
       -1   -1    0    0    0  501  0.00000000000E+00  0.00000000000E+00 -0.40083839698E+03  0.40083839701E+03  0.50400001928E-02 0.  1.
    10030    2    1    2    0    0  0.00000000000E+00  0.00000000000E+00  0.82252009768E+03  0.16241968917E+04  0.14005271264E+04 0.  0.
        3    1    3    3  502    0 -0.65875714517E+03 -0.21244728805E+03  0.28812252199E+03  0.74973957105E+03  0.10100000352E+00 0.  1.
       -3    1    3    3    0  502  0.65875714517E+03  0.21244728805E+03  0.53439757568E+03  0.87445732063E+03  0.10100000352E+00 0. -1.
</event>
<event>
 5   0  0.1605214E-03  0.1396381E+04  0.7818609E-02  0.8956442E-01
        2   -1    0    0  501    0  0.00000000000E+00  0.00000000000E+00  0.10216567855E+04  0.10216567855E+04  0.25500000920E-02 0. -1.
       -2   -1    0    0    0  501  0.00000000000E+00  0.00000000000E+00 -0.47713660700E+03  0.47713660701E+03  0.25500000920E-02 0.  1.
    10030    2    1    2    0    0  0.00000000000E+00  0.00000000000E+00  0.54452017853E+03  0.14987933925E+04  0.13963808251E+04 0.  0.
        5    1    3    3  502    0 -0.23060480811E+03 -0.38256359278E+03  0.84818981921E+03  0.95863524838E+03  0.46999998093E+01 0. -1.
       -5    1    3    3    0  502  0.23060480811E+03  0.38256359278E+03 -0.30366964067E+03  0.54015814416E+03  0.46999998093E+01 0.  1.
</event>
<event>
 5   0  0.9007180E-04  0.1327164E+04  0.7818609E-02  0.9008297E-01
       -1   -1    0    0    0  501  0.00000000000E+00  0.00000000000E+00  0.64291923897E+03  0.64291923899E+03  0.50400001928E-02 0.  1.
        1   -1    0    0  501    0  0.00000000000E+00  0.00000000000E+00 -0.68490850728E+03  0.68490850730E+03  0.50400001928E-02 0. -1.
    10030    2    1    2    0    0  0.00000000000E+00  0.00000000000E+00 -0.41989268316E+02  0.13278277463E+04  0.13271636769E+04 0.  0.
        2    1    3    3  502    0  0.56874031020E+02  0.32262979508E+03 -0.59835895631E+03  0.68217159182E+03  0.25500000920E-02 0. -1.
       -2    1    3    3    0  502 -0.56874031020E+02 -0.32262979508E+03  0.55636968799E+03  0.64565615447E+03  0.25500000920E-02 0.  1.
</event>
<event>
 5   0  0.1648463E-03  0.1379093E+04  0.7818609E-02  0.8969093E-01
        2   -1    0    0  501    0  0.00000000000E+00  0.00000000000E+00  0.64982548393E+03  0.64982548393E+03  0.25500000920E-02 0.  1.
       -2   -1    0    0    0  501  0.00000000000E+00  0.00000000000E+00 -0.73169508322E+03  0.73169508323E+03  0.25500000920E-02 0. -1.
    10030    2    1    2    0    0  0.00000000000E+00  0.00000000000E+00 -0.81869599293E+02  0.13815205672E+04  0.13790926170E+04 0.  0.
        1    1    3    3  502    0 -0.70962771268E+02 -0.17962122218E+03 -0.70404777699E+03  0.73005669004E+03  0.50400001928E-02 0. -1.
       -1    1    3    3    0  502  0.70962771268E+02  0.17962122218E+03  0.62217817769E+03  0.65146387712E+03  0.50400001928E-02 0.  1.
</event>
<event>
 5   0  0.9007180E-04  0.1397727E+04  0.7818609E-02  0.8955466E-01
        1   -1    0    0  501    0  0.00000000000E+00  0.00000000000E+00  0.70167326998E+03  0.70167327000E+03  0.50400001928E-02 0.  1.
       -1   -1    0    0    0  501  0.00000000000E+00  0.00000000000E+00 -0.69606470596E+03  0.69606470598E+03  0.50400001928E-02 0. -1.
    10030    2    1    2    0    0  0.00000000000E+00  0.00000000000E+00  0.56085640191E+01  0.13977379760E+04  0.13977267235E+04 0.  0.
        2    1    3    3  502    0  0.49071061301E+02 -0.42281817146E+03  0.55708919965E+03  0.70109311189E+03  0.25500000920E-02 0.  1.
       -2    1    3    3    0  502 -0.49071061301E+02  0.42281817146E+03 -0.55148063563E+03  0.69664486408E+03  0.25500000920E-02 0. -1.
</event>
<event>
 5   0  0.1648213E-03  0.1553725E+04  0.7818609E-02  0.8849492E-01
        2   -1    0    0  501    0  0.00000000000E+00  0.00000000000E+00  0.58958455379E+03  0.58958455379E+03  0.25500000920E-02 0.  1.
       -2   -1    0    0    0  501  0.00000000000E+00  0.00000000000E+00 -0.10236287049E+04  0.10236287049E+04  0.25500000920E-02 0. -1.
    10030    2    1    2    0    0  0.00000000000E+00  0.00000000000E+00 -0.43404415108E+03  0.16132132587E+04  0.15537254239E+04 0.  0.
        4    1    3    3  502    0  0.10495470979E+03  0.25312454687E+03  0.53773956273E+03  0.60353374186E+03  0.12699999809E+01 0.  1.
       -4    1    3    3    0  502 -0.10495470979E+03 -0.25312454687E+03 -0.97178371381E+03  0.10096795168E+04  0.12699999809E+01 0. -1.
</event>
<event>
 5   0  0.8502300E-04  0.1454031E+04  0.7818609E-02  0.8915611E-01
        1   -1    0    0  501    0  0.00000000000E+00  0.00000000000E+00  0.60519892723E+03  0.60519892725E+03  0.50400001928E-02 0.  1.
       -1   -1    0    0    0  501  0.00000000000E+00  0.00000000000E+00 -0.87335166213E+03  0.87335166214E+03  0.50400001928E-02 0. -1.
    10030    2    1    2    0    0  0.00000000000E+00  0.00000000000E+00 -0.26815273490E+03  0.14785505894E+04  0.14540309337E+04 0.  0.
        4    1    3    3  502    0 -0.51851860040E+03 -0.35091915440E+02 -0.65103596638E+03  0.83303206655E+03  0.12699999809E+01 0. -1.
       -4    1    3    3    0  502  0.51851860040E+03  0.35091915440E+02  0.38288323147E+03  0.64551852284E+03  0.12699999809E+01 0.  1.
</event>
<event>
 5   0  0.9007180E-04  0.1399869E+04  0.7818609E-02  0.8953913E-01
        1   -1    0    0  501    0  0.00000000000E+00  0.00000000000E+00  0.53731882211E+03  0.53731882213E+03  0.50400001928E-02 0. -1.
       -1   -1    0    0    0  501  0.00000000000E+00  0.00000000000E+00 -0.91176476070E+03  0.91176476071E+03  0.50400001928E-02 0.  1.
    10030    2    1    2    0    0  0.00000000000E+00  0.00000000000E+00 -0.37444593859E+03  0.14490835828E+04  0.13998690900E+04 0.  0.
        2    1    3    3  502    0 -0.50434548590E+03 -0.22673884938E+03 -0.63141668207E+03  0.83932228695E+03  0.25500000920E-02 0.  1.
       -2    1    3    3    0  502  0.50434548590E+03  0.22673884938E+03  0.25697074348E+03  0.60976129590E+03  0.25500000920E-02 0. -1.
</event>
<event>
 5   0  0.8609148E-04  0.1402414E+04  0.7818609E-02  0.8952073E-01
       -1   -1    0    0    0  501  0.00000000000E+00  0.00000000000E+00  0.14051358093E+04  0.14051358093E+04  0.50400001928E-02 0.  1.
        1   -1    0    0  501    0  0.00000000000E+00  0.00000000000E+00 -0.34992442256E+03  0.34992442259E+03  0.50400001928E-02 0. -1.
    10030    2    1    2    0    0  0.00000000000E+00  0.00000000000E+00  0.10552113868E+04  0.17550602319E+04  0.14024141139E+04 0.  0.
        5    1    3    3  502    0 -0.38036584441E+03 -0.57251810540E+03  0.35413518008E+03  0.77323280606E+03  0.46999998093E+01 0. -1.
       -5    1    3    3    0  502  0.38036584441E+03  0.57251810540E+03  0.70107620670E+03  0.98182742588E+03  0.46999998093E+01 0.  1.
</event>
<event>
 5   0  0.9007180E-04  0.1386075E+04  0.7818609E-02  0.8963960E-01
       -1   -1    0    0    0  501  0.00000000000E+00  0.00000000000E+00  0.94116995641E+03  0.94116995643E+03  0.50400001928E-02 0. -1.
        1   -1    0    0  501    0  0.00000000000E+00  0.00000000000E+00 -0.51032318446E+03  0.51032318448E+03  0.50400001928E-02 0.  1.
    10030    2    1    2    0    0  0.00000000000E+00  0.00000000000E+00  0.43084677196E+03  0.14514931409E+04  0.13860748166E+04 0.  0.
        2    1    3    3  502    0  0.13499500759E+03 -0.52366559129E+03 -0.23845102825E+03  0.59102300840E+03  0.25500000920E-02 0.  1.
       -2    1    3    3    0  502 -0.13499500759E+03  0.52366559129E+03  0.66929780021E+03  0.86047013251E+03  0.25500000920E-02 0. -1.
</event>
<event>
 5   0  0.8673728E-04  0.1378224E+04  0.7818609E-02  0.8969734E-01
        1   -1    0    0  501    0  0.00000000000E+00  0.00000000000E+00  0.15336468591E+04  0.15336468591E+04  0.50400001928E-02 0.  1.
       -1   -1    0    0    0  501  0.00000000000E+00  0.00000000000E+00 -0.30963780748E+03  0.30963780752E+03  0.50400001928E-02 0. -1.
    10030    2    1    2    0    0  0.00000000000E+00  0.00000000000E+00  0.12240090516E+04  0.18432846666E+04  0.13782235681E+04 0.  0.
        3    1    3    3  502    0 -0.49700263585E+03 -0.32482098309E+03  0.10798292331E+04  0.12322952057E+04  0.10100000352E+00 0.  1.
       -3    1    3    3    0  502  0.49700263585E+03  0.32482098309E+03  0.14417981850E+03  0.61098946092E+03  0.10100000352E+00 0. -1.
</event>
<event>
 5   0  0.8609148E-04  0.1421194E+04  0.7818609E-02  0.8938619E-01
       -1   -1    0    0    0  501  0.00000000000E+00  0.00000000000E+00  0.44065736581E+03  0.44065736584E+03  0.50400001928E-02 0. -1.
        1   -1    0    0  501    0  0.00000000000E+00  0.00000000000E+00 -0.11458970498E+04  0.11458970499E+04  0.50400001928E-02 0.  1.
    10030    2    1    2    0    0  0.00000000000E+00  0.00000000000E+00 -0.70523968404E+03  0.15865544157E+04  0.14211938299E+04 0.  0.
        5    1    3    3  502    0  0.69213878570E+03 -0.15265630684E+03 -0.29607195975E+03  0.76814109513E+03  0.46999998093E+01 0. -1.
       -5    1    3    3    0  502 -0.69213878570E+03  0.15265630684E+03 -0.40916772429E+03  0.81841332057E+03  0.46999998093E+01 0.  1.
</event>
<event>
 5   0  0.8609148E-04  0.1352533E+04  0.7818609E-02  0.8988913E-01
       -1   -1    0    0    0  501  0.00000000000E+00  0.00000000000E+00  0.31150988957E+03  0.31150988961E+03  0.50400001928E-02 0. -1.
        1   -1    0    0  501    0  0.00000000000E+00  0.00000000000E+00 -0.14681285603E+04  0.14681285603E+04  0.50400001928E-02 0.  1.
    10030    2    1    2    0    0  0.00000000000E+00  0.00000000000E+00 -0.11566186707E+04  0.17796384499E+04  0.13525332761E+04 0.  0.
        5    1    3    3  502    0  0.10079014781E+03 -0.11367157463E+03  0.28874443613E+03  0.32630556258E+03  0.46999998093E+01 0. -1.
       -5    1    3    3    0  502 -0.10079014781E+03  0.11367157463E+03 -0.14453631069E+04  0.14533328874E+04  0.46999998093E+01 0.  1.
</event>
<event>
 5   0  0.8609148E-04  0.1410773E+04  0.7818609E-02  0.8946057E-01
        1   -1    0    0  501    0  0.00000000000E+00  0.00000000000E+00  0.99933131393E+03  0.99933131395E+03  0.50400001928E-02 0.  1.
       -1   -1    0    0    0  501  0.00000000000E+00  0.00000000000E+00 -0.49790318297E+03  0.49790318299E+03  0.50400001928E-02 0. -1.
    10030    2    1    2    0    0  0.00000000000E+00  0.00000000000E+00  0.50142813097E+03  0.14972344969E+04  0.14107731810E+04 0.  0.
        5    1    3    3  502    0 -0.35008861555E+02 -0.27628100827E+03 -0.43707108593E+03  0.51827602692E+03  0.46999998093E+01 0. -1.
       -5    1    3    3    0  502  0.35008861555E+02  0.27628100827E+03  0.93849921690E+03  0.97895847003E+03  0.46999998093E+01 0.  1.
</event>
<event>
 5   0  0.1648213E-03  0.1408918E+04  0.7818609E-02  0.8947389E-01
       -2   -1    0    0    0  501  0.00000000000E+00  0.00000000000E+00  0.30985172745E+03  0.30985172746E+03  0.25500000920E-02 0. -1.
        2   -1    0    0  501    0  0.00000000000E+00  0.00000000000E+00 -0.16016120215E+04  0.16016120215E+04  0.25500000920E-02 0.  1.
    10030    2    1    2    0    0  0.00000000000E+00  0.00000000000E+00 -0.12917602941E+04  0.19114637490E+04  0.14089176719E+04 0.  0.
        4    1    3    3  502    0 -0.24612507474E+03  0.19202301567E+03  0.21088857659E+03  0.37673066718E+03  0.12699999809E+01 0. -1.
       -4    1    3    3    0  502  0.24612507474E+03 -0.19202301567E+03 -0.15026488706E+04  0.15347330818E+04  0.12699999809E+01 0.  1.
</event>
<event>
 5   0  0.8502300E-04  0.1387726E+04  0.7818609E-02  0.8962751E-01
        1   -1    0    0  501    0  0.00000000000E+00  0.00000000000E+00  0.40571557811E+03  0.40571557814E+03  0.50400001928E-02 0.  1.
       -1   -1    0    0    0  501  0.00000000000E+00  0.00000000000E+00 -0.11866586683E+04  0.11866586683E+04  0.50400001928E-02 0. -1.
    10030    2    1    2    0    0  0.00000000000E+00  0.00000000000E+00 -0.78094309015E+03  0.15923742464E+04  0.13877260647E+04 0.  0.
        4    1    3    3  502    0  0.12801808340E+03  0.18771431590E+03 -0.11427596671E+04  0.11651294193E+04  0.12699999809E+01 0. -1.
       -4    1    3    3    0  502 -0.12801808340E+03 -0.18771431590E+03  0.36181657692E+03  0.42724482713E+03  0.12699999809E+01 0.  1.
</event>
<event>
 5   0  0.1706986E-03  0.1659760E+04  0.7818609E-02  0.8784653E-01
        2   -1    0    0  501    0  0.00000000000E+00  0.00000000000E+00  0.16177192373E+04  0.16177192373E+04  0.25500000920E-02 0. -1.
       -2   -1    0    0    0  501  0.00000000000E+00  0.00000000000E+00 -0.42572352952E+03  0.42572352952E+03  0.25500000920E-02 0.  1.
    10030    2    1    2    0    0  0.00000000000E+00  0.00000000000E+00  0.11919957078E+04  0.20434427668E+04  0.16597603965E+04 0.  0.
        3    1    3    3  502    0 -0.54636361409E+03 -0.16832418150E+02  0.13647675620E+04  0.14701656497E+04  0.10100000352E+00 0. -1.
       -3    1    3    3    0  502  0.54636361409E+03  0.16832418150E+02 -0.17277185428E+03  0.57327711705E+03  0.10100000352E+00 0.  1.
</event>
<event>
 5   0  0.1648463E-03  0.1409540E+04  0.7818609E-02  0.8946942E-01
        2   -1    0    0  501    0  0.00000000000E+00  0.00000000000E+00  0.14469449116E+04  0.14469449116E+04  0.25500000920E-02 0.  1.
       -2   -1    0    0    0  501  0.00000000000E+00  0.00000000000E+00 -0.34327561877E+03  0.34327561878E+03  0.25500000920E-02 0. -1.
    10030    2    1    2    0    0  0.00000000000E+00  0.00000000000E+00  0.11036692928E+04  0.17902205304E+04  0.14095402227E+04 0.  0.
        1    1    3    3  502    0 -0.75367153150E+02 -0.56037713217E+03  0.10861694348E+04  0.12245271655E+04  0.50400001928E-02 0. -1.
       -1    1    3    3    0  502  0.75367153150E+02  0.56037713217E+03  0.17499858086E+02  0.56569336490E+03  0.50400001928E-02 0.  1.
</event>
<event>
 5   0  0.8502300E-04  0.1376683E+04  0.7818609E-02  0.8970872E-01
        1   -1    0    0  501    0  0.00000000000E+00  0.00000000000E+00  0.66863260447E+03  0.66863260449E+03  0.50400001928E-02 0.  1.
       -1   -1    0    0    0  501  0.00000000000E+00  0.00000000000E+00 -0.70863139079E+03  0.70863139081E+03  0.50400001928E-02 0. -1.
    10030    2    1    2    0    0  0.00000000000E+00  0.00000000000E+00 -0.39998786321E+02  0.13772639953E+04  0.13766830463E+04 0.  0.
        4    1    3    3  502    0  0.34989059701E+03 -0.25299869926E+03  0.51630580320E+03  0.67305651101E+03  0.12699999809E+01 0.  1.
       -4    1    3    3    0  502 -0.34989059701E+03  0.25299869926E+03 -0.55630458952E+03  0.70420748428E+03  0.12699999809E+01 0. -1.
</event>
<event>
 5   0  0.1648463E-03  0.1395642E+04  0.7818609E-02  0.8956979E-01
        2   -1    0    0  501    0  0.00000000000E+00  0.00000000000E+00  0.14820007326E+04  0.14820007326E+04  0.25500000920E-02 0.  1.
       -2   -1    0    0    0  501  0.00000000000E+00  0.00000000000E+00 -0.32857886319E+03  0.32857886320E+03  0.25500000920E-02 0. -1.
    10030    2    1    2    0    0  0.00000000000E+00  0.00000000000E+00  0.11534218694E+04  0.18105795958E+04  0.13956419541E+04 0.  0.
        1    1    3    3  502    0  0.34194675880E+03 -0.23028335229E+03  0.13071274267E+04  0.13705984524E+04  0.50400001928E-02 0.  1.
       -1    1    3    3    0  502 -0.34194675880E+03  0.23028335229E+03 -0.15370555725E+03  0.43998114340E+03  0.50400001928E-02 0. -1.
</event>
<event>
 5   0  0.1706986E-03  0.1402493E+04  0.7818609E-02  0.8952016E-01
       -2   -1    0    0    0  501  0.00000000000E+00  0.00000000000E+00  0.55526958386E+03  0.55526958386E+03  0.25500000920E-02 0. -1.
        2   -1    0    0  501    0  0.00000000000E+00  0.00000000000E+00 -0.88559945177E+03  0.88559945178E+03  0.25500000920E-02 0.  1.
    10030    2    1    2    0    0  0.00000000000E+00  0.00000000000E+00 -0.33032986792E+03  0.14408690356E+04  0.14024926938E+04 0.  0.
        3    1    3    3  502    0 -0.60562227866E+03 -0.65876473282E+02  0.19165461436E+03  0.63863100109E+03  0.10100000352E+00 0. -1.
       -3    1    3    3    0  502  0.60562227866E+03  0.65876473282E+02 -0.52198448228E+03  0.80223803455E+03  0.10100000352E+00 0.  1.
</event>
<event>
 5   0  0.9007180E-04  0.1386370E+04  0.7818609E-02  0.8963744E-01
        1   -1    0    0  501    0  0.00000000000E+00  0.00000000000E+00  0.88869553398E+03  0.88869553399E+03  0.50400001928E-02 0.  1.
       -1   -1    0    0    0  501  0.00000000000E+00  0.00000000000E+00 -0.54068591899E+03  0.54068591902E+03  0.50400001928E-02 0. -1.
    10030    2    1    2    0    0  0.00000000000E+00  0.00000000000E+00  0.34800961499E+03  0.14293814530E+04  0.13863695922E+04 0.  0.
        2    1    3    3  502    0 -0.38288267530E+03 -0.57759956670E+03  0.15660646536E+03  0.71045477512E+03  0.25500000920E-02 0.  1.
       -2    1    3    3    0  502  0.38288267530E+03  0.57759956670E+03  0.19140314962E+03  0.71892667789E+03  0.25500000920E-02 0. -1.
</event>
<event>
 5   0  0.1706986E-03  0.1406017E+04  0.7818609E-02  0.8949475E-01
        2   -1    0    0  501    0  0.00000000000E+00  0.00000000000E+00  0.87062872639E+03  0.87062872639E+03  0.25500000920E-02 0. -1.
       -2   -1    0    0    0  501  0.00000000000E+00  0.00000000000E+00 -0.56765965781E+03  0.56765965782E+03  0.25500000920E-02 0.  1.
    10030    2    1    2    0    0  0.00000000000E+00  0.00000000000E+00  0.30296906857E+03  0.14382883842E+04  0.14060167921E+04 0.  0.
        3    1    3    3  502    0 -0.20764613005E+02  0.47673328093E+03 -0.37661562399E+03  0.60790223616E+03  0.10100000352E+00 0.  1.
       -3    1    3    3    0  502  0.20764613005E+02 -0.47673328093E+03  0.67958469256E+03  0.83038614805E+03  0.10100000352E+00 0. -1.
</event>
<event>
 5   0  0.8502300E-04  0.1408560E+04  0.7818609E-02  0.8947646E-01
       -1   -1    0    0    0  501  0.00000000000E+00  0.00000000000E+00  0.30416295641E+03  0.30416295645E+03  0.50400001928E-02 0.  1.
        1   -1    0    0  501    0  0.00000000000E+00  0.00000000000E+00 -0.16307385612E+04  0.16307385612E+04  0.50400001928E-02 0. -1.
    10030    2    1    2    0    0  0.00000000000E+00  0.00000000000E+00 -0.13265756048E+04  0.19349015176E+04  0.14085599198E+04 0.  0.
        4    1    3    3  502    0 -0.33124461207E+03  0.60587430880E+03 -0.47293620652E+03  0.83694500382E+03  0.12699999809E+01 0.  1.
       -4    1    3    3    0  502  0.33124461207E+03 -0.60587430880E+03 -0.85363939826E+03  0.10979565138E+04  0.12699999809E+01 0. -1.
</event>
<event>
 5   0  0.9007180E-04  0.1421123E+04  0.7818609E-02  0.8938669E-01
        1   -1    0    0  501    0  0.00000000000E+00  0.00000000000E+00  0.51056091142E+03  0.51056091144E+03  0.50400001928E-02 0. -1.
       -1   -1    0    0    0  501  0.00000000000E+00  0.00000000000E+00 -0.98890710378E+03  0.98890710379E+03  0.50400001928E-02 0.  1.
    10030    2    1    2    0    0  0.00000000000E+00  0.00000000000E+00 -0.47834619236E+03  0.14994680152E+04  0.14211225313E+04 0.  0.
        2    1    3    3  502    0  0.21150115931E+03 -0.63288811871E+03  0.18453960937E+02  0.66754824536E+03  0.25500000920E-02 0. -1.
       -2    1    3    3    0  502 -0.21150115931E+03  0.63288811871E+03 -0.49680015330E+03  0.83191976988E+03  0.25500000920E-02 0.  1.
</event>
<event>
 5   0  0.9639548E-04  0.1323935E+04  0.7818609E-02  0.9010797E-01
        1   -1    0    0  501    0  0.00000000000E+00  0.00000000000E+00  0.11095006001E+04  0.11095006001E+04  0.50400001928E-02 0. -1.
       -1   -1    0    0    0  501  0.00000000000E+00  0.00000000000E+00 -0.39495322108E+03  0.39495322111E+03  0.50400001928E-02 0.  1.
    10030    2    1    2    0    0  0.00000000000E+00  0.00000000000E+00  0.71454737899E+03  0.15044538212E+04  0.13239347957E+04 0.  0.
        1    1    3    3  502    0  0.42201021445E+03 -0.10596797479E+03  0.92417360786E+03  0.10214786783E+04  0.50400001928E-02 0. -1.
       -1    1    3    3    0  502 -0.42201021445E+03  0.10596797479E+03 -0.20962622887E+03  0.48297514287E+03  0.50400001928E-02 0.  1.
</event>
<event>
 5   0  0.1648463E-03  0.1403001E+04  0.7818609E-02  0.8951649E-01
        2   -1    0    0  501    0  0.00000000000E+00  0.00000000000E+00  0.39808823590E+03  0.39808823591E+03  0.25500000920E-02 0. -1.
       -2   -1    0    0    0  501  0.00000000000E+00  0.00000000000E+00 -0.12361650398E+04  0.12361650398E+04  0.25500000920E-02 0.  1.
    10030    2    1    2    0    0  0.00000000000E+00  0.00000000000E+00 -0.83807680385E+03  0.16342532757E+04  0.14030007270E+04 0.  0.
        1    1    3    3  502    0  0.39420368352E+03  0.22365784757E+03 -0.10427197102E+04  0.11369625196E+04  0.50400001928E-02 0.  1.
       -1    1    3    3    0  502 -0.39420368352E+03 -0.22365784757E+03  0.20464290640E+03  0.49729075604E+03  0.50400001928E-02 0. -1.
</event>
<event>
 5   0  0.9639548E-04  0.1395019E+04  0.7818609E-02  0.8957432E-01
        1   -1    0    0  501    0  0.00000000000E+00  0.00000000000E+00  0.10713690496E+04  0.10713690496E+04  0.50400001928E-02 0.  1.
       -1   -1    0    0    0  501  0.00000000000E+00  0.00000000000E+00 -0.45411028518E+03  0.45411028521E+03  0.50400001928E-02 0. -1.
    10030    2    1    2    0    0  0.00000000000E+00  0.00000000000E+00  0.61725876441E+03  0.15254793348E+04  0.13950192897E+04 0.  0.
        1    1    3    3  502    0 -0.22849681784E+03 -0.64149228727E+03  0.14352419439E+03  0.69593271571E+03  0.50400001928E-02 0. -1.
       -1    1    3    3    0  502  0.22849681784E+03  0.64149228727E+03  0.47373457003E+03  0.82954661910E+03  0.50400001928E-02 0.  1.
</event>
<event>
 5   0  0.8502300E-04  0.1462879E+04  0.7818609E-02  0.8909520E-01
        1   -1    0    0  501    0  0.00000000000E+00  0.00000000000E+00  0.11366852620E+04  0.11366852621E+04  0.50400001928E-02 0.  1.
       -1   -1    0    0    0  501  0.00000000000E+00  0.00000000000E+00 -0.47066998065E+03  0.47066998068E+03  0.50400001928E-02 0. -1.
    10030    2    1    2    0    0  0.00000000000E+00  0.00000000000E+00  0.66601528139E+03  0.16073552427E+04  0.14628788471E+04 0.  0.
        4    1    3    3  502    0  0.24567267775E+03 -0.53649237498E+03 -0.14191026881E+03  0.60689312922E+03  0.12699999809E+01 0. -1.
       -4    1    3    3    0  502 -0.24567267775E+03  0.53649237498E+03  0.80792555021E+03  0.10004621135E+04  0.12699999809E+01 0.  1.
</event>
<event>
 5   0  0.1578965E-03  0.1421223E+04  0.7818609E-02  0.8938598E-01
       -2   -1    0    0    0  501  0.00000000000E+00  0.00000000000E+00  0.65469756426E+03  0.65469756426E+03  0.25500000920E-02 0. -1.
        2   -1    0    0  501    0  0.00000000000E+00  0.00000000000E+00 -0.77130022721E+03  0.77130022721E+03  0.25500000920E-02 0.  1.
    10030    2    1    2    0    0  0.00000000000E+00  0.00000000000E+00 -0.11660266295E+03  0.14259977915E+04  0.14212225443E+04 0.  0.
        2    1    3    3  502    0  0.15044174307E+03  0.51476373584E+03  0.40947747537E+03  0.67474900862E+03  0.25500000920E-02 0. -1.
       -2    1    3    3    0  502 -0.15044174307E+03 -0.51476373584E+03 -0.52608013832E+03  0.75124878285E+03  0.25500000920E-02 0.  1.
</event>
<event>
 5   0  0.1578965E-03  0.1404780E+04  0.7818609E-02  0.8950366E-01
        2   -1    0    0  501    0  0.00000000000E+00  0.00000000000E+00  0.17355438312E+04  0.17355438312E+04  0.25500000920E-02 0. -1.
       -2   -1    0    0    0  501  0.00000000000E+00  0.00000000000E+00 -0.28426329542E+03  0.28426329543E+03  0.25500000920E-02 0.  1.
    10030    2    1    2    0    0  0.00000000000E+00  0.00000000000E+00  0.14512805358E+04  0.20198071267E+04  0.14047795682E+04 0.  0.
        2    1    3    3  502    0  0.12702230567E+03 -0.38313239075E+03  0.15521329849E+04  0.16037586782E+04  0.25500000920E-02 0. -1.
       -2    1    3    3    0  502 -0.12702230567E+03  0.38313239075E+03 -0.10085244912E+03  0.41604844847E+03  0.25500000920E-02 0.  1.
</event>
<event>
 5   0  0.6048000E-04  0.1399902E+04  0.7818609E-02  0.8953889E-01
        4   -1    0    0  501    0  0.00000000000E+00  0.00000000000E+00  0.63719834407E+03  0.63719960968E+03  0.12699999809E+01 0. -1.
       -4   -1    0    0    0  501  0.00000000000E+00  0.00000000000E+00 -0.76888118774E+03  0.76888223660E+03  0.12699999809E+01 0.  1.
    10030    2    1    2    0    0  0.00000000000E+00  0.00000000000E+00 -0.13168284368E+03  0.14060818463E+04  0.13999020634E+04 0.  0.
        1    1    3    3  502    0  0.52667201064E+03  0.37229192375E+03 -0.33897338906E+03  0.72862036878E+03  0.50400001928E-02 0.  1.
       -1    1    3    3    0  502 -0.52667201064E+03 -0.37229192375E+03  0.20729054539E+03  0.67746147751E+03  0.50400001928E-02 0. -1.
</event>
<event>
 5   0  0.1648463E-03  0.1436214E+04  0.7818609E-02  0.8928014E-01
        2   -1    0    0  501    0  0.00000000000E+00  0.00000000000E+00  0.11709805603E+04  0.11709805603E+04  0.25500000920E-02 0. -1.
       -2   -1    0    0    0  501  0.00000000000E+00  0.00000000000E+00 -0.44038089005E+03  0.44038089006E+03  0.25500000920E-02 0.  1.
    10030    2    1    2    0    0  0.00000000000E+00  0.00000000000E+00  0.73059967026E+03  0.16113614504E+04  0.14362137186E+04 0.  0.
        1    1    3    3  502    0  0.42459975678E+03 -0.35319187913E+03  0.88023502680E+03  0.10391550218E+04  0.50400001928E-02 0. -1.
       -1    1    3    3    0  502 -0.42459975678E+03  0.35319187913E+03 -0.14963535654E+03  0.57220642857E+03  0.50400001928E-02 0.  1.
</event>
<event>
 5   0  0.8673728E-04  0.1375973E+04  0.7818609E-02  0.8971397E-01
        1   -1    0    0  501    0  0.00000000000E+00  0.00000000000E+00  0.14950485053E+04  0.14950485053E+04  0.50400001928E-02 0.  1.
       -1   -1    0    0    0  501  0.00000000000E+00  0.00000000000E+00 -0.31659534749E+03  0.31659534753E+03  0.50400001928E-02 0. -1.
    10030    2    1    2    0    0  0.00000000000E+00  0.00000000000E+00  0.11784531578E+04  0.18116438528E+04  0.13759729664E+04 0.  0.
        3    1    3    3  502    0  0.34185065180E+03  0.31373412195E+03 -0.79581864194E+02  0.47076984899E+03  0.10100000352E+00 0. -1.
       -3    1    3    3    0  502 -0.34185065180E+03 -0.31373412195E+03  0.12580350220E+04  0.13408740038E+04  0.10100000352E+00 0.  1.
</event>
<event>
 5   0  0.1648213E-03  0.1401482E+04  0.7818609E-02  0.8952747E-01
       -2   -1    0    0    0  501  0.00000000000E+00  0.00000000000E+00  0.24756468769E+03  0.24756468770E+03  0.25500000920E-02 0.  1.
        2   -1    0    0  501    0  0.00000000000E+00  0.00000000000E+00 -0.19834730854E+04  0.19834730854E+04  0.25500000920E-02 0. -1.
    10030    2    1    2    0    0  0.00000000000E+00  0.00000000000E+00 -0.17359083977E+04  0.22310377731E+04  0.14014819227E+04 0.  0.
        4    1    3    3  502    0  0.20911840528E+03  0.61334340057E+03 -0.12924779641E+04  0.14458290131E+04  0.12699999809E+01 0. -1.
       -4    1    3    3    0  502 -0.20911840528E+03 -0.61334340057E+03 -0.44343043357E+03  0.78520875999E+03  0.12699999809E+01 0.  1.
</event>
<event>
 5   0  0.1605214E-03  0.1405651E+04  0.7818609E-02  0.8949738E-01
        2   -1    0    0  501    0  0.00000000000E+00  0.00000000000E+00  0.16452707399E+04  0.16452707399E+04  0.25500000920E-02 0. -1.
       -2   -1    0    0    0  501  0.00000000000E+00  0.00000000000E+00 -0.30023234103E+03  0.30023234104E+03  0.25500000920E-02 0.  1.
    10030    2    1    2    0    0  0.00000000000E+00  0.00000000000E+00  0.13450383988E+04  0.19455030809E+04  0.14056507189E+04 0.  0.
        5    1    3    3  502    0 -0.39207054657E+03  0.32537160424E+03  0.24926869688E+01  0.50952359888E+03  0.46999998093E+01 0.  1.
       -5    1    3    3    0  502  0.39207054657E+03 -0.32537160424E+03  0.13425457119E+04  0.14359794820E+04  0.46999998093E+01 0. -1.
</event>
<event>
 5   0  0.1706986E-03  0.1390701E+04  0.7818609E-02  0.8960577E-01
       -2   -1    0    0    0  501  0.00000000000E+00  0.00000000000E+00  0.37564747246E+03  0.37564747247E+03  0.25500000920E-02 0. -1.
        2   -1    0    0  501    0  0.00000000000E+00  0.00000000000E+00 -0.12871436914E+04  0.12871436914E+04  0.25500000920E-02 0.  1.
    10030    2    1    2    0    0  0.00000000000E+00  0.00000000000E+00 -0.91149621889E+03  0.16627911638E+04  0.13907009375E+04 0.  0.
        3    1    3    3  502    0 -0.25448897115E+03 -0.41257787404E+03 -0.10518093180E+04  0.11581398837E+04  0.10100000352E+00 0.  1.
       -3    1    3    3    0  502  0.25448897115E+03  0.41257787404E+03  0.14031309908E+03  0.50465128015E+03  0.10100000352E+00 0. -1.
</event>
<event>
 5   0  0.9639548E-04  0.1334369E+04  0.7818609E-02  0.9002746E-01
        1   -1    0    0  501    0  0.00000000000E+00  0.00000000000E+00  0.14627795763E+04  0.14627795763E+04  0.50400001928E-02 0.  1.
       -1   -1    0    0    0  501  0.00000000000E+00  0.00000000000E+00 -0.30430756301E+03  0.30430756306E+03  0.50400001928E-02 0. -1.
    10030    2    1    2    0    0  0.00000000000E+00  0.00000000000E+00  0.11584720133E+04  0.17670871394E+04  0.13343685970E+04 0.  0.
        1    1    3    3  502    0  0.49785395073E+03  0.39548380070E+03  0.31151737137E+03  0.70803182525E+03  0.50400001928E-02 0.  1.
       -1    1    3    3    0  502 -0.49785395073E+03 -0.39548380070E+03  0.84695464196E+03  0.10590553142E+04  0.50400001928E-02 0. -1.
</event>
<event>
 5   0  0.9007180E-04  0.1421576E+04  0.7818609E-02  0.8938347E-01
        1   -1    0    0  501    0  0.00000000000E+00  0.00000000000E+00  0.36715161701E+03  0.36715161705E+03  0.50400001928E-02 0.  1.
       -1   -1    0    0    0  501  0.00000000000E+00  0.00000000000E+00 -0.13760512822E+04  0.13760512822E+04  0.50400001928E-02 0. -1.
    10030    2    1    2    0    0  0.00000000000E+00  0.00000000000E+00 -0.10088996652E+04  0.17432028992E+04  0.14215758205E+04 0.  0.
        2    1    3    3  502    0  0.60205980887E+02  0.26501445592E+03 -0.13098261772E+04  0.13377227054E+04  0.25500000920E-02 0. -1.
       -2    1    3    3    0  502 -0.60205980887E+02 -0.26501445592E+03  0.30092651202E+03  0.40548019388E+03  0.25500000920E-02 0.  1.
</event>
<event>
 5   0  0.9007180E-04  0.1403899E+04  0.7818609E-02  0.8951001E-01
       -1   -1    0    0    0  501  0.00000000000E+00  0.00000000000E+00  0.20761766342E+03  0.20761766348E+03  0.50400001928E-02 0.  1.
        1   -1    0    0  501    0  0.00000000000E+00  0.00000000000E+00 -0.23732716651E+04  0.23732716651E+04  0.50400001928E-02 0. -1.
    10030    2    1    2    0    0  0.00000000000E+00  0.00000000000E+00 -0.21656540016E+04  0.25808893285E+04  0.14038990246E+04 0.  0.
        2    1    3    3  502    0 -0.35846555023E+03  0.31020513471E+03 -0.13111035518E+03  0.49184825053E+03  0.25500000920E-02 0.  1.
       -2    1    3    3    0  502  0.35846555023E+03 -0.31020513471E+03 -0.20345436465E+04  0.20890410780E+04  0.25500000920E-02 0. -1.
</event>
<event>
 5   0  0.1578965E-03  0.1386433E+04  0.7818609E-02  0.8963698E-01
        2   -1    0    0  501    0  0.00000000000E+00  0.00000000000E+00  0.11542921262E+04  0.11542921262E+04  0.25500000920E-02 0.  1.
       -2   -1    0    0    0  501  0.00000000000E+00  0.00000000000E+00 -0.41631506694E+03  0.41631506695E+03  0.25500000920E-02 0. -1.
    10030    2    1    2    0    0  0.00000000000E+00  0.00000000000E+00  0.73797705931E+03  0.15706071932E+04  0.13864331269E+04 0.  0.
        2    1    3    3  502    0 -0.32102671400E+03 -0.30965164792E+03 -0.23217179288E+03  0.50283798144E+03  0.25500000920E-02 0. -1.
       -2    1    3    3    0  502  0.32102671400E+03  0.30965164792E+03  0.97014885219E+03  0.10677692118E+04  0.25500000920E-02 0.  1.
</event>
<event>
 5   0  0.1648213E-03  0.1411899E+04  0.7818609E-02  0.8945250E-01
        2   -1    0    0  501    0  0.00000000000E+00  0.00000000000E+00  0.70334597618E+03  0.70334597618E+03  0.25500000920E-02 0.  1.
       -2   -1    0    0    0  501  0.00000000000E+00  0.00000000000E+00 -0.70856250045E+03  0.70856250046E+03  0.25500000920E-02 0. -1.
    10030    2    1    2    0    0  0.00000000000E+00  0.00000000000E+00 -0.52165242747E+01  0.14119084766E+04  0.14118988400E+04 0.  0.
        4    1    3    3  502    0 -0.62573088651E+03 -0.13470078788E+03  0.29518484830E+03  0.70485399350E+03  0.12699999809E+01 0.  1.
       -4    1    3    3    0  502  0.62573088651E+03  0.13470078788E+03 -0.30040137258E+03  0.70705448314E+03  0.12699999809E+01 0. -1.
</event>
<event>
 5   0  0.1605214E-03  0.1486957E+04  0.7818609E-02  0.8893173E-01
        2   -1    0    0  501    0  0.00000000000E+00  0.00000000000E+00  0.16704150527E+04  0.16704150527E+04  0.25500000920E-02 0. -1.
       -2   -1    0    0    0  501  0.00000000000E+00  0.00000000000E+00 -0.33091213061E+03  0.33091213062E+03  0.25500000920E-02 0.  1.
    10030    2    1    2    0    0  0.00000000000E+00  0.00000000000E+00  0.13395029221E+04  0.20013271834E+04  0.14869574360E+04 0.  0.
        5    1    3    3  502    0 -0.60735578198E+03  0.11619518352E+02  0.92851277339E+02  0.61454007909E+03  0.46999998093E+01 0.  1.
       -5    1    3    3    0  502  0.60735578198E+03 -0.11619518352E+02  0.12466516448E+04  0.13867871043E+04  0.46999998093E+01 0. -1.
</event>
<event>
 5   0  0.9639548E-04  0.1393802E+04  0.7818609E-02  0.8958318E-01
        1   -1    0    0  501    0  0.00000000000E+00  0.00000000000E+00  0.13990712633E+04  0.13990712633E+04  0.50400001928E-02 0. -1.
       -1   -1    0    0    0  501  0.00000000000E+00  0.00000000000E+00 -0.34713794614E+03  0.34713794618E+03  0.50400001928E-02 0.  1.
    10030    2    1    2    0    0  0.00000000000E+00  0.00000000000E+00  0.10519333172E+04  0.17462092095E+04  0.13938015998E+04 0.  0.
        1    1    3    3  502    0 -0.18447604542E+03  0.65195757869E+02  0.13639548186E+04  0.13779167774E+04  0.50400001928E-02 0. -1.
       -1    1    3    3    0  502  0.18447604542E+03 -0.65195757869E+02 -0.31202150143E+03  0.36829243212E+03  0.50400001928E-02 0.  1.
</event>
<event>
 5   0  0.8502300E-04  0.1395816E+04  0.7818609E-02  0.8956852E-01
       -1   -1    0    0    0  501  0.00000000000E+00  0.00000000000E+00  0.44164990208E+03  0.44164990211E+03  0.50400001928E-02 0. -1.
        1   -1    0    0  501    0  0.00000000000E+00  0.00000000000E+00 -0.11028551852E+04  0.11028551852E+04  0.50400001928E-02 0.  1.
    10030    2    1    2    0    0  0.00000000000E+00  0.00000000000E+00 -0.66120528315E+03  0.15445050874E+04  0.13958164415E+04 0.  0.
        4    1    3    3  502    0 -0.12177811995E+03 -0.30712317876E+03 -0.10108405133E+04  0.10634635460E+04  0.12699999809E+01 0.  1.
       -4    1    3    3    0  502  0.12177811995E+03  0.30712317876E+03  0.34963523017E+03  0.48104154135E+03  0.12699999809E+01 0. -1.
</event>
<event>
 5   0  0.1578965E-03  0.1396799E+04  0.7818609E-02  0.8956139E-01
       -2   -1    0    0    0  501  0.00000000000E+00  0.00000000000E+00  0.25442311999E+03  0.25442312001E+03  0.25500000920E-02 0.  1.
        2   -1    0    0  501    0  0.00000000000E+00  0.00000000000E+00 -0.19171283671E+04  0.19171283671E+04  0.25500000920E-02 0. -1.
    10030    2    1    2    0    0  0.00000000000E+00  0.00000000000E+00 -0.16627052471E+04  0.21715514871E+04  0.13967988840E+04 0.  0.
        2    1    3    3  502    0 -0.28249980024E+03 -0.35341027542E+03 -0.16584812726E+04  0.17190884479E+04  0.25500000920E-02 0. -1.
       -2    1    3    3    0  502  0.28249980024E+03  0.35341027542E+03 -0.42239744744E+01  0.45246303924E+03  0.25500000920E-02 0.  1.
</event>
<event>
 5   0  0.1648463E-03  0.1332875E+04  0.7818609E-02  0.9003894E-01
        2   -1    0    0  501    0  0.00000000000E+00  0.00000000000E+00  0.69675493125E+03  0.69675493126E+03  0.25500000920E-02 0. -1.
       -2   -1    0    0    0  501  0.00000000000E+00  0.00000000000E+00 -0.63743944287E+03  0.63743944288E+03  0.25500000920E-02 0.  1.
    10030    2    1    2    0    0  0.00000000000E+00  0.00000000000E+00  0.59315488381E+02  0.13341943741E+04  0.13328752008E+04 0.  0.
        1    1    3    3  502    0  0.23739320281E+03 -0.13946462207E+03  0.63716298358E+03  0.69410559804E+03  0.50400001928E-02 0. -1.
       -1    1    3    3    0  502 -0.23739320281E+03  0.13946462207E+03 -0.57784749520E+03  0.64008877610E+03  0.50400001928E-02 0.  1.
</event>
<event>
 5   0  0.1648463E-03  0.1397945E+04  0.7818609E-02  0.8955307E-01
       -2   -1    0    0    0  501  0.00000000000E+00  0.00000000000E+00  0.38067901568E+03  0.38067901569E+03  0.25500000920E-02 0.  1.
        2   -1    0    0  501    0  0.00000000000E+00  0.00000000000E+00 -0.12833984368E+04  0.12833984368E+04  0.25500000920E-02 0. -1.
    10030    2    1    2    0    0  0.00000000000E+00  0.00000000000E+00 -0.90271942115E+03  0.16640774525E+04  0.13979454262E+04 0.  0.
        1    1    3    3  502    0  0.32769850185E+03 -0.61712291679E+03 -0.42954463568E+03  0.82020460655E+03  0.50400001928E-02 0. -1.
       -1    1    3    3    0  502 -0.32769850185E+03  0.61712291679E+03 -0.47317478547E+03  0.84387284597E+03  0.50400001928E-02 0.  1.
</event>
<event>
 5   0  0.9007180E-04  0.1397731E+04  0.7818609E-02  0.8955463E-01
       -1   -1    0    0    0  501  0.00000000000E+00  0.00000000000E+00  0.75973301507E+03  0.75973301509E+03  0.50400001928E-02 0.  1.
        1   -1    0    0  501    0  0.00000000000E+00  0.00000000000E+00 -0.64287424134E+03  0.64287424136E+03  0.50400001928E-02 0. -1.
    10030    2    1    2    0    0  0.00000000000E+00  0.00000000000E+00  0.11685877373E+03  0.14026072565E+04  0.13977307119E+04 0.  0.
        2    1    3    3  502    0  0.13357801744E+03 -0.18222873144E+03  0.72207051024E+03  0.75659514873E+03  0.25500000920E-02 0.  1.
       -2    1    3    3    0  502 -0.13357801744E+03  0.18222873144E+03 -0.60521173651E+03  0.64601210773E+03  0.25500000920E-02 0. -1.
</event>
<event>
 5   0  0.1605214E-03  0.1412318E+04  0.7818609E-02  0.8944950E-01
        2   -1    0    0  501    0  0.00000000000E+00  0.00000000000E+00  0.11779149644E+04  0.11779149644E+04  0.25500000920E-02 0.  1.
       -2   -1    0    0    0  501  0.00000000000E+00  0.00000000000E+00 -0.42334152338E+03  0.42334152339E+03  0.25500000920E-02 0. -1.
    10030    2    1    2    0    0  0.00000000000E+00  0.00000000000E+00  0.75457344102E+03  0.16012564878E+04  0.14123176915E+04 0.  0.
        5    1    3    3  502    0  0.47738259281E+03 -0.17475550063E+03 -0.17838611119E+03  0.53877390395E+03  0.46999998093E+01 0. -1.
       -5    1    3    3    0  502 -0.47738259281E+03  0.17475550063E+03  0.93295955221E+03  0.10624825838E+04  0.46999998093E+01 0.  1.
</event>
<event>
 5   0  0.8502300E-04  0.1340201E+04  0.7818609E-02  0.8998279E-01
       -1   -1    0    0    0  501  0.00000000000E+00  0.00000000000E+00  0.26311298934E+03  0.26311298939E+03  0.50400001928E-02 0. -1.
        1   -1    0    0  501    0  0.00000000000E+00  0.00000000000E+00 -0.17066230018E+04  0.17066230018E+04  0.50400001928E-02 0.  1.
    10030    2    1    2    0    0  0.00000000000E+00  0.00000000000E+00 -0.14435100124E+04  0.19697359912E+04  0.13402009995E+04 0.  0.
        4    1    3    3  502    0  0.22295992086E+03 -0.63041501470E+03 -0.65771027825E+03  0.93793317464E+03  0.12699999809E+01 0. -1.
       -4    1    3    3    0  502 -0.22295992086E+03  0.63041501470E+03 -0.78579973419E+03  0.10318028165E+04  0.12699999809E+01 0.  1.
</event>
<event>
 5   0  0.9639548E-04  0.1420928E+04  0.7818609E-02  0.8938808E-01
        1   -1    0    0  501    0  0.00000000000E+00  0.00000000000E+00  0.22120367629E+03  0.22120367635E+03  0.50400001928E-02 0.  1.
       -1   -1    0    0    0  501  0.00000000000E+00  0.00000000000E+00 -0.22818737783E+04  0.22818737783E+04  0.50400001928E-02 0. -1.
    10030    2    1    2    0    0  0.00000000000E+00  0.00000000000E+00 -0.20606701020E+04  0.25030774547E+04  0.14209276810E+04 0.  0.
        1    1    3    3  502    0  0.51642762673E+03  0.30151662997E+02 -0.17247599464E+03  0.54530228790E+03  0.50400001928E-02 0.  1.
       -1    1    3    3    0  502 -0.51642762673E+03 -0.30151662997E+02 -0.18881941074E+04  0.19577751668E+04  0.50400001928E-02 0. -1.
</event>
<event>
 5   0  0.9639548E-04  0.1406676E+04  0.7818609E-02  0.8949000E-01
        1   -1    0    0  501    0  0.00000000000E+00  0.00000000000E+00  0.10477575025E+04  0.10477575025E+04  0.50400001928E-02 0.  1.
       -1   -1    0    0    0  501  0.00000000000E+00  0.00000000000E+00 -0.47213626002E+03  0.47213626004E+03  0.50400001928E-02 0. -1.
    10030    2    1    2    0    0  0.00000000000E+00  0.00000000000E+00  0.57562124251E+03  0.15198937626E+04  0.14066759523E+04 0.  0.
        1    1    3    3  502    0  0.15914391397E+03 -0.57562503077E+03 -0.11359154705E+03  0.60792598315E+03  0.50400001928E-02 0. -1.
       -1    1    3    3    0  502 -0.15914391397E+03  0.57562503077E+03  0.68921278956E+03  0.91196777943E+03  0.50400001928E-02 0.  1.
</event>
<event>
 5   0  0.9007180E-04  0.1423146E+04  0.7818609E-02  0.8937233E-01
       -1   -1    0    0    0  501  0.00000000000E+00  0.00000000000E+00  0.11788718786E+04  0.11788718786E+04  0.50400001928E-02 0.  1.
        1   -1    0    0  501    0  0.00000000000E+00  0.00000000000E+00 -0.42950878937E+03  0.42950878940E+03  0.50400001928E-02 0. -1.
    10030    2    1    2    0    0  0.00000000000E+00  0.00000000000E+00  0.74936308921E+03  0.16083806680E+04  0.14231455771E+04 0.  0.
        2    1    3    3  502    0  0.27888154617E+01 -0.20585569525E+03  0.11444778162E+04  0.11628472885E+04  0.25500000920E-02 0.  1.
       -2    1    3    3    0  502 -0.27888154617E+01  0.20585569525E+03 -0.39511472695E+03  0.44553337946E+03  0.25500000920E-02 0. -1.
</event>
<event>
 5   0  0.8673728E-04  0.1403674E+04  0.7818609E-02  0.8951164E-01
        1   -1    0    0  501    0  0.00000000000E+00  0.00000000000E+00  0.66997913418E+03  0.66997913420E+03  0.50400001928E-02 0.  1.
       -1   -1    0    0    0  501  0.00000000000E+00  0.00000000000E+00 -0.73520953591E+03  0.73520953593E+03  0.50400001928E-02 0. -1.
    10030    2    1    2    0    0  0.00000000000E+00  0.00000000000E+00 -0.65230401736E+02  0.14051886701E+04  0.14036738201E+04 0.  0.
        3    1    3    3  502    0  0.25696209260E+03  0.65308004680E+03 -0.26954580082E+02  0.70233156283E+03  0.10100000352E+00 0.  1.
       -3    1    3    3    0  502 -0.25696209260E+03 -0.65308004680E+03 -0.38275821654E+02  0.70285710730E+03  0.10100000352E+00 0. -1.
</event>
<event>
 5   0  0.1706986E-03  0.1132001E+04  0.7818609E-02  0.9174551E-01
        2   -1    0    0  501    0  0.00000000000E+00  0.00000000000E+00  0.34893978502E+03  0.34893978503E+03  0.25500000920E-02 0. -1.
       -2   -1    0    0    0  501  0.00000000000E+00  0.00000000000E+00 -0.91808485351E+03  0.91808485351E+03  0.25500000920E-02 0.  1.
    10030    2    1    2    0    0  0.00000000000E+00  0.00000000000E+00 -0.56914506849E+03  0.12670246385E+04  0.11320005855E+04 0.  0.
        3    1    3    3  502    0  0.36705784748E+03 -0.45667383289E+02  0.19494335326E+03  0.41811469058E+03  0.10100000352E+00 0. -1.
       -3    1    3    3    0  502 -0.36705784748E+03  0.45667383289E+02 -0.76408842175E+03  0.84890994796E+03  0.10100000352E+00 0.  1.
</event>
<event>
 5   0  0.8673728E-04  0.1351311E+04  0.7818609E-02  0.8989837E-01
       -1   -1    0    0    0  501  0.00000000000E+00  0.00000000000E+00  0.23920214207E+03  0.23920214212E+03  0.50400001928E-02 0. -1.
        1   -1    0    0  501    0  0.00000000000E+00  0.00000000000E+00 -0.19084702193E+04  0.19084702194E+04  0.50400001928E-02 0.  1.
    10030    2    1    2    0    0  0.00000000000E+00  0.00000000000E+00 -0.16692680773E+04  0.21476723615E+04  0.13513107187E+04 0.  0.
        3    1    3    3  502    0  0.58179211473E+03  0.21999157031E+03 -0.41524544620E+03  0.74786840190E+03  0.10100000352E+00 0. -1.
       -3    1    3    3    0  502 -0.58179211473E+03 -0.21999157031E+03 -0.12540226311E+04  0.13998039596E+04  0.10100000352E+00 0.  1.
</event>
<event>
 5   0  0.1648213E-03  0.1157322E+04  0.7818609E-02  0.9151056E-01
        2   -1    0    0  501    0  0.00000000000E+00  0.00000000000E+00  0.28750124057E+03  0.28750124058E+03  0.25500000920E-02 0. -1.
       -2   -1    0    0    0  501  0.00000000000E+00  0.00000000000E+00 -0.11646847436E+04  0.11646847436E+04  0.25500000920E-02 0.  1.
    10030    2    1    2    0    0  0.00000000000E+00  0.00000000000E+00 -0.87718350303E+03  0.14521859842E+04  0.11573215779E+04 0.  0.
        4    1    3    3  502    0 -0.51428545830E+03 -0.87272675583E+01 -0.10594204075E+03  0.52515809687E+03  0.12699999809E+01 0. -1.
       -4    1    3    3    0  502  0.51428545830E+03  0.87272675583E+01 -0.77124146228E+03  0.92702788731E+03  0.12699999809E+01 0.  1.
</event>
<event>
 5   0  0.1706986E-03  0.1452567E+04  0.7818609E-02  0.8916623E-01
       -2   -1    0    0    0  501  0.00000000000E+00  0.00000000000E+00  0.44409343040E+03  0.44409343041E+03  0.25500000920E-02 0.  1.
        2   -1    0    0  501    0  0.00000000000E+00  0.00000000000E+00 -0.11877850366E+04  0.11877850366E+04  0.25500000920E-02 0. -1.
    10030    2    1    2    0    0  0.00000000000E+00  0.00000000000E+00 -0.74369160620E+03  0.16318784670E+04  0.14525667372E+04 0.  0.
        3    1    3    3  502    0 -0.63158196862E+03  0.10992118890E+03 -0.75531597275E+03  0.99069706760E+03  0.10100000352E+00 0. -1.
       -3    1    3    3    0  502  0.63158196862E+03 -0.10992118890E+03  0.11624366558E+02  0.64118139941E+03  0.10100000352E+00 0.  1.
</event>
<event>
 5   0  0.1578965E-03  0.1404709E+04  0.7818609E-02  0.8950417E-01
       -2   -1    0    0    0  501  0.00000000000E+00  0.00000000000E+00  0.25750406070E+03  0.25750406072E+03  0.25500000920E-02 0. -1.
        2   -1    0    0  501    0  0.00000000000E+00  0.00000000000E+00 -0.19157056274E+04  0.19157056274E+04  0.25500000920E-02 0.  1.
    10030    2    1    2    0    0  0.00000000000E+00  0.00000000000E+00 -0.16582015667E+04  0.21732096881E+04  0.14047091915E+04 0.  0.
        2    1    3    3  502    0 -0.43052245729E+03 -0.47911165756E+03 -0.12622978010E+04  0.14171426551E+04  0.25500000920E-02 0.  1.
       -2    1    3    3    0  502  0.43052245729E+03  0.47911165756E+03 -0.39590376571E+03  0.75606703297E+03  0.25500000920E-02 0. -1.
</event>
<event>
 5   0  0.8609148E-04  0.1383281E+04  0.7818609E-02  0.8966010E-01
       -1   -1    0    0    0  501  0.00000000000E+00  0.00000000000E+00  0.42154671108E+03  0.42154671111E+03  0.50400001928E-02 0.  1.
        1   -1    0    0  501    0  0.00000000000E+00  0.00000000000E+00 -0.11347896869E+04  0.11347896869E+04  0.50400001928E-02 0. -1.
    10030    2    1    2    0    0  0.00000000000E+00  0.00000000000E+00 -0.71324297579E+03  0.15563363980E+04  0.13832814035E+04 0.  0.
        5    1    3    3  502    0  0.29404713795E+03  0.14960528548E+03  0.32728976816E+03  0.46474309368E+03  0.46999998093E+01 0.  1.
       -5    1    3    3    0  502 -0.29404713795E+03 -0.14960528548E+03 -0.10405327440E+04  0.10915933043E+04  0.46999998093E+01 0. -1.
</event>
<event>
 5   0  0.9639548E-04  0.1394167E+04  0.7818609E-02  0.8958052E-01
        1   -1    0    0  501    0  0.00000000000E+00  0.00000000000E+00  0.81880732070E+03  0.81880732072E+03  0.50400001928E-02 0. -1.
       -1   -1    0    0    0  501  0.00000000000E+00  0.00000000000E+00 -0.59345516114E+03  0.59345516116E+03  0.50400001928E-02 0.  1.
    10030    2    1    2    0    0  0.00000000000E+00  0.00000000000E+00  0.22535215956E+03  0.14122624819E+04  0.13941670351E+04 0.  0.
        1    1    3    3  502    0 -0.51287063131E+03 -0.40154040728E+03 -0.13884988100E+03  0.66599570015E+03  0.50400001928E-02 0.  1.
       -1    1    3    3    0  502  0.51287063131E+03  0.40154040728E+03  0.36420204056E+03  0.74626678173E+03  0.50400001928E-02 0. -1.
</event>
<event>
 5   0  0.1648463E-03  0.1442021E+04  0.7818609E-02  0.8923951E-01
        2   -1    0    0  501    0  0.00000000000E+00  0.00000000000E+00  0.12330550186E+04  0.12330550186E+04  0.25500000920E-02 0. -1.
       -2   -1    0    0    0  501  0.00000000000E+00  0.00000000000E+00 -0.42159999981E+03  0.42159999982E+03  0.25500000920E-02 0.  1.
    10030    2    1    2    0    0  0.00000000000E+00  0.00000000000E+00  0.81145501880E+03  0.16546550184E+04  0.14420207982E+04 0.  0.
        1    1    3    3  502    0 -0.25547674548E+03 -0.65584945358E+03  0.22630886394E+03  0.73933928285E+03  0.50400001928E-02 0.  1.
       -1    1    3    3    0  502  0.25547674548E+03  0.65584945358E+03  0.58514615485E+03  0.91531573558E+03  0.50400001928E-02 0. -1.
</event>
<event>
 5   0  0.1648213E-03  0.1398968E+04  0.7818609E-02  0.8954566E-01
        2   -1    0    0  501    0  0.00000000000E+00  0.00000000000E+00  0.21241755872E+03  0.21241755873E+03  0.25500000920E-02 0.  1.
       -2   -1    0    0    0  501  0.00000000000E+00  0.00000000000E+00 -0.23033782079E+04  0.23033782079E+04  0.25500000920E-02 0. -1.
    10030    2    1    2    0    0  0.00000000000E+00  0.00000000000E+00 -0.20909606491E+04  0.25157957666E+04  0.13989681565E+04 0.  0.
        4    1    3    3  502    0  0.14587298101E+03  0.11928478954E+03  0.16591184226E+03  0.25106999005E+03  0.12699999809E+01 0.  1.
       -4    1    3    3    0  502 -0.14587298101E+03 -0.11928478954E+03 -0.22568724914E+04  0.22647257765E+04  0.12699999809E+01 0. -1.
</event>
<event>
 5   0  0.6048000E-04  0.1391975E+04  0.7818609E-02  0.8959648E-01
       -4   -1    0    0    0  501  0.00000000000E+00  0.00000000000E+00  0.81268065937E+03  0.81268165171E+03  0.12699999809E+01 0. -1.
        4   -1    0    0  501    0  0.00000000000E+00  0.00000000000E+00 -0.59604811595E+03  0.59604946894E+03  0.12699999809E+01 0.  1.
    10030    2    1    2    0    0  0.00000000000E+00  0.00000000000E+00  0.21663254342E+03  0.14087311207E+04  0.13919747524E+04 0.  0.
        4    1    3    3  502    0  0.32735545441E+03  0.10867172031E+03  0.72009768971E+03  0.79844438251E+03  0.12699999809E+01 0. -1.
       -4    1    3    3    0  502 -0.32735545441E+03 -0.10867172031E+03 -0.50346514629E+03  0.61028673815E+03  0.12699999809E+01 0.  1.
</event>
<event>
 5   0  0.1706986E-03  0.1396295E+04  0.7818609E-02  0.8956505E-01
        2   -1    0    0  501    0  0.00000000000E+00  0.00000000000E+00  0.10398695844E+04  0.10398695844E+04  0.25500000920E-02 0. -1.
       -2   -1    0    0    0  501  0.00000000000E+00  0.00000000000E+00 -0.46872229659E+03  0.46872229660E+03  0.25500000920E-02 0.  1.
    10030    2    1    2    0    0  0.00000000000E+00  0.00000000000E+00  0.57114728778E+03  0.15085918810E+04  0.13962951833E+04 0.  0.
        3    1    3    3  502    0 -0.11347836150E+03  0.26661362970E+03  0.97183465118E+03  0.10141118111E+04  0.10100000352E+00 0. -1.
       -3    1    3    3    0  502  0.11347836150E+03 -0.26661362970E+03 -0.40068736340E+03  0.49448006983E+03  0.10100000352E+00 0.  1.
</event>
<event>
 5   0  0.1648213E-03  0.1403620E+04  0.7818609E-02  0.8951202E-01
       -2   -1    0    0    0  501  0.00000000000E+00  0.00000000000E+00  0.55299555228E+03  0.55299555228E+03  0.25500000920E-02 0.  1.
        2   -1    0    0  501    0  0.00000000000E+00  0.00000000000E+00 -0.89067150105E+03  0.89067150106E+03  0.25500000920E-02 0. -1.
    10030    2    1    2    0    0  0.00000000000E+00  0.00000000000E+00 -0.33767594877E+03  0.14436670533E+04  0.14036201461E+04 0.  0.
        4    1    3    3  502    0  0.16691097451E+03  0.36636883648E+03  0.42241123396E+03  0.58353942560E+03  0.12699999809E+01 0.  1.
       -4    1    3    3    0  502 -0.16691097451E+03 -0.36636883648E+03 -0.76008718273E+03  0.86012762774E+03  0.12699999809E+01 0. -1.
</event>
<event>
 5   0  0.8609148E-04  0.1391566E+04  0.7818609E-02  0.8959946E-01
        1   -1    0    0  501    0  0.00000000000E+00  0.00000000000E+00  0.62265252130E+03  0.62265252132E+03  0.50400001928E-02 0.  1.
       -1   -1    0    0    0  501  0.00000000000E+00  0.00000000000E+00 -0.77750249861E+03  0.77750249862E+03  0.50400001928E-02 0. -1.
    10030    2    1    2    0    0  0.00000000000E+00  0.00000000000E+00 -0.15484997731E+03  0.14001550199E+04  0.13915658678E+04 0.  0.
        5    1    3    3  502    0  0.20466040608E+03 -0.66446271666E+03 -0.10395471000E+03  0.70301156134E+03  0.46999998093E+01 0. -1.
       -5    1    3    3    0  502 -0.20466040608E+03  0.66446271666E+03 -0.50895267304E+02  0.69714345861E+03  0.46999998093E+01 0.  1.
</event>
<event>
 5   0  0.9007180E-04  0.1404067E+04  0.7818609E-02  0.8950880E-01
        1   -1    0    0  501    0  0.00000000000E+00  0.00000000000E+00  0.15828516411E+04  0.15828516411E+04  0.50400001928E-02 0. -1.
       -1   -1    0    0    0  501  0.00000000000E+00  0.00000000000E+00 -0.31136885438E+03  0.31136885442E+03  0.50400001928E-02 0.  1.
    10030    2    1    2    0    0  0.00000000000E+00  0.00000000000E+00  0.12714827867E+04  0.18942204955E+04  0.14040665257E+04 0.  0.
        2    1    3    3  502    0  0.93188986709E+02 -0.19396078045E+03 -0.26577954228E+03  0.34197037401E+03  0.25500000920E-02 0.  1.
       -2    1    3    3    0  502 -0.93188986709E+02  0.19396078045E+03  0.15372623290E+04  0.15522501215E+04  0.25500000920E-02 0. -1.
</event>
<event>
 5   0  0.1648213E-03  0.1395308E+04  0.7818609E-02  0.8957222E-01
        2   -1    0    0  501    0  0.00000000000E+00  0.00000000000E+00  0.10381155170E+04  0.10381155170E+04  0.25500000920E-02 0.  1.
       -2   -1    0    0    0  501  0.00000000000E+00  0.00000000000E+00 -0.46885091585E+03  0.46885091586E+03  0.25500000920E-02 0. -1.
    10030    2    1    2    0    0  0.00000000000E+00  0.00000000000E+00  0.56926460114E+03  0.15069664329E+04  0.13953084403E+04 0.  0.
        4    1    3    3  502    0  0.26828512004E+03  0.19026361418E+02  0.97986984463E+03  0.10161129038E+04  0.12699999809E+01 0.  1.
       -4    1    3    3    0  502 -0.26828512004E+03 -0.19026361418E+02 -0.41060524348E+03  0.49085352901E+03  0.12699999809E+01 0. -1.
</event>
<event>
 5   0  0.1706986E-03  0.1420539E+04  0.7818609E-02  0.8939084E-01
       -2   -1    0    0    0  501  0.00000000000E+00  0.00000000000E+00  0.45523449485E+03  0.45523449485E+03  0.25500000920E-02 0. -1.
        2   -1    0    0  501    0  0.00000000000E+00  0.00000000000E+00 -0.11081820596E+04  0.11081820596E+04  0.25500000920E-02 0.  1.
    10030    2    1    2    0    0  0.00000000000E+00  0.00000000000E+00 -0.65294756470E+03  0.15634165544E+04  0.14205389119E+04 0.  0.
        3    1    3    3  502    0  0.52228057008E+03 -0.39572684231E+03 -0.62809284021E+03  0.90767689941E+03  0.10100000352E+00 0.  1.
       -3    1    3    3    0  502 -0.52228057008E+03  0.39572684231E+03 -0.24854724497E+02  0.65573965500E+03  0.10100000352E+00 0. -1.
</event>
<event>
 5   0  0.6048000E-04  0.1451968E+04  0.7818609E-02  0.8917037E-01
        3   -1    0    0  501    0  0.00000000000E+00  0.00000000000E+00  0.88655931226E+03  0.88655931801E+03  0.10100000352E+00 0. -1.
       -3   -1    0    0    0  501  0.00000000000E+00  0.00000000000E+00 -0.59449232573E+03  0.59449233431E+03  0.10100000352E+00 0.  1.
    10030    2    1    2    0    0  0.00000000000E+00  0.00000000000E+00  0.29206698653E+03  0.14810516523E+04  0.14519679309E+04 0.  0.
        1    1    3    3  502    0 -0.35634596078E+03  0.48844242276E+03  0.55594654327E+03  0.82136167619E+03  0.50400001928E-02 0. -1.
       -1    1    3    3    0  502  0.35634596078E+03 -0.48844242276E+03 -0.26387955675E+03  0.65968997613E+03  0.50400001928E-02 0.  1.
</event>
<event>
 5   0  0.1578965E-03  0.1390683E+04  0.7818609E-02  0.8960591E-01
       -2   -1    0    0    0  501  0.00000000000E+00  0.00000000000E+00  0.68823444424E+03  0.68823444424E+03  0.25500000920E-02 0. -1.
        2   -1    0    0  501    0  0.00000000000E+00  0.00000000000E+00 -0.70252152359E+03  0.70252152360E+03  0.25500000920E-02 0.  1.
    10030    2    1    2    0    0  0.00000000000E+00  0.00000000000E+00 -0.14287079353E+02  0.13907559678E+04  0.13906825811E+04 0.  0.
        2    1    3    3  502    0 -0.85601161608E+02 -0.55311288362E+02  0.68072457759E+03  0.68831159226E+03  0.25500000920E-02 0. -1.
       -2    1    3    3    0  502  0.85601161608E+02  0.55311288362E+02 -0.69501165695E+03  0.70244437558E+03  0.25500000920E-02 0.  1.
</event>
<event>
 5   0  0.1648213E-03  0.1364890E+04  0.7818609E-02  0.8979632E-01
       -2   -1    0    0    0  501  0.00000000000E+00  0.00000000000E+00  0.31734337305E+03  0.31734337306E+03  0.25500000920E-02 0. -1.
        2   -1    0    0  501    0  0.00000000000E+00  0.00000000000E+00 -0.14675943207E+04  0.14675943207E+04  0.25500000920E-02 0.  1.
    10030    2    1    2    0    0  0.00000000000E+00  0.00000000000E+00 -0.11502509476E+04  0.17849376937E+04  0.13648902256E+04 0.  0.
        4    1    3    3  502    0 -0.65960126967E+03  0.30041415167E+02 -0.80070185205E+03  0.10378349533E+04  0.12699999809E+01 0.  1.
       -4    1    3    3    0  502  0.65960126967E+03 -0.30041415167E+02 -0.34954909556E+03  0.74710274038E+03  0.12699999809E+01 0. -1.
</event>
<event>
 5   0  0.9639548E-04  0.1408426E+04  0.7818609E-02  0.8947742E-01
       -1   -1    0    0    0  501  0.00000000000E+00  0.00000000000E+00  0.90699221540E+03  0.90699221542E+03  0.50400001928E-02 0.  1.
        1   -1    0    0  501    0  0.00000000000E+00  0.00000000000E+00 -0.54677014069E+03  0.54677014071E+03  0.50400001928E-02 0. -1.
    10030    2    1    2    0    0  0.00000000000E+00  0.00000000000E+00  0.36022207471E+03  0.14537623561E+04  0.14084264429E+04 0.  0.
        1    1    3    3  502    0  0.43537391510E+03 -0.36494905403E+02  0.75018778710E+03  0.86813826088E+03  0.50400001928E-02 0.  1.
       -1    1    3    3    0  502 -0.43537391510E+03  0.36494905403E+02 -0.38996571239E+03  0.58562409525E+03  0.50400001928E-02 0. -1.
</event>
<event>
 5   0  0.1578965E-03  0.1401905E+04  0.7818609E-02  0.8952440E-01
       -2   -1    0    0    0  501  0.00000000000E+00  0.00000000000E+00  0.66003167345E+03  0.66003167345E+03  0.25500000920E-02 0. -1.
        2   -1    0    0  501    0  0.00000000000E+00  0.00000000000E+00 -0.74441087096E+03  0.74441087096E+03  0.25500000920E-02 0.  1.
    10030    2    1    2    0    0  0.00000000000E+00  0.00000000000E+00 -0.84379197512E+02  0.14044425444E+04  0.14019054931E+04 0.  0.
        2    1    3    3  502    0 -0.51341495101E+03 -0.32575756847E+03 -0.39156396526E+03  0.72321175615E+03  0.25500000920E-02 0.  1.
       -2    1    3    3    0  502  0.51341495101E+03  0.32575756847E+03  0.30718476774E+03  0.68123078826E+03  0.25500000920E-02 0. -1.
</event>
<event>
 5   0  0.8609148E-04  0.1398090E+04  0.7818609E-02  0.8955202E-01
        1   -1    0    0  501    0  0.00000000000E+00  0.00000000000E+00  0.12573160277E+04  0.12573160277E+04  0.50400001928E-02 0. -1.
       -1   -1    0    0    0  501  0.00000000000E+00  0.00000000000E+00 -0.38865660441E+03  0.38865660444E+03  0.50400001928E-02 0.  1.
    10030    2    1    2    0    0  0.00000000000E+00  0.00000000000E+00  0.86865942325E+03  0.16459726321E+04  0.13980903805E+04 0.  0.
        5    1    3    3  502    0  0.42046972846E+03 -0.46847782304E+03  0.79215128977E+03  0.10118260815E+04  0.46999998093E+01 0. -1.
       -5    1    3    3    0  502 -0.42046972846E+03  0.46847782304E+03  0.76508133486E+02  0.63414655066E+03  0.46999998093E+01 0.  1.
</event>
<event>
 5   0  0.8673728E-04  0.1388436E+04  0.7818609E-02  0.8962232E-01
       -1   -1    0    0    0  501  0.00000000000E+00  0.00000000000E+00  0.64388523626E+03  0.64388523628E+03  0.50400001928E-02 0.  1.
        1   -1    0    0  501    0  0.00000000000E+00  0.00000000000E+00 -0.74848557597E+03  0.74848557598E+03  0.50400001928E-02 0. -1.
    10030    2    1    2    0    0  0.00000000000E+00  0.00000000000E+00 -0.10460033971E+03  0.13923708123E+04  0.13884362599E+04 0.  0.
        3    1    3    3  502    0 -0.60245054017E+03  0.23186697622E+03  0.20382494495E+03  0.67694428604E+03  0.10100000352E+00 0.  1.
       -3    1    3    3    0  502  0.60245054017E+03 -0.23186697622E+03 -0.30842528466E+03  0.71542652623E+03  0.10100000352E+00 0. -1.
</event>
<event>
 5   0  0.1605214E-03  0.1397482E+04  0.7818609E-02  0.8955643E-01
        2   -1    0    0  501    0  0.00000000000E+00  0.00000000000E+00  0.22819864923E+04  0.22819864923E+04  0.25500000920E-02 0.  1.
       -2   -1    0    0    0  501  0.00000000000E+00  0.00000000000E+00 -0.21395352405E+03  0.21395352406E+03  0.25500000920E-02 0. -1.
    10030    2    1    2    0    0  0.00000000000E+00  0.00000000000E+00  0.20680329682E+04  0.24959400164E+04  0.13974820956E+04 0.  0.
        5    1    3    3  502    0 -0.47128566068E+03  0.49399555962E+03  0.12993792401E+04  0.14678386446E+04  0.46999998093E+01 0. -1.
       -5    1    3    3    0  502  0.47128566068E+03 -0.49399555962E+03  0.76865372814E+03  0.10281013718E+04  0.46999998093E+01 0.  1.
</event>
<event>
 5   0  0.8609148E-04  0.1359663E+04  0.7818609E-02  0.8983546E-01
        1   -1    0    0  501    0  0.00000000000E+00  0.00000000000E+00  0.36689466906E+03  0.36689466910E+03  0.50400001928E-02 0.  1.
       -1   -1    0    0    0  501  0.00000000000E+00  0.00000000000E+00 -0.12596822270E+04  0.12596822271E+04  0.50400001928E-02 0. -1.
    10030    2    1    2    0    0  0.00000000000E+00  0.00000000000E+00 -0.89278755798E+03  0.16265768962E+04  0.13596627433E+04 0.  0.
        5    1    3    3  502    0 -0.66502019740E+03  0.10076147293E+03 -0.32830488260E+03  0.74847239316E+03  0.46999998093E+01 0.  1.
       -5    1    3    3    0  502  0.66502019740E+03 -0.10076147293E+03 -0.56448267537E+03  0.87810450299E+03  0.46999998093E+01 0. -1.
</event>
<event>
 5   0  0.1706986E-03  0.1403338E+04  0.7818609E-02  0.8951406E-01
        2   -1    0    0  501    0  0.00000000000E+00  0.00000000000E+00  0.14189737612E+04  0.14189737612E+04  0.25500000920E-02 0. -1.
       -2   -1    0    0    0  501  0.00000000000E+00  0.00000000000E+00 -0.34696887394E+03  0.34696887395E+03  0.25500000920E-02 0.  1.
    10030    2    1    2    0    0  0.00000000000E+00  0.00000000000E+00  0.10720048872E+04  0.17659426351E+04  0.14033384881E+04 0.  0.
        3    1    3    3  502    0  0.20917972463E+03 -0.44222365711E+02  0.13769852192E+04  0.13934848685E+04  0.10100000352E+00 0. -1.
       -3    1    3    3    0  502 -0.20917972463E+03  0.44222365711E+02 -0.30498033193E+03  0.37245776659E+03  0.10100000352E+00 0.  1.
</event>
<event>
 5   0  0.9639548E-04  0.1420546E+04  0.7818609E-02  0.8939079E-01
        1   -1    0    0  501    0  0.00000000000E+00  0.00000000000E+00  0.15013435556E+04  0.15013435556E+04  0.50400001928E-02 0. -1.
       -1   -1    0    0    0  501  0.00000000000E+00  0.00000000000E+00 -0.33602401069E+03  0.33602401073E+03  0.50400001928E-02 0.  1.
    10030    2    1    2    0    0  0.00000000000E+00  0.00000000000E+00  0.11653195449E+04  0.18373675663E+04  0.14205456459E+04 0.  0.
        1    1    3    3  502    0  0.66909264555E+02  0.32839207583E+02 -0.33095187516E+03  0.33924092757E+03  0.50400001928E-02 0.  1.
       -1    1    3    3    0  502 -0.66909264555E+02 -0.32839207583E+02  0.14962714200E+04  0.14981266387E+04  0.50400001928E-02 0. -1.
</event>
<event>
 5   0  0.8609148E-04  0.1399843E+04  0.7818609E-02  0.8953932E-01
       -1   -1    0    0    0  501  0.00000000000E+00  0.00000000000E+00  0.44633778074E+03  0.44633778077E+03  0.50400001928E-02 0. -1.
        1   -1    0    0  501    0  0.00000000000E+00  0.00000000000E+00 -0.10975765808E+04  0.10975765809E+04  0.50400001928E-02 0.  1.
    10030    2    1    2    0    0  0.00000000000E+00  0.00000000000E+00 -0.65123880010E+03  0.15439143616E+04  0.13998426988E+04 0.  0.
        5    1    3    3  502    0 -0.13787774926E+03 -0.22801954145E+03 -0.10394264123E+04  0.10730482476E+04  0.46999998093E+01 0.  1.
       -5    1    3    3    0  502  0.13787774926E+03  0.22801954145E+03  0.38818761224E+03  0.47086611401E+03  0.46999998093E+01 0. -1.
</event>
<event>
 5   0  0.1706986E-03  0.1393029E+04  0.7818609E-02  0.8958880E-01
        2   -1    0    0  501    0  0.00000000000E+00  0.00000000000E+00  0.11179086406E+04  0.11179086406E+04  0.25500000920E-02 0.  1.
       -2   -1    0    0    0  501  0.00000000000E+00  0.00000000000E+00 -0.43396434509E+03  0.43396434509E+03  0.25500000920E-02 0. -1.
    10030    2    1    2    0    0  0.00000000000E+00  0.00000000000E+00  0.68394429551E+03  0.15518729857E+04  0.13930290608E+04 0.  0.
        3    1    3    3  502    0 -0.81448528756E+02 -0.41905428718E+03 -0.27114009148E+03  0.50572454741E+03  0.10100000352E+00 0. -1.
       -3    1    3    3    0  502  0.81448528756E+02  0.41905428718E+03  0.95508438700E+03  0.10461484383E+04  0.10100000352E+00 0.  1.
</event>
<event>
 5   0  0.1605214E-03  0.1402773E+04  0.7818609E-02  0.8951814E-01
        2   -1    0    0  501    0  0.00000000000E+00  0.00000000000E+00  0.11607286192E+04  0.11607286192E+04  0.25500000920E-02 0.  1.
       -2   -1    0    0    0  501  0.00000000000E+00  0.00000000000E+00 -0.42382265122E+03  0.42382265123E+03  0.25500000920E-02 0. -1.
    10030    2    1    2    0    0  0.00000000000E+00  0.00000000000E+00  0.73690596799E+03  0.15845512704E+04  0.14027730832E+04 0.  0.
        5    1    3    3  502    0 -0.64891780370E+03  0.20250244685E+03  0.56351314063E+03  0.88298964128E+03  0.46999998093E+01 0.  1.
       -5    1    3    3    0  502  0.64891780370E+03 -0.20250244685E+03  0.17339282736E+03  0.70156162917E+03  0.46999998093E+01 0. -1.
</event>
<event>
 5   0  0.1605214E-03  0.1385515E+04  0.7818609E-02  0.8964371E-01
       -2   -1    0    0    0  501  0.00000000000E+00  0.00000000000E+00  0.54788251806E+03  0.54788251807E+03  0.25500000920E-02 0.  1.
        2   -1    0    0  501    0  0.00000000000E+00  0.00000000000E+00 -0.87594113184E+03  0.87594113184E+03  0.25500000920E-02 0. -1.
    10030    2    1    2    0    0  0.00000000000E+00  0.00000000000E+00 -0.32805861378E+03  0.14238236499E+04  0.13855148256E+04 0.  0.
        5    1    3    3  502    0  0.17923588011E+03 -0.64503925957E+02 -0.84848129554E+03  0.86961419955E+03  0.46999998093E+01 0. -1.
       -5    1    3    3    0  502 -0.17923588011E+03  0.64503925957E+02  0.52042268176E+03  0.55420945036E+03  0.46999998093E+01 0.  1.
</event>
<event>
 5   0  0.8502300E-04  0.1390231E+04  0.7818609E-02  0.8960920E-01
        1   -1    0    0  501    0  0.00000000000E+00  0.00000000000E+00  0.81825607853E+03  0.81825607855E+03  0.50400001928E-02 0.  1.
       -1   -1    0    0    0  501  0.00000000000E+00  0.00000000000E+00 -0.59050636234E+03  0.59050636236E+03  0.50400001928E-02 0. -1.
    10030    2    1    2    0    0  0.00000000000E+00  0.00000000000E+00  0.22774971619E+03  0.14087624409E+04  0.13902308016E+04 0.  0.
        4    1    3    3  502    0  0.68442496176E+03 -0.12131962876E+03  0.10852941832E+03  0.70351704183E+03  0.12699999809E+01 0.  1.
       -4    1    3    3    0  502 -0.68442496176E+03  0.12131962876E+03  0.11922029786E+03  0.70524539908E+03  0.12699999809E+01 0. -1.
</event>
<event>
 5   0  0.6048000E-04  0.1377249E+04  0.7818609E-02  0.8970454E-01
        3   -1    0    0  501    0  0.00000000000E+00  0.00000000000E+00  0.15102831383E+04  0.15102831416E+04  0.10100000352E+00 0. -1.
       -3   -1    0    0    0  501  0.00000000000E+00  0.00000000000E+00 -0.31398320871E+03  0.31398322496E+03  0.10100000352E+00 0.  1.
    10030    2    1    2    0    0  0.00000000000E+00  0.00000000000E+00  0.11962999296E+04  0.18242663666E+04  0.13772487992E+04 0.  0.
        4    1    3    3  502    0 -0.18939587054E+03  0.49179384185E+03  0.11852659983E+04  0.12971465138E+04  0.12699999809E+01 0. -1.
       -4    1    3    3    0  502  0.18939587054E+03 -0.49179384185E+03  0.11033931247E+02  0.52711985279E+03  0.12699999809E+01 0.  1.
</event>
<event>
 5   0  0.8502300E-04  0.1387754E+04  0.7818609E-02  0.8962731E-01
        1   -1    0    0  501    0  0.00000000000E+00  0.00000000000E+00  0.95372555817E+03  0.95372555818E+03  0.50400001928E-02 0. -1.
       -1   -1    0    0    0  501  0.00000000000E+00  0.00000000000E+00 -0.50482575662E+03  0.50482575664E+03  0.50400001928E-02 0.  1.
    10030    2    1    2    0    0  0.00000000000E+00  0.00000000000E+00  0.44889980155E+03  0.14585513148E+04  0.13877539069E+04 0.  0.
        4    1    3    3  502    0  0.34986409779E+03 -0.15094980116E+01  0.85423244584E+03  0.92310446318E+03  0.12699999809E+01 0. -1.
       -4    1    3    3    0  502 -0.34986409779E+03  0.15094980116E+01 -0.40533264429E+03  0.53544685165E+03  0.12699999809E+01 0.  1.
</event>
<event>
 5   0  0.8673728E-04  0.1435716E+04  0.7818609E-02  0.8928363E-01
        1   -1    0    0  501    0  0.00000000000E+00  0.00000000000E+00  0.24966263819E+04  0.24966263819E+04  0.50400001928E-02 0.  1.
       -1   -1    0    0    0  501  0.00000000000E+00  0.00000000000E+00 -0.20640671274E+03  0.20640671280E+03  0.50400001928E-02 0. -1.
    10030    2    1    2    0    0  0.00000000000E+00  0.00000000000E+00  0.22902196691E+04  0.27030330947E+04  0.14357164685E+04 0.  0.
        3    1    3    3  502    0 -0.29226697868E+03  0.33064599082E+03  0.79135840035E+02  0.44834055076E+03  0.10100000352E+00 0. -1.
       -3    1    3    3    0  502  0.29226697868E+03 -0.33064599082E+03  0.22110838291E+04  0.22546925439E+04  0.10100000352E+00 0.  1.
</event>
<event>
 5   0  0.9639548E-04  0.1439872E+04  0.7818609E-02  0.8925452E-01
        1   -1    0    0  501    0  0.00000000000E+00  0.00000000000E+00  0.74221671590E+03  0.74221671592E+03  0.50400001928E-02 0. -1.
       -1   -1    0    0    0  501  0.00000000000E+00  0.00000000000E+00 -0.69832448886E+03  0.69832448888E+03  0.50400001928E-02 0.  1.
    10030    2    1    2    0    0  0.00000000000E+00  0.00000000000E+00  0.43892227036E+02  0.14405412048E+04  0.14398723676E+04 0.  0.
        1    1    3    3  502    0 -0.43525074563E+03 -0.16917330214E+03  0.57014707169E+03  0.73697388089E+03  0.50400001928E-02 0. -1.
       -1    1    3    3    0  502  0.43525074563E+03  0.16917330214E+03 -0.52625484465E+03  0.70356732391E+03  0.50400001928E-02 0.  1.
</event>
<event>
 5   0  0.1605214E-03  0.1395697E+04  0.7818609E-02  0.8956939E-01
        2   -1    0    0  501    0  0.00000000000E+00  0.00000000000E+00  0.21643916499E+04  0.21643916499E+04  0.25500000920E-02 0. -1.
       -2   -1    0    0    0  501  0.00000000000E+00  0.00000000000E+00 -0.22500203648E+03  0.22500203650E+03  0.25500000920E-02 0.  1.
    10030    2    1    2    0    0  0.00000000000E+00  0.00000000000E+00  0.19393896134E+04  0.23893936864E+04  0.13956970001E+04 0.  0.
        5    1    3    3  502    0 -0.33325419022E+03  0.77363445389E+02 -0.71554129894E+02  0.34955048489E+03  0.46999998093E+01 0.  1.
       -5    1    3    3    0  502  0.33325419022E+03 -0.77363445389E+02  0.20109437433E+04  0.20398432015E+04  0.46999998093E+01 0. -1.
</event>
<event>
 5   0  0.1605214E-03  0.1393137E+04  0.7818609E-02  0.8958802E-01
        2   -1    0    0  501    0  0.00000000000E+00  0.00000000000E+00  0.10094862711E+04  0.10094862711E+04  0.25500000920E-02 0.  1.
       -2   -1    0    0    0  501  0.00000000000E+00  0.00000000000E+00 -0.48064791693E+03  0.48064791693E+03  0.25500000920E-02 0. -1.
    10030    2    1    2    0    0  0.00000000000E+00  0.00000000000E+00  0.52883835420E+03  0.14901341881E+04  0.13931367103E+04 0.  0.
        5    1    3    3  502    0  0.59669260045E+03 -0.13027339795E+03 -0.93820920814E+02  0.61793015206E+03  0.46999998093E+01 0. -1.
       -5    1    3    3    0  502 -0.59669260045E+03  0.13027339795E+03  0.62265927502E+03  0.87220403600E+03  0.46999998093E+01 0.  1.
</event>
<event>
 5   0  0.6048000E-04  0.1406311E+04  0.7818609E-02  0.8949263E-01
        4   -1    0    0  501    0  0.00000000000E+00  0.00000000000E+00  0.27582916694E+03  0.27583209065E+03  0.12699999809E+01 0. -1.
       -4   -1    0    0    0  501  0.00000000000E+00  0.00000000000E+00 -0.17925025398E+04  0.17925029897E+04  0.12699999809E+01 0.  1.
    10030    2    1    2    0    0  0.00000000000E+00  0.00000000000E+00 -0.15166733729E+04  0.20683350803E+04  0.14063114465E+04 0.  0.
        2    1    3    3  502    0 -0.17639294902E+03 -0.12574940452E+02 -0.17592644550E+04  0.17681300925E+04  0.25500000920E-02 0.  1.
       -2    1    3    3    0  502  0.17639294902E+03  0.12574940452E+02  0.24259108211E+03  0.30020498783E+03  0.25500000920E-02 0. -1.
</event>
<event>
 5   0  0.9639548E-04  0.1408807E+04  0.7818609E-02  0.8947468E-01
       -1   -1    0    0    0  501  0.00000000000E+00  0.00000000000E+00  0.35072283736E+03  0.35072283739E+03  0.50400001928E-02 0.  1.
        1   -1    0    0  501    0  0.00000000000E+00  0.00000000000E+00 -0.14147484542E+04  0.14147484542E+04  0.50400001928E-02 0. -1.
    10030    2    1    2    0    0  0.00000000000E+00  0.00000000000E+00 -0.10640256168E+04  0.17654712916E+04  0.14088074276E+04 0.  0.
        1    1    3    3  502    0 -0.16127375406E+03  0.38838701091E+02 -0.13899217202E+04  0.13997857181E+04  0.50400001928E-02 0. -1.
       -1    1    3    3    0  502  0.16127375406E+03 -0.38838701091E+02  0.32589610333E+03  0.36568557347E+03  0.50400001928E-02 0.  1.
</event>
<event>
 5   0  0.1648463E-03  0.1395928E+04  0.7818609E-02  0.8956771E-01
        2   -1    0    0  501    0  0.00000000000E+00  0.00000000000E+00  0.81398119139E+03  0.81398119139E+03  0.25500000920E-02 0.  1.
       -2   -1    0    0    0  501  0.00000000000E+00  0.00000000000E+00 -0.59848291659E+03  0.59848291659E+03  0.25500000920E-02 0. -1.
    10030    2    1    2    0    0  0.00000000000E+00  0.00000000000E+00  0.21549827480E+03  0.14124641080E+04  0.13959281321E+04 0.  0.
        1    1    3    3  502    0 -0.58297995669E+03 -0.23143093936E+03  0.41752592301E+03  0.75349439680E+03  0.50400001928E-02 0.  1.
       -1    1    3    3    0  502  0.58297995669E+03  0.23143093936E+03 -0.20202764820E+03  0.65896971119E+03  0.50400001928E-02 0. -1.
</event>
<event>
 5   0  0.1648463E-03  0.1373209E+04  0.7818609E-02  0.8973443E-01
        2   -1    0    0  501    0  0.00000000000E+00  0.00000000000E+00  0.17337687871E+04  0.17337687871E+04  0.25500000920E-02 0.  1.
       -2   -1    0    0    0  501  0.00000000000E+00  0.00000000000E+00 -0.27190816076E+03  0.27190816077E+03  0.25500000920E-02 0. -1.
    10030    2    1    2    0    0  0.00000000000E+00  0.00000000000E+00  0.14618606263E+04  0.20056769479E+04  0.13732092078E+04 0.  0.
        1    1    3    3  502    0 -0.27966301898E+03  0.26534422163E+03  0.15607728557E+04  0.16076787202E+04  0.50400001928E-02 0.  1.
       -1    1    3    3    0  502  0.27966301898E+03 -0.26534422163E+03 -0.98912229345E+02  0.39799822773E+03  0.50400001928E-02 0. -1.
</event>
<event>
 5   0  0.8673728E-04  0.1376486E+04  0.7818609E-02  0.8971017E-01
        1   -1    0    0  501    0  0.00000000000E+00  0.00000000000E+00  0.94822460473E+03  0.94822460474E+03  0.50400001928E-02 0. -1.
       -1   -1    0    0    0  501  0.00000000000E+00  0.00000000000E+00 -0.49954256841E+03  0.49954256844E+03  0.50400001928E-02 0.  1.
    10030    2    1    2    0    0  0.00000000000E+00  0.00000000000E+00  0.44868203631E+03  0.14477671732E+04  0.13764861852E+04 0.  0.
        3    1    3    3  502    0 -0.45283544484E+03  0.51394655187E+03  0.29472063486E+03  0.74569515293E+03  0.10100000352E+00 0.  1.
       -3    1    3    3    0  502  0.45283544484E+03 -0.51394655187E+03  0.15396140145E+03  0.70207202025E+03  0.10100000352E+00 0. -1.
</event>
<event>
 5   0  0.1648213E-03  0.1381611E+04  0.7818609E-02  0.8967238E-01
        2   -1    0    0  501    0  0.00000000000E+00  0.00000000000E+00  0.20842303305E+04  0.20842303305E+04  0.25500000920E-02 0.  1.
       -2   -1    0    0    0  501  0.00000000000E+00  0.00000000000E+00 -0.22896342546E+03  0.22896342548E+03  0.25500000920E-02 0. -1.
    10030    2    1    2    0    0  0.00000000000E+00  0.00000000000E+00  0.18552669051E+04  0.23131937560E+04  0.13816114011E+04 0.  0.
        4    1    3    3  502    0  0.55829969911E+03 -0.78331376929E+02  0.15960363226E+04  0.16926806889E+04  0.12699999809E+01 0.  1.
       -4    1    3    3    0  502 -0.55829969911E+03  0.78331376929E+02  0.25923058245E+03  0.62051306708E+03  0.12699999809E+01 0. -1.
</event>
<event>
 5   0  0.9007180E-04  0.1394381E+04  0.7818609E-02  0.8957896E-01
       -1   -1    0    0    0  501  0.00000000000E+00  0.00000000000E+00  0.49367023027E+03  0.49367023030E+03  0.50400001928E-02 0. -1.
        1   -1    0    0  501    0  0.00000000000E+00  0.00000000000E+00 -0.98461340409E+03  0.98461340411E+03  0.50400001928E-02 0.  1.
    10030    2    1    2    0    0  0.00000000000E+00  0.00000000000E+00 -0.49094317382E+03  0.14782836344E+04  0.13943806166E+04 0.  0.
        2    1    3    3  502    0 -0.62829081140E+03  0.29148446876E+03 -0.33003178374E+03  0.76722455481E+03  0.25500000920E-02 0.  1.
       -2    1    3    3    0  502  0.62829081140E+03 -0.29148446876E+03 -0.16091139008E+03  0.71105907960E+03  0.25500000920E-02 0. -1.
</event>
<event>
 5   0  0.1578965E-03  0.1399835E+04  0.7818609E-02  0.8953938E-01
       -2   -1    0    0    0  501  0.00000000000E+00  0.00000000000E+00  0.27636449818E+03  0.27636449819E+03  0.25500000920E-02 0.  1.
        2   -1    0    0  501    0  0.00000000000E+00  0.00000000000E+00 -0.17726026810E+04  0.17726026810E+04  0.25500000920E-02 0. -1.
    10030    2    1    2    0    0  0.00000000000E+00  0.00000000000E+00 -0.14962381828E+04  0.20489671792E+04  0.13998349194E+04 0.  0.
        2    1    3    3  502    0  0.26540720691E+03  0.21895621579E+03  0.14403227877E+03  0.37299880328E+03  0.25500000920E-02 0.  1.
       -2    1    3    3    0  502 -0.26540720691E+03 -0.21895621579E+03 -0.16402704616E+04  0.16759683759E+04  0.25500000920E-02 0. -1.
</event>
<event>
 5   0  0.9639548E-04  0.1399997E+04  0.7818609E-02  0.8953821E-01
        1   -1    0    0  501    0  0.00000000000E+00  0.00000000000E+00  0.66184450839E+03  0.66184450841E+03  0.50400001928E-02 0. -1.
       -1   -1    0    0    0  501  0.00000000000E+00  0.00000000000E+00 -0.74035198536E+03  0.74035198538E+03  0.50400001928E-02 0.  1.
    10030    2    1    2    0    0  0.00000000000E+00  0.00000000000E+00 -0.78507476969E+02  0.14021964938E+04  0.13999969940E+04 0.  0.
        1    1    3    3  502    0 -0.15216230057E+03 -0.19127176480E+03 -0.69622606978E+03  0.73788142272E+03  0.50400001928E-02 0.  1.
       -1    1    3    3    0  502  0.15216230057E+03  0.19127176480E+03  0.61771859281E+03  0.66431507107E+03  0.50400001928E-02 0. -1.
</event>
<event>
 5   0  0.1578965E-03  0.1422461E+04  0.7818609E-02  0.8937719E-01
        2   -1    0    0  501    0  0.00000000000E+00  0.00000000000E+00  0.13400398078E+04  0.13400398078E+04  0.25500000920E-02 0.  1.
       -2   -1    0    0    0  501  0.00000000000E+00  0.00000000000E+00 -0.37748772728E+03  0.37748772729E+03  0.25500000920E-02 0. -1.
    10030    2    1    2    0    0  0.00000000000E+00  0.00000000000E+00  0.96255208049E+03  0.17175275351E+04  0.14224606589E+04 0.  0.
        2    1    3    3  502    0  0.18342070524E+03 -0.45654112543E+03  0.11014032342E+04  0.12063009735E+04  0.25500000920E-02 0.  1.
       -2    1    3    3    0  502 -0.18342070524E+03  0.45654112543E+03 -0.13885115375E+03  0.51122656154E+03  0.25500000920E-02 0. -1.
</event>
<event>
 5   0  0.1605214E-03  0.1458674E+04  0.7818609E-02  0.8912409E-01
       -2   -1    0    0    0  501  0.00000000000E+00  0.00000000000E+00  0.16348849202E+04  0.16348849202E+04  0.25500000920E-02 0.  1.
        2   -1    0    0  501    0  0.00000000000E+00  0.00000000000E+00 -0.32536372415E+03  0.32536372416E+03  0.25500000920E-02 0. -1.
    10030    2    1    2    0    0  0.00000000000E+00  0.00000000000E+00  0.13095211961E+04  0.19602486444E+04  0.14586737075E+04 0.  0.
        5    1    3    3  502    0 -0.60706439466E+03 -0.58584251195E+02  0.11922207869E+04  0.13391683197E+04  0.46999998093E+01 0.  1.
       -5    1    3    3    0  502  0.60706439466E+03  0.58584251195E+02  0.11730040919E+03  0.62108032471E+03  0.46999998093E+01 0. -1.
</event>
<event>
 5   0  0.1605214E-03  0.1413491E+04  0.7818609E-02  0.8944110E-01
       -2   -1    0    0    0  501  0.00000000000E+00  0.00000000000E+00  0.33027797133E+03  0.33027797134E+03  0.25500000920E-02 0. -1.
        2   -1    0    0  501    0  0.00000000000E+00  0.00000000000E+00 -0.15123307780E+04  0.15123307780E+04  0.25500000920E-02 0.  1.
    10030    2    1    2    0    0  0.00000000000E+00  0.00000000000E+00 -0.11820528067E+04  0.18426087493E+04  0.14134914805E+04 0.  0.
        5    1    3    3  502    0  0.50997490483E+03  0.11586706982E+03 -0.12107004106E+04  0.13188317389E+04  0.46999998093E+01 0.  1.
       -5    1    3    3    0  502 -0.50997490483E+03 -0.11586706982E+03  0.28647603901E+02  0.52377701041E+03  0.46999998093E+01 0. -1.
</event>
<event>
 5   0  0.6048000E-04  0.1405442E+04  0.7818609E-02  0.8949889E-01
       -4   -1    0    0    0  501  0.00000000000E+00  0.00000000000E+00  0.46696540814E+03  0.46696713514E+03  0.12699999809E+01 0.  1.
        4   -1    0    0  501    0  0.00000000000E+00  0.00000000000E+00 -0.10574979118E+04  0.10574986744E+04  0.12699999809E+01 0. -1.
    10030    2    1    2    0    0  0.00000000000E+00  0.00000000000E+00 -0.59053250362E+03  0.15244658095E+04  0.14054420538E+04 0.  0.
        1    1    3    3  502    0  0.10139308254E+03 -0.98272895931E+02 -0.10419528363E+04  0.10514769766E+04  0.50400001928E-02 0. -1.
       -1    1    3    3    0  502 -0.10139308254E+03  0.98272895931E+02  0.45142033267E+03  0.47298883289E+03  0.50400001928E-02 0.  1.
</event>
<event>
 5   0  0.8673728E-04  0.1391023E+04  0.7818609E-02  0.8960343E-01
       -1   -1    0    0    0  501  0.00000000000E+00  0.00000000000E+00  0.96522177813E+03  0.96522177814E+03  0.50400001928E-02 0. -1.
        1   -1    0    0  501    0  0.00000000000E+00  0.00000000000E+00 -0.50116559539E+03  0.50116559542E+03  0.50400001928E-02 0.  1.
    10030    2    1    2    0    0  0.00000000000E+00  0.00000000000E+00  0.46405618273E+03  0.14663873736E+04  0.13910225694E+04 0.  0.
        3    1    3    3  502    0  0.21325221668E+03  0.33538135378E+03  0.83372243657E+03  0.92360720645E+03  0.10100000352E+00 0. -1.
       -3    1    3    3    0  502 -0.21325221668E+03 -0.33538135378E+03 -0.36966625383E+03  0.54278016711E+03  0.10100000352E+00 0.  1.
</event>
<event>
 5   0  0.8673728E-04  0.1509675E+04  0.7818609E-02  0.8878045E-01
       -1   -1    0    0    0  501  0.00000000000E+00  0.00000000000E+00  0.30053494174E+03  0.30053494178E+03  0.50400001928E-02 0.  1.
        1   -1    0    0  501    0  0.00000000000E+00  0.00000000000E+00 -0.18958839008E+04  0.18958839008E+04  0.50400001928E-02 0. -1.
    10030    2    1    2    0    0  0.00000000000E+00  0.00000000000E+00 -0.15953489590E+04  0.21964188425E+04  0.15096746109E+04 0.  0.
        3    1    3    3  502    0  0.50698529246E+03  0.21593553567E+03 -0.15482047357E+04  0.16433502841E+04  0.10100000352E+00 0. -1.
       -3    1    3    3    0  502 -0.50698529246E+03 -0.21593553567E+03 -0.47144223283E+02  0.55306855843E+03  0.10100000352E+00 0.  1.
</event>
<event>
 5   0  0.8609148E-04  0.1445991E+04  0.7818609E-02  0.8921184E-01
        1   -1    0    0  501    0  0.00000000000E+00  0.00000000000E+00  0.21791071528E+04  0.21791071528E+04  0.50400001928E-02 0.  1.
       -1   -1    0    0    0  501  0.00000000000E+00  0.00000000000E+00 -0.23987925266E+03  0.23987925271E+03  0.50400001928E-02 0. -1.
    10030    2    1    2    0    0  0.00000000000E+00  0.00000000000E+00  0.19392279001E+04  0.24189864055E+04  0.14459911415E+04 0.  0.
        5    1    3    3  502    0  0.56187246152E+03  0.33286015139E+01  0.20851490053E+03  0.59934322082E+03  0.46999998093E+01 0. -1.
       -5    1    3    3    0  502 -0.56187246152E+03 -0.33286015139E+01  0.17307129996E+04  0.18196431847E+04  0.46999998093E+01 0.  1.
</event>
<event>
 5   0  0.1648463E-03  0.1353310E+04  0.7818609E-02  0.8988326E-01
       -2   -1    0    0    0  501  0.00000000000E+00  0.00000000000E+00  0.19736166140E+04  0.19736166140E+04  0.25500000920E-02 0. -1.
        2   -1    0    0  501    0  0.00000000000E+00  0.00000000000E+00 -0.23199127599E+03  0.23199127600E+03  0.25500000920E-02 0.  1.
    10030    2    1    2    0    0  0.00000000000E+00  0.00000000000E+00  0.17416253380E+04  0.22056078900E+04  0.13533097748E+04 0.  0.
        1    1    3    3  502    0 -0.51907868775E+03  0.42282215430E+03  0.71078958640E+03  0.97644410715E+03  0.50400001928E-02 0.  1.
       -1    1    3    3    0  502  0.51907868775E+03 -0.42282215430E+03  0.10308357516E+04  0.12291637829E+04  0.50400001928E-02 0. -1.
</event>
<event>
 5   0  0.8609148E-04  0.1402786E+04  0.7818609E-02  0.8951804E-01
       -1   -1    0    0    0  501  0.00000000000E+00  0.00000000000E+00  0.50802832488E+03  0.50802832491E+03  0.50400001928E-02 0. -1.
        1   -1    0    0  501    0  0.00000000000E+00  0.00000000000E+00 -0.96835554695E+03  0.96835554696E+03  0.50400001928E-02 0.  1.
    10030    2    1    2    0    0  0.00000000000E+00  0.00000000000E+00 -0.46032722207E+03  0.14763838719E+04  0.14027858660E+04 0.  0.
        5    1    3    3  502    0 -0.68494394035E+03 -0.15087016948E+03 -0.23486413714E+03  0.73965753046E+03  0.46999998093E+01 0.  1.
       -5    1    3    3    0  502  0.68494394035E+03  0.15087016948E+03 -0.22546308492E+03  0.73672634140E+03  0.46999998093E+01 0. -1.
</event>
<event>
 5   0  0.1648463E-03  0.1395997E+04  0.7818609E-02  0.8956721E-01
        2   -1    0    0  501    0  0.00000000000E+00  0.00000000000E+00  0.13522080084E+04  0.13522080084E+04  0.25500000920E-02 0. -1.
       -2   -1    0    0    0  501  0.00000000000E+00  0.00000000000E+00 -0.36030125717E+03  0.36030125718E+03  0.25500000920E-02 0.  1.
    10030    2    1    2    0    0  0.00000000000E+00  0.00000000000E+00  0.99190675123E+03  0.17125092656E+04  0.13959974862E+04 0.  0.
        1    1    3    3  502    0  0.35068128618E+03  0.45608535253E+03  0.11107009898E+02  0.57542556335E+03  0.50400001928E-02 0.  1.
       -1    1    3    3    0  502 -0.35068128618E+03 -0.45608535253E+03  0.98079974133E+03  0.11370837022E+04  0.50400001928E-02 0. -1.
</event>
<event>
 5   0  0.1706986E-03  0.1362344E+04  0.7818609E-02  0.8981536E-01
       -2   -1    0    0    0  501  0.00000000000E+00  0.00000000000E+00  0.82860406082E+03  0.82860406083E+03  0.25500000920E-02 0. -1.
        2   -1    0    0  501    0  0.00000000000E+00  0.00000000000E+00 -0.55997235143E+03  0.55997235144E+03  0.25500000920E-02 0.  1.
    10030    2    1    2    0    0  0.00000000000E+00  0.00000000000E+00  0.26863170939E+03  0.13885764123E+04  0.13623441039E+04 0.  0.
        3    1    3    3  502    0 -0.17273079037E+03  0.62364717989E+03 -0.82437408402E+02  0.65235547627E+03  0.10100000352E+00 0.  1.
       -3    1    3    3    0  502  0.17273079037E+03 -0.62364717989E+03  0.35106911779E+03  0.73622093599E+03  0.10100000352E+00 0. -1.
</event>
<event>
 5   0  0.1578965E-03  0.1187407E+04  0.7818609E-02  0.9123951E-01
        2   -1    0    0  501    0  0.00000000000E+00  0.00000000000E+00  0.12303591496E+04  0.12303591496E+04  0.25500000920E-02 0.  1.
       -2   -1    0    0    0  501  0.00000000000E+00  0.00000000000E+00 -0.28648842502E+03  0.28648842504E+03  0.25500000920E-02 0. -1.
    10030    2    1    2    0    0  0.00000000000E+00  0.00000000000E+00  0.94387072460E+03  0.15168475747E+04  0.11874066784E+04 0.  0.
        2    1    3    3  502    0 -0.45148530462E+03  0.28517205940E+03  0.14048417729E+03  0.55217559510E+03  0.25500000920E-02 0. -1.
       -2    1    3    3    0  502  0.45148530462E+03 -0.28517205940E+03  0.80338654731E+03  0.96467197956E+03  0.25500000920E-02 0.  1.
</event>
<event>
 5   0  0.9007180E-04  0.1406297E+04  0.7818609E-02  0.8949273E-01
       -1   -1    0    0    0  501  0.00000000000E+00  0.00000000000E+00  0.20511270350E+03  0.20511270356E+03  0.50400001928E-02 0.  1.
        1   -1    0    0  501    0  0.00000000000E+00  0.00000000000E+00 -0.24104682067E+04  0.24104682067E+04  0.50400001928E-02 0. -1.
    10030    2    1    2    0    0  0.00000000000E+00  0.00000000000E+00 -0.22053555032E+04  0.26155809103E+04  0.14062967690E+04 0.  0.
        2    1    3    3  502    0 -0.18922574665E+02  0.54435148500E+03 -0.27561284155E+03  0.61044167738E+03  0.25500000920E-02 0.  1.
       -2    1    3    3    0  502  0.18922574665E+02 -0.54435148500E+03 -0.19297426616E+04  0.20051392329E+04  0.25500000920E-02 0. -1.
</event>
<event>
 5   0  0.1605214E-03  0.1403315E+04  0.7818609E-02  0.8951422E-01
       -2   -1    0    0    0  501  0.00000000000E+00  0.00000000000E+00  0.13717070032E+04  0.13717070032E+04  0.25500000920E-02 0. -1.
        2   -1    0    0  501    0  0.00000000000E+00  0.00000000000E+00 -0.35891281771E+03  0.35891281772E+03  0.25500000920E-02 0.  1.
    10030    2    1    2    0    0  0.00000000000E+00  0.00000000000E+00  0.10127941855E+04  0.17306198209E+04  0.14033149690E+04 0.  0.
        5    1    3    3  502    0 -0.57807702209E+03  0.39342908811E+03  0.43510741449E+03  0.82358972977E+03  0.46999998093E+01 0.  1.
       -5    1    3    3    0  502  0.57807702209E+03 -0.39342908811E+03  0.57768677096E+03  0.90703009111E+03  0.46999998093E+01 0. -1.
</event>
<event>
 5   0  0.6048000E-04  0.1399317E+04  0.7818609E-02  0.8954313E-01
       -3   -1    0    0    0  501  0.00000000000E+00  0.00000000000E+00  0.61857677585E+03  0.61857678410E+03  0.10100000352E+00 0. -1.
        3   -1    0    0  501    0  0.00000000000E+00  0.00000000000E+00 -0.79136804509E+03  0.79136805154E+03  0.10100000352E+00 0.  1.
    10030    2    1    2    0    0  0.00000000000E+00  0.00000000000E+00 -0.17279126924E+03  0.14099448356E+04  0.13993168393E+04 0.  0.
        3    1    3    3  502    0 -0.45349064497E+03 -0.30955936233E+03 -0.52332626061E+03  0.75851904994E+03  0.10100000352E+00 0.  1.
       -3    1    3    3    0  502  0.45349064497E+03  0.30955936233E+03  0.35053499137E+03  0.65142578569E+03  0.10100000352E+00 0. -1.
</event>
<event>
 5   0  0.1605214E-03  0.1515706E+04  0.7818609E-02  0.8874075E-01
       -2   -1    0    0    0  501  0.00000000000E+00  0.00000000000E+00  0.52213660214E+03  0.52213660215E+03  0.25500000920E-02 0.  1.
        2   -1    0    0  501    0  0.00000000000E+00  0.00000000000E+00 -0.10999824285E+04  0.10999824285E+04  0.25500000920E-02 0. -1.
    10030    2    1    2    0    0  0.00000000000E+00  0.00000000000E+00 -0.57784582637E+03  0.16221190307E+04  0.15157058919E+04 0.  0.
        5    1    3    3  502    0 -0.13691888542E+03  0.68003120297E+03 -0.61551982049E+03  0.92740280225E+03  0.46999998093E+01 0. -1.
       -5    1    3    3    0  502  0.13691888542E+03 -0.68003120297E+03  0.37673994122E+02  0.69471622842E+03  0.46999998093E+01 0.  1.
</event>
<event>
 5   0  0.1648463E-03  0.1463775E+04  0.7818609E-02  0.8908906E-01
        2   -1    0    0  501    0  0.00000000000E+00  0.00000000000E+00  0.44826872675E+03  0.44826872676E+03  0.25500000920E-02 0. -1.
       -2   -1    0    0    0  501  0.00000000000E+00  0.00000000000E+00 -0.11949512110E+04  0.11949512110E+04  0.25500000920E-02 0.  1.
    10030    2    1    2    0    0  0.00000000000E+00  0.00000000000E+00 -0.74668248420E+03  0.16432199377E+04  0.14637749251E+04 0.  0.
        1    1    3    3  502    0 -0.62488260399E+03 -0.38008825055E+03 -0.34334662022E+03  0.80798035162E+03  0.50400001928E-02 0.  1.
       -1    1    3    3    0  502  0.62488260399E+03  0.38008825055E+03 -0.40333586398E+03  0.83523958609E+03  0.50400001928E-02 0. -1.
</event>
<event>
 5   0  0.1648213E-03  0.1391015E+04  0.7818609E-02  0.8960348E-01
        2   -1    0    0  501    0  0.00000000000E+00  0.00000000000E+00  0.70604851000E+03  0.70604851000E+03  0.25500000920E-02 0. -1.
       -2   -1    0    0    0  501  0.00000000000E+00  0.00000000000E+00 -0.68512343136E+03  0.68512343136E+03  0.25500000920E-02 0.  1.
    10030    2    1    2    0    0  0.00000000000E+00  0.00000000000E+00  0.20925078637E+02  0.13911719414E+04  0.13910145619E+04 0.  0.
        4    1    3    3  502    0  0.95124441342E+02 -0.68555262984E+03 -0.58084965490E+02  0.69455492492E+03  0.12699999809E+01 0.  1.
       -4    1    3    3    0  502 -0.95124441342E+02  0.68555262984E+03  0.79010044127E+02  0.69661701644E+03  0.12699999809E+01 0. -1.
</event>
<event>
 5   0  0.9007180E-04  0.1393831E+04  0.7818609E-02  0.8958296E-01
        1   -1    0    0  501    0  0.00000000000E+00  0.00000000000E+00  0.48149205594E+03  0.48149205596E+03  0.50400001928E-02 0. -1.
       -1   -1    0    0    0  501  0.00000000000E+00  0.00000000000E+00 -0.10087213871E+04  0.10087213871E+04  0.50400001928E-02 0.  1.
    10030    2    1    2    0    0  0.00000000000E+00  0.00000000000E+00 -0.52722933117E+03  0.14902134431E+04  0.13938311728E+04 0.  0.
        2    1    3    3  502    0  0.28091992138E+03 -0.27044469334E+03  0.35393814945E+03  0.52661992749E+03  0.25500000920E-02 0. -1.
       -2    1    3    3    0  502 -0.28091992138E+03  0.27044469334E+03 -0.88116748062E+03  0.96359351559E+03  0.25500000920E-02 0.  1.
</event>
<event>
 5   0  0.9007180E-04  0.1410339E+04  0.7818609E-02  0.8946369E-01
        1   -1    0    0  501    0  0.00000000000E+00  0.00000000000E+00  0.72254776738E+03  0.72254776739E+03  0.50400001928E-02 0. -1.
       -1   -1    0    0    0  501  0.00000000000E+00  0.00000000000E+00 -0.68820909745E+03  0.68820909747E+03  0.50400001928E-02 0.  1.
    10030    2    1    2    0    0  0.00000000000E+00  0.00000000000E+00  0.34338669924E+02  0.14107568649E+04  0.14103388910E+04 0.  0.
        2    1    3    3  502    0 -0.49300464166E+03  0.33472724063E+03  0.39433285925E+03  0.71455881928E+03  0.25500000920E-02 0. -1.
       -2    1    3    3    0  502  0.49300464166E+03 -0.33472724063E+03 -0.35999418933E+03  0.69619804558E+03  0.25500000920E-02 0.  1.
</event>
<event>
 5   0  0.1605214E-03  0.1404569E+04  0.7818609E-02  0.8950518E-01
        2   -1    0    0  501    0  0.00000000000E+00  0.00000000000E+00  0.61361618253E+03  0.61361618253E+03  0.25500000920E-02 0. -1.
       -2   -1    0    0    0  501  0.00000000000E+00  0.00000000000E+00 -0.80376588006E+03  0.80376588006E+03  0.25500000920E-02 0.  1.
    10030    2    1    2    0    0  0.00000000000E+00  0.00000000000E+00 -0.19014969753E+03  0.14173820626E+04  0.14045693304E+04 0.  0.
        5    1    3    3  502    0 -0.53921835168E+03  0.44970957710E+03 -0.10885690343E+03  0.71053997069E+03  0.46999998093E+01 0.  1.
       -5    1    3    3    0  502  0.53921835168E+03 -0.44970957710E+03 -0.81292794095E+02  0.70684209191E+03  0.46999998093E+01 0. -1.
</event>
<event>
 5   0  0.1706986E-03  0.1326941E+04  0.7818609E-02  0.9008470E-01
        2   -1    0    0  501    0  0.00000000000E+00  0.00000000000E+00  0.32719323687E+03  0.32719323688E+03  0.25500000920E-02 0.  1.
       -2   -1    0    0    0  501  0.00000000000E+00  0.00000000000E+00 -0.13453603871E+04  0.13453603871E+04  0.25500000920E-02 0. -1.
    10030    2    1    2    0    0  0.00000000000E+00  0.00000000000E+00 -0.10181671502E+04  0.16725536240E+04  0.13269405711E+04 0.  0.
        3    1    3    3  502    0  0.32584483135E+03 -0.53383352846E+03 -0.78821103668E+03  0.10061956762E+04  0.10100000352E+00 0.  1.
       -3    1    3    3    0  502 -0.32584483135E+03  0.53383352846E+03 -0.22995611355E+03  0.66635794779E+03  0.10100000352E+00 0. -1.
</event>
<event>
 5   0  0.9007180E-04  0.1398982E+04  0.7818609E-02  0.8954556E-01
        1   -1    0    0  501    0  0.00000000000E+00  0.00000000000E+00  0.50465022945E+03  0.50465022947E+03  0.50400001928E-02 0. -1.
       -1   -1    0    0    0  501  0.00000000000E+00  0.00000000000E+00 -0.96955787984E+03  0.96955787985E+03  0.50400001928E-02 0.  1.
    10030    2    1    2    0    0  0.00000000000E+00  0.00000000000E+00 -0.46490765039E+03  0.14742081093E+04  0.13989819249E+04 0.  0.
        2    1    3    3  502    0 -0.63008091861E+03  0.30369758342E+03 -0.24015576513E+03  0.73953294565E+03  0.25500000920E-02 0.  1.
       -2    1    3    3    0  502  0.63008091861E+03 -0.30369758342E+03 -0.22475188526E+03  0.73467516367E+03  0.25500000920E-02 0. -1.
</event>
<event>
 5   0  0.1648213E-03  0.1402342E+04  0.7818609E-02  0.8952125E-01
       -2   -1    0    0    0  501  0.00000000000E+00  0.00000000000E+00  0.41961347820E+03  0.41961347821E+03  0.25500000920E-02 0. -1.
        2   -1    0    0  501    0  0.00000000000E+00  0.00000000000E+00 -0.11716517715E+04  0.11716517715E+04  0.25500000920E-02 0.  1.
    10030    2    1    2    0    0  0.00000000000E+00  0.00000000000E+00 -0.75203829333E+03  0.15912652497E+04  0.14023421481E+04 0.  0.
        4    1    3    3  502    0  0.27761809996E+03  0.13368016268E+03 -0.10907097732E+04  0.11333982608E+04  0.12699999809E+01 0.  1.
       -4    1    3    3    0  502 -0.27761809996E+03 -0.13368016268E+03  0.33867147991E+03  0.45786698890E+03  0.12699999809E+01 0. -1.
</event>
<event>
 5   0  0.8502300E-04  0.1403292E+04  0.7818609E-02  0.8951439E-01
       -1   -1    0    0    0  501  0.00000000000E+00  0.00000000000E+00  0.24705925905E+03  0.24705925910E+03  0.50400001928E-02 0. -1.
        1   -1    0    0  501    0  0.00000000000E+00  0.00000000000E+00 -0.19926687222E+04  0.19926687222E+04  0.50400001928E-02 0.  1.
    10030    2    1    2    0    0  0.00000000000E+00  0.00000000000E+00 -0.17456094632E+04  0.22397279813E+04  0.14032922121E+04 0.  0.
        4    1    3    3  502    0  0.49845612469E+03 -0.84727127054E+02 -0.96347847369E+02  0.51470546422E+03  0.12699999809E+01 0. -1.
       -4    1    3    3    0  502 -0.49845612469E+03  0.84727127054E+02 -0.16492616158E+04  0.17250225171E+04  0.12699999809E+01 0.  1.
</event>
<event>
 5   0  0.8673728E-04  0.1392592E+04  0.7818609E-02  0.8959198E-01
       -1   -1    0    0    0  501  0.00000000000E+00  0.00000000000E+00  0.15897241297E+04  0.15897241297E+04  0.50400001928E-02 0.  1.
        1   -1    0    0  501    0  0.00000000000E+00  0.00000000000E+00 -0.30497645056E+03  0.30497645060E+03  0.50400001928E-02 0. -1.
    10030    2    1    2    0    0  0.00000000000E+00  0.00000000000E+00  0.12847476791E+04  0.18947005803E+04  0.13925924350E+04 0.  0.
        3    1    3    3  502    0  0.33180244784E+03  0.60382617864E+03  0.77930756685E+03  0.10402015249E+04  0.10100000352E+00 0.  1.
       -3    1    3    3    0  502 -0.33180244784E+03 -0.60382617864E+03  0.50544011226E+03  0.85449905540E+03  0.10100000352E+00 0. -1.
</event>
<event>
 5   0  0.1706986E-03  0.1400728E+04  0.7818609E-02  0.8953291E-01
        2   -1    0    0  501    0  0.00000000000E+00  0.00000000000E+00  0.46024932616E+03  0.46024932617E+03  0.25500000920E-02 0.  1.
       -2   -1    0    0    0  501  0.00000000000E+00  0.00000000000E+00 -0.10657485972E+04  0.10657485972E+04  0.25500000920E-02 0. -1.
    10030    2    1    2    0    0  0.00000000000E+00  0.00000000000E+00 -0.60549927105E+03  0.15259979234E+04  0.14007284872E+04 0.  0.
        3    1    3    3  502    0 -0.25623998364E+03 -0.41903899343E+03  0.24115662886E+03  0.54718291007E+03  0.10100000352E+00 0.  1.
       -3    1    3    3    0  502  0.25623998364E+03  0.41903899343E+03 -0.84665589991E+03  0.97881501331E+03  0.10100000352E+00 0. -1.
</event>
<event>
 5   0  0.9007180E-04  0.1415626E+04  0.7818609E-02  0.8942585E-01
       -1   -1    0    0    0  501  0.00000000000E+00  0.00000000000E+00  0.28394179921E+03  0.28394179926E+03  0.50400001928E-02 0.  1.
        1   -1    0    0  501    0  0.00000000000E+00  0.00000000000E+00 -0.17644435129E+04  0.17644435129E+04  0.50400001928E-02 0. -1.
    10030    2    1    2    0    0  0.00000000000E+00  0.00000000000E+00 -0.14805017137E+04  0.20483853122E+04  0.14156260321E+04 0.  0.
        2    1    3    3  502    0  0.11992422300E+03  0.68601360995E+03 -0.92329706663E+03  0.11564920949E+04  0.25500000920E-02 0.  1.
       -2    1    3    3    0  502 -0.11992422300E+03 -0.68601360995E+03 -0.55720464704E+03  0.89189321726E+03  0.25500000920E-02 0. -1.
</event>
<event>
 5   0  0.1648463E-03  0.1402247E+04  0.7818609E-02  0.8952194E-01
       -2   -1    0    0    0  501  0.00000000000E+00  0.00000000000E+00  0.64264938367E+03  0.64264938368E+03  0.25500000920E-02 0. -1.
        2   -1    0    0  501    0  0.00000000000E+00  0.00000000000E+00 -0.76491831239E+03  0.76491831240E+03  0.25500000920E-02 0.  1.
    10030    2    1    2    0    0  0.00000000000E+00  0.00000000000E+00 -0.12226892872E+03  0.14075676961E+04  0.14022471708E+04 0.  0.
        1    1    3    3  502    0  0.25861324427E+03  0.51183485626E+03 -0.46604889419E+03  0.73895690131E+03  0.50400001928E-02 0.  1.
       -1    1    3    3    0  502 -0.25861324427E+03 -0.51183485626E+03  0.34377996547E+03  0.66861079477E+03  0.50400001928E-02 0. -1.
</event>
<event>
 5   0  0.1706986E-03  0.1398910E+04  0.7818609E-02  0.8954608E-01
       -2   -1    0    0    0  501  0.00000000000E+00  0.00000000000E+00  0.60738702492E+03  0.60738702493E+03  0.25500000920E-02 0. -1.
        2   -1    0    0  501    0  0.00000000000E+00  0.00000000000E+00 -0.80547913455E+03  0.80547913455E+03  0.25500000920E-02 0.  1.
    10030    2    1    2    0    0  0.00000000000E+00  0.00000000000E+00 -0.19809210962E+03  0.14128661595E+04  0.13989103977E+04 0.  0.
        3    1    3    3  502    0 -0.37076632074E+02  0.23778492781E+03 -0.76234840441E+03  0.79943195360E+03  0.10100000352E+00 0.  1.
       -3    1    3    3    0  502  0.37076632074E+02 -0.23778492781E+03  0.56425629478E+03  0.61343420588E+03  0.10100000352E+00 0. -1.
</event>
<event>
 5   0  0.9639548E-04  0.1388071E+04  0.7818609E-02  0.8962499E-01
        1   -1    0    0  501    0  0.00000000000E+00  0.00000000000E+00  0.71704713124E+03  0.71704713125E+03  0.50400001928E-02 0. -1.
       -1   -1    0    0    0  501  0.00000000000E+00  0.00000000000E+00 -0.67176231403E+03  0.67176231405E+03  0.50400001928E-02 0.  1.
    10030    2    1    2    0    0  0.00000000000E+00  0.00000000000E+00  0.45284817209E+02  0.13888094453E+04  0.13880709494E+04 0.  0.
        1    1    3    3  502    0  0.28103835836E+03 -0.28876799734E+03  0.58802333036E+03  0.71284006076E+03  0.50400001928E-02 0. -1.
       -1    1    3    3    0  502 -0.28103835836E+03  0.28876799734E+03 -0.54273851315E+03  0.67596938454E+03  0.50400001928E-02 0.  1.
</event>
<event>
 5   0  0.9639548E-04  0.1402657E+04  0.7818609E-02  0.8951898E-01
        1   -1    0    0  501    0  0.00000000000E+00  0.00000000000E+00  0.11216730090E+04  0.11216730090E+04  0.50400001928E-02 0.  1.
       -1   -1    0    0    0  501  0.00000000000E+00  0.00000000000E+00 -0.43850718851E+03  0.43850718854E+03  0.50400001928E-02 0. -1.
    10030    2    1    2    0    0  0.00000000000E+00  0.00000000000E+00  0.68316582044E+03  0.15601801975E+04  0.14026570181E+04 0.  0.
        1    1    3    3  502    0 -0.79530923570E-01  0.67990518479E+03  0.53292047332E+03  0.86387226923E+03  0.50400001928E-02 0.  1.
       -1    1    3    3    0  502  0.79530923570E-01 -0.67990518479E+03  0.15024534711E+03  0.69630792828E+03  0.50400001928E-02 0. -1.
</event>
<event>
 5   0  0.1648463E-03  0.1389660E+04  0.7818609E-02  0.8961338E-01
        2   -1    0    0  501    0  0.00000000000E+00  0.00000000000E+00  0.95357329002E+03  0.95357329003E+03  0.25500000920E-02 0.  1.
       -2   -1    0    0    0  501  0.00000000000E+00  0.00000000000E+00 -0.50629401004E+03  0.50629401004E+03  0.25500000920E-02 0. -1.
    10030    2    1    2    0    0  0.00000000000E+00  0.00000000000E+00  0.44727927999E+03  0.14598673001E+04  0.13896595912E+04 0.  0.
        1    1    3    3  502    0 -0.42357203746E+03  0.36164840353E+03 -0.21278296545E+03  0.59622095661E+03  0.50400001928E-02 0. -1.
       -1    1    3    3    0  502  0.42357203746E+03 -0.36164840353E+03  0.66006224543E+03  0.86364634346E+03  0.50400001928E-02 0.  1.
</event>
<event>
 5   0  0.9007180E-04  0.1390949E+04  0.7818609E-02  0.8960396E-01
       -1   -1    0    0    0  501  0.00000000000E+00  0.00000000000E+00  0.66521421395E+03  0.66521421397E+03  0.50400001928E-02 0.  1.
        1   -1    0    0  501    0  0.00000000000E+00  0.00000000000E+00 -0.72711149401E+03  0.72711149403E+03  0.50400001928E-02 0. -1.
    10030    2    1    2    0    0  0.00000000000E+00  0.00000000000E+00 -0.61897280064E+02  0.13923257080E+04  0.13909491737E+04 0.  0.
        2    1    3    3  502    0 -0.34709977517E+03  0.15672971224E+03  0.55155718993E+03  0.67026695457E+03  0.25500000920E-02 0.  1.
       -2    1    3    3    0  502  0.34709977517E+03 -0.15672971224E+03 -0.61345447000E+03  0.72205875342E+03  0.25500000920E-02 0. -1.
</event>
<event>
 5   0  0.9639548E-04  0.1387224E+04  0.7818609E-02  0.8963119E-01
        1   -1    0    0  501    0  0.00000000000E+00  0.00000000000E+00  0.10134411682E+04  0.10134411682E+04  0.50400001928E-02 0. -1.
       -1   -1    0    0    0  501  0.00000000000E+00  0.00000000000E+00 -0.47471702145E+03  0.47471702148E+03  0.50400001928E-02 0.  1.
    10030    2    1    2    0    0  0.00000000000E+00  0.00000000000E+00  0.53872414672E+03  0.14881581897E+04  0.13872242397E+04 0.  0.
        1    1    3    3  502    0 -0.62714939827E+02  0.53315183568E+03  0.74053898158E+03  0.91464858106E+03  0.50400001928E-02 0. -1.
       -1    1    3    3    0  502  0.62714939827E+02 -0.53315183568E+03 -0.20181483486E+03  0.57350960860E+03  0.50400001928E-02 0.  1.
</event>
<event>
 5   0  0.1706986E-03  0.1409999E+04  0.7818609E-02  0.8946612E-01
        2   -1    0    0  501    0  0.00000000000E+00  0.00000000000E+00  0.16347879200E+04  0.16347879200E+04  0.25500000920E-02 0. -1.
       -2   -1    0    0    0  501  0.00000000000E+00  0.00000000000E+00 -0.30402979009E+03  0.30402979010E+03  0.25500000920E-02 0.  1.
    10030    2    1    2    0    0  0.00000000000E+00  0.00000000000E+00  0.13307581299E+04  0.19388177101E+04  0.14099989052E+04 0.  0.
        3    1    3    3  502    0 -0.33033408208E+03  0.62045006993E+03  0.74000411912E+03  0.10206297084E+04  0.10100000352E+00 0.  1.
       -3    1    3    3    0  502  0.33033408208E+03 -0.62045006993E+03  0.59075401077E+03  0.91818800172E+03  0.10100000352E+00 0. -1.
</event>
<event>
 5   0  0.8502300E-04  0.1384758E+04  0.7818609E-02  0.8964926E-01
        1   -1    0    0  501    0  0.00000000000E+00  0.00000000000E+00  0.14551939837E+04  0.14551939837E+04  0.50400001928E-02 0. -1.
       -1   -1    0    0    0  501  0.00000000000E+00  0.00000000000E+00 -0.32943275839E+03  0.32943275843E+03  0.50400001928E-02 0.  1.
    10030    2    1    2    0    0  0.00000000000E+00  0.00000000000E+00  0.11257612253E+04  0.17846267421E+04  0.13847578389E+04 0.  0.
        4    1    3    3  502    0  0.65362569389E+03  0.17438373881E+03  0.75294921194E+03  0.10122106326E+04  0.12699999809E+01 0. -1.
       -4    1    3    3    0  502 -0.65362569389E+03 -0.17438373881E+03  0.37281201338E+03  0.77241610955E+03  0.12699999809E+01 0.  1.
</event>
<event>
 5   0  0.9639548E-04  0.1397112E+04  0.7818609E-02  0.8955912E-01
        1   -1    0    0  501    0  0.00000000000E+00  0.00000000000E+00  0.89816670483E+03  0.89816670484E+03  0.50400001928E-02 0. -1.
       -1   -1    0    0    0  501  0.00000000000E+00  0.00000000000E+00 -0.54330741591E+03  0.54330741593E+03  0.50400001928E-02 0.  1.
    10030    2    1    2    0    0  0.00000000000E+00  0.00000000000E+00  0.35485928891E+03  0.14414741208E+04  0.13971122095E+04 0.  0.
        1    1    3    3  502    0 -0.65834908016E+02  0.26582722936E+03  0.84047199776E+03  0.88396353433E+03  0.50400001928E-02 0. -1.
       -1    1    3    3    0  502  0.65834908016E+02 -0.26582722936E+03 -0.48561270884E+03  0.55751058644E+03  0.50400001928E-02 0.  1.
</event>
<event>
 5   0  0.9639548E-04  0.1396956E+04  0.7818609E-02  0.8956025E-01
       -1   -1    0    0    0  501  0.00000000000E+00  0.00000000000E+00  0.67092922754E+03  0.67092922756E+03  0.50400001928E-02 0. -1.
        1   -1    0    0  501    0  0.00000000000E+00  0.00000000000E+00 -0.72715799686E+03  0.72715799688E+03  0.50400001928E-02 0.  1.
    10030    2    1    2    0    0  0.00000000000E+00  0.00000000000E+00 -0.56228769319E+02  0.13980872244E+04  0.13969560525E+04 0.  0.
        1    1    3    3  502    0  0.16069065072E+02  0.68782720921E+03 -0.14865720686E+03  0.70389164632E+03  0.50400001928E-02 0. -1.
       -1    1    3    3    0  502 -0.16069065072E+02 -0.68782720921E+03  0.92428437539E+02  0.69419557811E+03  0.50400001928E-02 0.  1.
</event>
<event>
 5   0  0.1578965E-03  0.1399070E+04  0.7818609E-02  0.8954492E-01
       -2   -1    0    0    0  501  0.00000000000E+00  0.00000000000E+00  0.84458409670E+03  0.84458409671E+03  0.25500000920E-02 0.  1.
        2   -1    0    0  501    0  0.00000000000E+00  0.00000000000E+00 -0.57939700762E+03  0.57939700763E+03  0.25500000920E-02 0. -1.
    10030    2    1    2    0    0  0.00000000000E+00  0.00000000000E+00  0.26518708908E+03  0.14239811043E+04  0.13990704033E+04 0.  0.
        2    1    3    3  502    0  0.15878773097E+03  0.46514737329E+03  0.63922530773E+03  0.80634026096E+03  0.25500000920E-02 0.  1.
       -2    1    3    3    0  502 -0.15878773097E+03 -0.46514737329E+03 -0.37403821865E+03  0.61764084338E+03  0.25500000920E-02 0. -1.
</event>
<event>
 5   0  0.1648213E-03  0.1472300E+04  0.7818609E-02  0.8903085E-01
        2   -1    0    0  501    0  0.00000000000E+00  0.00000000000E+00  0.21525094654E+04  0.21525094654E+04  0.25500000920E-02 0. -1.
       -2   -1    0    0    0  501  0.00000000000E+00  0.00000000000E+00 -0.25176058811E+03  0.25176058813E+03  0.25500000920E-02 0.  1.
    10030    2    1    2    0    0  0.00000000000E+00  0.00000000000E+00  0.19007488773E+04  0.24042700535E+04  0.14723003076E+04 0.  0.
        4    1    3    3  502    0  0.29940489321E+03  0.20410723757E+03 -0.96037930764E+02  0.37487057974E+03  0.12699999809E+01 0.  1.
       -4    1    3    3    0  502 -0.29940489321E+03 -0.20410723757E+03  0.19967868081E+04  0.20293994738E+04  0.12699999809E+01 0. -1.
</event>
<event>
 5   0  0.1706986E-03  0.1395801E+04  0.7818609E-02  0.8956864E-01
        2   -1    0    0  501    0  0.00000000000E+00  0.00000000000E+00  0.10928229867E+04  0.10928229867E+04  0.25500000920E-02 0. -1.
       -2   -1    0    0    0  501  0.00000000000E+00  0.00000000000E+00 -0.44569436429E+03  0.44569436429E+03  0.25500000920E-02 0.  1.
    10030    2    1    2    0    0  0.00000000000E+00  0.00000000000E+00  0.64712862238E+03  0.15385173510E+04  0.13958009118E+04 0.  0.
        3    1    3    3  502    0  0.66018241680E+03  0.68138813471E+02  0.56145902509E+03  0.86932155640E+03  0.10100000352E+00 0.  1.
       -3    1    3    3    0  502 -0.66018241680E+03 -0.68138813471E+02  0.85669597283E+02  0.66919579456E+03  0.10100000352E+00 0. -1.
</event>
<event>
 5   0  0.8673728E-04  0.1402302E+04  0.7818609E-02  0.8952154E-01
        1   -1    0    0  501    0  0.00000000000E+00  0.00000000000E+00  0.78796812524E+03  0.78796812525E+03  0.50400001928E-02 0. -1.
       -1   -1    0    0    0  501  0.00000000000E+00  0.00000000000E+00 -0.62389915426E+03  0.62389915428E+03  0.50400001928E-02 0.  1.
    10030    2    1    2    0    0  0.00000000000E+00  0.00000000000E+00  0.16406897098E+03  0.14118672795E+04  0.14023018890E+04 0.  0.
        3    1    3    3  502    0  0.34508630936E+03 -0.16430737163E+03  0.67386310881E+03  0.77470831472E+03  0.10100000352E+00 0. -1.
       -3    1    3    3    0  502 -0.34508630936E+03  0.16430737163E+03 -0.50979413783E+03  0.63715896482E+03  0.10100000352E+00 0.  1.
</event>
<event>
 5   0  0.1605214E-03  0.1398686E+04  0.7818609E-02  0.8954770E-01
        2   -1    0    0  501    0  0.00000000000E+00  0.00000000000E+00  0.60542857588E+03  0.60542857589E+03  0.25500000920E-02 0. -1.
       -2   -1    0    0    0  501  0.00000000000E+00  0.00000000000E+00 -0.80782564670E+03  0.80782564670E+03  0.25500000920E-02 0.  1.
    10030    2    1    2    0    0  0.00000000000E+00  0.00000000000E+00 -0.20239707082E+03  0.14132542226E+04  0.13986861418E+04 0.  0.
        5    1    3    3  502    0 -0.37628979147E+03  0.51681376884E+03 -0.38764405785E+03  0.74764997453E+03  0.46999998093E+01 0.  1.
       -5    1    3    3    0  502  0.37628979147E+03 -0.51681376884E+03  0.18524698704E+03  0.66560424806E+03  0.46999998093E+01 0. -1.
</event>
<event>
 5   0  0.1578965E-03  0.1183172E+04  0.7818609E-02  0.9127715E-01
       -2   -1    0    0    0  501  0.00000000000E+00  0.00000000000E+00  0.46175890984E+03  0.46175890985E+03  0.25500000920E-02 0.  1.
        2   -1    0    0  501    0  0.00000000000E+00  0.00000000000E+00 -0.75791540908E+03  0.75791540908E+03  0.25500000920E-02 0. -1.
    10030    2    1    2    0    0  0.00000000000E+00  0.00000000000E+00 -0.29615649924E+03  0.12196743189E+04  0.11831723341E+04 0.  0.
        2    1    3    3  502    0 -0.16801534621E+03  0.26373421459E+03  0.36959914611E+03  0.48413677956E+03  0.25500000920E-02 0.  1.
       -2    1    3    3    0  502  0.16801534621E+03 -0.26373421459E+03 -0.66575564535E+03  0.73553753937E+03  0.25500000920E-02 0. -1.
</event>
<event>
 5   0  0.8673728E-04  0.1410683E+04  0.7818609E-02  0.8946122E-01
       -1   -1    0    0    0  501  0.00000000000E+00  0.00000000000E+00  0.11207445976E+04  0.11207445977E+04  0.50400001928E-02 0. -1.
        1   -1    0    0  501    0  0.00000000000E+00  0.00000000000E+00 -0.44390736738E+03  0.44390736741E+03  0.50400001928E-02 0.  1.
    10030    2    1    2    0    0  0.00000000000E+00  0.00000000000E+00  0.67683723027E+03  0.15646519651E+04  0.14106832159E+04 0.  0.
        3    1    3    3  502    0  0.45354359246E+03 -0.15291890781E+03 -0.23622201103E+03  0.53374790990E+03  0.10100000352E+00 0.  1.
       -3    1    3    3    0  502 -0.45354359246E+03  0.15291890781E+03  0.91305924130E+03  0.10309040552E+04  0.10100000352E+00 0. -1.
</event>
<event>
 5   0  0.1605214E-03  0.1432505E+04  0.7818609E-02  0.8930620E-01
       -2   -1    0    0    0  501  0.00000000000E+00  0.00000000000E+00  0.59980183187E+03  0.59980183188E+03  0.25500000920E-02 0. -1.
        2   -1    0    0  501    0  0.00000000000E+00  0.00000000000E+00 -0.85531177915E+03  0.85531177915E+03  0.25500000920E-02 0.  1.
    10030    2    1    2    0    0  0.00000000000E+00  0.00000000000E+00 -0.25550994727E+03  0.14551136110E+04  0.14325048998E+04 0.  0.
        5    1    3    3  502    0 -0.19656255302E+03  0.67363069349E+02 -0.82400774279E+03  0.84981496253E+03  0.46999998093E+01 0.  1.
       -5    1    3    3    0  502  0.19656255302E+03 -0.67363069349E+02  0.56849779552E+03  0.60529864850E+03  0.46999998093E+01 0. -1.
</event>
<event>
 5   0  0.6048000E-04  0.1373821E+04  0.7818609E-02  0.8972989E-01
       -3   -1    0    0    0  501  0.00000000000E+00  0.00000000000E+00  0.13478216116E+04  0.13478216154E+04  0.10100000352E+00 0. -1.
        3   -1    0    0  501    0  0.00000000000E+00  0.00000000000E+00 -0.35008066515E+03  0.35008067972E+03  0.10100000352E+00 0.  1.
    10030    2    1    2    0    0  0.00000000000E+00  0.00000000000E+00  0.99774094648E+03  0.16979022951E+04  0.13738213885E+04 0.  0.
        4    1    3    3  502    0  0.60532851311E+03 -0.15812237919E+03  0.84935013285E+03  0.10549040509E+04  0.12699999809E+01 0. -1.
       -4    1    3    3    0  502 -0.60532851311E+03  0.15812237919E+03  0.14839081363E+03  0.64299824421E+03  0.12699999809E+01 0.  1.
</event>
<event>
 5   0  0.1605214E-03  0.1410704E+04  0.7818609E-02  0.8946107E-01
        2   -1    0    0  501    0  0.00000000000E+00  0.00000000000E+00  0.72642461672E+03  0.72642461672E+03  0.25500000920E-02 0.  1.
       -2   -1    0    0    0  501  0.00000000000E+00  0.00000000000E+00 -0.68489027077E+03  0.68489027077E+03  0.25500000920E-02 0. -1.
    10030    2    1    2    0    0  0.00000000000E+00  0.00000000000E+00  0.41534345952E+02  0.14113148875E+04  0.14107035868E+04 0.  0.
        5    1    3    3  502    0 -0.17239998543E+03 -0.50522931249E+03  0.48196655771E+03  0.71923032884E+03  0.46999998093E+01 0.  1.
       -5    1    3    3    0  502  0.17239998543E+03  0.50522931249E+03 -0.44043221175E+03  0.69208455865E+03  0.46999998093E+01 0. -1.
</event>
<event>
 5   0  0.1648463E-03  0.1391620E+04  0.7818609E-02  0.8959907E-01
        2   -1    0    0  501    0  0.00000000000E+00  0.00000000000E+00  0.12039721311E+04  0.12039721311E+04  0.25500000920E-02 0.  1.
       -2   -1    0    0    0  501  0.00000000000E+00  0.00000000000E+00 -0.40212864057E+03  0.40212864057E+03  0.25500000920E-02 0. -1.
    10030    2    1    2    0    0  0.00000000000E+00  0.00000000000E+00  0.80184349051E+03  0.16061007717E+04  0.13916201728E+04 0.  0.
        1    1    3    3  502    0  0.46534961553E+03 -0.12050886462E+03 -0.17968242601E+03  0.51318459191E+03  0.50400001928E-02 0. -1.
       -1    1    3    3    0  502 -0.46534961553E+03  0.12050886462E+03  0.98152591652E+03  0.10929161797E+04  0.50400001928E-02 0.  1.
</event>
<event>
 5   0  0.1648213E-03  0.1411925E+04  0.7818609E-02  0.8945232E-01
        2   -1    0    0  501    0  0.00000000000E+00  0.00000000000E+00  0.13048093430E+04  0.13048093430E+04  0.25500000920E-02 0. -1.
       -2   -1    0    0    0  501  0.00000000000E+00  0.00000000000E+00 -0.38195847600E+03  0.38195847601E+03  0.25500000920E-02 0.  1.
    10030    2    1    2    0    0  0.00000000000E+00  0.00000000000E+00  0.92285086703E+03  0.16867678190E+04  0.14119249104E+04 0.  0.
        4    1    3    3  502    0  0.15730551313E+03  0.65106811250E+03  0.72788154517E+03  0.98916523810E+03  0.12699999809E+01 0. -1.
       -4    1    3    3    0  502 -0.15730551313E+03 -0.65106811250E+03  0.19496932186E+03  0.69760258094E+03  0.12699999809E+01 0.  1.
</event>
<event>
 5   0  0.8673728E-04  0.1393549E+04  0.7818609E-02  0.8958502E-01
        1   -1    0    0  501    0  0.00000000000E+00  0.00000000000E+00  0.79231558186E+03  0.79231558188E+03  0.50400001928E-02 0.  1.
       -1   -1    0    0    0  501  0.00000000000E+00  0.00000000000E+00 -0.61275402668E+03  0.61275402670E+03  0.50400001928E-02 0. -1.
    10030    2    1    2    0    0  0.00000000000E+00  0.00000000000E+00  0.17956155518E+03  0.14050696086E+04  0.13935487982E+04 0.  0.
        3    1    3    3  502    0 -0.40628552756E+03 -0.50267828274E+03 -0.17264228324E+03  0.66899832138E+03  0.10100000352E+00 0. -1.
       -3    1    3    3    0  502  0.40628552756E+03  0.50267828274E+03  0.35220383843E+03  0.73607128720E+03  0.10100000352E+00 0.  1.
</event>
<event>
 5   0  0.8502300E-04  0.1397193E+04  0.7818609E-02  0.8955853E-01
       -1   -1    0    0    0  501  0.00000000000E+00  0.00000000000E+00  0.72111206413E+03  0.72111206415E+03  0.50400001928E-02 0.  1.
        1   -1    0    0  501    0  0.00000000000E+00  0.00000000000E+00 -0.67678408564E+03  0.67678408565E+03  0.50400001928E-02 0. -1.
    10030    2    1    2    0    0  0.00000000000E+00  0.00000000000E+00  0.44327978499E+02  0.13978961498E+04  0.13971931420E+04 0.  0.
        4    1    3    3  502    0 -0.35588712234E+03 -0.34205488850E+03 -0.47243114705E+03  0.68326421844E+03  0.12699999809E+01 0. -1.
       -4    1    3    3    0  502  0.35588712234E+03  0.34205488850E+03  0.51675912555E+03  0.71463193137E+03  0.12699999809E+01 0.  1.
</event>
<event>
 5   0  0.1648463E-03  0.1457979E+04  0.7818609E-02  0.8912888E-01
        2   -1    0    0  501    0  0.00000000000E+00  0.00000000000E+00  0.37476813384E+03  0.37476813384E+03  0.25500000920E-02 0. -1.
       -2   -1    0    0    0  501  0.00000000000E+00  0.00000000000E+00 -0.14180116382E+04  0.14180116382E+04  0.25500000920E-02 0.  1.
    10030    2    1    2    0    0  0.00000000000E+00  0.00000000000E+00 -0.10432435043E+04  0.17927797720E+04  0.14579788413E+04 0.  0.
        1    1    3    3  502    0  0.93297723082E+02  0.19520336851E+02  0.36707254260E+03  0.37924630550E+03  0.50400001928E-02 0. -1.
       -1    1    3    3    0  502 -0.93297723082E+02 -0.19520336851E+02 -0.14103160469E+04  0.14135334665E+04  0.50400001928E-02 0.  1.
</event>
<event>
 5   0  0.9639548E-04  0.1399712E+04  0.7818609E-02  0.8954027E-01
        1   -1    0    0  501    0  0.00000000000E+00  0.00000000000E+00  0.10204107654E+04  0.10204107654E+04  0.50400001928E-02 0.  1.
       -1   -1    0    0    0  501  0.00000000000E+00  0.00000000000E+00 -0.48000153694E+03  0.48000153697E+03  0.50400001928E-02 0. -1.
    10030    2    1    2    0    0  0.00000000000E+00  0.00000000000E+00  0.54040922841E+03  0.15004123023E+04  0.13997124501E+04 0.  0.
        1    1    3    3  502    0  0.65804637400E+03 -0.23807335510E+03  0.28064068182E+03  0.75396494949E+03  0.50400001928E-02 0.  1.
       -1    1    3    3    0  502 -0.65804637400E+03  0.23807335510E+03  0.25976854659E+03  0.74644735284E+03  0.50400001928E-02 0. -1.
</event>
<event>
 5   0  0.1648213E-03  0.1422051E+04  0.7818609E-02  0.8938010E-01
        2   -1    0    0  501    0  0.00000000000E+00  0.00000000000E+00  0.91771609584E+03  0.91771609585E+03  0.25500000920E-02 0.  1.
       -2   -1    0    0    0  501  0.00000000000E+00  0.00000000000E+00 -0.55088633739E+03  0.55088633740E+03  0.25500000920E-02 0. -1.
    10030    2    1    2    0    0  0.00000000000E+00  0.00000000000E+00  0.36682975845E+03  0.14686024332E+04  0.14220509960E+04 0.  0.
        4    1    3    3  502    0 -0.42861780442E+03  0.53265520696E+03 -0.18222193560E+02  0.68393600066E+03  0.12699999809E+01 0. -1.
       -4    1    3    3    0  502  0.42861780442E+03 -0.53265520696E+03  0.38505195201E+03  0.78466643258E+03  0.12699999809E+01 0.  1.
</event>
<event>
 5   0  0.1605214E-03  0.1452256E+04  0.7818609E-02  0.8916838E-01
        2   -1    0    0  501    0  0.00000000000E+00  0.00000000000E+00  0.56407746488E+03  0.56407746489E+03  0.25500000920E-02 0. -1.
       -2   -1    0    0    0  501  0.00000000000E+00  0.00000000000E+00 -0.93473342995E+03  0.93473342995E+03  0.25500000920E-02 0.  1.
    10030    2    1    2    0    0  0.00000000000E+00  0.00000000000E+00 -0.37065596507E+03  0.14988108948E+04  0.14522562632E+04 0.  0.
        5    1    3    3  502    0  0.89543602696E+02 -0.61153633339E+03 -0.57865567296E+03  0.84667539334E+03  0.46999998093E+01 0.  1.
       -5    1    3    3    0  502 -0.89543602696E+02  0.61153633339E+03  0.20799970789E+03  0.65213550150E+03  0.46999998093E+01 0. -1.
</event>
<event>
 5   0  0.1605214E-03  0.1409453E+04  0.7818609E-02  0.8947004E-01
       -2   -1    0    0    0  501  0.00000000000E+00  0.00000000000E+00  0.24180136261E+03  0.24180136263E+03  0.25500000920E-02 0.  1.
        2   -1    0    0  501    0  0.00000000000E+00  0.00000000000E+00 -0.20539159966E+04  0.20539159966E+04  0.25500000920E-02 0. -1.
    10030    2    1    2    0    0  0.00000000000E+00  0.00000000000E+00 -0.18121146339E+04  0.22957173592E+04  0.14094533503E+04 0.  0.
        5    1    3    3  502    0 -0.56331557914E+03  0.29806884862E+03 -0.41620239564E+03  0.76119380210E+03  0.46999998093E+01 0.  1.
       -5    1    3    3    0  502  0.56331557914E+03 -0.29806884862E+03 -0.13959122383E+04  0.15345235571E+04  0.46999998093E+01 0. -1.
</event>
<event>
 5   0  0.8502300E-04  0.1402364E+04  0.7818609E-02  0.8952109E-01
       -1   -1    0    0    0  501  0.00000000000E+00  0.00000000000E+00  0.37573894443E+03  0.37573894446E+03  0.50400001928E-02 0.  1.
        1   -1    0    0  501    0  0.00000000000E+00  0.00000000000E+00 -0.13085055756E+04  0.13085055756E+04  0.50400001928E-02 0. -1.
    10030    2    1    2    0    0  0.00000000000E+00  0.00000000000E+00 -0.93276663113E+03  0.16842445200E+04  0.14023644373E+04 0.  0.
        4    1    3    3  502    0 -0.33843966312E+03 -0.34879497630E+03  0.14063518021E+03  0.50594387819E+03  0.12699999809E+01 0.  1.
       -4    1    3    3    0  502  0.33843966312E+03  0.34879497630E+03 -0.10734018113E+04  0.11783006418E+04  0.12699999809E+01 0. -1.
</event>
<event>
 5   0  0.8502300E-04  0.1394237E+04  0.7818609E-02  0.8958001E-01
       -1   -1    0    0    0  501  0.00000000000E+00  0.00000000000E+00  0.37130232136E+03  0.37130232139E+03  0.50400001928E-02 0. -1.
        1   -1    0    0  501    0  0.00000000000E+00  0.00000000000E+00 -0.13088360908E+04  0.13088360908E+04  0.50400001928E-02 0.  1.
    10030    2    1    2    0    0  0.00000000000E+00  0.00000000000E+00 -0.93753376941E+03  0.16801384122E+04  0.13942365349E+04 0.  0.
        4    1    3    3  502    0 -0.20795918119E+03  0.44101421081E+03 -0.10691621134E+04  0.11750956526E+04  0.12699999809E+01 0.  1.
       -4    1    3    3    0  502  0.20795918119E+03 -0.44101421081E+03  0.13162834395E+03  0.50504275958E+03  0.12699999809E+01 0. -1.
</event>
<event>
 5   0  0.9639548E-04  0.1418421E+04  0.7818609E-02  0.8940592E-01
        1   -1    0    0  501    0  0.00000000000E+00  0.00000000000E+00  0.29106880643E+03  0.29106880647E+03  0.50400001928E-02 0.  1.
       -1   -1    0    0    0  501  0.00000000000E+00  0.00000000000E+00 -0.17280429119E+04  0.17280429120E+04  0.50400001928E-02 0. -1.
    10030    2    1    2    0    0  0.00000000000E+00  0.00000000000E+00 -0.14369741055E+04  0.20191117184E+04  0.14184207950E+04 0.  0.
        1    1    3    3  502    0 -0.79332712997E+02 -0.48828811698E+03  0.49224159388E+01  0.49471526633E+03  0.50400001928E-02 0.  1.
       -1    1    3    3    0  502  0.79332712997E+02  0.48828811698E+03 -0.14418965215E+04  0.15243964521E+04  0.50400001928E-02 0. -1.
</event>
<event>
 5   0  0.1605214E-03  0.1418818E+04  0.7818609E-02  0.8940309E-01
        2   -1    0    0  501    0  0.00000000000E+00  0.00000000000E+00  0.14730412108E+04  0.14730412108E+04  0.25500000920E-02 0.  1.
       -2   -1    0    0    0  501  0.00000000000E+00  0.00000000000E+00 -0.34164778265E+03  0.34164778266E+03  0.25500000920E-02 0. -1.
    10030    2    1    2    0    0  0.00000000000E+00  0.00000000000E+00  0.11313934281E+04  0.18146889935E+04  0.14188181891E+04 0.  0.
        5    1    3    3  502    0  0.57616809638E+03 -0.37626741344E+03  0.34530380892E+03  0.76993743392E+03  0.46999998093E+01 0. -1.
       -5    1    3    3    0  502 -0.57616809638E+03  0.37626741344E+03  0.78608961922E+03  0.10447515595E+04  0.46999998093E+01 0.  1.
</event>
<event>
 5   0  0.1648463E-03  0.1403341E+04  0.7818609E-02  0.8951404E-01
       -2   -1    0    0    0  501  0.00000000000E+00  0.00000000000E+00  0.71379424040E+03  0.71379424041E+03  0.25500000920E-02 0. -1.
        2   -1    0    0  501    0  0.00000000000E+00  0.00000000000E+00 -0.68975236571E+03  0.68975236572E+03  0.25500000920E-02 0.  1.
    10030    2    1    2    0    0  0.00000000000E+00  0.00000000000E+00  0.24041874692E+02  0.14035466061E+04  0.14033406799E+04 0.  0.
        1    1    3    3  502    0 -0.10878543649E+03 -0.41388487078E+03 -0.54412388284E+03  0.69224689046E+03  0.50400001928E-02 0.  1.
       -1    1    3    3    0  502  0.10878543649E+03  0.41388487078E+03  0.56816575753E+03  0.71129971567E+03  0.50400001928E-02 0. -1.
</event>
<event>
 5   0  0.1648463E-03  0.1438222E+04  0.7818609E-02  0.8926607E-01
       -2   -1    0    0    0  501  0.00000000000E+00  0.00000000000E+00  0.12930749079E+04  0.12930749079E+04  0.25500000920E-02 0. -1.
        2   -1    0    0  501    0  0.00000000000E+00  0.00000000000E+00 -0.39991539273E+03  0.39991539273E+03  0.25500000920E-02 0.  1.
    10030    2    1    2    0    0  0.00000000000E+00  0.00000000000E+00  0.89315951514E+03  0.16929903006E+04  0.14382219017E+04 0.  0.
        1    1    3    3  502    0 -0.33935163253E+03 -0.22833955038E+03 -0.24964935641E+03  0.47919023565E+03  0.50400001928E-02 0.  1.
       -1    1    3    3    0  502  0.33935163253E+03  0.22833955038E+03  0.11428088715E+04  0.12138000650E+04  0.50400001928E-02 0. -1.
</event>
<event>
 5   0  0.1648463E-03  0.1379778E+04  0.7818609E-02  0.8968588E-01
       -2   -1    0    0    0  501  0.00000000000E+00  0.00000000000E+00  0.34327040370E+03  0.34327040371E+03  0.25500000920E-02 0.  1.
        2   -1    0    0  501    0  0.00000000000E+00  0.00000000000E+00 -0.13865061228E+04  0.13865061228E+04  0.25500000920E-02 0. -1.
    10030    2    1    2    0    0  0.00000000000E+00  0.00000000000E+00 -0.10432357191E+04  0.17297765265E+04  0.13797775422E+04 0.  0.
        1    1    3    3  502    0  0.30102488699E+03 -0.27081555438E+03  0.17862855718E+03  0.44256661482E+03  0.50400001928E-02 0.  1.
       -1    1    3    3    0  502 -0.30102488699E+03  0.27081555438E+03 -0.12218642763E+04  0.12872099117E+04  0.50400001928E-02 0. -1.
</event>
<event>
 5   0  0.9007180E-04  0.1522606E+04  0.7818609E-02  0.8869558E-01
       -1   -1    0    0    0  501  0.00000000000E+00  0.00000000000E+00  0.33027102562E+03  0.33027102566E+03  0.50400001928E-02 0.  1.
        1   -1    0    0  501    0  0.00000000000E+00  0.00000000000E+00 -0.17548681129E+04  0.17548681129E+04  0.50400001928E-02 0. -1.
    10030    2    1    2    0    0  0.00000000000E+00  0.00000000000E+00 -0.14245970873E+04  0.20851391386E+04  0.15226057816E+04 0.  0.
        2    1    3    3  502    0  0.36397161849E+02  0.41024114777E+03 -0.15891339205E+04  0.16416361260E+04  0.25500000920E-02 0. -1.
       -2    1    3    3    0  502 -0.36397161849E+02 -0.41024114777E+03  0.16453683323E+03  0.44350301262E+03  0.25500000920E-02 0.  1.
</event>
<event>
 5   0  0.8609148E-04  0.1548018E+04  0.7818609E-02  0.8853135E-01
       -1   -1    0    0    0  501  0.00000000000E+00  0.00000000000E+00  0.76849568222E+03  0.76849568224E+03  0.50400001928E-02 0.  1.
        1   -1    0    0  501    0  0.00000000000E+00  0.00000000000E+00 -0.77956180210E+03  0.77956180212E+03  0.50400001928E-02 0. -1.
    10030    2    1    2    0    0  0.00000000000E+00  0.00000000000E+00 -0.11066119878E+02  0.15480574844E+04  0.15480179314E+04 0.  0.
        5    1    3    3  502    0  0.24967686098E+03  0.68580250220E+03  0.25216361336E+03  0.77218662565E+03  0.46999998093E+01 0.  1.
       -5    1    3    3    0  502 -0.24967686098E+03 -0.68580250220E+03 -0.26322973324E+03  0.77587085871E+03  0.46999998093E+01 0. -1.
</event>
<event>
 5   0  0.1605214E-03  0.1422699E+04  0.7818609E-02  0.8937550E-01
        2   -1    0    0  501    0  0.00000000000E+00  0.00000000000E+00  0.10422378725E+04  0.10422378725E+04  0.25500000920E-02 0.  1.
       -2   -1    0    0    0  501  0.00000000000E+00  0.00000000000E+00 -0.48551111474E+03  0.48551111475E+03  0.25500000920E-02 0. -1.
    10030    2    1    2    0    0  0.00000000000E+00  0.00000000000E+00  0.55672675773E+03  0.15277489872E+04  0.14226989440E+04 0.  0.
        5    1    3    3  502    0 -0.70714322536E+02 -0.52743901639E+03 -0.22851066038E+03  0.57916460815E+03  0.46999998093E+01 0. -1.
       -5    1    3    3    0  502  0.70714322536E+02  0.52743901639E+03  0.78523741811E+03  0.94858437908E+03  0.46999998093E+01 0.  1.
</event>
<event>
 5   0  0.8502300E-04  0.1399149E+04  0.7818609E-02  0.8954435E-01
       -1   -1    0    0    0  501  0.00000000000E+00  0.00000000000E+00  0.70936843046E+03  0.70936843048E+03  0.50400001928E-02 0. -1.
        1   -1    0    0  501    0  0.00000000000E+00  0.00000000000E+00 -0.68991543494E+03  0.68991543495E+03  0.50400001928E-02 0.  1.
    10030    2    1    2    0    0  0.00000000000E+00  0.00000000000E+00  0.19452995528E+02  0.13992838654E+04  0.13991486401E+04 0.  0.
        4    1    3    3  502    0 -0.46652851521E+02  0.27700660754E+02 -0.68780689684E+03  0.68994474808E+03  0.12699999809E+01 0.  1.
       -4    1    3    3    0  502  0.46652851521E+02 -0.27700660754E+02  0.70725989237E+03  0.70933911736E+03  0.12699999809E+01 0. -1.
</event>
<event>
 5   0  0.1578965E-03  0.1377229E+04  0.7818609E-02  0.8970468E-01
       -2   -1    0    0    0  501  0.00000000000E+00  0.00000000000E+00  0.75506438249E+03  0.75506438249E+03  0.25500000920E-02 0.  1.
        2   -1    0    0  501    0  0.00000000000E+00  0.00000000000E+00 -0.62801238327E+03  0.62801238327E+03  0.25500000920E-02 0. -1.
    10030    2    1    2    0    0  0.00000000000E+00  0.00000000000E+00  0.12705199922E+03  0.13830767658E+04  0.13772287862E+04 0.  0.
        2    1    3    3  502    0  0.35365686429E+03  0.22979774351E+03 -0.48312866282E+03  0.64132167079E+03  0.25500000920E-02 0. -1.
       -2    1    3    3    0  502 -0.35365686429E+03 -0.22979774351E+03  0.61018066205E+03  0.74175509497E+03  0.25500000920E-02 0.  1.
</event>
<event>
 5   0  0.9639548E-04  0.1381888E+04  0.7818609E-02  0.8967034E-01
        1   -1    0    0  501    0  0.00000000000E+00  0.00000000000E+00  0.67097017843E+03  0.67097017845E+03  0.50400001928E-02 0.  1.
       -1   -1    0    0    0  501  0.00000000000E+00  0.00000000000E+00 -0.71151220352E+03  0.71151220354E+03  0.50400001928E-02 0. -1.
    10030    2    1    2    0    0  0.00000000000E+00  0.00000000000E+00 -0.40542025088E+02  0.13824823820E+04  0.13818877960E+04 0.  0.
        1    1    3    3  502    0 -0.10774457530E+03 -0.53249647522E+03 -0.44735290300E+03  0.70376559271E+03  0.50400001928E-02 0. -1.
       -1    1    3    3    0  502  0.10774457530E+03  0.53249647522E+03  0.40681087791E+03  0.67871678928E+03  0.50400001928E-02 0.  1.
</event>
<event>
 5   0  0.1706986E-03  0.1387536E+04  0.7818609E-02  0.8962891E-01
       -2   -1    0    0    0  501  0.00000000000E+00  0.00000000000E+00  0.57600797402E+03  0.57600797403E+03  0.25500000920E-02 0.  1.
        2   -1    0    0  501    0  0.00000000000E+00  0.00000000000E+00 -0.83560280670E+03  0.83560280671E+03  0.25500000920E-02 0. -1.
    10030    2    1    2    0    0  0.00000000000E+00  0.00000000000E+00 -0.25959483268E+03  0.14116107807E+04  0.13875357722E+04 0.  0.
        3    1    3    3  502    0  0.71291186334E+02 -0.67459440892E+03  0.18169689098E+02  0.67859428055E+03  0.10100000352E+00 0. -1.
       -3    1    3    3    0  502 -0.71291186334E+02  0.67459440892E+03 -0.27776452178E+03  0.73301650019E+03  0.10100000352E+00 0.  1.
</event>
<event>
 5   0  0.6048000E-04  0.1385560E+04  0.7818609E-02  0.8964338E-01
       -4   -1    0    0    0  501  0.00000000000E+00  0.00000000000E+00  0.34188571191E+03  0.34188807073E+03  0.12699999809E+01 0. -1.
        4   -1    0    0  501    0  0.00000000000E+00  0.00000000000E+00 -0.14038070197E+04  0.14038075942E+04  0.12699999809E+01 0.  1.
    10030    2    1    2    0    0  0.00000000000E+00  0.00000000000E+00 -0.10619213078E+04  0.17456956649E+04  0.13855599917E+04 0.  0.
        2    1    3    3  502    0  0.49823728439E+03  0.30421253639E+03 -0.10009608204E+04  0.11587528739E+04  0.25500000920E-02 0.  1.
       -2    1    3    3    0  502 -0.49823728439E+03 -0.30421253639E+03 -0.60960487408E+02  0.58694279099E+03  0.25500000920E-02 0. -1.
</event>
<event>
 5   0  0.9639548E-04  0.1392287E+04  0.7818609E-02  0.8959421E-01
        1   -1    0    0  501    0  0.00000000000E+00  0.00000000000E+00  0.88797370846E+03  0.88797370847E+03  0.50400001928E-02 0. -1.
       -1   -1    0    0    0  501  0.00000000000E+00  0.00000000000E+00 -0.54575473604E+03  0.54575473607E+03  0.50400001928E-02 0.  1.
    10030    2    1    2    0    0  0.00000000000E+00  0.00000000000E+00  0.34221897241E+03  0.14337284445E+04  0.13922871211E+04 0.  0.
        1    1    3    3  502    0 -0.55108192608E+03  0.41260214363E+03  0.27754972051E+03  0.74227061477E+03  0.50400001928E-02 0. -1.
       -1    1    3    3    0  502  0.55108192608E+03 -0.41260214363E+03  0.64669251903E+02  0.69145782977E+03  0.50400001928E-02 0.  1.
</event>
<event>
 5   0  0.8502300E-04  0.1396172E+04  0.7818609E-02  0.8956594E-01
       -1   -1    0    0    0  501  0.00000000000E+00  0.00000000000E+00  0.38795676916E+03  0.38795676919E+03  0.50400001928E-02 0.  1.
        1   -1    0    0  501    0  0.00000000000E+00  0.00000000000E+00 -0.12561296894E+04  0.12561296894E+04  0.50400001928E-02 0. -1.
    10030    2    1    2    0    0  0.00000000000E+00  0.00000000000E+00 -0.86817292024E+03  0.16440864586E+04  0.13961719321E+04 0.  0.
        4    1    3    3  502    0 -0.36284598906E+03  0.31760528294E+03 -0.10284863328E+04  0.11359208058E+04  0.12699999809E+01 0. -1.
       -4    1    3    3    0  502  0.36284598906E+03 -0.31760528294E+03  0.16031341251E+03  0.50816565278E+03  0.12699999809E+01 0.  1.
</event>
<event>
 5   0  0.6048000E-04  0.1399180E+04  0.7818609E-02  0.8954413E-01
        3   -1    0    0  501    0  0.00000000000E+00  0.00000000000E+00  0.35646347224E+03  0.35646348655E+03  0.10100000352E+00 0. -1.
       -3   -1    0    0    0  501  0.00000000000E+00  0.00000000000E+00 -0.13730044704E+04  0.13730044741E+04  0.10100000352E+00 0.  1.
    10030    2    1    2    0    0  0.00000000000E+00  0.00000000000E+00 -0.10165409981E+04  0.17294679606E+04  0.13991796975E+04 0.  0.
        4    1    3    3  502    0  0.34026521868E+03  0.60990292116E+03 -0.55866700549E+03  0.89435587335E+03  0.12699999809E+01 0.  1.
       -4    1    3    3    0  502 -0.34026521868E+03 -0.60990292116E+03 -0.45787399265E+03  0.83511208729E+03  0.12699999809E+01 0. -1.
</event>
<event>
 5   0  0.8609148E-04  0.1517619E+04  0.7818609E-02  0.8872820E-01
       -1   -1    0    0    0  501  0.00000000000E+00  0.00000000000E+00  0.37775179755E+03  0.37775179758E+03  0.50400001928E-02 0.  1.
        1   -1    0    0  501    0  0.00000000000E+00  0.00000000000E+00 -0.15242600138E+04  0.15242600138E+04  0.50400001928E-02 0. -1.
    10030    2    1    2    0    0  0.00000000000E+00  0.00000000000E+00 -0.11465082162E+04  0.19020118113E+04  0.15176191356E+04 0.  0.
        5    1    3    3  502    0 -0.58489047058E+03 -0.55270560819E+02  0.28608245296E+02  0.58821103285E+03  0.46999998093E+01 0.  1.
       -5    1    3    3    0  502  0.58489047058E+03  0.55270560819E+02 -0.11751164615E+04  0.13138007785E+04  0.46999998093E+01 0. -1.
</event>
<event>
 5   0  0.6048000E-04  0.1413765E+04  0.7818609E-02  0.8943915E-01
        4   -1    0    0  501    0  0.00000000000E+00  0.00000000000E+00  0.17231890477E+04  0.17231895157E+04  0.12699999809E+01 0.  1.
       -4   -1    0    0    0  501  0.00000000000E+00  0.00000000000E+00 -0.28997369486E+03  0.28997647596E+03  0.12699999809E+01 0. -1.
    10030    2    1    2    0    0  0.00000000000E+00  0.00000000000E+00  0.14332153528E+04  0.20131659917E+04  0.14137648540E+04 0.  0.
        2    1    3    3  502    0  0.31704163896E+03 -0.63178895507E+03  0.72112888237E+03  0.10098017378E+04  0.25500000920E-02 0.  1.
       -2    1    3    3    0  502 -0.31704163896E+03  0.63178895507E+03  0.71208647047E+03  0.10033642539E+04  0.25500000920E-02 0. -1.
</event>
<event>
 5   0  0.1605214E-03  0.1447322E+04  0.7818609E-02  0.8920259E-01
       -2   -1    0    0    0  501  0.00000000000E+00  0.00000000000E+00  0.86536973127E+03  0.86536973127E+03  0.25500000920E-02 0.  1.
        2   -1    0    0  501    0  0.00000000000E+00  0.00000000000E+00 -0.60515747110E+03  0.60515747110E+03  0.25500000920E-02 0. -1.
    10030    2    1    2    0    0  0.00000000000E+00  0.00000000000E+00  0.26021226017E+03  0.14705272024E+04  0.14473216065E+04 0.  0.
        5    1    3    3  502    0 -0.19538923165E+03  0.21406017018E+03 -0.54359697562E+03  0.61605070425E+03  0.46999998093E+01 0. -1.
       -5    1    3    3    0  502  0.19538923165E+03 -0.21406017018E+03  0.80380923579E+03  0.85447649812E+03  0.46999998093E+01 0.  1.
</event>
<event>
 5   0  0.1605214E-03  0.1387676E+04  0.7818609E-02  0.8962788E-01
       -2   -1    0    0    0  501  0.00000000000E+00  0.00000000000E+00  0.21067093711E+03  0.21067093713E+03  0.25500000920E-02 0.  1.
        2   -1    0    0  501    0  0.00000000000E+00  0.00000000000E+00 -0.22851346215E+04  0.22851346215E+04  0.25500000920E-02 0. -1.
    10030    2    1    2    0    0  0.00000000000E+00  0.00000000000E+00 -0.20744636844E+04  0.24958055586E+04  0.13876764063E+04 0.  0.
        5    1    3    3  502    0  0.26329181255E+02 -0.12064825633E+03  0.19071846450E+03  0.22725503348E+03  0.46999998093E+01 0.  1.
       -5    1    3    3    0  502 -0.26329181255E+02  0.12064825633E+03 -0.22651821489E+04  0.22685505251E+04  0.46999998093E+01 0. -1.
</event>
<event>
 5   0  0.1605214E-03  0.1349013E+04  0.7818609E-02  0.8991576E-01
        2   -1    0    0  501    0  0.00000000000E+00  0.00000000000E+00  0.68956380136E+03  0.68956380137E+03  0.25500000920E-02 0.  1.
       -2   -1    0    0    0  501  0.00000000000E+00  0.00000000000E+00 -0.65977784101E+03  0.65977784101E+03  0.25500000920E-02 0. -1.
    10030    2    1    2    0    0  0.00000000000E+00  0.00000000000E+00  0.29785960357E+02  0.13493416424E+04  0.13490128481E+04 0.  0.
        5    1    3    3  502    0 -0.10907101561E+03 -0.57525538558E+02  0.67817687801E+03  0.68931244142E+03  0.46999998093E+01 0.  1.
       -5    1    3    3    0  502  0.10907101561E+03  0.57525538558E+02 -0.64839091765E+03  0.66002920096E+03  0.46999998093E+01 0. -1.
</event>
<event>
 5   0  0.9007180E-04  0.1389381E+04  0.7818609E-02  0.8961541E-01
        1   -1    0    0  501    0  0.00000000000E+00  0.00000000000E+00  0.67556116768E+03  0.67556116770E+03  0.50400001928E-02 0. -1.
       -1   -1    0    0    0  501  0.00000000000E+00  0.00000000000E+00 -0.71436128422E+03  0.71436128424E+03  0.50400001928E-02 0.  1.
    10030    2    1    2    0    0  0.00000000000E+00  0.00000000000E+00 -0.38800116544E+02  0.13899224519E+04  0.13893807877E+04 0.  0.
        2    1    3    3  502    0 -0.49252384811E+03 -0.10787698087E+03 -0.49747501547E+03  0.70830683675E+03  0.25500000920E-02 0.  1.
       -2    1    3    3    0  502  0.49252384811E+03  0.10787698087E+03  0.45867489893E+03  0.68161561519E+03  0.25500000920E-02 0. -1.
</event>
<event>
 5   0  0.1706986E-03  0.1343852E+04  0.7818609E-02  0.8995495E-01
        2   -1    0    0  501    0  0.00000000000E+00  0.00000000000E+00  0.63596110437E+03  0.63596110438E+03  0.25500000920E-02 0.  1.
       -2   -1    0    0    0  501  0.00000000000E+00  0.00000000000E+00 -0.70992438420E+03  0.70992438421E+03  0.25500000920E-02 0. -1.
    10030    2    1    2    0    0  0.00000000000E+00  0.00000000000E+00 -0.73963279831E+02  0.13458854886E+04  0.13438516219E+04 0.  0.
        3    1    3    3  502    0 -0.64518474581E+02  0.90943654389E+02  0.62663035642E+03  0.63647387662E+03  0.10100000352E+00 0.  1.
       -3    1    3    3    0  502  0.64518474581E+02 -0.90943654389E+02 -0.70059363625E+03  0.70941161196E+03  0.10100000352E+00 0. -1.
</event>
<event>
 5   0  0.1578965E-03  0.1300809E+04  0.7818609E-02  0.9028924E-01
       -2   -1    0    0    0  501  0.00000000000E+00  0.00000000000E+00  0.38932326014E+03  0.38932326015E+03  0.25500000920E-02 0. -1.
        2   -1    0    0  501    0  0.00000000000E+00  0.00000000000E+00 -0.10865673377E+04  0.10865673377E+04  0.25500000920E-02 0.  1.
    10030    2    1    2    0    0  0.00000000000E+00  0.00000000000E+00 -0.69724407758E+03  0.14758905979E+04  0.13008088842E+04 0.  0.
        2    1    3    3  502    0 -0.19508538913E+03  0.43717609312E+03 -0.84815900197E+03  0.97393785124E+03  0.25500000920E-02 0.  1.
       -2    1    3    3    0  502  0.19508538913E+03 -0.43717609312E+03  0.15091492439E+03  0.50195274664E+03  0.25500000920E-02 0. -1.
</event>
<event>
 5   0  0.1706986E-03  0.1401397E+04  0.7818609E-02  0.8952808E-01
        2   -1    0    0  501    0  0.00000000000E+00  0.00000000000E+00  0.50420259516E+03  0.50420259517E+03  0.25500000920E-02 0. -1.
       -2   -1    0    0    0  501  0.00000000000E+00  0.00000000000E+00 -0.97377181252E+03  0.97377181252E+03  0.25500000920E-02 0.  1.
    10030    2    1    2    0    0  0.00000000000E+00  0.00000000000E+00 -0.46956921736E+03  0.14779744077E+04  0.14013968388E+04 0.  0.
        3    1    3    3  502    0  0.31604849113E+02  0.44255451078E+03  0.33718332181E+03  0.55726651093E+03  0.10100000352E+00 0. -1.
       -3    1    3    3    0  502 -0.31604849113E+02 -0.44255451078E+03 -0.80675253916E+03  0.92070789676E+03  0.10100000352E+00 0.  1.
</event>
<event>
 5   0  0.9007180E-04  0.1414746E+04  0.7818609E-02  0.8943213E-01
        1   -1    0    0  501    0  0.00000000000E+00  0.00000000000E+00  0.89603183596E+03  0.89603183598E+03  0.50400001928E-02 0.  1.
       -1   -1    0    0    0  501  0.00000000000E+00  0.00000000000E+00 -0.55843599470E+03  0.55843599473E+03  0.50400001928E-02 0. -1.
    10030    2    1    2    0    0  0.00000000000E+00  0.00000000000E+00  0.33759584126E+03  0.14544678307E+04  0.14147458141E+04 0.  0.
        2    1    3    3  502    0 -0.15205482035E+03  0.40993237890E+03  0.74047833652E+03  0.85992638669E+03  0.25500000920E-02 0.  1.
       -2    1    3    3    0  502  0.15205482035E+03 -0.40993237890E+03 -0.40288249526E+03  0.59454144402E+03  0.25500000920E-02 0. -1.
</event>
<event>
 5   0  0.1578965E-03  0.1344493E+04  0.7818609E-02  0.8995007E-01
       -2   -1    0    0    0  501  0.00000000000E+00  0.00000000000E+00  0.62972489235E+03  0.62972489235E+03  0.25500000920E-02 0. -1.
        2   -1    0    0  501    0  0.00000000000E+00  0.00000000000E+00 -0.71763938531E+03  0.71763938532E+03  0.25500000920E-02 0.  1.
    10030    2    1    2    0    0  0.00000000000E+00  0.00000000000E+00 -0.87914492969E+02  0.13473642777E+04  0.13444930415E+04 0.  0.
        2    1    3    3  502    0 -0.20888370636E+03  0.61014345841E+03 -0.23412007142E+03  0.68609011833E+03  0.25500000920E-02 0.  1.
       -2    1    3    3    0  502  0.20888370636E+03 -0.61014345841E+03  0.14620557845E+03  0.66127415934E+03  0.25500000920E-02 0. -1.
</event>
<event>
 5   0  0.8502300E-04  0.1178257E+04  0.7818609E-02  0.9132104E-01
        1   -1    0    0  501    0  0.00000000000E+00  0.00000000000E+00  0.98604823895E+03  0.98604823896E+03  0.50400001928E-02 0.  1.
       -1   -1    0    0    0  501  0.00000000000E+00  0.00000000000E+00 -0.35198313266E+03  0.35198313270E+03  0.50400001928E-02 0. -1.
    10030    2    1    2    0    0  0.00000000000E+00  0.00000000000E+00  0.63406510629E+03  0.13380313717E+04  0.11782569298E+04 0.  0.
        4    1    3    3  502    0  0.15832887222E+03 -0.18115358382E+03  0.92771436781E+03  0.95840503643E+03  0.12699999809E+01 0.  1.
       -4    1    3    3    0  502 -0.15832887222E+03  0.18115358382E+03 -0.29364926152E+03  0.37962633523E+03  0.12699999809E+01 0. -1.
</event>
<event>
 5   0  0.8502300E-04  0.1379124E+04  0.7818609E-02  0.8969070E-01
        1   -1    0    0  501    0  0.00000000000E+00  0.00000000000E+00  0.37713313713E+03  0.37713313717E+03  0.50400001928E-02 0.  1.
       -1   -1    0    0    0  501  0.00000000000E+00  0.00000000000E+00 -0.12608167709E+04  0.12608167709E+04  0.50400001928E-02 0. -1.
    10030    2    1    2    0    0  0.00000000000E+00  0.00000000000E+00 -0.88368363375E+03  0.16379499081E+04  0.13791240469E+04 0.  0.
        4    1    3    3  502    0 -0.26752201708E+02  0.45434660450E+03 -0.10570841159E+04  0.11509018022E+04  0.12699999809E+01 0. -1.
       -4    1    3    3    0  502  0.26752201708E+02 -0.45434660450E+03  0.17340048215E+03  0.48704810586E+03  0.12699999809E+01 0.  1.
</event>
<event>
 5   0  0.1648213E-03  0.1145554E+04  0.7818609E-02  0.9161895E-01
        2   -1    0    0  501    0  0.00000000000E+00  0.00000000000E+00  0.16822161489E+04  0.16822161489E+04  0.25500000920E-02 0. -1.
       -2   -1    0    0    0  501  0.00000000000E+00  0.00000000000E+00 -0.19502454530E+03  0.19502454532E+03  0.25500000920E-02 0.  1.
    10030    2    1    2    0    0  0.00000000000E+00  0.00000000000E+00  0.14871916036E+04  0.18772406942E+04  0.11455539089E+04 0.  0.
        4    1    3    3  502    0 -0.55433353854E+03 -0.10800708948E+02  0.50799899077E+03  0.75197534188E+03  0.12699999809E+01 0.  1.
       -4    1    3    3    0  502  0.55433353854E+03  0.10800708948E+02  0.97919261281E+03  0.11252653523E+04  0.12699999809E+01 0. -1.
</event>
<event>
 5   0  0.8673728E-04  0.1425444E+04  0.7818609E-02  0.8935604E-01
       -1   -1    0    0    0  501  0.00000000000E+00  0.00000000000E+00  0.98456247858E+03  0.98456247859E+03  0.50400001928E-02 0. -1.
        1   -1    0    0  501    0  0.00000000000E+00  0.00000000000E+00 -0.51593713583E+03  0.51593713586E+03  0.50400001928E-02 0.  1.
    10030    2    1    2    0    0  0.00000000000E+00  0.00000000000E+00  0.46862534275E+03  0.15004996144E+04  0.14254435735E+04 0.  0.
        3    1    3    3  502    0  0.17766606593E+03  0.68378367560E+03  0.33332370700E+03  0.78117222804E+03  0.10100000352E+00 0.  1.
       -3    1    3    3    0  502 -0.17766606593E+03 -0.68378367560E+03  0.13530163575E+03  0.71932738641E+03  0.10100000352E+00 0. -1.
</event>
<event>
 5   0  0.9007180E-04  0.1402349E+04  0.7818609E-02  0.8952120E-01
        1   -1    0    0  501    0  0.00000000000E+00  0.00000000000E+00  0.11944299486E+04  0.11944299486E+04  0.50400001928E-02 0. -1.
       -1   -1    0    0    0  501  0.00000000000E+00  0.00000000000E+00 -0.41161555542E+03  0.41161555545E+03  0.50400001928E-02 0.  1.
    10030    2    1    2    0    0  0.00000000000E+00  0.00000000000E+00  0.78281439317E+03  0.16060455041E+04  0.14023493812E+04 0.  0.
        2    1    3    3  502    0 -0.21395285085E+03 -0.66006516894E+03  0.50698192575E+03  0.85935587662E+03  0.25500000920E-02 0.  1.
       -2    1    3    3    0  502  0.21395285085E+03  0.66006516894E+03  0.27583246742E+03  0.74668962744E+03  0.25500000920E-02 0. -1.
</event>
<event>
 5   0  0.1706986E-03  0.1348810E+04  0.7818609E-02  0.8991729E-01
       -2   -1    0    0    0  501  0.00000000000E+00  0.00000000000E+00  0.56342773767E+03  0.56342773768E+03  0.25500000920E-02 0. -1.
        2   -1    0    0  501    0  0.00000000000E+00  0.00000000000E+00 -0.80724122763E+03  0.80724122764E+03  0.25500000920E-02 0.  1.
    10030    2    1    2    0    0  0.00000000000E+00  0.00000000000E+00 -0.24381348996E+03  0.13706689653E+04  0.13488099920E+04 0.  0.
        3    1    3    3  502    0  0.10920689704E+03  0.57772657787E+03 -0.45760554605E+03  0.74504831461E+03  0.10100000352E+00 0.  1.
       -3    1    3    3    0  502 -0.10920689704E+03 -0.57772657787E+03  0.21379205608E+03  0.62562065070E+03  0.10100000352E+00 0. -1.
</event>
<event>
 5   0  0.1706986E-03  0.1455143E+04  0.7818609E-02  0.8914843E-01
        2   -1    0    0  501    0  0.00000000000E+00  0.00000000000E+00  0.14167347218E+04  0.14167347218E+04  0.25500000920E-02 0. -1.
       -2   -1    0    0    0  501  0.00000000000E+00  0.00000000000E+00 -0.37364805617E+03  0.37364805617E+03  0.25500000920E-02 0.  1.
    10030    2    1    2    0    0  0.00000000000E+00  0.00000000000E+00  0.10430866656E+04  0.17903827779E+04  0.14551428451E+04 0.  0.
        3    1    3    3  502    0  0.53044886128E+03 -0.10985338165E+03 -0.76068700982E+02  0.54701939395E+03  0.10100000352E+00 0.  1.
       -3    1    3    3    0  502 -0.53044886128E+03  0.10985338165E+03  0.11191553666E+04  0.12433633840E+04  0.10100000352E+00 0. -1.
</event>
<event>
 5   0  0.1578965E-03  0.1578467E+04  0.7818609E-02  0.8833887E-01
        2   -1    0    0  501    0  0.00000000000E+00  0.00000000000E+00  0.23432047236E+04  0.23432047236E+04  0.25500000920E-02 0.  1.
       -2   -1    0    0    0  501  0.00000000000E+00  0.00000000000E+00 -0.26582805594E+03  0.26582805595E+03  0.25500000920E-02 0. -1.
    10030    2    1    2    0    0  0.00000000000E+00  0.00000000000E+00  0.20773766677E+04  0.26090327796E+04  0.15784670492E+04 0.  0.
        2    1    3    3  502    0 -0.68800515659E+03 -0.73069688295E+02  0.41102672820E+03  0.80475663784E+03  0.25500000920E-02 0. -1.
       -2    1    3    3    0  502  0.68800515659E+03  0.73069688295E+02  0.16663499395E+04  0.18042761417E+04  0.25500000920E-02 0.  1.
</event>
<event>
 5   0  0.9639548E-04  0.1400967E+04  0.7818609E-02  0.8953119E-01
       -1   -1    0    0    0  501  0.00000000000E+00  0.00000000000E+00  0.94618195547E+03  0.94618195548E+03  0.50400001928E-02 0.  1.
        1   -1    0    0  501    0  0.00000000000E+00  0.00000000000E+00 -0.51858635118E+03  0.51858635121E+03  0.50400001928E-02 0. -1.
    10030    2    1    2    0    0  0.00000000000E+00  0.00000000000E+00  0.42759560429E+03  0.14647683067E+04  0.14009668774E+04 0.  0.
        1    1    3    3  502    0  0.32354143116E+03  0.10191031662E+03 -0.42698516153E+03  0.54532659802E+03  0.50400001928E-02 0. -1.
       -1    1    3    3    0  502 -0.32354143116E+03 -0.10191031662E+03  0.85458076582E+03  0.91944170867E+03  0.50400001928E-02 0.  1.
</event>
<event>
 5   0  0.1648213E-03  0.1382971E+04  0.7818609E-02  0.8966238E-01
        2   -1    0    0  501    0  0.00000000000E+00  0.00000000000E+00  0.16306170491E+04  0.16306170491E+04  0.25500000920E-02 0. -1.
       -2   -1    0    0    0  501  0.00000000000E+00  0.00000000000E+00 -0.29323373500E+03  0.29323373501E+03  0.25500000920E-02 0.  1.
    10030    2    1    2    0    0  0.00000000000E+00  0.00000000000E+00  0.13373833141E+04  0.19238507841E+04  0.13829706109E+04 0.  0.
        4    1    3    3  502    0 -0.45030936371E+03  0.19445025108E+03 -0.93336542695E+01  0.49058959751E+03  0.12699999809E+01 0.  1.
       -4    1    3    3    0  502  0.45030936371E+03 -0.19445025108E+03  0.13467169683E+04  0.14332611866E+04  0.12699999809E+01 0. -1.
</event>
<event>
 5   0  0.8673728E-04  0.1403141E+04  0.7818609E-02  0.8951548E-01
       -1   -1    0    0    0  501  0.00000000000E+00  0.00000000000E+00  0.33493261097E+03  0.33493261100E+03  0.50400001928E-02 0. -1.
        1   -1    0    0  501    0  0.00000000000E+00  0.00000000000E+00 -0.14695520400E+04  0.14695520400E+04  0.50400001928E-02 0.  1.
    10030    2    1    2    0    0  0.00000000000E+00  0.00000000000E+00 -0.11346194290E+04  0.18044846510E+04  0.14031406226E+04 0.  0.
        3    1    3    3  502    0  0.40614866738E+03 -0.20667501157E+03  0.11867701451E+03  0.47090927406E+03  0.10100000352E+00 0. -1.
       -3    1    3    3    0  502 -0.40614866738E+03  0.20667501157E+03 -0.12532964435E+04  0.13335753769E+04  0.10100000352E+00 0.  1.
</event>
<event>
 5   0  0.1706986E-03  0.1401034E+04  0.7818609E-02  0.8953070E-01
        2   -1    0    0  501    0  0.00000000000E+00  0.00000000000E+00  0.10321274795E+04  0.10321274795E+04  0.25500000920E-02 0.  1.
       -2   -1    0    0    0  501  0.00000000000E+00  0.00000000000E+00 -0.47544938439E+03  0.47544938440E+03  0.25500000920E-02 0. -1.
    10030    2    1    2    0    0  0.00000000000E+00  0.00000000000E+00  0.55667809509E+03  0.15075768639E+04  0.14010344389E+04 0.  0.
        3    1    3    3  502    0  0.28655306874E+02  0.31553773558E+03  0.95062141877E+03  0.10020310780E+04  0.10100000352E+00 0.  1.
       -3    1    3    3    0  502 -0.28655306874E+02 -0.31553773558E+03 -0.39394332368E+03  0.50554578592E+03  0.10100000352E+00 0. -1.
</event>
<event>
 5   0  0.1605214E-03  0.1411797E+04  0.7818609E-02  0.8945324E-01
       -2   -1    0    0    0  501  0.00000000000E+00  0.00000000000E+00  0.30532487694E+03  0.30532487695E+03  0.25500000920E-02 0.  1.
        2   -1    0    0  501    0  0.00000000000E+00  0.00000000000E+00 -0.16320071584E+04  0.16320071584E+04  0.25500000920E-02 0. -1.
    10030    2    1    2    0    0  0.00000000000E+00  0.00000000000E+00 -0.13266822814E+04  0.19373320353E+04  0.14117965644E+04 0.  0.
        5    1    3    3  502    0  0.54295198064E+03  0.93033886864E+02 -0.57656399652E+02  0.55389394997E+03  0.46999998093E+01 0.  1.
       -5    1    3    3    0  502 -0.54295198064E+03 -0.93033886864E+02 -0.12690258818E+04  0.13834380853E+04  0.46999998093E+01 0. -1.
</event>
<event>
 5   0  0.9639548E-04  0.1468523E+04  0.7818609E-02  0.8905659E-01
       -1   -1    0    0    0  501  0.00000000000E+00  0.00000000000E+00  0.30402664863E+03  0.30402664867E+03  0.50400001928E-02 0. -1.
        1   -1    0    0  501    0  0.00000000000E+00  0.00000000000E+00 -0.17733300896E+04  0.17733300896E+04  0.50400001928E-02 0.  1.
    10030    2    1    2    0    0  0.00000000000E+00  0.00000000000E+00 -0.14693034410E+04  0.20773567383E+04  0.14685225284E+04 0.  0.
        1    1    3    3  502    0  0.47922817747E+03  0.10271786168E+03  0.38766668078E+02  0.49164363086E+03  0.50400001928E-02 0. -1.
       -1    1    3    3    0  502 -0.47922817747E+03 -0.10271786168E+03 -0.15080701091E+04  0.15857131074E+04  0.50400001928E-02 0.  1.
</event>
<event>
 5   0  0.9639548E-04  0.1382216E+04  0.7818609E-02  0.8966793E-01
        1   -1    0    0  501    0  0.00000000000E+00  0.00000000000E+00  0.77415706586E+03  0.77415706588E+03  0.50400001928E-02 0.  1.
       -1   -1    0    0    0  501  0.00000000000E+00  0.00000000000E+00 -0.61696774484E+03  0.61696774486E+03  0.50400001928E-02 0. -1.
    10030    2    1    2    0    0  0.00000000000E+00  0.00000000000E+00  0.15718932102E+03  0.13911248107E+04  0.13822155246E+04 0.  0.
        1    1    3    3  502    0  0.40648747191E+03  0.42740435471E+03  0.44108753791E+03  0.73652207256E+03  0.50400001928E-02 0.  1.
       -1    1    3    3    0  502 -0.40648747191E+03 -0.42740435471E+03 -0.28389821688E+03  0.65460273817E+03  0.50400001928E-02 0. -1.
</event>
<event>
 5   0  0.1648463E-03  0.1618456E+04  0.7818609E-02  0.8809290E-01
       -2   -1    0    0    0  501  0.00000000000E+00  0.00000000000E+00  0.89363606588E+03  0.89363606588E+03  0.25500000920E-02 0.  1.
        2   -1    0    0  501    0  0.00000000000E+00  0.00000000000E+00 -0.73279235247E+03  0.73279235248E+03  0.25500000920E-02 0. -1.
    10030    2    1    2    0    0  0.00000000000E+00  0.00000000000E+00  0.16084371340E+03  0.16264284184E+04  0.16184556527E+04 0.  0.
        1    1    3    3  502    0  0.22927729168E+03  0.39593427671E+03 -0.59033729349E+03  0.74688027692E+03  0.50400001928E-02 0. -1.
       -1    1    3    3    0  502 -0.22927729168E+03 -0.39593427671E+03  0.75118100689E+03  0.87954814143E+03  0.50400001928E-02 0.  1.
</event>
<event>
 5   0  0.8502300E-04  0.1396867E+04  0.7818609E-02  0.8956090E-01
        1   -1    0    0  501    0  0.00000000000E+00  0.00000000000E+00  0.71425436437E+03  0.71425436439E+03  0.50400001928E-02 0.  1.
       -1   -1    0    0    0  501  0.00000000000E+00  0.00000000000E+00 -0.68296268124E+03  0.68296268126E+03  0.50400001928E-02 0. -1.
    10030    2    1    2    0    0  0.00000000000E+00  0.00000000000E+00  0.31291683129E+02  0.13972170456E+04  0.13968666018E+04 0.  0.
        4    1    3    3  502    0  0.89596010963E+02  0.48762651491E+03 -0.47641293574E+03  0.68758851173E+03  0.12699999809E+01 0.  1.
       -4    1    3    3    0  502 -0.89596010963E+02 -0.48762651491E+03  0.50770461887E+03  0.70962853392E+03  0.12699999809E+01 0. -1.
</event>
<event>
 5   0  0.1605214E-03  0.1414291E+04  0.7818609E-02  0.8943539E-01
       -2   -1    0    0    0  501  0.00000000000E+00  0.00000000000E+00  0.43740240304E+03  0.43740240305E+03  0.25500000920E-02 0. -1.
        2   -1    0    0  501    0  0.00000000000E+00  0.00000000000E+00 -0.11432370221E+04  0.11432370222E+04  0.25500000920E-02 0.  1.
    10030    2    1    2    0    0  0.00000000000E+00  0.00000000000E+00 -0.70583461911E+03  0.15806394252E+04  0.14142908057E+04 0.  0.
        5    1    3    3  502    0  0.28389029540E+03 -0.29133932053E+03  0.29352719812E+03  0.50164988343E+03  0.46999998093E+01 0. -1.
       -5    1    3    3    0  502 -0.28389029540E+03  0.29133932053E+03 -0.99936181723E+03  0.10789895418E+04  0.46999998093E+01 0.  1.
</event>
<event>
 5   0  0.9007180E-04  0.1411301E+04  0.7818609E-02  0.8945678E-01
        1   -1    0    0  501    0  0.00000000000E+00  0.00000000000E+00  0.54519621293E+03  0.54519621296E+03  0.50400001928E-02 0. -1.
       -1   -1    0    0    0  501  0.00000000000E+00  0.00000000000E+00 -0.91332774651E+03  0.91332774653E+03  0.50400001928E-02 0.  1.
    10030    2    1    2    0    0  0.00000000000E+00  0.00000000000E+00 -0.36813153358E+03  0.14585239595E+04  0.14113012841E+04 0.  0.
        2    1    3    3  502    0 -0.34762912048E+03  0.73702475704E+02 -0.81410780570E+03  0.88828462760E+03  0.25500000920E-02 0.  1.
       -2    1    3    3    0  502  0.34762912048E+03 -0.73702475704E+02  0.44597627212E+03  0.57023933188E+03  0.25500000920E-02 0. -1.
</event>
<event>
 5   0  0.8609148E-04  0.1400501E+04  0.7818609E-02  0.8953456E-01
        1   -1    0    0  501    0  0.00000000000E+00  0.00000000000E+00  0.48960008028E+03  0.48960008031E+03  0.50400001928E-02 0. -1.
       -1   -1    0    0    0  501  0.00000000000E+00  0.00000000000E+00 -0.10015335651E+04  0.10015335651E+04  0.50400001928E-02 0.  1.
    10030    2    1    2    0    0  0.00000000000E+00  0.00000000000E+00 -0.51193348481E+03  0.14911336454E+04  0.14005012159E+04 0.  0.
        5    1    3    3  502    0 -0.60167772494E+03  0.32222000096E+03 -0.89356782276E+02  0.68836657258E+03  0.46999998093E+01 0. -1.
       -5    1    3    3    0  502  0.60167772494E+03 -0.32222000096E+03 -0.42257670254E+03  0.80276707284E+03  0.46999998093E+01 0.  1.
</event>
<event>
 5   0  0.8673728E-04  0.1378094E+04  0.7818609E-02  0.8969829E-01
       -1   -1    0    0    0  501  0.00000000000E+00  0.00000000000E+00  0.39875873481E+03  0.39875873484E+03  0.50400001928E-02 0.  1.
        1   -1    0    0  501    0  0.00000000000E+00  0.00000000000E+00 -0.11906595620E+04  0.11906595620E+04  0.50400001928E-02 0. -1.
    10030    2    1    2    0    0  0.00000000000E+00  0.00000000000E+00 -0.79190082721E+03  0.15894182969E+04  0.13780941921E+04 0.  0.
        3    1    3    3  502    0  0.65910251458E+03  0.31020597142E+01 -0.62765554572E+03  0.91015231790E+03  0.10100000352E+00 0. -1.
       -3    1    3    3    0  502 -0.65910251458E+03 -0.31020597142E+01 -0.16424528148E+03  0.67926597898E+03  0.10100000352E+00 0.  1.
</event>
<event>
 5   0  0.1605214E-03  0.1428009E+04  0.7818609E-02  0.8933790E-01
       -2   -1    0    0    0  501  0.00000000000E+00  0.00000000000E+00  0.30780402527E+03  0.30780402528E+03  0.25500000920E-02 0.  1.
        2   -1    0    0  501    0  0.00000000000E+00  0.00000000000E+00 -0.16562559898E+04  0.16562559898E+04  0.25500000920E-02 0. -1.
    10030    2    1    2    0    0  0.00000000000E+00  0.00000000000E+00 -0.13484519645E+04  0.19640600151E+04  0.14280087682E+04 0.  0.
        5    1    3    3  502    0 -0.71293801223E+03  0.29558902492E+01 -0.62112078028E+03  0.94556991294E+03  0.46999998093E+01 0.  1.
       -5    1    3    3    0  502  0.71293801223E+03 -0.29558902492E+01 -0.72733118422E+03  0.10184901021E+04  0.46999998093E+01 0. -1.
</event>
<event>
 5   0  0.9007180E-04  0.1401447E+04  0.7818609E-02  0.8952772E-01
       -1   -1    0    0    0  501  0.00000000000E+00  0.00000000000E+00  0.82557996635E+03  0.82557996637E+03  0.50400001928E-02 0. -1.
        1   -1    0    0  501    0  0.00000000000E+00  0.00000000000E+00 -0.59474977599E+03  0.59474977601E+03  0.50400001928E-02 0.  1.
    10030    2    1    2    0    0  0.00000000000E+00  0.00000000000E+00  0.23083019036E+03  0.14203297424E+04  0.14014471093E+04 0.  0.
        2    1    3    3  502    0 -0.60034506764E+03  0.35509857547E+03  0.18343346159E+03  0.72121912993E+03  0.25500000920E-02 0. -1.
       -2    1    3    3    0  502  0.60034506764E+03 -0.35509857547E+03  0.47396728770E+02  0.69911061245E+03  0.25500000920E-02 0.  1.
</event>
<event>
 5   0  0.8673728E-04  0.1415165E+04  0.7818609E-02  0.8942914E-01
        1   -1    0    0  501    0  0.00000000000E+00  0.00000000000E+00  0.11200208499E+04  0.11200208499E+04  0.50400001928E-02 0. -1.
       -1   -1    0    0    0  501  0.00000000000E+00  0.00000000000E+00 -0.44702084133E+03  0.44702084136E+03  0.50400001928E-02 0.  1.
    10030    2    1    2    0    0  0.00000000000E+00  0.00000000000E+00  0.67300000861E+03  0.15670416913E+04  0.14151645313E+04 0.  0.
        3    1    3    3  502    0 -0.51244486050E+03  0.34177780714E+03 -0.49097235392E+02  0.61791775604E+03  0.10100000352E+00 0.  1.
       -3    1    3    3    0  502  0.51244486050E+03 -0.34177780714E+03  0.72209724400E+03  0.94912393527E+03  0.10100000352E+00 0. -1.
</event>
<event>
 5   0  0.1605214E-03  0.1029978E+04  0.7818609E-02  0.9276263E-01
        2   -1    0    0  501    0  0.00000000000E+00  0.00000000000E+00  0.26945281173E+03  0.26945281174E+03  0.25500000920E-02 0.  1.
       -2   -1    0    0    0  501  0.00000000000E+00  0.00000000000E+00 -0.98426792763E+03  0.98426792763E+03  0.25500000920E-02 0. -1.
    10030    2    1    2    0    0  0.00000000000E+00  0.00000000000E+00 -0.71481511590E+03  0.12537207394E+04  0.10299781757E+04 0.  0.
        5    1    3    3  502    0  0.10868624074E+03  0.46503192993E+03 -0.59193938293E+03  0.76057985632E+03  0.46999998093E+01 0. -1.
       -5    1    3    3    0  502 -0.10868624074E+03 -0.46503192993E+03 -0.12287573297E+03  0.49314088305E+03  0.46999998093E+01 0.  1.
</event>
<event>
 5   0  0.1605214E-03  0.1407375E+04  0.7818609E-02  0.8948497E-01
        2   -1    0    0  501    0  0.00000000000E+00  0.00000000000E+00  0.62782933622E+03  0.62782933623E+03  0.25500000920E-02 0. -1.
       -2   -1    0    0    0  501  0.00000000000E+00  0.00000000000E+00 -0.78871127482E+03  0.78871127482E+03  0.25500000920E-02 0.  1.
    10030    2    1    2    0    0  0.00000000000E+00  0.00000000000E+00 -0.16088193859E+03  0.14165406111E+04  0.14073749694E+04 0.  0.
        5    1    3    3  502    0  0.36098349700E+02  0.37177558938E+03 -0.68067515458E+03  0.77644119917E+03  0.46999998093E+01 0.  1.
       -5    1    3    3    0  502 -0.36098349700E+02 -0.37177558938E+03  0.51979321599E+03  0.64009941188E+03  0.46999998093E+01 0. -1.
</event>
<event>
 5   0  0.1648463E-03  0.1398481E+04  0.7818609E-02  0.8954919E-01
        2   -1    0    0  501    0  0.00000000000E+00  0.00000000000E+00  0.10461917141E+04  0.10461917141E+04  0.25500000920E-02 0. -1.
       -2   -1    0    0    0  501  0.00000000000E+00  0.00000000000E+00 -0.46734951418E+03  0.46734951419E+03  0.25500000920E-02 0.  1.
    10030    2    1    2    0    0  0.00000000000E+00  0.00000000000E+00  0.57884219995E+03  0.15135412283E+04  0.13984808749E+04 0.  0.
        1    1    3    3  502    0  0.42348973238E+03 -0.43493470817E+03 -0.86154039162E+02  0.61313479129E+03  0.50400001928E-02 0. -1.
       -1    1    3    3    0  502 -0.42348973238E+03  0.43493470817E+03  0.66499623911E+03  0.90040643704E+03  0.50400001928E-02 0.  1.
</event>
<event>
 5   0  0.8502300E-04  0.1406665E+04  0.7818609E-02  0.8949008E-01
       -1   -1    0    0    0  501  0.00000000000E+00  0.00000000000E+00  0.37436325177E+03  0.37436325180E+03  0.50400001928E-02 0. -1.
        1   -1    0    0  501    0  0.00000000000E+00  0.00000000000E+00 -0.13213822027E+04  0.13213822027E+04  0.50400001928E-02 0.  1.
    10030    2    1    2    0    0  0.00000000000E+00  0.00000000000E+00 -0.94701895095E+03  0.16957454545E+04  0.14066654731E+04 0.  0.
        4    1    3    3  502    0  0.52329270083E+03 -0.17351099687E+03  0.52972978442E+02  0.55384931717E+03  0.12699999809E+01 0. -1.
       -4    1    3    3    0  502 -0.52329270083E+03  0.17351099687E+03 -0.99999192939E+03  0.11418961374E+04  0.12699999809E+01 0.  1.
</event>
<event>
 5   0  0.8609148E-04  0.1437562E+04  0.7818609E-02  0.8927069E-01
        1   -1    0    0  501    0  0.00000000000E+00  0.00000000000E+00  0.77738561235E+03  0.77738561237E+03  0.50400001928E-02 0.  1.
       -1   -1    0    0    0  501  0.00000000000E+00  0.00000000000E+00 -0.66459469771E+03  0.66459469773E+03  0.50400001928E-02 0. -1.
    10030    2    1    2    0    0  0.00000000000E+00  0.00000000000E+00  0.11279091464E+03  0.14419803101E+04  0.14375623201E+04 0.  0.
        5    1    3    3  502    0 -0.21058582187E+03 -0.67322104820E+02  0.74241661524E+03  0.77465035646E+03  0.46999998093E+01 0.  1.
       -5    1    3    3    0  502  0.21058582187E+03  0.67322104820E+02 -0.62962570061E+03  0.66732995364E+03  0.46999998093E+01 0. -1.
</event>
<event>
 5   0  0.8673728E-04  0.1409143E+04  0.7818609E-02  0.8947227E-01
        1   -1    0    0  501    0  0.00000000000E+00  0.00000000000E+00  0.73408452272E+03  0.73408452273E+03  0.50400001928E-02 0.  1.
       -1   -1    0    0    0  501  0.00000000000E+00  0.00000000000E+00 -0.67624501826E+03  0.67624501828E+03  0.50400001928E-02 0. -1.
    10030    2    1    2    0    0  0.00000000000E+00  0.00000000000E+00  0.57839504456E+02  0.14103295410E+04  0.14091430041E+04 0.  0.
        3    1    3    3  502    0 -0.54555804021E+01  0.26326170315E+03  0.68298705767E+03  0.73198894722E+03  0.10100000352E+00 0.  1.
       -3    1    3    3    0  502  0.54555804021E+01 -0.26326170315E+03 -0.62514755321E+03  0.67834059380E+03  0.10100000352E+00 0. -1.
</event>
<event>
 5   0  0.1578965E-03  0.1388928E+04  0.7818609E-02  0.8961872E-01
        2   -1    0    0  501    0  0.00000000000E+00  0.00000000000E+00  0.26070470993E+04  0.26070470993E+04  0.25500000920E-02 0.  1.
       -2   -1    0    0    0  501  0.00000000000E+00  0.00000000000E+00 -0.18499111902E+03  0.18499111904E+03  0.25500000920E-02 0. -1.
    10030    2    1    2    0    0  0.00000000000E+00  0.00000000000E+00  0.24220559803E+04  0.27920382184E+04  0.13889284507E+04 0.  0.
        2    1    3    3  502    0 -0.15754679657E+03  0.65625148969E+03  0.88198199482E+03  0.11105760893E+04  0.25500000920E-02 0. -1.
       -2    1    3    3    0  502  0.15754679657E+03 -0.65625148969E+03  0.15400739855E+04  0.16814621291E+04  0.25500000920E-02 0.  1.
</event>
<event>
 5   0  0.8673728E-04  0.1404533E+04  0.7818609E-02  0.8950544E-01
       -1   -1    0    0    0  501  0.00000000000E+00  0.00000000000E+00  0.30024304763E+03  0.30024304767E+03  0.50400001928E-02 0.  1.
        1   -1    0    0  501    0  0.00000000000E+00  0.00000000000E+00 -0.16425958690E+04  0.16425958690E+04  0.50400001928E-02 0. -1.
    10030    2    1    2    0    0  0.00000000000E+00  0.00000000000E+00 -0.13423528214E+04  0.19428389167E+04  0.14045326480E+04 0.  0.
        3    1    3    3  502    0 -0.54777086164E+03 -0.17567849606E+03 -0.11397328996E+03  0.58643479762E+03  0.10100000352E+00 0.  1.
       -3    1    3    3    0  502  0.54777086164E+03  0.17567849606E+03 -0.12283795314E+04  0.13564041191E+04  0.10100000352E+00 0. -1.
</event>
<event>
 5   0  0.9007180E-04  0.1408734E+04  0.7818609E-02  0.8947521E-01
        1   -1    0    0  501    0  0.00000000000E+00  0.00000000000E+00  0.60322456257E+03  0.60322456259E+03  0.50400001928E-02 0.  1.
       -1   -1    0    0    0  501  0.00000000000E+00  0.00000000000E+00 -0.82246810039E+03  0.82246810040E+03  0.50400001928E-02 0. -1.
    10030    2    1    2    0    0  0.00000000000E+00  0.00000000000E+00 -0.21924353782E+03  0.14256926630E+04  0.14087341270E+04 0.  0.
        2    1    3    3  502    0  0.61424386139E+03 -0.29441441259E+03 -0.29110589427E+03  0.74075502650E+03  0.25500000920E-02 0. -1.
       -2    1    3    3    0  502 -0.61424386139E+03  0.29441441259E+03  0.71862356456E+02  0.68493763649E+03  0.25500000920E-02 0.  1.
</event>
<event>
 5   0  0.8502300E-04  0.1156387E+04  0.7818609E-02  0.9151911E-01
       -1   -1    0    0    0  501  0.00000000000E+00  0.00000000000E+00  0.65017674250E+03  0.65017674252E+03  0.50400001928E-02 0.  1.
        1   -1    0    0  501    0  0.00000000000E+00  0.00000000000E+00 -0.51417987680E+03  0.51417987683E+03  0.50400001928E-02 0. -1.
    10030    2    1    2    0    0  0.00000000000E+00  0.00000000000E+00  0.13599686570E+03  0.11643566194E+04  0.11563871279E+04 0.  0.
        4    1    3    3  502    0 -0.34683225076E+03 -0.54928687913E+02 -0.39451069100E+03  0.52815723902E+03  0.12699999809E+01 0. -1.
       -4    1    3    3    0  502  0.34683225076E+03  0.54928687913E+02  0.53050755670E+03  0.63619938033E+03  0.12699999809E+01 0.  1.
</event>
<event>
 5   0  0.1706986E-03  0.1364568E+04  0.7818609E-02  0.8979873E-01
        2   -1    0    0  501    0  0.00000000000E+00  0.00000000000E+00  0.84059239600E+03  0.84059239600E+03  0.25500000920E-02 0. -1.
       -2   -1    0    0    0  501  0.00000000000E+00  0.00000000000E+00 -0.55378978959E+03  0.55378978959E+03  0.25500000920E-02 0.  1.
    10030    2    1    2    0    0  0.00000000000E+00  0.00000000000E+00  0.28680260641E+03  0.13943821856E+04  0.13645680432E+04 0.  0.
        3    1    3    3  502    0  0.45540954846E+03 -0.79936125122E+02 -0.36928155769E+03  0.59174024705E+03  0.10100000352E+00 0.  1.
       -3    1    3    3    0  502 -0.45540954846E+03  0.79936125122E+02  0.65608416410E+03  0.80264193854E+03  0.10100000352E+00 0. -1.
</event>
<event>
 5   0  0.1706986E-03  0.1407842E+04  0.7818609E-02  0.8948161E-01
        2   -1    0    0  501    0  0.00000000000E+00  0.00000000000E+00  0.63790154792E+03  0.63790154793E+03  0.25500000920E-02 0.  1.
       -2   -1    0    0    0  501  0.00000000000E+00  0.00000000000E+00 -0.77677366332E+03  0.77677366333E+03  0.25500000920E-02 0. -1.
    10030    2    1    2    0    0  0.00000000000E+00  0.00000000000E+00 -0.13887211540E+03  0.14146752113E+04  0.14078424944E+04 0.  0.
        3    1    3    3  502    0  0.22222979429E+03 -0.15165435195E+03  0.58419765628E+03  0.64317341032E+03  0.10100000352E+00 0.  1.
       -3    1    3    3    0  502 -0.22222979429E+03  0.15165435195E+03 -0.72306977168E+03  0.77150180094E+03  0.10100000352E+00 0. -1.
</event>
<event>
 5   0  0.9007180E-04  0.1377684E+04  0.7818609E-02  0.8970132E-01
        1   -1    0    0  501    0  0.00000000000E+00  0.00000000000E+00  0.14168713121E+04  0.14168713121E+04  0.50400001928E-02 0. -1.
       -1   -1    0    0    0  501  0.00000000000E+00  0.00000000000E+00 -0.33489503376E+03  0.33489503380E+03  0.50400001928E-02 0.  1.
    10030    2    1    2    0    0  0.00000000000E+00  0.00000000000E+00  0.10819762783E+04  0.17517663459E+04  0.13776838040E+04 0.  0.
        2    1    3    3  502    0 -0.58803915351E+02 -0.66320333574E+03  0.76560888205E+03  0.10146198920E+04  0.25500000920E-02 0. -1.
       -2    1    3    3    0  502  0.58803915351E+02  0.66320333574E+03  0.31636739624E+03  0.73714645384E+03  0.25500000920E-02 0.  1.
</event>
<event>
 5   0  0.8609148E-04  0.1292724E+04  0.7818609E-02  0.9035355E-01
       -1   -1    0    0    0  501  0.00000000000E+00  0.00000000000E+00  0.13997445371E+04  0.13997445371E+04  0.50400001928E-02 0.  1.
        1   -1    0    0  501    0  0.00000000000E+00  0.00000000000E+00 -0.29847140778E+03  0.29847140783E+03  0.50400001928E-02 0. -1.
    10030    2    1    2    0    0  0.00000000000E+00  0.00000000000E+00  0.11012731293E+04  0.16982159449E+04  0.12927238260E+04 0.  0.
        5    1    3    3  502    0 -0.62303239474E+03  0.55840681559E+02  0.76438239337E+03  0.98771963628E+03  0.46999998093E+01 0.  1.
       -5    1    3    3    0  502  0.62303239474E+03 -0.55840681559E+02  0.33689073590E+03  0.71049630860E+03  0.46999998093E+01 0. -1.
</event>
<event>
 5   0  0.1605214E-03  0.1426457E+04  0.7818609E-02  0.8934887E-01
       -2   -1    0    0    0  501  0.00000000000E+00  0.00000000000E+00  0.77564366057E+03  0.77564366058E+03  0.25500000920E-02 0.  1.
        2   -1    0    0  501    0  0.00000000000E+00  0.00000000000E+00 -0.65583559335E+03  0.65583559336E+03  0.25500000920E-02 0. -1.
    10030    2    1    2    0    0  0.00000000000E+00  0.00000000000E+00  0.11980806722E+03  0.14314792539E+04  0.14264567577E+04 0.  0.
        5    1    3    3  502    0  0.29220620746E+02  0.65051240646E+03  0.35187930563E+03  0.74017658120E+03  0.46999998093E+01 0.  1.
       -5    1    3    3    0  502 -0.29220620746E+02 -0.65051240646E+03 -0.23207123841E+03  0.69130267273E+03  0.46999998093E+01 0. -1.
</event>
<event>
 5   0  0.1648463E-03  0.1413548E+04  0.7818609E-02  0.8944070E-01
        2   -1    0    0  501    0  0.00000000000E+00  0.00000000000E+00  0.62144868392E+03  0.62144868392E+03  0.25500000920E-02 0.  1.
       -2   -1    0    0    0  501  0.00000000000E+00  0.00000000000E+00 -0.80381422195E+03  0.80381422196E+03  0.25500000920E-02 0. -1.
    10030    2    1    2    0    0  0.00000000000E+00  0.00000000000E+00 -0.18236553804E+03  0.14252629059E+04  0.14135477217E+04 0.  0.
        1    1    3    3  502    0  0.55694225036E+03 -0.42630430569E+03 -0.17913678853E+03  0.72388536408E+03  0.50400001928E-02 0.  1.
       -1    1    3    3    0  502 -0.55694225036E+03  0.42630430569E+03 -0.32287495034E+01  0.70137754180E+03  0.50400001928E-02 0. -1.
</event>
<event>
 5   0  0.6048000E-04  0.1394566E+04  0.7818609E-02  0.8957762E-01
       -3   -1    0    0    0  501  0.00000000000E+00  0.00000000000E+00  0.28076065059E+03  0.28076066876E+03  0.10100000352E+00 0.  1.
        3   -1    0    0  501    0  0.00000000000E+00  0.00000000000E+00 -0.17317359925E+04  0.17317359955E+04  0.10100000352E+00 0. -1.
    10030    2    1    2    0    0  0.00000000000E+00  0.00000000000E+00 -0.14509753419E+04  0.20124966642E+04  0.13945656602E+04 0.  0.
        4    1    3    3  502    0 -0.29390614702E+03  0.59116526885E+03 -0.40169101105E+03  0.77279653183E+03  0.12699999809E+01 0. -1.
       -4    1    3    3    0  502  0.29390614702E+03 -0.59116526885E+03 -0.10492843309E+04  0.12397001324E+04  0.12699999809E+01 0.  1.
</event>
<event>
 5   0  0.8502300E-04  0.1397764E+04  0.7818609E-02  0.8955439E-01
        1   -1    0    0  501    0  0.00000000000E+00  0.00000000000E+00  0.70952104965E+03  0.70952104967E+03  0.50400001928E-02 0. -1.
       -1   -1    0    0    0  501  0.00000000000E+00  0.00000000000E+00 -0.68840248813E+03  0.68840248814E+03  0.50400001928E-02 0.  1.
    10030    2    1    2    0    0  0.00000000000E+00  0.00000000000E+00  0.21118561524E+02  0.13979235378E+04  0.13977640087E+04 0.  0.
        4    1    3    3  502    0 -0.65812244438E+03 -0.16340215727E+03 -0.15860205361E+03  0.69640623282E+03  0.12699999809E+01 0. -1.
       -4    1    3    3    0  502  0.65812244438E+03  0.16340215727E+03  0.17972061513E+03  0.70151730499E+03  0.12699999809E+01 0.  1.
</event>
<event>
 5   0  0.1648213E-03  0.1353029E+04  0.7818609E-02  0.8988538E-01
       -2   -1    0    0    0  501  0.00000000000E+00  0.00000000000E+00  0.63542241499E+03  0.63542241500E+03  0.25500000920E-02 0. -1.
        2   -1    0    0  501    0  0.00000000000E+00  0.00000000000E+00 -0.72026380917E+03  0.72026380918E+03  0.25500000920E-02 0.  1.
    10030    2    1    2    0    0  0.00000000000E+00  0.00000000000E+00 -0.84841394184E+02  0.13556862242E+04  0.13530288527E+04 0.  0.
        4    1    3    3  502    0  0.15219611762E+03 -0.45035457899E+03 -0.52470507395E+03  0.70802537565E+03  0.12699999809E+01 0.  1.
       -4    1    3    3    0  502 -0.15219611762E+03  0.45035457899E+03  0.43986367977E+03  0.64766084852E+03  0.12699999809E+01 0. -1.
</event>
<event>
 5   0  0.1706986E-03  0.1389680E+04  0.7818609E-02  0.8961323E-01
        2   -1    0    0  501    0  0.00000000000E+00  0.00000000000E+00  0.49138395737E+03  0.49138395738E+03  0.25500000920E-02 0.  1.
       -2   -1    0    0    0  501  0.00000000000E+00  0.00000000000E+00 -0.98253602447E+03  0.98253602448E+03  0.25500000920E-02 0. -1.
    10030    2    1    2    0    0  0.00000000000E+00  0.00000000000E+00 -0.49115206710E+03  0.14739199819E+04  0.13896797328E+04 0.  0.
        3    1    3    3  502    0  0.63777874918E+03 -0.53936538565E+02 -0.53239744066E+03  0.83253704309E+03  0.10100000352E+00 0. -1.
       -3    1    3    3    0  502 -0.63777874918E+03  0.53936538565E+02  0.41245373558E+02  0.64138293876E+03  0.10100000352E+00 0.  1.
</event>
<event>
 5   0  0.1605214E-03  0.1385200E+04  0.7818609E-02  0.8964602E-01
        2   -1    0    0  501    0  0.00000000000E+00  0.00000000000E+00  0.11919539999E+04  0.11919539999E+04  0.25500000920E-02 0. -1.
       -2   -1    0    0    0  501  0.00000000000E+00  0.00000000000E+00 -0.40244404867E+03  0.40244404867E+03  0.25500000920E-02 0.  1.
    10030    2    1    2    0    0  0.00000000000E+00  0.00000000000E+00  0.78950995126E+03  0.15943980486E+04  0.13852000485E+04 0.  0.
        5    1    3    3  502    0 -0.29700269750E+02 -0.42073716718E+03 -0.23754459577E+03  0.48409853836E+03  0.46999998093E+01 0.  1.
       -5    1    3    3    0  502  0.29700269750E+02  0.42073716718E+03  0.10270545470E+04  0.11102995102E+04  0.46999998093E+01 0. -1.
</event>
<event>
 5   0  0.1605214E-03  0.1398125E+04  0.7818609E-02  0.8955177E-01
       -2   -1    0    0    0  501  0.00000000000E+00  0.00000000000E+00  0.35698744864E+03  0.35698744865E+03  0.25500000920E-02 0. -1.
        2   -1    0    0  501    0  0.00000000000E+00  0.00000000000E+00 -0.13689222751E+04  0.13689222751E+04  0.25500000920E-02 0.  1.
    10030    2    1    2    0    0  0.00000000000E+00  0.00000000000E+00 -0.10119348264E+04  0.17259097237E+04  0.13981245587E+04 0.  0.
        5    1    3    3  502    0 -0.67744028907E+03  0.15449254755E+03 -0.41136751465E+03  0.80748908018E+03  0.46999998093E+01 0.  1.
       -5    1    3    3    0  502  0.67744028907E+03 -0.15449254755E+03 -0.60056731179E+03  0.91842064355E+03  0.46999998093E+01 0. -1.
</event>
<event>
 5   0  0.1605214E-03  0.1385887E+04  0.7818609E-02  0.8964098E-01
        2   -1    0    0  501    0  0.00000000000E+00  0.00000000000E+00  0.20951770781E+04  0.20951770781E+04  0.25500000920E-02 0. -1.
       -2   -1    0    0    0  501  0.00000000000E+00  0.00000000000E+00 -0.22917899068E+03  0.22917899069E+03  0.25500000920E-02 0.  1.
    10030    2    1    2    0    0  0.00000000000E+00  0.00000000000E+00  0.18659980874E+04  0.23243560688E+04  0.13858868180E+04 0.  0.
        5    1    3    3  502    0 -0.12361217959E+03  0.15612132446E+02 -0.21021111080E+03  0.24440644575E+03  0.46999998093E+01 0.  1.
       -5    1    3    3    0  502  0.12361217959E+03 -0.15612132446E+02  0.20762091982E+04  0.20799496230E+04  0.46999998093E+01 0. -1.
</event>
<event>
 5   0  0.8609148E-04  0.1400172E+04  0.7818609E-02  0.8953694E-01
        1   -1    0    0  501    0  0.00000000000E+00  0.00000000000E+00  0.16853188910E+04  0.16853188910E+04  0.50400001928E-02 0. -1.
       -1   -1    0    0    0  501  0.00000000000E+00  0.00000000000E+00 -0.29081781050E+03  0.29081781055E+03  0.50400001928E-02 0.  1.
    10030    2    1    2    0    0  0.00000000000E+00  0.00000000000E+00  0.13945010805E+04  0.19761367016E+04  0.14001724893E+04 0.  0.
        5    1    3    3  502    0  0.10372737974E+03 -0.18088215417E+03 -0.24595204601E+03  0.32247825034E+03  0.46999998093E+01 0.  1.
       -5    1    3    3    0  502 -0.10372737974E+03  0.18088215417E+03  0.16404531265E+04  0.16536584512E+04  0.46999998093E+01 0. -1.
</event>
<event>
 5   0  0.1648463E-03  0.1412771E+04  0.7818609E-02  0.8944626E-01
        2   -1    0    0  501    0  0.00000000000E+00  0.00000000000E+00  0.48234703338E+03  0.48234703339E+03  0.25500000920E-02 0.  1.
       -2   -1    0    0    0  501  0.00000000000E+00  0.00000000000E+00 -0.10344845983E+04  0.10344845983E+04  0.25500000920E-02 0. -1.
    10030    2    1    2    0    0  0.00000000000E+00  0.00000000000E+00 -0.55213756490E+03  0.15168316317E+04  0.14127711450E+04 0.  0.
        1    1    3    3  502    0 -0.25872097162E+03  0.25685753997E+02  0.42910753258E+03  0.50172659254E+03  0.50400001928E-02 0.  1.
       -1    1    3    3    0  502  0.25872097162E+03 -0.25685753997E+02 -0.98124509748E+03  0.10151050391E+04  0.50400001928E-02 0. -1.
</event>
<event>
 5   0  0.9007180E-04  0.1317567E+04  0.7818609E-02  0.9015749E-01
       -1   -1    0    0    0  501  0.00000000000E+00  0.00000000000E+00  0.47688120023E+03  0.47688120026E+03  0.50400001928E-02 0.  1.
        1   -1    0    0  501    0  0.00000000000E+00  0.00000000000E+00 -0.91007100113E+03  0.91007100115E+03  0.50400001928E-02 0. -1.
    10030    2    1    2    0    0  0.00000000000E+00  0.00000000000E+00 -0.43318980090E+03  0.13869522014E+04  0.13175670781E+04 0.  0.
        2    1    3    3  502    0 -0.10253198893E+03 -0.21671893811E+03 -0.86251736327E+03  0.89521846989E+03  0.25500000920E-02 0. -1.
       -2    1    3    3    0  502  0.10253198893E+03  0.21671893811E+03  0.42932756237E+03  0.49173373151E+03  0.25500000920E-02 0.  1.
</event>
<event>
 5   0  0.8502300E-04  0.1391647E+04  0.7818609E-02  0.8959887E-01
       -1   -1    0    0    0  501  0.00000000000E+00  0.00000000000E+00  0.54212260843E+03  0.54212260845E+03  0.50400001928E-02 0. -1.
        1   -1    0    0  501    0  0.00000000000E+00  0.00000000000E+00 -0.89310171737E+03  0.89310171738E+03  0.50400001928E-02 0.  1.
    10030    2    1    2    0    0  0.00000000000E+00  0.00000000000E+00 -0.35097910894E+03  0.14352243258E+04  0.13916474160E+04 0.  0.
        4    1    3    3  502    0  0.61906932488E+03 -0.29753253173E+03 -0.60663201690E+02  0.68953177837E+03  0.12699999809E+01 0. -1.
       -4    1    3    3    0  502 -0.61906932488E+03  0.29753253173E+03 -0.29031590725E+03  0.74569254746E+03  0.12699999809E+01 0.  1.
</event>
<event>
 5   0  0.8673728E-04  0.1394056E+04  0.7818609E-02  0.8958133E-01
       -1   -1    0    0    0  501  0.00000000000E+00  0.00000000000E+00  0.28976042216E+03  0.28976042221E+03  0.50400001928E-02 0. -1.
        1   -1    0    0  501    0  0.00000000000E+00  0.00000000000E+00 -0.16767225939E+04  0.16767225939E+04  0.50400001928E-02 0.  1.
    10030    2    1    2    0    0  0.00000000000E+00  0.00000000000E+00 -0.13869621717E+04  0.19664830161E+04  0.13940557331E+04 0.  0.
        3    1    3    3  502    0  0.60191997768E+03  0.23892496066E+03 -0.32983909609E+03  0.72676449822E+03  0.10100000352E+00 0.  1.
       -3    1    3    3    0  502 -0.60191997768E+03 -0.23892496066E+03 -0.10571230757E+04  0.12397185179E+04  0.10100000352E+00 0. -1.
</event>
<event>
 5   0  0.1648463E-03  0.1344767E+04  0.7818609E-02  0.8994799E-01
       -2   -1    0    0    0  501  0.00000000000E+00  0.00000000000E+00  0.26472532116E+03  0.26472532117E+03  0.25500000920E-02 0. -1.
        2   -1    0    0  501    0  0.00000000000E+00  0.00000000000E+00 -0.17078060436E+04  0.17078060436E+04  0.25500000920E-02 0.  1.
    10030    2    1    2    0    0  0.00000000000E+00  0.00000000000E+00 -0.14430807224E+04  0.19725313648E+04  0.13447668993E+04 0.  0.
        1    1    3    3  502    0  0.91683288121E+02  0.64098874999E+03 -0.98730253584E+03  0.11806941603E+04  0.50400001928E-02 0.  1.
       -1    1    3    3    0  502 -0.91683288121E+02 -0.64098874999E+03 -0.45577818660E+03  0.79183720444E+03  0.50400001928E-02 0. -1.
</event>
<event>
 5   0  0.8502300E-04  0.1405676E+04  0.7818609E-02  0.8949720E-01
       -1   -1    0    0    0  501  0.00000000000E+00  0.00000000000E+00  0.33318325871E+03  0.33318325875E+03  0.50400001928E-02 0. -1.
        1   -1    0    0  501    0  0.00000000000E+00  0.00000000000E+00 -0.14826117605E+04  0.14826117605E+04  0.50400001928E-02 0.  1.
    10030    2    1    2    0    0  0.00000000000E+00  0.00000000000E+00 -0.11494285018E+04  0.18157950192E+04  0.14056762327E+04 0.  0.
        4    1    3    3  502    0 -0.35999836241E+03 -0.79425965055E+02 -0.13476920185E+04  0.13972053158E+04  0.12699999809E+01 0.  1.
       -4    1    3    3    0  502  0.35999836241E+03  0.79425965055E+02  0.19826351673E+03  0.41858970344E+03  0.12699999809E+01 0. -1.
</event>
<event>
 5   0  0.8502300E-04  0.1379466E+04  0.7818609E-02  0.8968818E-01
        1   -1    0    0  501    0  0.00000000000E+00  0.00000000000E+00  0.51342590400E+03  0.51342590402E+03  0.50400001928E-02 0. -1.
       -1   -1    0    0    0  501  0.00000000000E+00  0.00000000000E+00 -0.92658242791E+03  0.92658242792E+03  0.50400001928E-02 0.  1.
    10030    2    1    2    0    0  0.00000000000E+00  0.00000000000E+00 -0.41315652391E+03  0.14400083319E+04  0.13794657237E+04 0.  0.
        4    1    3    3  502    0  0.44081195799E+03 -0.43018881869E+03 -0.53060803888E+03  0.81297238936E+03  0.12699999809E+01 0.  1.
       -4    1    3    3    0  502 -0.44081195799E+03  0.43018881869E+03  0.11745151497E+03  0.62703594259E+03  0.12699999809E+01 0. -1.
</event>
<event>
 5   0  0.8609148E-04  0.1406354E+04  0.7818609E-02  0.8949232E-01
       -1   -1    0    0    0  501  0.00000000000E+00  0.00000000000E+00  0.50145936007E+03  0.50145936009E+03  0.50400001928E-02 0.  1.
        1   -1    0    0  501    0  0.00000000000E+00  0.00000000000E+00 -0.98603800611E+03  0.98603800612E+03  0.50400001928E-02 0. -1.
    10030    2    1    2    0    0  0.00000000000E+00  0.00000000000E+00 -0.48457864604E+03  0.14874973662E+04  0.14063541340E+04 0.  0.
        5    1    3    3  502    0 -0.69851593947E+03 -0.32121329156E+02 -0.16399397779E+03  0.71824258593E+03  0.46999998093E+01 0.  1.
       -5    1    3    3    0  502  0.69851593947E+03  0.32121329156E+02 -0.32058466825E+03  0.76925478029E+03  0.46999998093E+01 0. -1.
</event>
<event>
 5   0  0.1578965E-03  0.1099940E+04  0.7818609E-02  0.9205250E-01
       -2   -1    0    0    0  501  0.00000000000E+00  0.00000000000E+00  0.42099443329E+03  0.42099443330E+03  0.25500000920E-02 0.  1.
        2   -1    0    0  501    0  0.00000000000E+00  0.00000000000E+00 -0.71845886735E+03  0.71845886736E+03  0.25500000920E-02 0. -1.
    10030    2    1    2    0    0  0.00000000000E+00  0.00000000000E+00 -0.29746443406E+03  0.11394533007E+04  0.10999403324E+04 0.  0.
        2    1    3    3  502    0  0.36938056031E+03  0.29178834965E+03  0.14588675677E+03  0.49281374284E+03  0.25500000920E-02 0. -1.
       -2    1    3    3    0  502 -0.36938056031E+03 -0.29178834965E+03 -0.44335119083E+03  0.64663955782E+03  0.25500000920E-02 0.  1.
</event>
<event>
 5   0  0.1648213E-03  0.1382700E+04  0.7818609E-02  0.8966437E-01
       -2   -1    0    0    0  501  0.00000000000E+00  0.00000000000E+00  0.75904350116E+03  0.75904350116E+03  0.25500000920E-02 0.  1.
        2   -1    0    0  501    0  0.00000000000E+00  0.00000000000E+00 -0.62969332587E+03  0.62969332587E+03  0.25500000920E-02 0. -1.
    10030    2    1    2    0    0  0.00000000000E+00  0.00000000000E+00  0.12935017529E+03  0.13887368270E+04  0.13826997168E+04 0.  0.
        4    1    3    3  502    0  0.42213650401E+03 -0.40613363656E+03 -0.30410548987E+03  0.66001933354E+03  0.12699999809E+01 0. -1.
       -4    1    3    3    0  502 -0.42213650401E+03  0.40613363656E+03  0.43345566516E+03  0.72871749350E+03  0.12699999809E+01 0.  1.
</event>
<event>
 5   0  0.1605214E-03  0.1321627E+04  0.7818609E-02  0.9012588E-01
       -2   -1    0    0    0  501  0.00000000000E+00  0.00000000000E+00  0.51543792247E+03  0.51543792247E+03  0.25500000920E-02 0. -1.
        2   -1    0    0  501    0  0.00000000000E+00  0.00000000000E+00 -0.84719121577E+03  0.84719121578E+03  0.25500000920E-02 0.  1.
    10030    2    1    2    0    0  0.00000000000E+00  0.00000000000E+00 -0.33175329331E+03  0.13626291382E+04  0.13216269976E+04 0.  0.
        5    1    3    3  502    0  0.51721324839E+03 -0.41125683586E+03 -0.16251025601E+03  0.68049496887E+03  0.46999998093E+01 0.  1.
       -5    1    3    3    0  502 -0.51721324839E+03  0.41125683586E+03 -0.16924303730E+03  0.68213416937E+03  0.46999998093E+01 0. -1.
</event>
<event>
 5   0  0.1706986E-03  0.1411984E+04  0.7818609E-02  0.8945190E-01
       -2   -1    0    0    0  501  0.00000000000E+00  0.00000000000E+00  0.18364535787E+03  0.18364535788E+03  0.25500000920E-02 0.  1.
        2   -1    0    0  501    0  0.00000000000E+00  0.00000000000E+00 -0.27140600352E+04  0.27140600353E+04  0.25500000920E-02 0. -1.
    10030    2    1    2    0    0  0.00000000000E+00  0.00000000000E+00 -0.25304146774E+04  0.28977053931E+04  0.14119837484E+04 0.  0.
        3    1    3    3  502    0 -0.19703457980E+03 -0.67744776511E+03 -0.12122291266E+04  0.14025895927E+04  0.10100000352E+00 0.  1.
       -3    1    3    3    0  502  0.19703457980E+03  0.67744776511E+03 -0.13181855508E+04  0.14951158004E+04  0.10100000352E+00 0. -1.
</event>
<event>
 5   0  0.1605214E-03  0.1396837E+04  0.7818609E-02  0.8956111E-01
       -2   -1    0    0    0  501  0.00000000000E+00  0.00000000000E+00  0.46800589411E+03  0.46800589411E+03  0.25500000920E-02 0. -1.
        2   -1    0    0  501    0  0.00000000000E+00  0.00000000000E+00 -0.10422695120E+04  0.10422695120E+04  0.25500000920E-02 0.  1.
    10030    2    1    2    0    0  0.00000000000E+00  0.00000000000E+00 -0.57426361788E+03  0.15102754061E+04  0.13968368192E+04 0.  0.
        5    1    3    3  502    0 -0.67197515251E+03  0.12201465672E+03 -0.12923055790E+03  0.69509769755E+03  0.46999998093E+01 0.  1.
       -5    1    3    3    0  502  0.67197515251E+03 -0.12201465672E+03 -0.44503305998E+03  0.81517770855E+03  0.46999998093E+01 0. -1.
</event>
<event>
 5   0  0.1578965E-03  0.1430006E+04  0.7818609E-02  0.8932381E-01
       -2   -1    0    0    0  501  0.00000000000E+00  0.00000000000E+00  0.31919987108E+03  0.31919987109E+03  0.25500000920E-02 0.  1.
        2   -1    0    0  501    0  0.00000000000E+00  0.00000000000E+00 -0.16015952577E+04  0.16015952577E+04  0.25500000920E-02 0. -1.
    10030    2    1    2    0    0  0.00000000000E+00  0.00000000000E+00 -0.12823953866E+04  0.19207951288E+04  0.14300055941E+04 0.  0.
        2    1    3    3  502    0  0.30146684212E+03 -0.64088958084E+03 -0.50954076592E+03  0.87249842628E+03  0.25500000920E-02 0.  1.
       -2    1    3    3    0  502 -0.30146684212E+03  0.64088958084E+03 -0.77285462067E+03  0.10482967025E+04  0.25500000920E-02 0. -1.
</event>
<event>
 5   0  0.9639548E-04  0.1366871E+04  0.7818609E-02  0.8978154E-01
        1   -1    0    0  501    0  0.00000000000E+00  0.00000000000E+00  0.42085915284E+03  0.42085915287E+03  0.50400001928E-02 0.  1.
       -1   -1    0    0    0  501  0.00000000000E+00  0.00000000000E+00 -0.11098349714E+04  0.11098349714E+04  0.50400001928E-02 0. -1.
    10030    2    1    2    0    0  0.00000000000E+00  0.00000000000E+00 -0.68897581854E+03  0.15306941242E+04  0.13668711803E+04 0.  0.
        1    1    3    3  502    0  0.63154063861E+03 -0.18684782952E+03 -0.14004652253E+03  0.67332660582E+03  0.50400001928E-02 0.  1.
       -1    1    3    3    0  502 -0.63154063861E+03  0.18684782952E+03 -0.54892929600E+03  0.85736751842E+03  0.50400001928E-02 0. -1.
</event>
<event>
 5   0  0.8502300E-04  0.1408578E+04  0.7818609E-02  0.8947633E-01
        1   -1    0    0  501    0  0.00000000000E+00  0.00000000000E+00  0.83764372811E+03  0.83764372813E+03  0.50400001928E-02 0. -1.
       -1   -1    0    0    0  501  0.00000000000E+00  0.00000000000E+00 -0.59216462099E+03  0.59216462101E+03  0.50400001928E-02 0.  1.
    10030    2    1    2    0    0  0.00000000000E+00  0.00000000000E+00  0.24547910712E+03  0.14298083491E+04  0.14085779791E+04 0.  0.
        4    1    3    3  502    0 -0.11804554981E+03  0.46865462904E+03 -0.39728011669E+03  0.62562370253E+03  0.12699999809E+01 0.  1.
       -4    1    3    3    0  502  0.11804554981E+03 -0.46865462904E+03  0.64275922381E+03  0.80418464661E+03  0.12699999809E+01 0. -1.
</event>
<event>
 5   0  0.1648213E-03  0.1379804E+04  0.7818609E-02  0.8968568E-01
        2   -1    0    0  501    0  0.00000000000E+00  0.00000000000E+00  0.16848890601E+04  0.16848890601E+04  0.25500000920E-02 0.  1.
       -2   -1    0    0    0  501  0.00000000000E+00  0.00000000000E+00 -0.28249042914E+03  0.28249042915E+03  0.25500000920E-02 0. -1.
    10030    2    1    2    0    0  0.00000000000E+00  0.00000000000E+00  0.14023986310E+04  0.19673794893E+04  0.13798043827E+04 0.  0.
        4    1    3    3  502    0 -0.58816660511E+02  0.15706143560E+03 -0.25297997808E+03  0.30352623662E+03  0.12699999809E+01 0. -1.
       -4    1    3    3    0  502  0.58816660511E+02 -0.15706143560E+03  0.16553786090E+04  0.16638532526E+04  0.12699999809E+01 0.  1.
</event>
<event>
 5   0  0.1648213E-03  0.1403047E+04  0.7818609E-02  0.8951616E-01
       -2   -1    0    0    0  501  0.00000000000E+00  0.00000000000E+00  0.20034782390E+03  0.20034782392E+03  0.25500000920E-02 0. -1.
        2   -1    0    0  501    0  0.00000000000E+00  0.00000000000E+00 -0.24564047213E+04  0.24564047213E+04  0.25500000920E-02 0.  1.
    10030    2    1    2    0    0  0.00000000000E+00  0.00000000000E+00 -0.22560568974E+04  0.26567525452E+04  0.14030471703E+04 0.  0.
        4    1    3    3  502    0  0.21910686214E+03 -0.59548505939E+03 -0.16945901970E+04  0.18094882762E+04  0.12699999809E+01 0.  1.
       -4    1    3    3    0  502 -0.21910686214E+03  0.59548505939E+03 -0.56146670036E+03  0.84726426900E+03  0.12699999809E+01 0. -1.
</event>
<event>
 5   0  0.9007180E-04  0.1389298E+04  0.7818609E-02  0.8961602E-01
        1   -1    0    0  501    0  0.00000000000E+00  0.00000000000E+00  0.15649651643E+04  0.15649651643E+04  0.50400001928E-02 0.  1.
       -1   -1    0    0    0  501  0.00000000000E+00  0.00000000000E+00 -0.30833714925E+03  0.30833714929E+03  0.50400001928E-02 0. -1.
    10030    2    1    2    0    0  0.00000000000E+00  0.00000000000E+00  0.12566280151E+04  0.18733023136E+04  0.13892975167E+04 0.  0.
        2    1    3    3  502    0  0.53914552338E+03 -0.41860411346E+03  0.80219555209E+03  0.10532924584E+04  0.25500000920E-02 0.  1.
       -2    1    3    3    0  502 -0.53914552338E+03  0.41860411346E+03  0.45443246299E+03  0.82000985519E+03  0.25500000920E-02 0. -1.
</event>
<event>
 5   0  0.9007180E-04  0.1410641E+04  0.7818609E-02  0.8946152E-01
       -1   -1    0    0    0  501  0.00000000000E+00  0.00000000000E+00  0.12824572939E+04  0.12824572939E+04  0.50400001928E-02 0. -1.
        1   -1    0    0  501    0  0.00000000000E+00  0.00000000000E+00 -0.38790918595E+03  0.38790918598E+03  0.50400001928E-02 0.  1.
    10030    2    1    2    0    0  0.00000000000E+00  0.00000000000E+00  0.89454810794E+03  0.16703664799E+04  0.14106409393E+04 0.  0.
        2    1    3    3  502    0  0.32581634522E+02  0.16093209245E+03 -0.36496263408E+03  0.40019798296E+03  0.25500000920E-02 0.  1.
       -2    1    3    3    0  502 -0.32581634522E+02 -0.16093209245E+03  0.12595107420E+04  0.12701684969E+04  0.25500000920E-02 0. -1.
</event>
<event>
 5   0  0.1578965E-03  0.1392423E+04  0.7818609E-02  0.8959322E-01
       -2   -1    0    0    0  501  0.00000000000E+00  0.00000000000E+00  0.43115639898E+03  0.43115639899E+03  0.25500000920E-02 0.  1.
        2   -1    0    0  501    0  0.00000000000E+00  0.00000000000E+00 -0.11242095450E+04  0.11242095450E+04  0.25500000920E-02 0. -1.
    10030    2    1    2    0    0  0.00000000000E+00  0.00000000000E+00 -0.69305314603E+03  0.15553659440E+04  0.13924225496E+04 0.  0.
        2    1    3    3  502    0 -0.48030711255E+03  0.17247609654E+03 -0.87551288033E+03  0.10133931763E+04  0.25500000920E-02 0. -1.
       -2    1    3    3    0  502  0.48030711255E+03 -0.17247609654E+03  0.18245973430E+03  0.54197276766E+03  0.25500000920E-02 0.  1.
</event>
<event>
 5   0  0.1706986E-03  0.1406997E+04  0.7818609E-02  0.8948769E-01
       -2   -1    0    0    0  501  0.00000000000E+00  0.00000000000E+00  0.29457583866E+03  0.29457583867E+03  0.25500000920E-02 0.  1.
        2   -1    0    0  501    0  0.00000000000E+00  0.00000000000E+00 -0.16800779672E+04  0.16800779672E+04  0.25500000920E-02 0. -1.
    10030    2    1    2    0    0  0.00000000000E+00  0.00000000000E+00 -0.13855021285E+04  0.19746538058E+04  0.14069973365E+04 0.  0.
        3    1    3    3  502    0  0.24280209643E+03 -0.99789497282E+02  0.22326326777E+03  0.34461180876E+03  0.10100000352E+00 0.  1.
       -3    1    3    3    0  502 -0.24280209643E+03  0.99789497282E+02 -0.16087653963E+04  0.16300419971E+04  0.10100000352E+00 0. -1.
</event>
<event>
 5   0  0.1578965E-03  0.1407281E+04  0.7818609E-02  0.8948565E-01
       -2   -1    0    0    0  501  0.00000000000E+00  0.00000000000E+00  0.11332020996E+04  0.11332020996E+04  0.25500000920E-02 0.  1.
        2   -1    0    0  501    0  0.00000000000E+00  0.00000000000E+00 -0.43691227981E+03  0.43691227981E+03  0.25500000920E-02 0. -1.
    10030    2    1    2    0    0  0.00000000000E+00  0.00000000000E+00  0.69628981980E+03  0.15701143794E+04  0.14072809426E+04 0.  0.
        2    1    3    3  502    0  0.16004033887E+03  0.67582477103E+03  0.47416499499E+03  0.84094261022E+03  0.25500000920E-02 0.  1.
       -2    1    3    3    0  502 -0.16004033887E+03 -0.67582477103E+03  0.22212482482E+03  0.72917176921E+03  0.25500000920E-02 0. -1.
</event>
<event>
 5   0  0.1648463E-03  0.1389381E+04  0.7818609E-02  0.8961541E-01
        2   -1    0    0  501    0  0.00000000000E+00  0.00000000000E+00  0.46129655305E+03  0.46129655306E+03  0.25500000920E-02 0.  1.
       -2   -1    0    0    0  501  0.00000000000E+00  0.00000000000E+00 -0.10461710835E+04  0.10461710835E+04  0.25500000920E-02 0. -1.
    10030    2    1    2    0    0  0.00000000000E+00  0.00000000000E+00 -0.58487453049E+03  0.15074676366E+04  0.13893813224E+04 0.  0.
        1    1    3    3  502    0 -0.33108617904E+03 -0.36165619734E+03 -0.82638326671E+03  0.96089675124E+03  0.50400001928E-02 0. -1.
       -1    1    3    3    0  502  0.33108617904E+03  0.36165619734E+03  0.24150873622E+03  0.54657088536E+03  0.50400001928E-02 0.  1.
</event>
<event>
 5   0  0.8609148E-04  0.1378624E+04  0.7818609E-02  0.8969438E-01
        1   -1    0    0  501    0  0.00000000000E+00  0.00000000000E+00  0.76592027577E+03  0.76592027578E+03  0.50400001928E-02 0.  1.
       -1   -1    0    0    0  501  0.00000000000E+00  0.00000000000E+00 -0.62036652856E+03  0.62036652858E+03  0.50400001928E-02 0. -1.
    10030    2    1    2    0    0  0.00000000000E+00  0.00000000000E+00  0.14555374721E+03  0.13862868044E+04  0.13786243907E+04 0.  0.
        5    1    3    3  502    0  0.64468615006E+03  0.16329213763E+03 -0.10946136369E+03  0.67400922429E+03  0.46999998093E+01 0. -1.
       -5    1    3    3    0  502 -0.64468615006E+03 -0.16329213763E+03  0.25501511090E+03  0.71227758007E+03  0.46999998093E+01 0.  1.
</event>
<event>
 5   0  0.1605214E-03  0.1401377E+04  0.7818609E-02  0.8952822E-01
        2   -1    0    0  501    0  0.00000000000E+00  0.00000000000E+00  0.92100517470E+03  0.92100517471E+03  0.25500000920E-02 0. -1.
       -2   -1    0    0    0  501  0.00000000000E+00  0.00000000000E+00 -0.53307467375E+03  0.53307467376E+03  0.25500000920E-02 0.  1.
    10030    2    1    2    0    0  0.00000000000E+00  0.00000000000E+00  0.38793050095E+03  0.14540798485E+04  0.14013772269E+04 0.  0.
        5    1    3    3  502    0  0.41400417090E+03  0.11571577258E+03 -0.38015432233E+03  0.57387193024E+03  0.46999998093E+01 0.  1.
       -5    1    3    3    0  502 -0.41400417090E+03 -0.11571577258E+03  0.76808482328E+03  0.88020791822E+03  0.46999998093E+01 0. -1.
</event>
<event>
 5   0  0.1648213E-03  0.1403178E+04  0.7818609E-02  0.8951521E-01
        2   -1    0    0  501    0  0.00000000000E+00  0.00000000000E+00  0.22238486304E+04  0.22238486304E+04  0.25500000920E-02 0.  1.
       -2   -1    0    0    0  501  0.00000000000E+00  0.00000000000E+00 -0.22134026662E+03  0.22134026663E+03  0.25500000920E-02 0. -1.
    10030    2    1    2    0    0  0.00000000000E+00  0.00000000000E+00  0.20025083638E+04  0.24451888971E+04  0.14031781766E+04 0.  0.
        4    1    3    3  502    0 -0.39532271867E+03  0.39068998137E+03  0.25516794845E+03  0.61158074549E+03  0.12699999809E+01 0. -1.
       -4    1    3    3    0  502  0.39532271867E+03 -0.39068998137E+03  0.17473404154E+04  0.18336081516E+04  0.12699999809E+01 0.  1.
</event>
<event>
 5   0  0.1578965E-03  0.1300432E+04  0.7818609E-02  0.9029223E-01
        2   -1    0    0  501    0  0.00000000000E+00  0.00000000000E+00  0.77465458200E+03  0.77465458201E+03  0.25500000920E-02 0. -1.
       -2   -1    0    0    0  501  0.00000000000E+00  0.00000000000E+00 -0.54576655429E+03  0.54576655430E+03  0.25500000920E-02 0.  1.
    10030    2    1    2    0    0  0.00000000000E+00  0.00000000000E+00  0.22888802771E+03  0.13204211363E+04  0.13004315622E+04 0.  0.
        2    1    3    3  502    0  0.53961157710E+03  0.34581403062E+03  0.22573060118E+03  0.67950151010E+03  0.25500000920E-02 0. -1.
       -2    1    3    3    0  502 -0.53961157710E+03 -0.34581403062E+03  0.31574265310E+01  0.64091962621E+03  0.25500000920E-02 0.  1.
</event>
<event>
 5   0  0.8609148E-04  0.1376986E+04  0.7818609E-02  0.8970648E-01
        1   -1    0    0  501    0  0.00000000000E+00  0.00000000000E+00  0.61525401467E+03  0.61525401469E+03  0.50400001928E-02 0.  1.
       -1   -1    0    0    0  501  0.00000000000E+00  0.00000000000E+00 -0.77045026933E+03  0.77045026934E+03  0.50400001928E-02 0. -1.
    10030    2    1    2    0    0  0.00000000000E+00  0.00000000000E+00 -0.15519625466E+03  0.13857042840E+04  0.13769860149E+04 0.  0.
        5    1    3    3  502    0 -0.52263162106E+03  0.37208892354E+03 -0.32899283324E+03  0.72100787282E+03  0.46999998093E+01 0. -1.
       -5    1    3    3    0  502  0.52263162106E+03 -0.37208892354E+03  0.17379657859E+03  0.66469641121E+03  0.46999998093E+01 0.  1.
</event>
<event>
 5   0  0.8609148E-04  0.1365142E+04  0.7818609E-02  0.8979444E-01
       -1   -1    0    0    0  501  0.00000000000E+00  0.00000000000E+00  0.29863915406E+03  0.29863915410E+03  0.50400001928E-02 0. -1.
        1   -1    0    0  501    0  0.00000000000E+00  0.00000000000E+00 -0.15600875642E+04  0.15600875643E+04  0.50400001928E-02 0.  1.
    10030    2    1    2    0    0  0.00000000000E+00  0.00000000000E+00 -0.12614484102E+04  0.18587267184E+04  0.13651420886E+04 0.  0.
        5    1    3    3  502    0  0.32444021124E+03 -0.77774945367E+01  0.18684773232E+03  0.37450781722E+03  0.46999998093E+01 0. -1.
       -5    1    3    3    0  502 -0.32444021124E+03  0.77774945367E+01 -0.14482961425E+04  0.14842189011E+04  0.46999998093E+01 0.  1.
</event>
<event>
 5   0  0.1648463E-03  0.1356044E+04  0.7818609E-02  0.8986265E-01
        2   -1    0    0  501    0  0.00000000000E+00  0.00000000000E+00  0.24209973513E+04  0.24209973513E+04  0.25500000920E-02 0. -1.
       -2   -1    0    0    0  501  0.00000000000E+00  0.00000000000E+00 -0.18988626566E+03  0.18988626568E+03  0.25500000920E-02 0.  1.
    10030    2    1    2    0    0  0.00000000000E+00  0.00000000000E+00  0.22311110857E+04  0.26108836170E+04  0.13560444627E+04 0.  0.
        1    1    3    3  502    0  0.41088912636E+03 -0.40341610390E+03  0.42633935807E+03  0.71647726783E+03  0.50400001928E-02 0.  1.
       -1    1    3    3    0  502 -0.41088912636E+03  0.40341610390E+03  0.18047717276E+04  0.18944063492E+04  0.50400001928E-02 0. -1.
</event>
<event>
 5   0  0.1605214E-03  0.1554770E+04  0.7818609E-02  0.8848827E-01
       -2   -1    0    0    0  501  0.00000000000E+00  0.00000000000E+00  0.40992575759E+03  0.40992575760E+03  0.25500000920E-02 0. -1.
        2   -1    0    0  501    0  0.00000000000E+00  0.00000000000E+00 -0.14742356598E+04  0.14742356598E+04  0.25500000920E-02 0.  1.
    10030    2    1    2    0    0  0.00000000000E+00  0.00000000000E+00 -0.10643099022E+04  0.18841614174E+04  0.15547696546E+04 0.  0.
        5    1    3    3  502    0 -0.26475174248E+03  0.19182628209E+03  0.32254006552E+03  0.45928748242E+03  0.46999998093E+01 0. -1.
       -5    1    3    3    0  502  0.26475174248E+03 -0.19182628209E+03 -0.13868499677E+04  0.14248739350E+04  0.46999998093E+01 0.  1.
</event>
<event>
 5   0  0.1605214E-03  0.1400433E+04  0.7818609E-02  0.8953506E-01
       -2   -1    0    0    0  501  0.00000000000E+00  0.00000000000E+00  0.23623045345E+03  0.23623045347E+03  0.25500000920E-02 0.  1.
        2   -1    0    0  501    0  0.00000000000E+00  0.00000000000E+00 -0.20755275615E+04  0.20755275615E+04  0.25500000920E-02 0. -1.
    10030    2    1    2    0    0  0.00000000000E+00  0.00000000000E+00 -0.18392971080E+04  0.23117580150E+04  0.14004325289E+04 0.  0.
        5    1    3    3  502    0 -0.24835958419E+03 -0.59258840457E+03 -0.13790105664E+04  0.15213598301E+04  0.46999998093E+01 0. -1.
       -5    1    3    3    0  502  0.24835958419E+03  0.59258840457E+03 -0.46028654165E+03  0.79039818491E+03  0.46999998093E+01 0.  1.
</event>
<event>
 5   0  0.8502300E-04  0.1405261E+04  0.7818609E-02  0.8950019E-01
        1   -1    0    0  501    0  0.00000000000E+00  0.00000000000E+00  0.51807539575E+03  0.51807539577E+03  0.50400001928E-02 0.  1.
       -1   -1    0    0    0  501  0.00000000000E+00  0.00000000000E+00 -0.95293061891E+03  0.95293061892E+03  0.50400001928E-02 0. -1.
    10030    2    1    2    0    0  0.00000000000E+00  0.00000000000E+00 -0.43485522316E+03  0.14710060147E+04  0.14052614099E+04 0.  0.
        4    1    3    3  502    0 -0.69696932929E+03  0.21507425433E+02 -0.12701862832E+03  0.70877652343E+03  0.12699999809E+01 0.  1.
       -4    1    3    3    0  502  0.69696932929E+03 -0.21507425433E+02 -0.30783659484E+03  0.76222949126E+03  0.12699999809E+01 0. -1.
</event>
<event>
 5   0  0.8502300E-04  0.1435535E+04  0.7818609E-02  0.8928490E-01
        1   -1    0    0  501    0  0.00000000000E+00  0.00000000000E+00  0.53329815013E+03  0.53329815015E+03  0.50400001928E-02 0. -1.
       -1   -1    0    0    0  501  0.00000000000E+00  0.00000000000E+00 -0.96604566930E+03  0.96604566931E+03  0.50400001928E-02 0.  1.
    10030    2    1    2    0    0  0.00000000000E+00  0.00000000000E+00 -0.43274751917E+03  0.14993438195E+04  0.14355352568E+04 0.  0.
        4    1    3    3  502    0 -0.62311279376E+02 -0.70935991059E+03 -0.12228877481E+03  0.72251666807E+03  0.12699999809E+01 0. -1.
       -4    1    3    3    0  502  0.62311279376E+02  0.70935991059E+03 -0.31045874436E+03  0.77682715139E+03  0.12699999809E+01 0.  1.
</event>
<event>
 5   0  0.9007180E-04  0.1395439E+04  0.7818609E-02  0.8957127E-01
        1   -1    0    0  501    0  0.00000000000E+00  0.00000000000E+00  0.15960575100E+04  0.15960575100E+04  0.50400001928E-02 0. -1.
       -1   -1    0    0    0  501  0.00000000000E+00  0.00000000000E+00 -0.30500929653E+03  0.30500929657E+03  0.50400001928E-02 0.  1.
    10030    2    1    2    0    0  0.00000000000E+00  0.00000000000E+00  0.12910482134E+04  0.19010668066E+04  0.13954388247E+04 0.  0.
        2    1    3    3  502    0 -0.19920375654E+03  0.62983218505E+03  0.95149580992E+03  0.11583242181E+04  0.25500000920E-02 0. -1.
       -2    1    3    3    0  502  0.19920375654E+03 -0.62983218505E+03  0.33955240352E+03  0.74274258845E+03  0.25500000920E-02 0.  1.
</event>
<event>
 5   0  0.1648463E-03  0.1397564E+04  0.7818609E-02  0.8955584E-01
        2   -1    0    0  501    0  0.00000000000E+00  0.00000000000E+00  0.16709001225E+04  0.16709001225E+04  0.25500000920E-02 0. -1.
       -2   -1    0    0    0  501  0.00000000000E+00  0.00000000000E+00 -0.29223555221E+03  0.29223555222E+03  0.25500000920E-02 0.  1.
    10030    2    1    2    0    0  0.00000000000E+00  0.00000000000E+00  0.13786645703E+04  0.19631356748E+04  0.13975641953E+04 0.  0.
        1    1    3    3  502    0  0.14735571326E+03 -0.73760894463E+02 -0.26455247371E+03  0.31167673503E+03  0.50400001928E-02 0.  1.
       -1    1    3    3    0  502 -0.14735571326E+03  0.73760894463E+02  0.16432170440E+04  0.16514589397E+04  0.50400001928E-02 0. -1.
</event>
<event>
 5   0  0.1605214E-03  0.1299904E+04  0.7818609E-02  0.9029641E-01
       -2   -1    0    0    0  501  0.00000000000E+00  0.00000000000E+00  0.73478762095E+03  0.73478762095E+03  0.25500000920E-02 0.  1.
        2   -1    0    0  501    0  0.00000000000E+00  0.00000000000E+00 -0.57491146587E+03  0.57491146588E+03  0.25500000920E-02 0. -1.
    10030    2    1    2    0    0  0.00000000000E+00  0.00000000000E+00  0.15987615507E+03  0.13096990868E+04  0.12999043477E+04 0.  0.
        5    1    3    3  502    0 -0.57663269915E+03 -0.17811161931E+03 -0.16309873753E+03  0.62518181903E+03  0.46999998093E+01 0.  1.
       -5    1    3    3    0  502  0.57663269915E+03  0.17811161931E+03  0.32297489261E+03  0.68451726780E+03  0.46999998093E+01 0. -1.
</event>
<event>
 5   0  0.1706986E-03  0.1409054E+04  0.7818609E-02  0.8947290E-01
       -2   -1    0    0    0  501  0.00000000000E+00  0.00000000000E+00  0.44076912281E+03  0.44076912282E+03  0.25500000920E-02 0.  1.
        2   -1    0    0  501    0  0.00000000000E+00  0.00000000000E+00 -0.11261191643E+04  0.11261191643E+04  0.25500000920E-02 0. -1.
    10030    2    1    2    0    0  0.00000000000E+00  0.00000000000E+00 -0.68535004148E+03  0.15668882871E+04  0.14090543726E+04 0.  0.
        3    1    3    3  502    0 -0.51953146948E+03 -0.19259920246E+03 -0.82656235038E+03  0.99509433213E+03  0.10100000352E+00 0. -1.
       -3    1    3    3    0  502  0.51953146948E+03  0.19259920246E+03  0.14121230890E+03  0.57179395498E+03  0.10100000352E+00 0.  1.
</event>
<event>
 5   0  0.8502300E-04  0.1390249E+04  0.7818609E-02  0.8960907E-01
       -1   -1    0    0    0  501  0.00000000000E+00  0.00000000000E+00  0.12425300180E+04  0.12425300180E+04  0.50400001928E-02 0. -1.
        1   -1    0    0  501    0  0.00000000000E+00  0.00000000000E+00 -0.38888229468E+03  0.38888229471E+03  0.50400001928E-02 0.  1.
    10030    2    1    2    0    0  0.00000000000E+00  0.00000000000E+00  0.85364772334E+03  0.16314123127E+04  0.13902487902E+04 0.  0.
        4    1    3    3  502    0  0.24543300356E+03 -0.59769582701E+03  0.12599775046E+03  0.65829682278E+03  0.12699999809E+01 0.  1.
       -4    1    3    3    0  502 -0.24543300356E+03  0.59769582701E+03  0.72764997288E+03  0.97311548996E+03  0.12699999809E+01 0. -1.
</event>
<event>
 5   0  0.1648463E-03  0.1393046E+04  0.7818609E-02  0.8958868E-01
        2   -1    0    0  501    0  0.00000000000E+00  0.00000000000E+00  0.20587959098E+04  0.20587959098E+04  0.25500000920E-02 0. -1.
       -2   -1    0    0    0  501  0.00000000000E+00  0.00000000000E+00 -0.23564457125E+03  0.23564457126E+03  0.25500000920E-02 0.  1.
    10030    2    1    2    0    0  0.00000000000E+00  0.00000000000E+00  0.18231513385E+04  0.22944404810E+04  0.13930456984E+04 0.  0.
        1    1    3    3  502    0 -0.49710494927E+03 -0.97129018874E+02  0.12408319237E+03  0.52148251701E+03  0.50400001928E-02 0.  1.
       -1    1    3    3    0  502  0.49710494927E+03  0.97129018874E+02  0.16990681462E+04  0.17729579640E+04  0.50400001928E-02 0. -1.
</event>
<event>
 5   0  0.8502300E-04  0.1259682E+04  0.7818609E-02  0.9062164E-01
       -1   -1    0    0    0  501  0.00000000000E+00  0.00000000000E+00  0.26924172158E+03  0.26924172162E+03  0.50400001928E-02 0.  1.
        1   -1    0    0  501    0  0.00000000000E+00  0.00000000000E+00 -0.14733952355E+04  0.14733952356E+04  0.50400001928E-02 0. -1.
    10030    2    1    2    0    0  0.00000000000E+00  0.00000000000E+00 -0.12041535140E+04  0.17426369572E+04  0.12596816579E+04 0.  0.
        4    1    3    3  502    0  0.41252142003E+03  0.46871352144E+03 -0.71641891075E+03  0.95032834102E+03  0.12699999809E+01 0. -1.
       -4    1    3    3    0  502 -0.41252142003E+03 -0.46871352144E+03 -0.48773460321E+03  0.79230861616E+03  0.12699999809E+01 0.  1.
</event>
<event>
 5   0  0.1706986E-03  0.1414446E+04  0.7818609E-02  0.8943428E-01
       -2   -1    0    0    0  501  0.00000000000E+00  0.00000000000E+00  0.27593924732E+03  0.27593924734E+03  0.25500000920E-02 0. -1.
        2   -1    0    0  501    0  0.00000000000E+00  0.00000000000E+00 -0.18125893359E+04  0.18125893359E+04  0.25500000920E-02 0.  1.
    10030    2    1    2    0    0  0.00000000000E+00  0.00000000000E+00 -0.15366500886E+04  0.20885285833E+04  0.14144462338E+04 0.  0.
        3    1    3    3  502    0  0.73291292500E+02 -0.20613590494E+03  0.22471716051E+03  0.31362627009E+03  0.10100000352E+00 0. -1.
       -3    1    3    3    0  502 -0.73291292500E+02  0.20613590494E+03 -0.17613672491E+04  0.17749023132E+04  0.10100000352E+00 0.  1.
</event>
<event>
 5   0  0.1648213E-03  0.1409565E+04  0.7818609E-02  0.8946924E-01
       -2   -1    0    0    0  501  0.00000000000E+00  0.00000000000E+00  0.52570972787E+03  0.52570972788E+03  0.25500000920E-02 0.  1.
        2   -1    0    0  501    0  0.00000000000E+00  0.00000000000E+00 -0.94485342551E+03  0.94485342551E+03  0.25500000920E-02 0. -1.
    10030    2    1    2    0    0  0.00000000000E+00  0.00000000000E+00 -0.41914369764E+03  0.14705631534E+04  0.14095653759E+04 0.  0.
        4    1    3    3  502    0 -0.20502318517E+03  0.24457642086E+03 -0.86514735309E+03  0.92213539546E+03  0.12699999809E+01 0. -1.
       -4    1    3    3    0  502  0.20502318517E+03 -0.24457642086E+03  0.44600365545E+03  0.54842775794E+03  0.12699999809E+01 0.  1.
</event>
<event>
 5   0  0.9639548E-04  0.1443080E+04  0.7818609E-02  0.8923212E-01
        1   -1    0    0  501    0  0.00000000000E+00  0.00000000000E+00  0.68880043734E+03  0.68880043736E+03  0.50400001928E-02 0.  1.
       -1   -1    0    0    0  501  0.00000000000E+00  0.00000000000E+00 -0.75583585267E+03  0.75583585268E+03  0.50400001928E-02 0. -1.
    10030    2    1    2    0    0  0.00000000000E+00  0.00000000000E+00 -0.67035415325E+02  0.14446362900E+04  0.14430801307E+04 0.  0.
        1    1    3    3  502    0 -0.53726729550E+02  0.48089463389E+03  0.50229199019E+03  0.69745498335E+03  0.50400001928E-02 0.  1.
       -1    1    3    3    0  502  0.53726729550E+02 -0.48089463389E+03 -0.56932740551E+03  0.74718130669E+03  0.50400001928E-02 0. -1.
</event>
<event>
 5   0  0.1648463E-03  0.1414069E+04  0.7818609E-02  0.8943697E-01
        2   -1    0    0  501    0  0.00000000000E+00  0.00000000000E+00  0.15674004991E+04  0.15674004992E+04  0.25500000920E-02 0. -1.
       -2   -1    0    0    0  501  0.00000000000E+00  0.00000000000E+00 -0.31893417193E+03  0.31893417194E+03  0.25500000920E-02 0.  1.
    10030    2    1    2    0    0  0.00000000000E+00  0.00000000000E+00  0.12484663272E+04  0.18863346711E+04  0.14140687116E+04 0.  0.
        1    1    3    3  502    0  0.15484223607E+03 -0.26643427219E+03  0.14731017949E+04  0.15049891154E+04  0.50400001928E-02 0. -1.
       -1    1    3    3    0  502 -0.15484223607E+03  0.26643427219E+03 -0.22463546766E+03  0.38134555567E+03  0.50400001928E-02 0.  1.
</event>
<event>
 5   0  0.8609148E-04  0.1397627E+04  0.7818609E-02  0.8955538E-01
        1   -1    0    0  501    0  0.00000000000E+00  0.00000000000E+00  0.12465945703E+04  0.12465945703E+04  0.50400001928E-02 0. -1.
       -1   -1    0    0    0  501  0.00000000000E+00  0.00000000000E+00 -0.39173964965E+03  0.39173964968E+03  0.50400001928E-02 0.  1.
    10030    2    1    2    0    0  0.00000000000E+00  0.00000000000E+00  0.85485492062E+03  0.16383342200E+04  0.13976273040E+04 0.  0.
        5    1    3    3  502    0 -0.81508626256E+02 -0.63236560597E+03  0.92186337809E+02  0.64424399620E+03  0.46999998093E+01 0.  1.
       -5    1    3    3    0  502  0.81508626256E+02  0.63236560597E+03  0.76266858281E+03  0.99409022376E+03  0.46999998093E+01 0. -1.
</event>
<event>
 5   0  0.8609148E-04  0.1200097E+04  0.7818609E-02  0.9112772E-01
        1   -1    0    0  501    0  0.00000000000E+00  0.00000000000E+00  0.64557340819E+03  0.64557340821E+03  0.50400001928E-02 0. -1.
       -1   -1    0    0    0  501  0.00000000000E+00  0.00000000000E+00 -0.55773368385E+03  0.55773368387E+03  0.50400001928E-02 0.  1.
    10030    2    1    2    0    0  0.00000000000E+00  0.00000000000E+00  0.87839724344E+02  0.12033070921E+04  0.12000967214E+04 0.  0.
        5    1    3    3  502    0 -0.36994520521E+03  0.12766712143E+03  0.49997458543E+03  0.63494489905E+03  0.46999998093E+01 0. -1.
       -5    1    3    3    0  502  0.36994520521E+03 -0.12766712143E+03 -0.41213486109E+03  0.56836219304E+03  0.46999998093E+01 0.  1.
</event>
<event>
 5   0  0.9639548E-04  0.1419597E+04  0.7818609E-02  0.8939754E-01
       -1   -1    0    0    0  501  0.00000000000E+00  0.00000000000E+00  0.44264882091E+03  0.44264882093E+03  0.50400001928E-02 0.  1.
        1   -1    0    0  501    0  0.00000000000E+00  0.00000000000E+00 -0.11381791989E+04  0.11381791989E+04  0.50400001928E-02 0. -1.
    10030    2    1    2    0    0  0.00000000000E+00  0.00000000000E+00 -0.69553037803E+03  0.15808280199E+04  0.14195966757E+04 0.  0.
        1    1    3    3  502    0 -0.20952477801E+02  0.40458004542E+03 -0.99678927714E+03  0.10759706699E+04  0.50400001928E-02 0. -1.
       -1    1    3    3    0  502  0.20952477801E+02 -0.40458004542E+03  0.30125889912E+03  0.50485734995E+03  0.50400001928E-02 0.  1.
</event>
<event>
 5   0  0.8673728E-04  0.1403427E+04  0.7818609E-02  0.8951342E-01
       -1   -1    0    0    0  501  0.00000000000E+00  0.00000000000E+00  0.73881978462E+03  0.73881978464E+03  0.50400001928E-02 0.  1.
        1   -1    0    0  501    0  0.00000000000E+00  0.00000000000E+00 -0.66647071760E+03  0.66647071762E+03  0.50400001928E-02 0. -1.
    10030    2    1    2    0    0  0.00000000000E+00  0.00000000000E+00  0.72349067016E+02  0.14052905023E+04  0.14034268803E+04 0.  0.
        3    1    3    3  502    0  0.31538053346E+03  0.61789422404E+03  0.14187791021E+03  0.70808721539E+03  0.10100000352E+00 0. -1.
       -3    1    3    3    0  502 -0.31538053346E+03 -0.61789422404E+03 -0.69528843193E+02  0.69720328687E+03  0.10100000352E+00 0.  1.
</event>
<event>
 5   0  0.8673728E-04  0.1396736E+04  0.7818609E-02  0.8956185E-01
       -1   -1    0    0    0  501  0.00000000000E+00  0.00000000000E+00  0.74230404610E+03  0.74230404612E+03  0.50400001928E-02 0. -1.
        1   -1    0    0  501    0  0.00000000000E+00  0.00000000000E+00 -0.65703208894E+03  0.65703208896E+03  0.50400001928E-02 0.  1.
    10030    2    1    2    0    0  0.00000000000E+00  0.00000000000E+00  0.85271957165E+02  0.13993361351E+04  0.13967355914E+04 0.  0.
        3    1    3    3  502    0 -0.69349577630E+03  0.49144804548E+02 -0.23562489503E+02  0.69563410258E+03  0.10100000352E+00 0.  1.
       -3    1    3    3    0  502  0.69349577630E+03 -0.49144804548E+02  0.10883444667E+03  0.70370203250E+03  0.10100000352E+00 0. -1.
</event>
<event>
 5   0  0.8502300E-04  0.1403190E+04  0.7818609E-02  0.8951513E-01
        1   -1    0    0  501    0  0.00000000000E+00  0.00000000000E+00  0.59401372415E+03  0.59401372417E+03  0.50400001928E-02 0.  1.
       -1   -1    0    0    0  501  0.00000000000E+00  0.00000000000E+00 -0.82865964399E+03  0.82865964400E+03  0.50400001928E-02 0. -1.
    10030    2    1    2    0    0  0.00000000000E+00  0.00000000000E+00 -0.23464591984E+03  0.14226733682E+04  0.14031895114E+04 0.  0.
        4    1    3    3  502    0  0.12517260420E+03  0.39848413659E+03 -0.68886645022E+03  0.80560312009E+03  0.12699999809E+01 0. -1.
       -4    1    3    3    0  502 -0.12517260420E+03 -0.39848413659E+03  0.45422053038E+03  0.61707024809E+03  0.12699999809E+01 0.  1.
</event>
<event>
 5   0  0.8673728E-04  0.1391391E+04  0.7818609E-02  0.8960074E-01
        1   -1    0    0  501    0  0.00000000000E+00  0.00000000000E+00  0.29516317589E+04  0.29516317589E+04  0.50400001928E-02 0.  1.
       -1   -1    0    0    0  501  0.00000000000E+00  0.00000000000E+00 -0.16397439235E+03  0.16397439243E+03  0.50400001928E-02 0. -1.
    10030    2    1    2    0    0  0.00000000000E+00  0.00000000000E+00  0.27876573665E+04  0.31156061513E+04  0.13913907061E+04 0.  0.
        3    1    3    3  502    0 -0.67577562753E+03 -0.15214277446E+03  0.12491981612E+04  0.14283963661E+04  0.10100000352E+00 0. -1.
       -3    1    3    3    0  502  0.67577562753E+03  0.15214277446E+03  0.15384592053E+04  0.16872097852E+04  0.10100000352E+00 0.  1.
</event>
<event>
 5   0  0.9639548E-04  0.1392767E+04  0.7818609E-02  0.8959071E-01
        1   -1    0    0  501    0  0.00000000000E+00  0.00000000000E+00  0.12238972718E+04  0.12238972718E+04  0.50400001928E-02 0. -1.
       -1   -1    0    0    0  501  0.00000000000E+00  0.00000000000E+00 -0.39623413376E+03  0.39623413379E+03  0.50400001928E-02 0.  1.
    10030    2    1    2    0    0  0.00000000000E+00  0.00000000000E+00  0.82766313802E+03  0.16201314056E+04  0.13927668510E+04 0.  0.
        1    1    3    3  502    0  0.58847417764E+03 -0.36107235897E+03  0.51964718442E+03  0.86412285149E+03  0.50400001928E-02 0. -1.
       -1    1    3    3    0  502 -0.58847417764E+03  0.36107235897E+03  0.30801595359E+03  0.75600855409E+03  0.50400001928E-02 0.  1.
</event>
<event>
 5   0  0.8609148E-04  0.1404783E+04  0.7818609E-02  0.8950364E-01
        1   -1    0    0  501    0  0.00000000000E+00  0.00000000000E+00  0.44135804461E+03  0.44135804464E+03  0.50400001928E-02 0.  1.
       -1   -1    0    0    0  501  0.00000000000E+00  0.00000000000E+00 -0.11178086926E+04  0.11178086927E+04  0.50400001928E-02 0. -1.
    10030    2    1    2    0    0  0.00000000000E+00  0.00000000000E+00 -0.67645064804E+03  0.15591667373E+04  0.14047830564E+04 0.  0.
        5    1    3    3  502    0 -0.18623007777E+03  0.28746912253E+03  0.34236213149E+03  0.48430781260E+03  0.46999998093E+01 0.  1.
       -5    1    3    3    0  502  0.18623007777E+03 -0.28746912253E+03 -0.10188127795E+04  0.10748589247E+04  0.46999998093E+01 0. -1.
</event>
<event>
 5   0  0.1706986E-03  0.1381469E+04  0.7818609E-02  0.8967342E-01
       -2   -1    0    0    0  501  0.00000000000E+00  0.00000000000E+00  0.73840113921E+03  0.73840113922E+03  0.25500000920E-02 0.  1.
        2   -1    0    0  501    0  0.00000000000E+00  0.00000000000E+00 -0.64614512793E+03  0.64614512794E+03  0.25500000920E-02 0. -1.
    10030    2    1    2    0    0  0.00000000000E+00  0.00000000000E+00  0.92256011278E+02  0.13845462672E+04  0.13814692158E+04 0.  0.
        3    1    3    3  502    0  0.35830351108E+03 -0.11955342078E+03  0.62572387152E+03  0.73089315229E+03  0.10100000352E+00 0.  1.
       -3    1    3    3    0  502 -0.35830351108E+03  0.11955342078E+03 -0.53346786024E+03  0.65365311487E+03  0.10100000352E+00 0. -1.
</event>
<event>
 5   0  0.1578965E-03  0.1386408E+04  0.7818609E-02  0.8963716E-01
       -2   -1    0    0    0  501  0.00000000000E+00  0.00000000000E+00  0.58828949644E+03  0.58828949644E+03  0.25500000920E-02 0.  1.
        2   -1    0    0  501    0  0.00000000000E+00  0.00000000000E+00 -0.81682859091E+03  0.81682859092E+03  0.25500000920E-02 0. -1.
    10030    2    1    2    0    0  0.00000000000E+00  0.00000000000E+00 -0.22853909447E+03  0.14051180874E+04  0.13864078483E+04 0.  0.
        2    1    3    3  502    0  0.60628637913E+02  0.65578345779E+03  0.10499219542E+03  0.66689664593E+03  0.25500000920E-02 0.  1.
       -2    1    3    3    0  502 -0.60628637913E+02 -0.65578345779E+03 -0.33353128989E+03  0.73822144143E+03  0.25500000920E-02 0. -1.
</event>
<event>
 5   0  0.8609148E-04  0.1398004E+04  0.7818609E-02  0.8955265E-01
       -1   -1    0    0    0  501  0.00000000000E+00  0.00000000000E+00  0.79518859751E+03  0.79518859753E+03  0.50400001928E-02 0.  1.
        1   -1    0    0  501    0  0.00000000000E+00  0.00000000000E+00 -0.61445013675E+03  0.61445013677E+03  0.50400001928E-02 0. -1.
    10030    2    1    2    0    0  0.00000000000E+00  0.00000000000E+00  0.18073846076E+03  0.14096387343E+04  0.13980039235E+04 0.  0.
        5    1    3    3  502    0 -0.45572949761E+03 -0.60256915445E+02  0.62130761745E+03  0.77289424655E+03  0.46999998093E+01 0.  1.
       -5    1    3    3    0  502  0.45572949761E+03  0.60256915445E+02 -0.44056915669E+03  0.63674448775E+03  0.46999998093E+01 0. -1.
</event>
<event>
 5   0  0.1706986E-03  0.1411707E+04  0.7818609E-02  0.8945388E-01
        2   -1    0    0  501    0  0.00000000000E+00  0.00000000000E+00  0.14441552478E+04  0.14441552478E+04  0.25500000920E-02 0. -1.
       -2   -1    0    0    0  501  0.00000000000E+00  0.00000000000E+00 -0.34499675572E+03  0.34499675573E+03  0.25500000920E-02 0.  1.
    10030    2    1    2    0    0  0.00000000000E+00  0.00000000000E+00  0.10991584921E+04  0.17891520035E+04  0.14117065917E+04 0.  0.
        3    1    3    3  502    0 -0.67202737529E+03  0.16364388046E+03  0.37111530048E+03  0.78493737917E+03  0.10100000352E+00 0.  1.
       -3    1    3    3    0  502  0.67202737529E+03 -0.16364388046E+03  0.72804319159E+03  0.10042146244E+04  0.10100000352E+00 0. -1.
</event>
<event>
 5   0  0.1648463E-03  0.1405275E+04  0.7818609E-02  0.8950009E-01
       -2   -1    0    0    0  501  0.00000000000E+00  0.00000000000E+00  0.85244699801E+03  0.85244699802E+03  0.25500000920E-02 0.  1.
        2   -1    0    0  501    0  0.00000000000E+00  0.00000000000E+00 -0.57915586810E+03  0.57915586811E+03  0.25500000920E-02 0. -1.
    10030    2    1    2    0    0  0.00000000000E+00  0.00000000000E+00  0.27329112991E+03  0.14316028661E+04  0.14052753199E+04 0.  0.
        1    1    3    3  502    0 -0.58874819563E+03  0.34346013189E+03 -0.37168567666E+02  0.68262054064E+03  0.50400001928E-02 0.  1.
       -1    1    3    3    0  502  0.58874819563E+03 -0.34346013189E+03  0.31045969758E+03  0.74898232549E+03  0.50400001928E-02 0. -1.
</event>
<event>
 5   0  0.1648213E-03  0.1393109E+04  0.7818609E-02  0.8958821E-01
       -2   -1    0    0    0  501  0.00000000000E+00  0.00000000000E+00  0.38236390416E+03  0.38236390417E+03  0.25500000920E-02 0. -1.
        2   -1    0    0  501    0  0.00000000000E+00  0.00000000000E+00 -0.12689180789E+04  0.12689180789E+04  0.25500000920E-02 0.  1.
    10030    2    1    2    0    0  0.00000000000E+00  0.00000000000E+00 -0.88655417473E+03  0.16512819831E+04  0.13931094296E+04 0.  0.
        4    1    3    3  502    0  0.23584610181E+03 -0.13940878273E+02  0.33341953593E+03  0.40864156870E+03  0.12699999809E+01 0. -1.
       -4    1    3    3    0  502 -0.23584610181E+03  0.13940878273E+02 -0.12199737107E+04  0.12426404144E+04  0.12699999809E+01 0.  1.
</event>
<event>
 5   0  0.1578965E-03  0.1388334E+04  0.7818609E-02  0.8962306E-01
       -2   -1    0    0    0  501  0.00000000000E+00  0.00000000000E+00  0.11587595814E+04  0.11587595814E+04  0.25500000920E-02 0. -1.
        2   -1    0    0  501    0  0.00000000000E+00  0.00000000000E+00 -0.41584819078E+03  0.41584819079E+03  0.25500000920E-02 0.  1.
    10030    2    1    2    0    0  0.00000000000E+00  0.00000000000E+00  0.74291139061E+03  0.15746077722E+04  0.13883343624E+04 0.  0.
        2    1    3    3  502    0  0.21805270709E+03  0.30110301152E+03  0.10363331251E+04  0.11009978896E+04  0.25500000920E-02 0. -1.
       -2    1    3    3    0  502 -0.21805270709E+03 -0.30110301152E+03 -0.29342173451E+03  0.47360988261E+03  0.25500000920E-02 0.  1.
</event>
<event>
 5   0  0.8609148E-04  0.1361819E+04  0.7818609E-02  0.8981929E-01
       -1   -1    0    0    0  501  0.00000000000E+00  0.00000000000E+00  0.65263085503E+03  0.65263085505E+03  0.50400001928E-02 0. -1.
        1   -1    0    0  501    0  0.00000000000E+00  0.00000000000E+00 -0.71041358507E+03  0.71041358509E+03  0.50400001928E-02 0.  1.
    10030    2    1    2    0    0  0.00000000000E+00  0.00000000000E+00 -0.57782730038E+02  0.13630444401E+04  0.13618191150E+04 0.  0.
        5    1    3    3  502    0  0.20277333146E+03  0.31088601291E+03  0.54245375001E+03  0.65730152736E+03  0.46999998093E+01 0. -1.
       -5    1    3    3    0  502 -0.20277333146E+03 -0.31088601291E+03 -0.60023648005E+03  0.70574291279E+03  0.46999998093E+01 0.  1.
</event>
<event>
 5   0  0.1578965E-03  0.1387375E+04  0.7818609E-02  0.8963008E-01
        2   -1    0    0  501    0  0.00000000000E+00  0.00000000000E+00  0.38207676497E+03  0.38207676498E+03  0.25500000920E-02 0. -1.
       -2   -1    0    0    0  501  0.00000000000E+00  0.00000000000E+00 -0.12594381719E+04  0.12594381719E+04  0.25500000920E-02 0.  1.
    10030    2    1    2    0    0  0.00000000000E+00  0.00000000000E+00 -0.87736140689E+03  0.16415149368E+04  0.13873745888E+04 0.  0.
        2    1    3    3  502    0  0.49074632749E+03 -0.39329985537E+03 -0.92339361344E+02  0.63564399772E+03  0.25500000920E-02 0. -1.
       -2    1    3    3    0  502 -0.49074632749E+03  0.39329985537E+03 -0.78502204555E+03  0.10058709391E+04  0.25500000920E-02 0.  1.
</event>
<event>
 5   0  0.8609148E-04  0.1396870E+04  0.7818609E-02  0.8956087E-01
        1   -1    0    0  501    0  0.00000000000E+00  0.00000000000E+00  0.32148811128E+03  0.32148811132E+03  0.50400001928E-02 0. -1.
       -1   -1    0    0    0  501  0.00000000000E+00  0.00000000000E+00 -0.15173551629E+04  0.15173551629E+04  0.50400001928E-02 0.  1.
    10030    2    1    2    0    0  0.00000000000E+00  0.00000000000E+00 -0.11958670517E+04  0.18388432743E+04  0.13968702810E+04 0.  0.
        5    1    3    3  502    0  0.93165591659E+02 -0.39651068074E+03 -0.13447978440E+04  0.14051348258E+04  0.46999998093E+01 0.  1.
       -5    1    3    3    0  502 -0.93165591659E+02  0.39651068074E+03  0.14893079232E+03  0.43370844851E+03  0.46999998093E+01 0. -1.
</event>
<event>
 5   0  0.8502300E-04  0.1397976E+04  0.7818609E-02  0.8955285E-01
       -1   -1    0    0    0  501  0.00000000000E+00  0.00000000000E+00  0.74976670469E+03  0.74976670470E+03  0.50400001928E-02 0. -1.
        1   -1    0    0  501    0  0.00000000000E+00  0.00000000000E+00 -0.65164809990E+03  0.65164809991E+03  0.50400001928E-02 0.  1.
    10030    2    1    2    0    0  0.00000000000E+00  0.00000000000E+00  0.98118604791E+02  0.14014148046E+04  0.13979757487E+04 0.  0.
        4    1    3    3  502    0 -0.66260647389E+03  0.54106148480E+01  0.27210569300E+03  0.71632376413E+03  0.12699999809E+01 0. -1.
       -4    1    3    3    0  502  0.66260647389E+03 -0.54106148480E+01 -0.17398708821E+03  0.68509104049E+03  0.12699999809E+01 0.  1.
</event>
<event>
 5   0  0.9007180E-04  0.1405829E+04  0.7818609E-02  0.8949610E-01
        1   -1    0    0  501    0  0.00000000000E+00  0.00000000000E+00  0.90514556862E+03  0.90514556864E+03  0.50400001928E-02 0. -1.
       -1   -1    0    0    0  501  0.00000000000E+00  0.00000000000E+00 -0.54586670555E+03  0.54586670557E+03  0.50400001928E-02 0.  1.
    10030    2    1    2    0    0  0.00000000000E+00  0.00000000000E+00  0.35927886307E+03  0.14510122742E+04  0.14058290502E+04 0.  0.
        2    1    3    3  502    0 -0.36631837108E+03  0.45900542580E+03  0.57833638959E+03  0.82422576364E+03  0.25500000920E-02 0. -1.
       -2    1    3    3    0  502  0.36631837108E+03 -0.45900542580E+03 -0.21905752652E+03  0.62678651057E+03  0.25500000920E-02 0.  1.
</event>
<event>
 5   0  0.8502300E-04  0.1320391E+04  0.7818609E-02  0.9013550E-01
       -1   -1    0    0    0  501  0.00000000000E+00  0.00000000000E+00  0.37120958112E+03  0.37120958115E+03  0.50400001928E-02 0. -1.
        1   -1    0    0  501    0  0.00000000000E+00  0.00000000000E+00 -0.11741555243E+04  0.11741555243E+04  0.50400001928E-02 0.  1.
    10030    2    1    2    0    0  0.00000000000E+00  0.00000000000E+00 -0.80294594321E+03  0.15453651055E+04  0.13203905186E+04 0.  0.
        4    1    3    3  502    0 -0.23604504542E+03  0.27841048768E+03  0.24237330009E+03  0.43815076471E+03  0.12699999809E+01 0. -1.
       -4    1    3    3    0  502  0.23604504542E+03 -0.27841048768E+03 -0.10453192433E+04  0.11072143408E+04  0.12699999809E+01 0.  1.
</event>
<event>
 5   0  0.1648463E-03  0.1388071E+04  0.7818609E-02  0.8962499E-01
        2   -1    0    0  501    0  0.00000000000E+00  0.00000000000E+00  0.19172486031E+04  0.19172486031E+04  0.25500000920E-02 0.  1.
       -2   -1    0    0    0  501  0.00000000000E+00  0.00000000000E+00 -0.25123791694E+03  0.25123791695E+03  0.25500000920E-02 0. -1.
    10030    2    1    2    0    0  0.00000000000E+00  0.00000000000E+00  0.16660106861E+04  0.21684865200E+04  0.13880713891E+04 0.  0.
        1    1    3    3  502    0  0.63596546799E+03 -0.27622134449E+03  0.78522976874E+03  0.10475381126E+04  0.50400001928E-02 0.  1.
       -1    1    3    3    0  502 -0.63596546799E+03  0.27622134449E+03  0.88078091740E+03  0.11209484074E+04  0.50400001928E-02 0. -1.
</event>
<event>
 5   0  0.1648213E-03  0.1395732E+04  0.7818609E-02  0.8956914E-01
       -2   -1    0    0    0  501  0.00000000000E+00  0.00000000000E+00  0.49335537223E+03  0.49335537224E+03  0.25500000920E-02 0. -1.
        2   -1    0    0  501    0  0.00000000000E+00  0.00000000000E+00 -0.98715177152E+03  0.98715177153E+03  0.25500000920E-02 0.  1.
    10030    2    1    2    0    0  0.00000000000E+00  0.00000000000E+00 -0.49379639929E+03  0.14805071438E+04  0.13957315354E+04 0.  0.
        4    1    3    3  502    0  0.16884701585E+03  0.67600727293E+03 -0.20554475505E+03  0.72646087785E+03  0.12699999809E+01 0. -1.
       -4    1    3    3    0  502 -0.16884701585E+03 -0.67600727293E+03 -0.28825164424E+03  0.75404626591E+03  0.12699999809E+01 0.  1.
</event>
<event>
 5   0  0.8673728E-04  0.1397615E+04  0.7818609E-02  0.8955547E-01
       -1   -1    0    0    0  501  0.00000000000E+00  0.00000000000E+00  0.26564690732E+03  0.26564690737E+03  0.50400001928E-02 0.  1.
        1   -1    0    0  501    0  0.00000000000E+00  0.00000000000E+00 -0.18382742835E+04  0.18382742835E+04  0.50400001928E-02 0. -1.
    10030    2    1    2    0    0  0.00000000000E+00  0.00000000000E+00 -0.15726273762E+04  0.21039211909E+04  0.13976149374E+04 0.  0.
        3    1    3    3  502    0  0.30391919609E+03 -0.31678379720E+03  0.32158092948E+02  0.44017383505E+03  0.10100000352E+00 0.  1.
       -3    1    3    3    0  502 -0.30391919609E+03  0.31678379720E+03 -0.16047854692E+04  0.16637473559E+04  0.10100000352E+00 0. -1.
</event>
<event>
 5   0  0.1706986E-03  0.1398411E+04  0.7818609E-02  0.8954970E-01
       -2   -1    0    0    0  501  0.00000000000E+00  0.00000000000E+00  0.37944666810E+03  0.37944666811E+03  0.25500000920E-02 0. -1.
        2   -1    0    0  501    0  0.00000000000E+00  0.00000000000E+00 -0.12884243117E+04  0.12884243117E+04  0.25500000920E-02 0.  1.
    10030    2    1    2    0    0  0.00000000000E+00  0.00000000000E+00 -0.90897764361E+03  0.16678709798E+04  0.13984109728E+04 0.  0.
        3    1    3    3  502    0  0.16743777015E+02  0.69863154472E+03 -0.42724132965E+03  0.81908580338E+03  0.10100000352E+00 0. -1.
       -3    1    3    3    0  502 -0.16743777015E+02 -0.69863154472E+03 -0.48173631395E+03  0.84878517643E+03  0.10100000352E+00 0.  1.
</event>
<event>
 5   0  0.8673728E-04  0.1423765E+04  0.7818609E-02  0.8936794E-01
       -1   -1    0    0    0  501  0.00000000000E+00  0.00000000000E+00  0.38912655078E+03  0.38912655081E+03  0.50400001928E-02 0.  1.
        1   -1    0    0  501    0  0.00000000000E+00  0.00000000000E+00 -0.13023432677E+04  0.13023432677E+04  0.50400001928E-02 0. -1.
    10030    2    1    2    0    0  0.00000000000E+00  0.00000000000E+00 -0.91321671695E+03  0.16914698185E+04  0.14237645082E+04 0.  0.
        3    1    3    3  502    0  0.25283452162E+03 -0.66355313049E+03 -0.39663618785E+03  0.81335621226E+03  0.10100000352E+00 0. -1.
       -3    1    3    3    0  502 -0.25283452162E+03  0.66355313049E+03 -0.51658052910E+03  0.87811360629E+03  0.10100000352E+00 0.  1.
</event>
<event>
 5   0  0.9007180E-04  0.1392065E+04  0.7818609E-02  0.8959582E-01
        1   -1    0    0  501    0  0.00000000000E+00  0.00000000000E+00  0.90637797621E+03  0.90637797623E+03  0.50400001928E-02 0. -1.
       -1   -1    0    0    0  501  0.00000000000E+00  0.00000000000E+00 -0.53450275865E+03  0.53450275868E+03  0.50400001928E-02 0.  1.
    10030    2    1    2    0    0  0.00000000000E+00  0.00000000000E+00  0.37187521756E+03  0.14408807349E+04  0.13920654133E+04 0.  0.
        2    1    3    3  502    0  0.23431794689E+03  0.45405560767E+03  0.67515330801E+03  0.84670147302E+03  0.25500000920E-02 0. -1.
       -2    1    3    3    0  502 -0.23431794689E+03 -0.45405560767E+03 -0.30327809046E+03  0.59417926188E+03  0.25500000920E-02 0.  1.
</event>
<event>
 5   0  0.1578965E-03  0.1361412E+04  0.7818609E-02  0.8982234E-01
        2   -1    0    0  501    0  0.00000000000E+00  0.00000000000E+00  0.15006038456E+04  0.15006038456E+04  0.25500000920E-02 0. -1.
       -2   -1    0    0    0  501  0.00000000000E+00  0.00000000000E+00 -0.30878257588E+03  0.30878257589E+03  0.25500000920E-02 0.  1.
    10030    2    1    2    0    0  0.00000000000E+00  0.00000000000E+00  0.11918212697E+04  0.18093864215E+04  0.13614115040E+04 0.  0.
        2    1    3    3  502    0 -0.57817024322E+03 -0.14035062299E+03  0.10354656497E+04  0.11942228600E+04  0.25500000920E-02 0. -1.
       -2    1    3    3    0  502  0.57817024322E+03  0.14035062299E+03  0.15635562001E+03  0.61516356153E+03  0.25500000920E-02 0.  1.
</event>
<event>
 5   0  0.6048000E-04  0.1400092E+04  0.7818609E-02  0.8953752E-01
       -3   -1    0    0    0  501  0.00000000000E+00  0.00000000000E+00  0.12908523296E+04  0.12908523336E+04  0.10100000352E+00 0. -1.
        3   -1    0    0  501    0  0.00000000000E+00  0.00000000000E+00 -0.37964393925E+03  0.37964395269E+03  0.10100000352E+00 0.  1.
    10030    2    1    2    0    0  0.00000000000E+00  0.00000000000E+00  0.91120839039E+03  0.16704962863E+04  0.14000918226E+04 0.  0.
        2    1    3    3  502    0  0.50021814854E+03  0.25985379705E+03 -0.39685699195E+02  0.56508153987E+03  0.25500000920E-02 0.  1.
       -2    1    3    3    0  502 -0.50021814854E+03 -0.25985379705E+03  0.95089408958E+03  0.11054147464E+04  0.25500000920E-02 0. -1.
</event>
<event>
 5   0  0.9639548E-04  0.1390868E+04  0.7818609E-02  0.8960456E-01
        1   -1    0    0  501    0  0.00000000000E+00  0.00000000000E+00  0.93239503052E+03  0.93239503054E+03  0.50400001928E-02 0. -1.
       -1   -1    0    0    0  501  0.00000000000E+00  0.00000000000E+00 -0.51869442360E+03  0.51869442362E+03  0.50400001928E-02 0.  1.
    10030    2    1    2    0    0  0.00000000000E+00  0.00000000000E+00  0.41370060693E+03  0.14510894542E+04  0.13908675033E+04 0.  0.
        1    1    3    3  502    0 -0.68124981356E+03  0.10542126972E+03  0.30254497374E+03  0.75282694807E+03  0.50400001928E-02 0. -1.
       -1    1    3    3    0  502  0.68124981356E+03 -0.10542126972E+03  0.11115563319E+03  0.69826250609E+03  0.50400001928E-02 0.  1.
</event>
<event>
 5   0  0.1648213E-03  0.1424475E+04  0.7818609E-02  0.8936290E-01
        2   -1    0    0  501    0  0.00000000000E+00  0.00000000000E+00  0.19063738969E+04  0.19063738969E+04  0.25500000920E-02 0.  1.
       -2   -1    0    0    0  501  0.00000000000E+00  0.00000000000E+00 -0.26609803858E+03  0.26609803859E+03  0.25500000920E-02 0. -1.
    10030    2    1    2    0    0  0.00000000000E+00  0.00000000000E+00  0.16402758583E+04  0.21724719355E+04  0.14244751381E+04 0.  0.
        4    1    3    3  502    0  0.57543273335E+03  0.50753250055E+02  0.14555444518E+04  0.15659853087E+04  0.12699999809E+01 0.  1.
       -4    1    3    3    0  502 -0.57543273335E+03 -0.50753250055E+02  0.18473140649E+03  0.60648662676E+03  0.12699999809E+01 0. -1.
</event>
<event>
 5   0  0.9639548E-04  0.1412810E+04  0.7818609E-02  0.8944598E-01
        1   -1    0    0  501    0  0.00000000000E+00  0.00000000000E+00  0.86829083398E+03  0.86829083400E+03  0.50400001928E-02 0. -1.
       -1   -1    0    0    0  501  0.00000000000E+00  0.00000000000E+00 -0.57470124864E+03  0.57470124866E+03  0.50400001928E-02 0.  1.
    10030    2    1    2    0    0  0.00000000000E+00  0.00000000000E+00  0.29358958534E+03  0.14429920827E+04  0.14128097204E+04 0.  0.
        1    1    3    3  502    0  0.47196177399E+03  0.35416772309E+03  0.54345362976E+03  0.80219981296E+03  0.50400001928E-02 0. -1.
       -1    1    3    3    0  502 -0.47196177399E+03 -0.35416772309E+03 -0.24986404442E+03  0.64079226970E+03  0.50400001928E-02 0.  1.
</event>
<event>
 5   0  0.1648213E-03  0.1405613E+04  0.7818609E-02  0.8949766E-01
        2   -1    0    0  501    0  0.00000000000E+00  0.00000000000E+00  0.11981697370E+04  0.11981697370E+04  0.25500000920E-02 0.  1.
       -2   -1    0    0    0  501  0.00000000000E+00  0.00000000000E+00 -0.41224269205E+03  0.41224269206E+03  0.25500000920E-02 0. -1.
    10030    2    1    2    0    0  0.00000000000E+00  0.00000000000E+00  0.78592704499E+03  0.16104124291E+04  0.14056126322E+04 0.  0.
        4    1    3    3  502    0 -0.20567018381E+03 -0.52815735189E+03  0.86906374303E+03  0.10375566564E+04  0.12699999809E+01 0.  1.
       -4    1    3    3    0  502  0.20567018381E+03  0.52815735189E+03 -0.83136698042E+02  0.57285577271E+03  0.12699999809E+01 0. -1.
</event>
<event>
 5   0  0.1605214E-03  0.1300230E+04  0.7818609E-02  0.9029383E-01
        2   -1    0    0  501    0  0.00000000000E+00  0.00000000000E+00  0.54251453325E+03  0.54251453325E+03  0.25500000920E-02 0.  1.
       -2   -1    0    0    0  501  0.00000000000E+00  0.00000000000E+00 -0.77905606219E+03  0.77905606219E+03  0.25500000920E-02 0. -1.
    10030    2    1    2    0    0  0.00000000000E+00  0.00000000000E+00 -0.23654152894E+03  0.13215705954E+04  0.13002295735E+04 0.  0.
        5    1    3    3  502    0 -0.55322703474E+03 -0.19294246135E+03 -0.40456788132E+03  0.71202823396E+03  0.46999998093E+01 0. -1.
       -5    1    3    3    0  502  0.55322703474E+03  0.19294246135E+03  0.16802635238E+03  0.60954236149E+03  0.46999998093E+01 0.  1.
</event>
<event>
 5   0  0.8502300E-04  0.1311592E+04  0.7818609E-02  0.9020423E-01
        1   -1    0    0  501    0  0.00000000000E+00  0.00000000000E+00  0.46496030042E+03  0.46496030045E+03  0.50400001928E-02 0.  1.
       -1   -1    0    0    0  501  0.00000000000E+00  0.00000000000E+00 -0.92495662604E+03  0.92495662605E+03  0.50400001928E-02 0. -1.
    10030    2    1    2    0    0  0.00000000000E+00  0.00000000000E+00 -0.45999632562E+03  0.13899169265E+04  0.13115915687E+04 0.  0.
        4    1    3    3  502    0 -0.24438398824E+03  0.57520891411E+03 -0.19442958809E+02  0.62527471573E+03  0.12699999809E+01 0.  1.
       -4    1    3    3    0  502  0.24438398824E+03 -0.57520891411E+03 -0.44055336681E+03  0.76464221077E+03  0.12699999809E+01 0. -1.
</event>
<event>
 5   0  0.1605214E-03  0.1397653E+04  0.7818609E-02  0.8955519E-01
       -2   -1    0    0    0  501  0.00000000000E+00  0.00000000000E+00  0.98394359461E+03  0.98394359461E+03  0.25500000920E-02 0. -1.
        2   -1    0    0  501    0  0.00000000000E+00  0.00000000000E+00 -0.49632741149E+03  0.49632741150E+03  0.25500000920E-02 0.  1.
    10030    2    1    2    0    0  0.00000000000E+00  0.00000000000E+00  0.48761618312E+03  0.14802710061E+04  0.13976525711E+04 0.  0.
        5    1    3    3  502    0  0.16227308781E+03 -0.40987923431E+03 -0.33046378762E+03  0.55096456027E+03  0.46999998093E+01 0.  1.
       -5    1    3    3    0  502 -0.16227308781E+03  0.40987923431E+03  0.81807997074E+03  0.92930644583E+03  0.46999998093E+01 0. -1.
</event>
<event>
 5   0  0.9007180E-04  0.1398424E+04  0.7818609E-02  0.8954960E-01
       -1   -1    0    0    0  501  0.00000000000E+00  0.00000000000E+00  0.56613761058E+03  0.56613761060E+03  0.50400001928E-02 0. -1.
        1   -1    0    0  501    0  0.00000000000E+00  0.00000000000E+00 -0.86356611066E+03  0.86356611067E+03  0.50400001928E-02 0.  1.
    10030    2    1    2    0    0  0.00000000000E+00  0.00000000000E+00 -0.29742850007E+03  0.14297037213E+04  0.13984237619E+04 0.  0.
        2    1    3    3  502    0 -0.17584282919E+03 -0.64205321963E+03  0.69948775111E+02  0.66936228498E+03  0.25500000920E-02 0. -1.
       -2    1    3    3    0  502  0.17584282919E+03  0.64205321963E+03 -0.36737727519E+03  0.76034143629E+03  0.25500000920E-02 0.  1.
</event>
<event>
 5   0  0.1578965E-03  0.1369329E+04  0.7818609E-02  0.8976324E-01
        2   -1    0    0  501    0  0.00000000000E+00  0.00000000000E+00  0.72534672997E+03  0.72534672997E+03  0.25500000920E-02 0.  1.
       -2   -1    0    0    0  501  0.00000000000E+00  0.00000000000E+00 -0.64626418392E+03  0.64626418393E+03  0.25500000920E-02 0. -1.
    10030    2    1    2    0    0  0.00000000000E+00  0.00000000000E+00  0.79082546046E+02  0.13716109139E+04  0.13693291971E+04 0.  0.
        2    1    3    3  502    0 -0.27766405007E+03 -0.37357514954E+03 -0.46340084909E+03  0.65680747864E+03  0.25500000920E-02 0. -1.
       -2    1    3    3    0  502  0.27766405007E+03  0.37357514954E+03  0.54248339514E+03  0.71480343526E+03  0.25500000920E-02 0.  1.
</event>
<event>
 5   0  0.8609148E-04  0.1424081E+04  0.7818609E-02  0.8936570E-01
       -1   -1    0    0    0  501  0.00000000000E+00  0.00000000000E+00  0.86522510875E+03  0.86522510877E+03  0.50400001928E-02 0.  1.
        1   -1    0    0  501    0  0.00000000000E+00  0.00000000000E+00 -0.58597662352E+03  0.58597662354E+03  0.50400001928E-02 0. -1.
    10030    2    1    2    0    0  0.00000000000E+00  0.00000000000E+00  0.27924848524E+03  0.14512017323E+04  0.14240810199E+04 0.  0.
        5    1    3    3  502    0 -0.18658961214E+03  0.22028651065E+03  0.80289435099E+03  0.85323107010E+03  0.46999998093E+01 0.  1.
       -5    1    3    3    0  502  0.18658961214E+03 -0.22028651065E+03 -0.52364586576E+03  0.59797066220E+03  0.46999998093E+01 0. -1.
</event>
</LesHouchesEvents>
