<LesHouchesEvents version="3.0">
<header>
<!--
#*********************************************************************
#                                                                    *
#                        MadGraph5_aMC@NLO                           *
#                                                                    *
#                           Going Beyond                             *
#                                                                    *
#                   http://madgraph.hep.uiuc.edu                     *
#                   http://madgraph.phys.ucl.ac.be                   *
#                   http://amcatnlo.cern.ch                          *
#                                                                    *
#                     The MadGraph5_aMC@NLO team                     *
#                                                                    *
#....................................................................*
#                                                                    *
# This file contains all the information necessary to reproduce      *
# the events generated:                                              *
#                                                                    *
# 1. software version                                                *
# 2. proc_card          : code generation info including model       *
# 3. param_card         : model primary parameters in the LH format  *
# 4. run_card           : running parameters (collider and cuts)     *
# 5. pythia_card        : present only if pythia has been run        *
# 6. pgs_card           : present only if pgs has been run           *
# 7. delphes_cards      : present only if delphes has been run       *
#                                                                    *
#                                                                    *
#*********************************************************************
-->
<MGVersion>
#5.2.2.3
</MGVersion>
<MG5ProcCard>
#************************************************************
#*                     MadGraph5_aMC@NLO                    *
#*                                                          *
#*                *                       *                 *
#*                  *        * *        *                   *
#*                    * * * * 5 * * * *                     *
#*                  *        * *        *                   *
#*                *                       *                 *
#*                                                          *
#*                                                          *
#*         VERSION 2.2.3                 2015-02-10         *
#*                                                          *
#*    The MadGraph5_aMC@NLO Development Team - Find us at   *
#*    https://server06.fynu.ucl.ac.be/projects/madgraph     *
#*                                                          *
#************************************************************
#*                                                          *
#*               Command File for MadGraph5_aMC@NLO         *
#*                                                          *
#*     run as ./bin/mg5_aMC  filename                       *
#*                                                          *
#************************************************************
set group_subprocesses Auto
set ignore_six_quark_processes False
set loop_optimized_output True
set gauge unitary
set complex_mass_scheme False
import model sm
define p = g u c d s u~ c~ d~ s~
define j = g u c d s u~ c~ d~ s~
define l+ = e+ mu+
define l- = e- mu-
define vl = ve vm vt
define vl~ = ve~ vm~ vt~
import model Zprime_UFO
generate p p > zph, zph > j j
add process p p > zph, zph > b b~
output Dijet_signal
</MG5ProcCard>
<MGProcCard>
#*********************************************************************
#                        MadGraph/MadEvent                           *
#                   http://madgraph.hep.uiuc.edu                     *
#                                                                    *
#                          proc_card.dat                             *
#*********************************************************************
#                                                                    *
#            This Files is generated by MADGRAPH 5                   *
#                                                                    *
# WARNING: This Files is generated for MADEVENT (compatibility issue)*
#          This files is NOT a valid MG4 proc_card.dat               *
#          Running this in MG4 will NEVER reproduce the result of MG5*
#                                                                    *
#*********************************************************************
#*********************************************************************
# Process(es) requested : mg2 input                                  *
#*********************************************************************
# Begin PROCESS # This is TAG. Do not modify this line
p p > zph , zph > j j           #Process
# Be carefull the coupling are here in MG5 convention
          
end_coup           # End the couplings input

done               # this tells MG there are no more procs
# End PROCESS  # This is TAG. Do not modify this line
#*********************************************************************
# Model information                                                  *
#*********************************************************************
# Begin MODEL  # This is TAG. Do not modify this line
Zprime_UFO
# End   MODEL  # This is TAG. Do not modify this line
#*********************************************************************
# Start multiparticle definitions                                    *
#*********************************************************************
# Begin MULTIPARTICLES # This is TAG. Do not modify this line

# End  MULTIPARTICLES # This is TAG. Do not modify this line
</MGProcCard>
<MGRunCard>
#*********************************************************************
#                       MadGraph5_aMC@NLO                            *
#                                                                    *
#                     run_card.dat MadEvent                          *
#                                                                    *
#  This file is used to set the parameters of the run.               *
#                                                                    *
#  Some notation/conventions:                                        *
#                                                                    *
#   Lines starting with a '# ' are info or comments                  *
#                                                                    *
#   mind the format:   value    = variable     ! comment             *
#*********************************************************************
#
#*******************                                                 
# Running parameters
#*******************                                                 
#                                                                    
#*********************************************************************
# Tag name for the run (one word)                                    *
#*********************************************************************
  tag_1     = run_tag ! name of the run 
#*********************************************************************
# Run to generate the grid pack                                      *
#*********************************************************************
  .false.     = gridpack  !True = setting up the grid pack
#*********************************************************************
# Number of events and rnd seed                                      *
# Warning: Do not generate more than 1M events in a single run       *
# If you want to run Pythia, avoid more than 50k events in a run.    *
#*********************************************************************
  2000 = nevents ! Number of unweighted events requested 
 2946 = iseed   ! rnd seed (0=assigned automatically=default))
#*********************************************************************
# Collider type and energy                                           *
# lpp: 0=No PDF, 1=proton, -1=antiproton, 2=photon from proton,      *
#                                         3=photon from electron     *
#*********************************************************************
        1     = lpp1    ! beam 1 type 
        1     = lpp2    ! beam 2 type
     4000     = ebeam1  ! beam 1 total energy in GeV
     4000     = ebeam2  ! beam 2 total energy in GeV
#*********************************************************************
# Beam polarization from -100 (left-handed) to 100 (right-handed)    *
#*********************************************************************
        0     = polbeam1 ! beam polarization for beam 1
        0     = polbeam2 ! beam polarization for beam 2
#*********************************************************************
# PDF CHOICE: this automatically fixes also alpha_s and its evol.    *
#*********************************************************************
 'nn23lo1'    = pdlabel     ! PDF set                                     
 230000    = lhaid     ! if pdlabel=lhapdf, this is the lhapdf number
#*********************************************************************
# Renormalization and factorization scales                           *
#*********************************************************************
 F        = fixed_ren_scale  ! if .true. use fixed ren scale
 F        = fixed_fac_scale  ! if .true. use fixed fac scale
 91.1880  = scale            ! fixed ren scale
 91.1880  = dsqrt_q2fact1    ! fixed fact scale for pdf1
 91.1880  = dsqrt_q2fact2    ! fixed fact scale for pdf2
 1        = scalefact        ! scale factor for event-by-event scales
#*********************************************************************
# Matching - Warning! ickkw > 1 is still beta
#*********************************************************************
 0        = ickkw            ! 0 no matching, 1 MLM, 2 CKKW matching
 1        = highestmult      ! for ickkw=2, highest mult group
 1        = ktscheme         ! for ickkw=1, 1 Durham kT, 2 Pythia pTE
 1        = alpsfact         ! scale factor for QCD emission vx
 F        = chcluster        ! cluster only according to channel diag
 T        = pdfwgt           ! for ickkw=1, perform pdf reweighting
 5        = asrwgtflavor     ! highest quark flavor for a_s reweight
 T        = clusinfo         ! include clustering tag in output
 3.0      = lhe_version       ! Change the way clustering information pass to shower.        
#*********************************************************************
#**********************************************************
#
#**********************************************************
# Automatic ptj and mjj cuts if xqcut > 0
# (turn off for VBF and single top processes)
#**********************************************************
   T  = auto_ptj_mjj  ! Automatic setting of ptj and mjj
#**********************************************************
#                                                                    
#**********************************
# BW cutoff (M+/-bwcutoff*Gamma)
#**********************************
  15  = bwcutoff      ! (M+/-bwcutoff*Gamma)
#**********************************************************
# Apply pt/E/eta/dr/mij cuts on decay products or not
# (note that etmiss/ptll/ptheavy/ht/sorted cuts always apply)
#**********************************************************
   T  = cut_decays    ! Cut decay products 
#*************************************************************
# Number of helicities to sum per event (0 = all helicities)
# 0 gives more stable result, but longer run time (needed for
# long decay chains e.g.).
# Use >=2 if most helicities contribute, e.g. pure QCD.
#*************************************************************
   0  = nhel          ! Number of helicities used per event
#*******************                                                 
# Standard Cuts
#*******************                                                 
#                                                                    
#*********************************************************************
# Minimum and maximum pt's (for max, -1 means no cut)                *
#*********************************************************************
 20  = ptj       ! minimum pt for the jets 
  0  = ptb       ! minimum pt for the b 
 10  = pta       ! minimum pt for the photons 
 10  = ptl       ! minimum pt for the charged leptons 
  0  = misset    ! minimum missing Et (sum of neutrino's momenta)
  0  = ptheavy   ! minimum pt for one heavy final state
 1.0 = ptonium   ! minimum pt for the quarkonium states
 -1  = ptjmax    ! maximum pt for the jets
 -1  = ptbmax    ! maximum pt for the b
 -1  = ptamax    ! maximum pt for the photons
 -1  = ptlmax    ! maximum pt for the charged leptons
 -1  = missetmax ! maximum missing Et (sum of neutrino's momenta)
#*********************************************************************
# Minimum and maximum E's (in the center of mass frame)              *
#*********************************************************************
  0  = ej     ! minimum E for the jets 
  0  = eb     ! minimum E for the b 
  0  = ea     ! minimum E for the photons 
  0  = el     ! minimum E for the charged leptons 
 -1   = ejmax ! maximum E for the jets
 -1   = ebmax ! maximum E for the b
 -1   = eamax ! maximum E for the photons
 -1   = elmax ! maximum E for the charged leptons
#*********************************************************************
# Maximum and minimum absolute rapidity (for max, -1 means no cut)   *
#*********************************************************************
   5  = etaj    ! max rap for the jets 
  -1  = etab    ! max rap for the b
 2.5  = etaa    ! max rap for the photons 
 2.5  = etal    ! max rap for the charged leptons 
 0.6  = etaonium ! max rap for the quarkonium states
   0  = etajmin ! min rap for the jets
   0  = etabmin ! min rap for the b
   0  = etaamin ! min rap for the photons
   0  = etalmin ! main rap for the charged leptons
#*********************************************************************
# Minimum and maximum DeltaR distance                                *
#*********************************************************************
 0.4 = drjj    ! min distance between jets 
 0   = drbb    ! min distance between b's 
 0.4 = drll    ! min distance between leptons 
 0.4 = draa    ! min distance between gammas 
 0   = drbj    ! min distance between b and jet 
 0.4 = draj    ! min distance between gamma and jet 
 0.4 = drjl    ! min distance between jet and lepton 
 0   = drab    ! min distance between gamma and b 
 0   = drbl    ! min distance between b and lepton 
 0.4 = dral    ! min distance between gamma and lepton 
 -1  = drjjmax ! max distance between jets
 -1  = drbbmax ! max distance between b's
 -1  = drllmax ! max distance between leptons
 -1  = draamax ! max distance between gammas
 -1  = drbjmax ! max distance between b and jet
 -1  = drajmax ! max distance between gamma and jet
 -1  = drjlmax ! max distance between jet and lepton
 -1  = drabmax ! max distance between gamma and b
 -1  = drblmax ! max distance between b and lepton
 -1  = dralmax ! maxdistance between gamma and lepton
#*********************************************************************
# Minimum and maximum invariant mass for pairs                       *
# WARNING: for four lepton final state mmll cut require to have      *
#          different lepton masses for each flavor!                  *           
#*********************************************************************
 0   = mmjj    ! min invariant mass of a jet pair 
 0   = mmbb    ! min invariant mass of a b pair 
 0   = mmaa    ! min invariant mass of gamma gamma pair
 0   = mmll    ! min invariant mass of l+l- (same flavour) lepton pair
 -1  = mmjjmax ! max invariant mass of a jet pair
 -1  = mmbbmax ! max invariant mass of a b pair
 -1  = mmaamax ! max invariant mass of gamma gamma pair
 -1  = mmllmax ! max invariant mass of l+l- (same flavour) lepton pair
#*********************************************************************
# Minimum and maximum invariant mass for all letpons                 *
#*********************************************************************
 0   = mmnl    ! min invariant mass for all letpons (l+- and vl) 
 -1  = mmnlmax ! max invariant mass for all letpons (l+- and vl) 
#*********************************************************************
# Minimum and maximum pt for 4-momenta sum of leptons                *
#*********************************************************************
 0   = ptllmin  ! Minimum pt for 4-momenta sum of leptons(l and vl)
 -1  = ptllmax  ! Maximum pt for 4-momenta sum of leptons(l and vl)
#*********************************************************************
# Inclusive cuts                                                     *
#*********************************************************************
 0  = xptj ! minimum pt for at least one jet  
 0  = xptb ! minimum pt for at least one b 
 0  = xpta ! minimum pt for at least one photon 
 0  = xptl ! minimum pt for at least one charged lepton 
#*********************************************************************
# Control the pt's of the jets sorted by pt                          *
#*********************************************************************
 0   = ptj1min ! minimum pt for the leading jet in pt
 0   = ptj2min ! minimum pt for the second jet in pt
 0   = ptj3min ! minimum pt for the third jet in pt
 0   = ptj4min ! minimum pt for the fourth jet in pt
 -1  = ptj1max ! maximum pt for the leading jet in pt 
 -1  = ptj2max ! maximum pt for the second jet in pt
 -1  = ptj3max ! maximum pt for the third jet in pt
 -1  = ptj4max ! maximum pt for the fourth jet in pt
 0   = cutuse  ! reject event if fails any (0) / all (1) jet pt cuts
#*********************************************************************
# Control the pt's of leptons sorted by pt                           *
#*********************************************************************
 0   = ptl1min ! minimum pt for the leading lepton in pt
 0   = ptl2min ! minimum pt for the second lepton in pt
 0   = ptl3min ! minimum pt for the third lepton in pt
 0   = ptl4min ! minimum pt for the fourth lepton in pt
 -1  = ptl1max ! maximum pt for the leading lepton in pt 
 -1  = ptl2max ! maximum pt for the second lepton in pt
 -1  = ptl3max ! maximum pt for the third lepton in pt
 -1  = ptl4max ! maximum pt for the fourth lepton in pt
#*********************************************************************
# Control the Ht(k)=Sum of k leading jets                            *
#*********************************************************************
 0   = htjmin ! minimum jet HT=Sum(jet pt)
 -1  = htjmax ! maximum jet HT=Sum(jet pt)
 0   = ihtmin  !inclusive Ht for all partons (including b)
 -1  = ihtmax  !inclusive Ht for all partons (including b)
 0   = ht2min ! minimum Ht for the two leading jets
 0   = ht3min ! minimum Ht for the three leading jets
 0   = ht4min ! minimum Ht for the four leading jets
 -1  = ht2max ! maximum Ht for the two leading jets
 -1  = ht3max ! maximum Ht for the three leading jets
 -1  = ht4max ! maximum Ht for the four leading jets
#***********************************************************************
# Photon-isolation cuts, according to hep-ph/9801442                   *
# When ptgmin=0, all the other parameters are ignored                  *
# When ptgmin>0, pta and draj are not going to be used                 *
#***********************************************************************
   0 = ptgmin ! Min photon transverse momentum
 0.4 = R0gamma ! Radius of isolation code
 1.0 = xn ! n parameter of eq.(3.4) in hep-ph/9801442
 1.0 = epsgamma ! epsilon_gamma parameter of eq.(3.4) in hep-ph/9801442
 .true. = isoEM ! isolate photons from EM energy (photons and leptons)
#*********************************************************************
# WBF cuts                                                           *
#*********************************************************************
 0   = xetamin ! minimum rapidity for two jets in the WBF case  
 0   = deltaeta ! minimum rapidity for two jets in the WBF case 
#*********************************************************************
# KT DURHAM CUT                                                      *
#*********************************************************************
 -1    =  ktdurham        
 0.4  =  dparameter 
#*********************************************************************
# maximal pdg code for quark to be considered as a light jet         *
# (otherwise b cuts are applied)                                     *
#*********************************************************************
 4 = maxjetflavor    ! Maximum jet pdg code
#*********************************************************************
# Jet measure cuts                                                   *
#*********************************************************************
 0   = xqcut   ! minimum kt jet measure between partons
#*********************************************************************
#
#*********************************************************************
# Store info for systematics studies                                 *
# WARNING: If use_syst is T, matched Pythia output is                *
#          meaningful ONLY if plotted taking matchscale              *
#          reweighting into account!                                 *
#*********************************************************************
   F  = use_syst      ! Enable systematics studies
#
#**************************************
# Parameter of the systematics study
#  will be used by SysCalc (if installed)
#**************************************                                  
#
0.5 1 2 = sys_scalefact  # factorization/renormalization scale factor
0.5 1 2 = sys_alpsfact  # \alpha_s emission scale factors
30 50 = sys_matchscale # variation of merging scale
# PDF sets and number of members (0 or none for all members).
CT10nlo.LHgrid = sys_pdf # matching scales
# MSTW2008nlo68cl.LHgrid 1  = sys_pdf
</MGRunCard>
<slha>
######################################################################
## PARAM_CARD AUTOMATICALY GENERATED BY MG5 FOLLOWING UFO MODEL   ####
######################################################################
##                                                                  ##
##  Width set on Auto will be computed following the information    ##
##        present in the decay.py files of the model.               ##
##        See  arXiv:1402.1178 for more details.                    ##
##                                                                  ##
######################################################################

###################################
## INFORMATION FOR CKMBLOCK
###################################
Block ckmblock 
    1 2.277360e-01 # cabi 

###################################
## INFORMATION FOR FRBLOCK
###################################
Block frblock 
    1 1.600000e+00 # gz 

###################################
## INFORMATION FOR MASS
###################################
Block mass 
    1 5.040000e-03 # MD 
    2 2.550000e-03 # MU 
    3 1.010000e-01 # MS 
    4 1.270000e+00 # MC 
    5 4.700000e+00 # MB 
    6 1.720000e+02 # MT 
   11 5.110000e-04 # Me 
   13 1.056600e-01 # MM 
   15 1.777000e+00 # MTA 
   23 9.118760e+01 # MZ 
   25 1.200000e+02 # MH 
  10030 2.500000e+03 # MZph 
  10031 3.000000e+02 # MZpl 
## Dependent parameters, given by model restrictions.
## Those values should be edited following the 
## analytical expression. MG5 ignores those values 
## but they are important for interfacing the output of MG5
## to external program such as Pythia.
  12 0.000000 # ve : 0.0 
  14 0.000000 # vm : 0.0 
  16 0.000000 # vt : 0.0 
  21 0.000000 # g : 0.0 
  22 0.000000 # a : 0.0 
  24 79.824360 # w+ : cmath.sqrt(MZ__exp__2/2. + cmath.sqrt(MZ__exp__4/4. - (aEW*cmath.pi*MZ__exp__2)/(Gf*sqrt__2))) 

###################################
## INFORMATION FOR SMINPUTS
###################################
Block sminputs 
    1 1.279000e+02 # aEWM1 
    2 1.166370e-05 # Gf 
    3 1.184000e-01 # aS 

###################################
## INFORMATION FOR YUKAWA
###################################
Block yukawa 
    1 5.040000e-03 # ymdo 
    2 2.550000e-03 # ymup 
    3 1.010000e-01 # yms 
    4 1.270000e+00 # ymc 
    5 4.700000e+00 # ymb 
    6 1.720000e+02 # ymt 
   11 5.110000e-04 # yme 
   13 1.056600e-01 # ymm 
   15 1.777000e+00 # ymtau 

###################################
## INFORMATION FOR DECAY
###################################
DECAY   6 1.508336e+00 # WT 
DECAY  23 2.495200e+00 # WZ 
DECAY  24 2.085000e+00 # WW 
DECAY  25 5.753088e-03 # WH 
## Dependent parameters, given by model restrictions.
## Those values should be edited following the 
## analytical expression. MG5 ignores those values 
## but they are important for interfacing the output of MG5
## to external program such as Pythia.
DECAY  1 0.000000 # d : 0.0 
DECAY  2 0.000000 # u : 0.0 
DECAY  3 0.000000 # s : 0.0 
DECAY  4 0.000000 # c : 0.0 
DECAY  5 0.000000 # b : 0.0 
DECAY  11 0.000000 # e- : 0.0 
DECAY  12 0.000000 # ve : 0.0 
DECAY  13 0.000000 # mu- : 0.0 
DECAY  14 0.000000 # vm : 0.0 
DECAY  15 0.000000 # ta- : 0.0 
DECAY  16 0.000000 # vt : 0.0 
DECAY  21 0.000000 # g : 0.0 
DECAY  22 0.000000 # a : 0.0 
DECAY  10030 0.308725 # zph : (gz__exp__2*MZph*(5 + cmath.sqrt(1 - (4*MT__exp__2)/MZph__exp__2)))/(144.*cmath.pi) 
DECAY  10031 0.132629 # zpl : (5*gz__exp__2*MZpl)/(144.*cmath.pi) 
#===========================================================
# QUANTUM NUMBERS OF NEW STATE(S) (NON SM PDG CODE)
#===========================================================

Block QNUMBERS 10030  # zph 
        1 0  # 3 times electric charge
        2 3  # number of spin states (2S+1)
        3 1  # colour rep (1: singlet, 3: triplet, 8: octet)
        4 0  # Particle/Antiparticle distinction (0=own anti)
Block QNUMBERS 10031  # zpl 
        1 0  # 3 times electric charge
        2 3  # number of spin states (2S+1)
        3 1  # colour rep (1: singlet, 3: triplet, 8: octet)
        4 0  # Particle/Antiparticle distinction (0=own anti)
</slha>
## END BANNER##
<MGGenerationInfo>
#  Number of Events        :         3928
#  Integrated weight (pb)  :  0.18651E-01
#  Max wgt                 :  0.70718E-05
#  Average wgt             :  0.47482E-05
</MGGenerationInfo>
</header>
<init>
     2212     2212  0.40000000000E+04  0.40000000000E+04 0 0  247000  247000 2   1
  0.18652045415E-01  0.67675793112E-04  0.70718210000E-05   0
</init>
<event>
 5   0  0.6445331E-05  0.2142344E+04  0.7818609E-02  0.8542816E-01
       -2   -1    0    0    0  501  0.00000000000E+00  0.00000000000E+00  0.70667717700E+03  0.70667717700E+03  0.25500000920E-02 0.  1.
        2   -1    0    0  501    0  0.00000000000E+00  0.00000000000E+00 -0.16236686193E+04  0.16236686193E+04  0.25500000920E-02 0. -1.
    10030    2    1    2    0    0  0.00000000000E+00  0.00000000000E+00 -0.91699144229E+03  0.23303457963E+04  0.21423440959E+04 0.  0.
        1    1    3    3  502    0 -0.29018463718E+03  0.54227930838E+03  0.49546961762E+03  0.78978738528E+03  0.50400001928E-02 0.  1.
       -1    1    3    3    0  502  0.29018463718E+03 -0.54227930838E+03 -0.14124610599E+04  0.15405584110E+04  0.50400001928E-02 0. -1.
</event>
<event>
 5   0  0.6445331E-05  0.2626947E+04  0.7818609E-02  0.8359105E-01
        2   -1    0    0  501    0  0.00000000000E+00  0.00000000000E+00  0.16611046029E+04  0.16611046029E+04  0.25500000920E-02 0.  1.
       -2   -1    0    0    0  501  0.00000000000E+00  0.00000000000E+00 -0.10385933482E+04  0.10385933482E+04  0.25500000920E-02 0. -1.
    10030    2    1    2    0    0  0.00000000000E+00  0.00000000000E+00  0.62251125476E+03  0.26996979511E+04  0.26269466620E+04 0.  0.
        1    1    3    3  502    0 -0.18311433337E+03  0.12916120395E+04  0.46852868220E+03  0.13861138646E+04  0.50400001928E-02 0. -1.
       -1    1    3    3    0  502  0.18311433337E+03 -0.12916120395E+04  0.15398257255E+03  0.13135840865E+04  0.50400001928E-02 0.  1.
</event>
<event>
 5   0  0.6827859E-05  0.2472282E+04  0.7818609E-02  0.8412927E-01
        2   -1    0    0  501    0  0.00000000000E+00  0.00000000000E+00  0.16302261671E+04  0.16302261671E+04  0.25500000920E-02 0.  1.
       -2   -1    0    0    0  501  0.00000000000E+00  0.00000000000E+00 -0.93732077203E+03  0.93732077203E+03  0.25500000920E-02 0. -1.
    10030    2    1    2    0    0  0.00000000000E+00  0.00000000000E+00  0.69290539511E+03  0.25675469392E+04  0.24722822246E+04 0.  0.
        3    1    3    3  502    0  0.12010885285E+04 -0.28654592666E+03  0.28658941274E+03  0.12676181299E+04  0.10100000352E+00 0.  1.
       -3    1    3    3    0  502 -0.12010885285E+04  0.28654592666E+03  0.40631598237E+03  0.12999288093E+04  0.10100000352E+00 0. -1.
</event>
<event>
 5   0  0.6445331E-05  0.2335950E+04  0.7818609E-02  0.8463880E-01
        2   -1    0    0  501    0  0.00000000000E+00  0.00000000000E+00  0.56877060292E+03  0.56877060292E+03  0.25500000920E-02 0. -1.
       -2   -1    0    0    0  501  0.00000000000E+00  0.00000000000E+00 -0.23984460291E+04  0.23984460291E+04  0.25500000920E-02 0.  1.
    10030    2    1    2    0    0  0.00000000000E+00  0.00000000000E+00 -0.18296754262E+04  0.29672166320E+04  0.23359499944E+04 0.  0.
        1    1    3    3  502    0 -0.63022594375E+03  0.87176832895E+03 -0.33691234115E+03  0.11272420704E+04  0.50400001928E-02 0. -1.
       -1    1    3    3    0  502  0.63022594375E+03 -0.87176832895E+03 -0.14927630850E+04  0.18399745617E+04  0.50400001928E-02 0.  1.
</event>
<event>
 5   0  0.6827859E-05  0.2446287E+04  0.7818609E-02  0.8422375E-01
        2   -1    0    0  501    0  0.00000000000E+00  0.00000000000E+00  0.15714688138E+04  0.15714688138E+04  0.25500000920E-02 0. -1.
       -2   -1    0    0    0  501  0.00000000000E+00  0.00000000000E+00 -0.95202685256E+03  0.95202685256E+03  0.25500000920E-02 0.  1.
    10030    2    1    2    0    0  0.00000000000E+00  0.00000000000E+00  0.61944196121E+03  0.25234956663E+04  0.24462873982E+04 0.  0.
        3    1    3    3  502    0  0.31044810321E+03 -0.74197695080E+03  0.12603106524E+04  0.14950888840E+04  0.10100000352E+00 0. -1.
       -3    1    3    3    0  502 -0.31044810321E+03  0.74197695080E+03 -0.64086869122E+03  0.10284067823E+04  0.10100000352E+00 0.  1.
</event>
<event>
 5   0  0.2977854E-05  0.2492878E+04  0.7818609E-02  0.8405527E-01
       -1   -1    0    0    0  501  0.00000000000E+00  0.00000000000E+00  0.10398482359E+04  0.10398482360E+04  0.50400001928E-02 0. -1.
        1   -1    0    0  501    0  0.00000000000E+00  0.00000000000E+00 -0.14940740202E+04  0.14940740202E+04  0.50400001928E-02 0.  1.
    10030    2    1    2    0    0  0.00000000000E+00  0.00000000000E+00 -0.45422578427E+03  0.25339222562E+04  0.24928780430E+04 0.  0.
        1    1    3    3  502    0 -0.74454796578E+03  0.88124421822E+03  0.25253259953E+03  0.11809808463E+04  0.50400001928E-02 0. -1.
       -1    1    3    3    0  502  0.74454796578E+03 -0.88124421822E+03 -0.70675838380E+03  0.13529414099E+04  0.50400001928E-02 0.  1.
</event>
<event>
 5   0  0.2777539E-05  0.2474271E+04  0.7818609E-02  0.8412209E-01
        1   -1    0    0  501    0  0.00000000000E+00  0.00000000000E+00  0.10212827679E+04  0.10212827680E+04  0.50400001928E-02 0. -1.
       -1   -1    0    0    0  501  0.00000000000E+00  0.00000000000E+00 -0.14986101786E+04  0.14986101786E+04  0.50400001928E-02 0.  1.
    10030    2    1    2    0    0  0.00000000000E+00  0.00000000000E+00 -0.47732741068E+03  0.25198929466E+04  0.24742714090E+04 0.  0.
        3    1    3    3  502    0  0.95502195637E+02 -0.11300861792E+04 -0.74203329657E+03  0.13552965968E+04  0.10100000352E+00 0.  1.
       -3    1    3    3    0  502 -0.95502195637E+02  0.11300861792E+04  0.26470588590E+03  0.11645963498E+04  0.10100000352E+00 0. -1.
</event>
<event>
 5   0  0.6445331E-05  0.2080903E+04  0.7818609E-02  0.8569703E-01
       -2   -1    0    0    0  501  0.00000000000E+00  0.00000000000E+00  0.79558546501E+03  0.79558546502E+03  0.25500000920E-02 0. -1.
        2   -1    0    0  501    0  0.00000000000E+00  0.00000000000E+00 -0.13606826183E+04  0.13606826183E+04  0.25500000920E-02 0.  1.
    10030    2    1    2    0    0  0.00000000000E+00  0.00000000000E+00 -0.56509715324E+03  0.21562680833E+04  0.20809029901E+04 0.  0.
        1    1    3    3  502    0  0.43574374762E+03  0.12678657218E+03  0.68762543832E+03  0.82387874831E+03  0.50400001928E-02 0. -1.
       -1    1    3    3    0  502 -0.43574374762E+03 -0.12678657218E+03 -0.12527225916E+04  0.13323893350E+04  0.50400001928E-02 0.  1.
</event>
<event>
 5   0  0.2793920E-05  0.2522785E+04  0.7818609E-02  0.8394913E-01
        1   -1    0    0  501    0  0.00000000000E+00  0.00000000000E+00  0.21188843710E+04  0.21188843710E+04  0.50400001928E-02 0. -1.
       -1   -1    0    0    0  501  0.00000000000E+00  0.00000000000E+00 -0.75091940482E+03  0.75091940483E+03  0.50400001928E-02 0.  1.
    10030    2    1    2    0    0  0.00000000000E+00  0.00000000000E+00  0.13679649661E+04  0.28698037758E+04  0.25227852788E+04 0.  0.
        2    1    3    3  502    0  0.77337748393E+03 -0.32328415822E+03 -0.38827037313E+03  0.92378529013E+03  0.25500000920E-02 0.  1.
       -2    1    3    3    0  502 -0.77337748393E+03  0.32328415822E+03  0.17562353393E+04  0.19460184857E+04  0.25500000920E-02 0. -1.
</event>
<event>
 5   0  0.6445331E-05  0.2505029E+04  0.7818609E-02  0.8401196E-01
       -2   -1    0    0    0  501  0.00000000000E+00  0.00000000000E+00  0.95323811558E+03  0.95323811558E+03  0.25500000920E-02 0. -1.
        2   -1    0    0  501    0  0.00000000000E+00  0.00000000000E+00 -0.16457507591E+04  0.16457507591E+04  0.25500000920E-02 0.  1.
    10030    2    1    2    0    0  0.00000000000E+00  0.00000000000E+00 -0.69251264349E+03  0.25989888746E+04  0.25050288240E+04 0.  0.
        1    1    3    3  502    0 -0.10506220802E+04  0.47286215400E+03 -0.85599620355E+03  0.14353169937E+04  0.50400001928E-02 0.  1.
       -1    1    3    3    0  502  0.10506220802E+04 -0.47286215400E+03  0.16348356006E+03  0.11636718809E+04  0.50400001928E-02 0. -1.
</event>
<event>
 5   0  0.2331375E-05  0.1945698E+04  0.7818609E-02  0.8632438E-01
       -4   -1    0    0    0  501  0.00000000000E+00  0.00000000000E+00  0.93492989993E+03  0.93493076251E+03  0.12699999809E+01 0. -1.
        4   -1    0    0  501    0  0.00000000000E+00  0.00000000000E+00 -0.10123039829E+04  0.10123047795E+04  0.12699999809E+01 0.  1.
    10030    2    1    2    0    0  0.00000000000E+00  0.00000000000E+00 -0.77374082967E+02  0.19472355421E+04  0.19456976917E+04 0.  0.
        5    1    3    3  502    0  0.10687728176E+03  0.62575955698E+03  0.69906248514E+03  0.94430303645E+03  0.46999998093E+01 0. -1.
       -5    1    3    3    0  502 -0.10687728176E+03 -0.62575955698E+03 -0.77643656811E+03  0.10029325056E+04  0.46999998093E+01 0.  1.
</event>
<event>
 5   0  0.7071821E-05  0.2454659E+04  0.7818609E-02  0.8419319E-01
       -2   -1    0    0    0  501  0.00000000000E+00  0.00000000000E+00  0.11142816800E+04  0.11142816800E+04  0.25500000920E-02 0.  1.
        2   -1    0    0  501    0  0.00000000000E+00  0.00000000000E+00 -0.13518467923E+04  0.13518467923E+04  0.25500000920E-02 0. -1.
    10030    2    1    2    0    0  0.00000000000E+00  0.00000000000E+00 -0.23756511231E+03  0.24661284723E+04  0.24546593367E+04 0.  0.
        5    1    3    3  502    0 -0.36857572394E+02  0.32269432189E+03  0.10703124450E+04  0.11185172891E+04  0.46999998093E+01 0.  1.
       -5    1    3    3    0  502  0.36857572394E+02 -0.32269432189E+03 -0.13078775573E+04  0.13476111832E+04  0.46999998093E+01 0. -1.
</event>
<event>
 5   0  0.2980790E-05  0.2499484E+04  0.7818609E-02  0.8403169E-01
       -1   -1    0    0    0  501  0.00000000000E+00  0.00000000000E+00  0.11151537623E+04  0.11151537623E+04  0.50400001928E-02 0.  1.
        1   -1    0    0  501    0  0.00000000000E+00  0.00000000000E+00 -0.14005736993E+04  0.14005736993E+04  0.50400001928E-02 0. -1.
    10030    2    1    2    0    0  0.00000000000E+00  0.00000000000E+00 -0.28541993702E+03  0.25157274616E+04  0.24994839709E+04 0.  0.
        5    1    3    3  502    0 -0.69932609998E+03  0.10163641899E+04  0.58034885145E+02  0.12350883768E+04  0.46999998093E+01 0.  1.
       -5    1    3    3    0  502  0.69932609998E+03 -0.10163641899E+04 -0.34345482216E+03  0.12806390848E+04  0.46999998093E+01 0. -1.
</event>
<event>
 5   0  0.2977854E-05  0.2426635E+04  0.7818609E-02  0.8429599E-01
        1   -1    0    0  501    0  0.00000000000E+00  0.00000000000E+00  0.11275296517E+04  0.11275296517E+04  0.50400001928E-02 0.  1.
       -1   -1    0    0    0  501  0.00000000000E+00  0.00000000000E+00 -0.13056323848E+04  0.13056323848E+04  0.50400001928E-02 0. -1.
    10030    2    1    2    0    0  0.00000000000E+00  0.00000000000E+00 -0.17810273307E+03  0.24331620366E+04  0.24266348948E+04 0.  0.
        1    1    3    3  502    0  0.69828772539E+03 -0.72549181618E+02  0.90319116763E+03  0.11439507929E+04  0.50400001928E-02 0.  1.
       -1    1    3    3    0  502 -0.69828772539E+03  0.72549181618E+02 -0.10812939007E+04  0.12892112437E+04  0.50400001928E-02 0. -1.
</event>
<event>
 5   0  0.2777539E-05  0.2558102E+04  0.7818609E-02  0.8382574E-01
        1   -1    0    0  501    0  0.00000000000E+00  0.00000000000E+00  0.19678378091E+04  0.19678378091E+04  0.50400001928E-02 0. -1.
       -1   -1    0    0    0  501  0.00000000000E+00  0.00000000000E+00 -0.83135479984E+03  0.83135479986E+03  0.50400001928E-02 0.  1.
    10030    2    1    2    0    0  0.00000000000E+00  0.00000000000E+00  0.11364830093E+04  0.27991926090E+04  0.25581019588E+04 0.  0.
        3    1    3    3  502    0 -0.88085609232E+03  0.94767941966E+02  0.15777288640E+04  0.18094520709E+04  0.10100000352E+00 0. -1.
       -3    1    3    3    0  502  0.88085609232E+03 -0.94767941966E+02 -0.44124585476E+03  0.98974053810E+03  0.10100000352E+00 0.  1.
</event>
<event>
 5   0  0.2777539E-05  0.2462639E+04  0.7818609E-02  0.8416418E-01
        1   -1    0    0  501    0  0.00000000000E+00  0.00000000000E+00  0.13164453865E+04  0.13164453865E+04  0.50400001928E-02 0. -1.
       -1   -1    0    0    0  501  0.00000000000E+00  0.00000000000E+00 -0.11516978578E+04  0.11516978578E+04  0.50400001928E-02 0.  1.
    10030    2    1    2    0    0  0.00000000000E+00  0.00000000000E+00  0.16474752876E+03  0.24681432443E+04  0.24626386918E+04 0.  0.
        3    1    3    3  502    0 -0.90257581103E+03 -0.79570894687E+03 -0.17965181088E+03  0.12165815247E+04  0.10100000352E+00 0.  1.
       -3    1    3    3    0  502  0.90257581103E+03  0.79570894687E+03  0.34439933964E+03  0.12515617197E+04  0.10100000352E+00 0. -1.
</event>
<event>
 5   0  0.6445331E-05  0.2531925E+04  0.7818609E-02  0.8391700E-01
       -2   -1    0    0    0  501  0.00000000000E+00  0.00000000000E+00  0.91279742305E+03  0.91279742305E+03  0.25500000920E-02 0.  1.
        2   -1    0    0  501    0  0.00000000000E+00  0.00000000000E+00 -0.17557686536E+04  0.17557686536E+04  0.25500000920E-02 0. -1.
    10030    2    1    2    0    0  0.00000000000E+00  0.00000000000E+00 -0.84297123051E+03  0.26685660766E+04  0.25319250403E+04 0.  0.
        1    1    3    3  502    0  0.54127417837E+03  0.10617514639E+04 -0.87157676810E+03  0.14764619771E+04  0.50400001928E-02 0. -1.
       -1    1    3    3    0  502 -0.54127417837E+03 -0.10617514639E+04  0.28605537591E+02  0.11921040995E+04  0.50400001928E-02 0.  1.
</event>
<event>
 5   0  0.2896652E-05  0.2541527E+04  0.7818609E-02  0.8388339E-01
       -1   -1    0    0    0  501  0.00000000000E+00  0.00000000000E+00  0.27743973949E+04  0.27743973949E+04  0.50400001928E-02 0. -1.
        1   -1    0    0  501    0  0.00000000000E+00  0.00000000000E+00 -0.58205089030E+03  0.58205089032E+03  0.50400001928E-02 0.  1.
    10030    2    1    2    0    0  0.00000000000E+00  0.00000000000E+00  0.21923465046E+04  0.33564482853E+04  0.25415274728E+04 0.  0.
        4    1    3    3  502    0  0.52063498707E+03 -0.34141557479E+03  0.25591762279E+04  0.26338204120E+04  0.12699999809E+01 0. -1.
       -4    1    3    3    0  502 -0.52063498707E+03  0.34141557479E+03 -0.36682972323E+03  0.72262787326E+03  0.12699999809E+01 0.  1.
</event>
<event>
 5   0  0.2977854E-05  0.2518509E+04  0.7818609E-02  0.8396421E-01
        1   -1    0    0  501    0  0.00000000000E+00  0.00000000000E+00  0.10250496985E+04  0.10250496985E+04  0.50400001928E-02 0.  1.
       -1   -1    0    0    0  501  0.00000000000E+00  0.00000000000E+00 -0.15469710306E+04  0.15469710306E+04  0.50400001928E-02 0. -1.
    10030    2    1    2    0    0  0.00000000000E+00  0.00000000000E+00 -0.52192133207E+03  0.25720207291E+04  0.25185092325E+04 0.  0.
        1    1    3    3  502    0 -0.12169941982E+04 -0.31436055384E+03 -0.18301900756E+03  0.12701942346E+04  0.50400001928E-02 0. -1.
       -1    1    3    3    0  502  0.12169941982E+04  0.31436055384E+03 -0.33890232451E+03  0.13018264946E+04  0.50400001928E-02 0.  1.
</event>
<event>
 5   0  0.6648328E-05  0.2548109E+04  0.7818609E-02  0.8386044E-01
        2   -1    0    0  501    0  0.00000000000E+00  0.00000000000E+00  0.96911436331E+03  0.96911436331E+03  0.25500000920E-02 0. -1.
       -2   -1    0    0    0  501  0.00000000000E+00  0.00000000000E+00 -0.16749472452E+04  0.16749472452E+04  0.25500000920E-02 0.  1.
    10030    2    1    2    0    0  0.00000000000E+00  0.00000000000E+00 -0.70583288193E+03  0.26440616085E+04  0.25481094428E+04 0.  0.
        2    1    3    3  502    0 -0.58507539061E+02  0.12378742133E+04 -0.65978865501E+03  0.14039504156E+04  0.25500000920E-02 0.  1.
       -2    1    3    3    0  502  0.58507539061E+02 -0.12378742133E+04 -0.46044226919E+02  0.12401111930E+04  0.25500000920E-02 0. -1.
</event>
<event>
 5   0  0.2777539E-05  0.2460580E+04  0.7818609E-02  0.8417165E-01
       -1   -1    0    0    0  501  0.00000000000E+00  0.00000000000E+00  0.96485248339E+03  0.96485248340E+03  0.50400001928E-02 0. -1.
        1   -1    0    0  501    0  0.00000000000E+00  0.00000000000E+00 -0.15687514601E+04  0.15687514601E+04  0.50400001928E-02 0.  1.
    10030    2    1    2    0    0  0.00000000000E+00  0.00000000000E+00 -0.60389897674E+03  0.25336039435E+04  0.24605802098E+04 0.  0.
        3    1    3    3  502    0 -0.30255233016E+03  0.14016874356E+03 -0.15213365166E+04  0.15574498374E+04  0.10100000352E+00 0.  1.
       -3    1    3    3    0  502  0.30255233016E+03 -0.14016874356E+03  0.91743753986E+03  0.97615410612E+03  0.10100000352E+00 0. -1.
</event>
<event>
 5   0  0.6827859E-05  0.2116410E+04  0.7818609E-02  0.8554049E-01
        2   -1    0    0  501    0  0.00000000000E+00  0.00000000000E+00  0.11675063613E+04  0.11675063613E+04  0.25500000920E-02 0. -1.
       -2   -1    0    0    0  501  0.00000000000E+00  0.00000000000E+00 -0.95913668022E+03  0.95913668022E+03  0.25500000920E-02 0.  1.
    10030    2    1    2    0    0  0.00000000000E+00  0.00000000000E+00  0.20836968106E+03  0.21266430415E+04  0.21164103340E+04 0.  0.
        3    1    3    3  502    0  0.96816847281E+03 -0.47489414925E+02 -0.32235868804E+03  0.10215285460E+04  0.10100000352E+00 0. -1.
       -3    1    3    3    0  502 -0.96816847281E+03  0.47489414925E+02  0.53072836911E+03  0.11051144955E+04  0.10100000352E+00 0.  1.
</event>
<event>
 5   0  0.2977854E-05  0.2443466E+04  0.7818609E-02  0.8423408E-01
       -1   -1    0    0    0  501  0.00000000000E+00  0.00000000000E+00  0.11051114750E+04  0.11051114750E+04  0.50400001928E-02 0. -1.
        1   -1    0    0  501    0  0.00000000000E+00  0.00000000000E+00 -0.13506610162E+04  0.13506610162E+04  0.50400001928E-02 0.  1.
    10030    2    1    2    0    0  0.00000000000E+00  0.00000000000E+00 -0.24554954120E+03  0.24557724913E+04  0.24434655618E+04 0.  0.
        1    1    3    3  502    0 -0.82227442035E+03 -0.28381421352E+03  0.73941856845E+03  0.11416766397E+04  0.50400001928E-02 0. -1.
       -1    1    3    3    0  502  0.82227442035E+03  0.28381421352E+03 -0.98496810965E+03  0.13140958516E+04  0.50400001928E-02 0.  1.
</event>
<event>
 5   0  0.6648328E-05  0.2456044E+04  0.7818609E-02  0.8418815E-01
        2   -1    0    0  501    0  0.00000000000E+00  0.00000000000E+00  0.19030463074E+04  0.19030463074E+04  0.25500000920E-02 0. -1.
       -2   -1    0    0    0  501  0.00000000000E+00  0.00000000000E+00 -0.79243338270E+03  0.79243338271E+03  0.25500000920E-02 0.  1.
    10030    2    1    2    0    0  0.00000000000E+00  0.00000000000E+00  0.11106129247E+04  0.26954796901E+04  0.24560435035E+04 0.  0.
        2    1    3    3  502    0 -0.79207215398E+02 -0.11013080417E+04 -0.34571174027E+02  0.11046937819E+04  0.25500000920E-02 0.  1.
       -2    1    3    3    0  502  0.79207215398E+02  0.11013080417E+04  0.11451840987E+04  0.15907859082E+04  0.25500000920E-02 0. -1.
</event>
<event>
 5   0  0.2793920E-05  0.2474522E+04  0.7818609E-02  0.8412119E-01
       -1   -1    0    0    0  501  0.00000000000E+00  0.00000000000E+00  0.13697349930E+04  0.13697349930E+04  0.50400001928E-02 0. -1.
        1   -1    0    0  501    0  0.00000000000E+00  0.00000000000E+00 -0.11175994239E+04  0.11175994240E+04  0.50400001928E-02 0.  1.
    10030    2    1    2    0    0  0.00000000000E+00  0.00000000000E+00  0.25213556903E+03  0.24873344169E+04  0.24745222077E+04 0.  0.
        2    1    3    3  502    0 -0.48694675390E+03  0.11129937318E+04 -0.10954476534E+03  0.12197836872E+04  0.25500000920E-02 0.  1.
       -2    1    3    3    0  502  0.48694675390E+03 -0.11129937318E+04  0.36168033436E+03  0.12675507297E+04  0.25500000920E-02 0. -1.
</event>
<event>
 5   0  0.6827859E-05  0.2499157E+04  0.7818609E-02  0.8403286E-01
        2   -1    0    0  501    0  0.00000000000E+00  0.00000000000E+00  0.10589956938E+04  0.10589956938E+04  0.25500000920E-02 0.  1.
       -2   -1    0    0    0  501  0.00000000000E+00  0.00000000000E+00 -0.14744591002E+04  0.14744591002E+04  0.25500000920E-02 0. -1.
    10030    2    1    2    0    0  0.00000000000E+00  0.00000000000E+00 -0.41546340644E+03  0.25334547941E+04  0.24991565280E+04 0.  0.
        3    1    3    3  502    0 -0.74759951515E+03 -0.89667304142E+03  0.24393691799E+03  0.11926578757E+04  0.10100000352E+00 0.  1.
       -3    1    3    3    0  502  0.74759951515E+03  0.89667304142E+03 -0.65940032443E+03  0.13407969184E+04  0.10100000352E+00 0. -1.
</event>
<event>
 5   0  0.7071821E-05  0.2515189E+04  0.7818609E-02  0.8397594E-01
        2   -1    0    0  501    0  0.00000000000E+00  0.00000000000E+00  0.20828003845E+04  0.20828003845E+04  0.25500000920E-02 0. -1.
       -2   -1    0    0    0  501  0.00000000000E+00  0.00000000000E+00 -0.75933521177E+03  0.75933521177E+03  0.25500000920E-02 0.  1.
    10030    2    1    2    0    0  0.00000000000E+00  0.00000000000E+00  0.13234651727E+04  0.28421355963E+04  0.25151887969E+04 0.  0.
        5    1    3    3  502    0  0.12175834202E+04  0.55123366443E+02  0.31166643464E+03  0.12580564483E+04  0.46999998093E+01 0.  1.
       -5    1    3    3    0  502 -0.12175834202E+04 -0.55123366443E+02  0.10117987381E+04  0.15840791480E+04  0.46999998093E+01 0. -1.
</event>
<event>
 5   0  0.2793920E-05  0.2556261E+04  0.7818609E-02  0.8383212E-01
       -1   -1    0    0    0  501  0.00000000000E+00  0.00000000000E+00  0.11172377419E+04  0.11172377419E+04  0.50400001928E-02 0. -1.
        1   -1    0    0  501    0  0.00000000000E+00  0.00000000000E+00 -0.14621929865E+04  0.14621929865E+04  0.50400001928E-02 0.  1.
    10030    2    1    2    0    0  0.00000000000E+00  0.00000000000E+00 -0.34495524460E+03  0.25794307284E+04  0.25562606991E+04 0.  0.
        2    1    3    3  502    0  0.80186539027E+03  0.51847252932E+03  0.68482030680E+03  0.11750662621E+04  0.25500000920E-02 0. -1.
       -2    1    3    3    0  502 -0.80186539027E+03 -0.51847252932E+03 -0.10297755514E+04  0.14043644662E+04  0.25500000920E-02 0.  1.
</event>
<event>
 5   0  0.6827859E-05  0.2473748E+04  0.7818609E-02  0.8412398E-01
        2   -1    0    0  501    0  0.00000000000E+00  0.00000000000E+00  0.89021325743E+03  0.89021325744E+03  0.25500000920E-02 0. -1.
       -2   -1    0    0    0  501  0.00000000000E+00  0.00000000000E+00 -0.17185293904E+04  0.17185293904E+04  0.25500000920E-02 0.  1.
    10030    2    1    2    0    0  0.00000000000E+00  0.00000000000E+00 -0.82831613292E+03  0.26087426478E+04  0.24737482868E+04 0.  0.
        3    1    3    3  502    0  0.12234014395E+04 -0.13173434495E+03 -0.28163155133E+03  0.12622921059E+04  0.10100000352E+00 0. -1.
       -3    1    3    3    0  502 -0.12234014395E+04  0.13173434495E+03 -0.54668458160E+03  0.13464505419E+04  0.10100000352E+00 0.  1.
</event>
<event>
 5   0  0.6445331E-05  0.2298076E+04  0.7818609E-02  0.8478680E-01
        2   -1    0    0  501    0  0.00000000000E+00  0.00000000000E+00  0.10953279582E+04  0.10953279582E+04  0.25500000920E-02 0.  1.
       -2   -1    0    0    0  501  0.00000000000E+00  0.00000000000E+00 -0.12053815457E+04  0.12053815457E+04  0.25500000920E-02 0. -1.
    10030    2    1    2    0    0  0.00000000000E+00  0.00000000000E+00 -0.11005358747E+03  0.23007095039E+04  0.22980758101E+04 0.  0.
        1    1    3    3  502    0 -0.87629229172E+03  0.64875562682E+03  0.30804025553E+03  0.11329875740E+04  0.50400001928E-02 0. -1.
       -1    1    3    3    0  502  0.87629229172E+03 -0.64875562682E+03 -0.41809384301E+03  0.11677219298E+04  0.50400001928E-02 0.  1.
</event>
<event>
 5   0  0.2980790E-05  0.2466761E+04  0.7818609E-02  0.8414924E-01
        1   -1    0    0  501    0  0.00000000000E+00  0.00000000000E+00  0.94620232784E+03  0.94620232785E+03  0.50400001928E-02 0.  1.
       -1   -1    0    0    0  501  0.00000000000E+00  0.00000000000E+00 -0.16077186609E+04  0.16077186609E+04  0.50400001928E-02 0. -1.
    10030    2    1    2    0    0  0.00000000000E+00  0.00000000000E+00 -0.66151633307E+03  0.25539209888E+04  0.24667607419E+04 0.  0.
        5    1    3    3  502    0  0.87992734209E+03 -0.31795775648E+03 -0.11627929500E+04  0.14924740523E+04  0.46999998093E+01 0. -1.
       -5    1    3    3    0  502 -0.87992734209E+03  0.31795775648E+03  0.50127661691E+03  0.10614469365E+04  0.46999998093E+01 0.  1.
</event>
<event>
 5   0  0.6827859E-05  0.2502144E+04  0.7818609E-02  0.8402222E-01
        2   -1    0    0  501    0  0.00000000000E+00  0.00000000000E+00  0.26284705555E+04  0.26284705555E+04  0.25500000920E-02 0.  1.
       -2   -1    0    0    0  501  0.00000000000E+00  0.00000000000E+00 -0.59547239166E+03  0.59547239167E+03  0.25500000920E-02 0. -1.
    10030    2    1    2    0    0  0.00000000000E+00  0.00000000000E+00  0.20329981638E+04  0.32239429471E+04  0.25021443988E+04 0.  0.
        3    1    3    3  502    0 -0.53549495173E+03  0.45307256753E+03 -0.31826836663E+03  0.77027550796E+03  0.10100000352E+00 0. -1.
       -3    1    3    3    0  502  0.53549495173E+03 -0.45307256753E+03  0.23512665304E+04  0.24536674392E+04  0.10100000352E+00 0.  1.
</event>
<event>
 5   0  0.2896652E-05  0.2467869E+04  0.7818609E-02  0.8414523E-01
       -1   -1    0    0    0  501  0.00000000000E+00  0.00000000000E+00  0.95342101499E+03  0.95342101501E+03  0.50400001928E-02 0.  1.
        1   -1    0    0  501    0  0.00000000000E+00  0.00000000000E+00 -0.15969796092E+04  0.15969796092E+04  0.50400001928E-02 0. -1.
    10030    2    1    2    0    0  0.00000000000E+00  0.00000000000E+00 -0.64355859424E+03  0.25504006243E+04  0.24678686513E+04 0.  0.
        4    1    3    3  502    0 -0.41286380859E+03 -0.37752951390E+03  0.81482306718E+03  0.98839430493E+03  0.12699999809E+01 0.  1.
       -4    1    3    3    0  502  0.41286380859E+03  0.37752951390E+03 -0.14583816614E+04  0.15620063193E+04  0.12699999809E+01 0. -1.
</event>
<event>
 5   0  0.2977854E-05  0.1945408E+04  0.7818609E-02  0.8632578E-01
       -1   -1    0    0    0  501  0.00000000000E+00  0.00000000000E+00  0.88275716221E+03  0.88275716223E+03  0.50400001928E-02 0.  1.
        1   -1    0    0  501    0  0.00000000000E+00  0.00000000000E+00 -0.10718156728E+04  0.10718156728E+04  0.50400001928E-02 0. -1.
    10030    2    1    2    0    0  0.00000000000E+00  0.00000000000E+00 -0.18905851059E+03  0.19545728350E+04  0.19454078871E+04 0.  0.
        1    1    3    3  502    0  0.28519607009E+03 -0.81435314018E+03  0.35663538138E+03  0.93364695180E+03  0.50400001928E-02 0.  1.
       -1    1    3    3    0  502 -0.28519607009E+03  0.81435314018E+03 -0.54569389197E+03  0.10209258832E+04  0.50400001928E-02 0. -1.
</event>
<event>
 5   0  0.2777539E-05  0.2858947E+04  0.7818609E-02  0.8285198E-01
        1   -1    0    0  501    0  0.00000000000E+00  0.00000000000E+00  0.21011083148E+04  0.21011083148E+04  0.50400001928E-02 0.  1.
       -1   -1    0    0    0  501  0.00000000000E+00  0.00000000000E+00 -0.97253184400E+03  0.97253184401E+03  0.50400001928E-02 0. -1.
    10030    2    1    2    0    0  0.00000000000E+00  0.00000000000E+00  0.11285764708E+04  0.30736401589E+04  0.28589471796E+04 0.  0.
        3    1    3    3  502    0 -0.54721127426E+03 -0.12858639514E+04  0.24084992291E+03  0.14180602864E+04  0.10100000352E+00 0.  1.
       -3    1    3    3    0  502  0.54721127426E+03  0.12858639514E+04  0.88772654793E+03  0.16555798725E+04  0.10100000352E+00 0. -1.
</event>
<event>
 5   0  0.6909250E-05  0.2530235E+04  0.7818609E-02  0.8392293E-01
        2   -1    0    0  501    0  0.00000000000E+00  0.00000000000E+00  0.18582126291E+04  0.18582126291E+04  0.25500000920E-02 0. -1.
       -2   -1    0    0    0  501  0.00000000000E+00  0.00000000000E+00 -0.86132342583E+03  0.86132342584E+03  0.25500000920E-02 0.  1.
    10030    2    1    2    0    0  0.00000000000E+00  0.00000000000E+00  0.99688920329E+03  0.27195360550E+04  0.25302348252E+04 0.  0.
        4    1    3    3  502    0  0.58078359693E+03  0.87002297375E+03  0.12632051428E+04  0.16401031697E+04  0.12699999809E+01 0. -1.
       -4    1    3    3    0  502 -0.58078359693E+03 -0.87002297375E+03 -0.26631593955E+03  0.10794328853E+04  0.12699999809E+01 0.  1.
</event>
<event>
 5   0  0.6909250E-05  0.2346607E+04  0.7818609E-02  0.8459768E-01
       -2   -1    0    0    0  501  0.00000000000E+00  0.00000000000E+00  0.82963961898E+03  0.82963961899E+03  0.25500000920E-02 0.  1.
        2   -1    0    0  501    0  0.00000000000E+00  0.00000000000E+00 -0.16593244273E+04  0.16593244273E+04  0.25500000920E-02 0. -1.
    10030    2    1    2    0    0  0.00000000000E+00  0.00000000000E+00 -0.82968480830E+03  0.24889640463E+04  0.23466071556E+04 0.  0.
        4    1    3    3  502    0 -0.32195406915E+03  0.17699659529E+03 -0.15967380502E+04  0.16384615441E+04  0.12699999809E+01 0. -1.
       -4    1    3    3    0  502  0.32195406915E+03 -0.17699659529E+03  0.76705324194E+03  0.85050250221E+03  0.12699999809E+01 0.  1.
</event>
<event>
 5   0  0.2793920E-05  0.2471994E+04  0.7818609E-02  0.8413031E-01
       -1   -1    0    0    0  501  0.00000000000E+00  0.00000000000E+00  0.86660472145E+03  0.86660472146E+03  0.50400001928E-02 0. -1.
        1   -1    0    0  501    0  0.00000000000E+00  0.00000000000E+00 -0.17628435388E+04  0.17628435388E+04  0.50400001928E-02 0.  1.
    10030    2    1    2    0    0  0.00000000000E+00  0.00000000000E+00 -0.89623881736E+03  0.26294482603E+04  0.24719939595E+04 0.  0.
        2    1    3    3  502    0 -0.10565983640E+04  0.63113399265E+03 -0.56920472540E+03  0.13559956633E+04  0.25500000920E-02 0.  1.
       -2    1    3    3    0  502  0.10565983640E+04 -0.63113399265E+03 -0.32703409196E+03  0.12734525970E+04  0.25500000920E-02 0. -1.
</event>
<event>
 5   0  0.2777539E-05  0.2511186E+04  0.7818609E-02  0.8399011E-01
        1   -1    0    0  501    0  0.00000000000E+00  0.00000000000E+00  0.16334029749E+04  0.16334029749E+04  0.50400001928E-02 0.  1.
       -1   -1    0    0    0  501  0.00000000000E+00  0.00000000000E+00 -0.96517102181E+03  0.96517102182E+03  0.50400001928E-02 0. -1.
    10030    2    1    2    0    0  0.00000000000E+00  0.00000000000E+00  0.66823195307E+03  0.25985739967E+04  0.25111855513E+04 0.  0.
        3    1    3    3  502    0 -0.11742465516E+04  0.40851750642E+03  0.51563910418E+03  0.13459662749E+04  0.10100000352E+00 0.  1.
       -3    1    3    3    0  502  0.11742465516E+04 -0.40851750642E+03  0.15259284889E+03  0.12526077218E+04  0.10100000352E+00 0. -1.
</event>
<event>
 5   0  0.2980790E-05  0.2488591E+04  0.7818609E-02  0.8407061E-01
        1   -1    0    0  501    0  0.00000000000E+00  0.00000000000E+00  0.78673475851E+03  0.78673475853E+03  0.50400001928E-02 0. -1.
       -1   -1    0    0    0  501  0.00000000000E+00  0.00000000000E+00 -0.19679714346E+04  0.19679714346E+04  0.50400001928E-02 0.  1.
    10030    2    1    2    0    0  0.00000000000E+00  0.00000000000E+00 -0.11812366761E+04  0.27547061932E+04  0.24885911929E+04 0.  0.
        5    1    3    3  502    0 -0.62121925734E+03 -0.17752999620E+03 -0.17677317494E+04  0.18821073012E+04  0.46999998093E+01 0.  1.
       -5    1    3    3    0  502  0.62121925734E+03  0.17752999620E+03  0.58649507332E+03  0.87259889197E+03  0.46999998093E+01 0. -1.
</event>
<event>
 5   0  0.6648328E-05  0.2508631E+04  0.7818609E-02  0.8399917E-01
        2   -1    0    0  501    0  0.00000000000E+00  0.00000000000E+00  0.19834204816E+04  0.19834204816E+04  0.25500000920E-02 0. -1.
       -2   -1    0    0    0  501  0.00000000000E+00  0.00000000000E+00 -0.79322966666E+03  0.79322966666E+03  0.25500000920E-02 0.  1.
    10030    2    1    2    0    0  0.00000000000E+00  0.00000000000E+00  0.11901908149E+04  0.27766501482E+04  0.25086314735E+04 0.  0.
        2    1    3    3  502    0 -0.12275749453E+04 -0.24384013472E+02  0.31123253854E+03  0.12666493277E+04  0.25500000920E-02 0.  1.
       -2    1    3    3    0  502  0.12275749453E+04  0.24384013472E+02  0.87895827638E+03  0.15100008205E+04  0.25500000920E-02 0. -1.
</event>
<event>
 5   0  0.6827859E-05  0.2466797E+04  0.7818609E-02  0.8414911E-01
       -2   -1    0    0    0  501  0.00000000000E+00  0.00000000000E+00  0.13823245339E+04  0.13823245339E+04  0.25500000920E-02 0. -1.
        2   -1    0    0  501    0  0.00000000000E+00  0.00000000000E+00 -0.11005171102E+04  0.11005171102E+04  0.25500000920E-02 0.  1.
    10030    2    1    2    0    0  0.00000000000E+00  0.00000000000E+00  0.28180742379E+03  0.24828416441E+04  0.24667969526E+04 0.  0.
        3    1    3    3  502    0 -0.57214107246E+03 -0.26225981833E+03  0.12085320465E+04  0.13625987438E+04  0.10100000352E+00 0. -1.
       -3    1    3    3    0  502  0.57214107246E+03  0.26225981833E+03 -0.92672462269E+03  0.11202429003E+04  0.10100000352E+00 0.  1.
</event>
<event>
 5   0  0.6445331E-05  0.1632598E+04  0.7818609E-02  0.8800768E-01
       -2   -1    0    0    0  501  0.00000000000E+00  0.00000000000E+00  0.52308805634E+03  0.52308805635E+03  0.25500000920E-02 0.  1.
        2   -1    0    0  501    0  0.00000000000E+00  0.00000000000E+00 -0.12738661583E+04  0.12738661583E+04  0.25500000920E-02 0. -1.
    10030    2    1    2    0    0  0.00000000000E+00  0.00000000000E+00 -0.75077810193E+03  0.17969542146E+04  0.16325981413E+04 0.  0.
        1    1    3    3  502    0  0.14867308051E+03  0.11379947976E+03  0.49913594288E+03  0.53309539105E+03  0.50400001928E-02 0.  1.
       -1    1    3    3    0  502 -0.14867308051E+03 -0.11379947976E+03 -0.12499140448E+04  0.12638588236E+04  0.50400001928E-02 0. -1.
</event>
<event>
 5   0  0.6648328E-05  0.2458040E+04  0.7818609E-02  0.8418088E-01
       -2   -1    0    0    0  501  0.00000000000E+00  0.00000000000E+00  0.12700357434E+04  0.12700357434E+04  0.25500000920E-02 0.  1.
        2   -1    0    0  501    0  0.00000000000E+00  0.00000000000E+00 -0.11893290679E+04  0.11893290679E+04  0.25500000920E-02 0. -1.
    10030    2    1    2    0    0  0.00000000000E+00  0.00000000000E+00  0.80706675575E+02  0.24593648113E+04  0.24580402168E+04 0.  0.
        2    1    3    3  502    0 -0.82073263956E+03 -0.16287589914E+03  0.94103830781E+03  0.12592393422E+04  0.25500000920E-02 0.  1.
       -2    1    3    3    0  502  0.82073263956E+03  0.16287589914E+03 -0.86033163224E+03  0.12001254691E+04  0.25500000920E-02 0. -1.
</event>
<event>
 5   0  0.6827859E-05  0.2443204E+04  0.7818609E-02  0.8423503E-01
        2   -1    0    0  501    0  0.00000000000E+00  0.00000000000E+00  0.15154423032E+04  0.15154423032E+04  0.25500000920E-02 0.  1.
       -2   -1    0    0    0  501  0.00000000000E+00  0.00000000000E+00 -0.98473687707E+03  0.98473687707E+03  0.25500000920E-02 0. -1.
    10030    2    1    2    0    0  0.00000000000E+00  0.00000000000E+00  0.53070542613E+03  0.25001791803E+04  0.24432043885E+04 0.  0.
        3    1    3    3  502    0  0.11598535693E+03  0.87719210341E+03  0.11272487471E+04  0.14330416384E+04  0.10100000352E+00 0.  1.
       -3    1    3    3    0  502 -0.11598535693E+03 -0.87719210341E+03 -0.59654332097E+03  0.10671375419E+04  0.10100000352E+00 0. -1.
</event>
<event>
 5   0  0.2777539E-05  0.2440090E+04  0.7818609E-02  0.8424645E-01
       -1   -1    0    0    0  501  0.00000000000E+00  0.00000000000E+00  0.17979067005E+04  0.17979067005E+04  0.50400001928E-02 0.  1.
        1   -1    0    0  501    0  0.00000000000E+00  0.00000000000E+00 -0.82791264475E+03  0.82791264477E+03  0.50400001928E-02 0. -1.
    10030    2    1    2    0    0  0.00000000000E+00  0.00000000000E+00  0.96999405574E+03  0.26258193453E+04  0.24400899094E+04 0.  0.
        3    1    3    3  502    0 -0.11642373200E+04 -0.44299342675E+02  0.95361789229E+02  0.11689759835E+04  0.10100000352E+00 0. -1.
       -3    1    3    3    0  502  0.11642373200E+04  0.44299342675E+02  0.87463226651E+03  0.14568433618E+04  0.10100000352E+00 0.  1.
</event>
<event>
 5   0  0.7071821E-05  0.2372423E+04  0.7818609E-02  0.8449901E-01
       -2   -1    0    0    0  501  0.00000000000E+00  0.00000000000E+00  0.47997555515E+03  0.47997555515E+03  0.25500000920E-02 0.  1.
        2   -1    0    0  501    0  0.00000000000E+00  0.00000000000E+00 -0.29316031516E+04  0.29316031516E+04  0.25500000920E-02 0. -1.
    10030    2    1    2    0    0  0.00000000000E+00  0.00000000000E+00 -0.24516275964E+04  0.34115787067E+04  0.23724231074E+04 0.  0.
        5    1    3    3  502    0  0.71702111046E+03  0.19005579620E+03 -0.25569175889E+04  0.26623467326E+04  0.46999998093E+01 0. -1.
       -5    1    3    3    0  502 -0.71702111046E+03 -0.19005579620E+03  0.10528999243E+03  0.74923197411E+03  0.46999998093E+01 0.  1.
</event>
<event>
 5   0  0.2980790E-05  0.2452697E+04  0.7818609E-02  0.8420034E-01
       -1   -1    0    0    0  501  0.00000000000E+00  0.00000000000E+00  0.12271465091E+04  0.12271465091E+04  0.50400001928E-02 0. -1.
        1   -1    0    0  501    0  0.00000000000E+00  0.00000000000E+00 -0.12255507223E+04  0.12255507223E+04  0.50400001928E-02 0.  1.
    10030    2    1    2    0    0  0.00000000000E+00  0.00000000000E+00  0.15957868637E+01  0.24526972314E+04  0.24526967123E+04 0.  0.
        5    1    3    3  502    0 -0.33576273743E+02  0.12165520739E+04 -0.15013883344E+03  0.12262504124E+04  0.46999998093E+01 0.  1.
       -5    1    3    3    0  502  0.33576273743E+02 -0.12165520739E+04  0.15173462031E+03  0.12264468189E+04  0.46999998093E+01 0. -1.
</event>
<event>
 5   0  0.2777539E-05  0.2547123E+04  0.7818609E-02  0.8386387E-01
       -1   -1    0    0    0  501  0.00000000000E+00  0.00000000000E+00  0.12915609753E+04  0.12915609754E+04  0.50400001928E-02 0.  1.
        1   -1    0    0  501    0  0.00000000000E+00  0.00000000000E+00 -0.12558133379E+04  0.12558133379E+04  0.50400001928E-02 0. -1.
    10030    2    1    2    0    0  0.00000000000E+00  0.00000000000E+00  0.35747637480E+02  0.25473743132E+04  0.25471234752E+04 0.  0.
        3    1    3    3  502    0  0.33179537054E+03  0.26613440277E+03  0.12184268746E+04  0.12905346749E+04  0.10100000352E+00 0.  1.
       -3    1    3    3    0  502 -0.33179537054E+03 -0.26613440277E+03 -0.11826792371E+04  0.12568396383E+04  0.10100000352E+00 0. -1.
</event>
<event>
 5   0  0.6827859E-05  0.2509156E+04  0.7818609E-02  0.8399731E-01
       -2   -1    0    0    0  501  0.00000000000E+00  0.00000000000E+00  0.16974838980E+04  0.16974838980E+04  0.25500000920E-02 0.  1.
        2   -1    0    0  501    0  0.00000000000E+00  0.00000000000E+00 -0.92723434730E+03  0.92723434730E+03  0.25500000920E-02 0. -1.
    10030    2    1    2    0    0  0.00000000000E+00  0.00000000000E+00  0.77024955074E+03  0.26247182453E+04  0.25091555346E+04 0.  0.
        3    1    3    3  502    0 -0.12507523304E+04  0.97414516144E+02  0.39528736512E+03  0.13153414352E+04  0.10100000352E+00 0.  1.
       -3    1    3    3    0  502  0.12507523304E+04 -0.97414516144E+02  0.37496218561E+03  0.13093768101E+04  0.10100000352E+00 0. -1.
</event>
<event>
 5   0  0.2977854E-05  0.2453018E+04  0.7818609E-02  0.8419917E-01
       -1   -1    0    0    0  501  0.00000000000E+00  0.00000000000E+00  0.77314598845E+03  0.77314598846E+03  0.50400001928E-02 0. -1.
        1   -1    0    0  501    0  0.00000000000E+00  0.00000000000E+00 -0.19457184777E+04  0.19457184777E+04  0.50400001928E-02 0.  1.
    10030    2    1    2    0    0  0.00000000000E+00  0.00000000000E+00 -0.11725724893E+04  0.27188644662E+04  0.24530180886E+04 0.  0.
        1    1    3    3  502    0 -0.50287140963E+03  0.25174139441E+03 -0.17944005172E+04  0.18804591462E+04  0.50400001928E-02 0.  1.
       -1    1    3    3    0  502  0.50287140963E+03 -0.25174139441E+03  0.62182802793E+03  0.83840532001E+03  0.50400001928E-02 0. -1.
</event>
<event>
 5   0  0.2777539E-05  0.1827200E+04  0.7818609E-02  0.8691967E-01
        1   -1    0    0  501    0  0.00000000000E+00  0.00000000000E+00  0.21663644447E+04  0.21663644447E+04  0.50400001928E-02 0. -1.
       -1   -1    0    0    0  501  0.00000000000E+00  0.00000000000E+00 -0.38528370916E+03  0.38528370920E+03  0.50400001928E-02 0.  1.
    10030    2    1    2    0    0  0.00000000000E+00  0.00000000000E+00  0.17810807355E+04  0.25516481539E+04  0.18271999657E+04 0.  0.
        3    1    3    3  502    0  0.84672468583E+03  0.39147059144E+02  0.13665531197E+04  0.16080866348E+04  0.10100000352E+00 0. -1.
       -3    1    3    3    0  502 -0.84672468583E+03 -0.39147059144E+02  0.41452761581E+03  0.94356151909E+03  0.10100000352E+00 0.  1.
</event>
<event>
 5   0  0.2793920E-05  0.2466445E+04  0.7818609E-02  0.8415038E-01
       -1   -1    0    0    0  501  0.00000000000E+00  0.00000000000E+00  0.68264090475E+03  0.68264090477E+03  0.50400001928E-02 0. -1.
        1   -1    0    0  501    0  0.00000000000E+00  0.00000000000E+00 -0.22278746258E+04  0.22278746258E+04  0.50400001928E-02 0.  1.
    10030    2    1    2    0    0  0.00000000000E+00  0.00000000000E+00 -0.15452337211E+04  0.29105155306E+04  0.24664454993E+04 0.  0.
        2    1    3    3  502    0 -0.88357187098E+03  0.74641314620E+03 -0.26780253330E+03  0.11872447232E+04  0.25500000920E-02 0. -1.
       -2    1    3    3    0  502  0.88357187098E+03 -0.74641314620E+03 -0.12774311878E+04  0.17232708074E+04  0.25500000920E-02 0.  1.
</event>
<event>
 5   0  0.2980790E-05  0.2428338E+04  0.7818609E-02  0.8428970E-01
        1   -1    0    0  501    0  0.00000000000E+00  0.00000000000E+00  0.16612952832E+04  0.16612952832E+04  0.50400001928E-02 0. -1.
       -1   -1    0    0    0  501  0.00000000000E+00  0.00000000000E+00 -0.88738404283E+03  0.88738404284E+03  0.50400001928E-02 0.  1.
    10030    2    1    2    0    0  0.00000000000E+00  0.00000000000E+00  0.77391124037E+03  0.25486793260E+04  0.24283384647E+04 0.  0.
        5    1    3    3  502    0  0.11184604216E+04 -0.12137819470E+03  0.86620040604E+03  0.14198632379E+04  0.46999998093E+01 0. -1.
       -5    1    3    3    0  502 -0.11184604216E+04  0.12137819470E+03 -0.92289165663E+02  0.11288160882E+04  0.46999998093E+01 0.  1.
</event>
<event>
 5   0  0.6909250E-05  0.2450670E+04  0.7818609E-02  0.8420774E-01
        2   -1    0    0  501    0  0.00000000000E+00  0.00000000000E+00  0.17612194064E+04  0.17612194064E+04  0.25500000920E-02 0. -1.
       -2   -1    0    0    0  501  0.00000000000E+00  0.00000000000E+00 -0.85250330515E+03  0.85250330515E+03  0.25500000920E-02 0.  1.
    10030    2    1    2    0    0  0.00000000000E+00  0.00000000000E+00  0.90871610127E+03  0.26137227116E+04  0.24506695943E+04 0.  0.
        4    1    3    3  502    0  0.10176741098E+04  0.18778415570E+03 -0.24543810248E+03  0.10635623902E+04  0.12699999809E+01 0.  1.
       -4    1    3    3    0  502 -0.10176741098E+04 -0.18778415570E+03  0.11541542038E+04  0.15501603213E+04  0.12699999809E+01 0. -1.
</event>
<event>
 5   0  0.6445331E-05  0.2352554E+04  0.7818609E-02  0.8457483E-01
        2   -1    0    0  501    0  0.00000000000E+00  0.00000000000E+00  0.97060348136E+03  0.97060348137E+03  0.25500000920E-02 0.  1.
       -2   -1    0    0    0  501  0.00000000000E+00  0.00000000000E+00 -0.14255333765E+04  0.14255333765E+04  0.25500000920E-02 0. -1.
    10030    2    1    2    0    0  0.00000000000E+00  0.00000000000E+00 -0.45492989517E+03  0.23961368579E+04  0.23525540657E+04 0.  0.
        1    1    3    3  502    0 -0.61119842449E+03  0.13799434882E+03 -0.12414080600E+04  0.13905753938E+04  0.50400001928E-02 0. -1.
       -1    1    3    3    0  502  0.61119842449E+03 -0.13799434882E+03  0.78647816480E+03  0.10055614641E+04  0.50400001928E-02 0.  1.
</event>
<event>
 5   0  0.2896652E-05  0.2456158E+04  0.7818609E-02  0.8418773E-01
       -1   -1    0    0    0  501  0.00000000000E+00  0.00000000000E+00  0.13334323892E+04  0.13334323892E+04  0.50400001928E-02 0.  1.
        1   -1    0    0  501    0  0.00000000000E+00  0.00000000000E+00 -0.11310496383E+04  0.11310496383E+04  0.50400001928E-02 0. -1.
    10030    2    1    2    0    0  0.00000000000E+00  0.00000000000E+00  0.20238275086E+03  0.24644820275E+04  0.24561581558E+04 0.  0.
        4    1    3    3  502    0 -0.87052172750E+03  0.84051158890E+03  0.31144578311E+03  0.12495070619E+04  0.12699999809E+01 0.  1.
       -4    1    3    3    0  502  0.87052172750E+03 -0.84051158890E+03 -0.10906303226E+03  0.12149749656E+04  0.12699999809E+01 0. -1.
</event>
<event>
 5   0  0.6648328E-05  0.2593742E+04  0.7818609E-02  0.8370330E-01
       -2   -1    0    0    0  501  0.00000000000E+00  0.00000000000E+00  0.84412148599E+03  0.84412148600E+03  0.25500000920E-02 0.  1.
        2   -1    0    0  501    0  0.00000000000E+00  0.00000000000E+00 -0.19924554037E+04  0.19924554037E+04  0.25500000920E-02 0. -1.
    10030    2    1    2    0    0  0.00000000000E+00  0.00000000000E+00 -0.11483339178E+04  0.28365768897E+04  0.25937420197E+04 0.  0.
        2    1    3    3  502    0 -0.41395984242E+03 -0.72250098539E+03  0.51315208863E+03  0.97810811830E+03  0.25500000920E-02 0.  1.
       -2    1    3    3    0  502  0.41395984242E+03  0.72250098539E+03 -0.16614860064E+04  0.18584687714E+04  0.25500000920E-02 0. -1.
</event>
<event>
 5   0  0.2980790E-05  0.2241781E+04  0.7818609E-02  0.8501236E-01
       -1   -1    0    0    0  501  0.00000000000E+00  0.00000000000E+00  0.86083685784E+03  0.86083685786E+03  0.50400001928E-02 0. -1.
        1   -1    0    0  501    0  0.00000000000E+00  0.00000000000E+00 -0.14595049133E+04  0.14595049133E+04  0.50400001928E-02 0.  1.
    10030    2    1    2    0    0  0.00000000000E+00  0.00000000000E+00 -0.59866805542E+03  0.23203417711E+04  0.22417810987E+04 0.  0.
        5    1    3    3  502    0  0.95460665222E+03 -0.35015474000E+03 -0.78755373096E+03  0.12861357516E+04  0.46999998093E+01 0.  1.
       -5    1    3    3    0  502 -0.95460665222E+03  0.35015474000E+03  0.18888567554E+03  0.10342060195E+04  0.46999998093E+01 0. -1.
</event>
<event>
 5   0  0.6648328E-05  0.2497260E+04  0.7818609E-02  0.8403962E-01
       -2   -1    0    0    0  501  0.00000000000E+00  0.00000000000E+00  0.11050596108E+04  0.11050596108E+04  0.25500000920E-02 0.  1.
        2   -1    0    0  501    0  0.00000000000E+00  0.00000000000E+00 -0.14108536363E+04  0.14108536363E+04  0.25500000920E-02 0. -1.
    10030    2    1    2    0    0  0.00000000000E+00  0.00000000000E+00 -0.30579402553E+03  0.25159132471E+04  0.24972603951E+04 0.  0.
        2    1    3    3  502    0  0.82112570143E+03  0.12095329988E+03  0.78691595794E+03  0.11437280460E+04  0.25500000920E-02 0.  1.
       -2    1    3    3    0  502 -0.82112570143E+03 -0.12095329988E+03 -0.10927099835E+04  0.13721852012E+04  0.25500000920E-02 0. -1.
</event>
<event>
 5   0  0.2896652E-05  0.2500782E+04  0.7818609E-02  0.8402707E-01
        1   -1    0    0  501    0  0.00000000000E+00  0.00000000000E+00  0.94415383941E+03  0.94415383942E+03  0.50400001928E-02 0. -1.
       -1   -1    0    0    0  501  0.00000000000E+00  0.00000000000E+00 -0.16559568185E+04  0.16559568185E+04  0.50400001928E-02 0.  1.
    10030    2    1    2    0    0  0.00000000000E+00  0.00000000000E+00 -0.71180297907E+03  0.26001106579E+04  0.25007822681E+04 0.  0.
        4    1    3    3  502    0 -0.42993026438E+03 -0.11582703804E+04 -0.15578309292E+03  0.12452711718E+04  0.12699999809E+01 0. -1.
       -4    1    3    3    0  502  0.42993026438E+03  0.11582703804E+04 -0.55601988615E+03  0.13548394861E+04  0.12699999809E+01 0.  1.
</event>
<event>
 5   0  0.2896652E-05  0.1818544E+04  0.7818609E-02  0.8696500E-01
       -1   -1    0    0    0  501  0.00000000000E+00  0.00000000000E+00  0.59968185394E+03  0.59968185396E+03  0.50400001928E-02 0.  1.
        1   -1    0    0  501    0  0.00000000000E+00  0.00000000000E+00 -0.13786908291E+04  0.13786908291E+04  0.50400001928E-02 0. -1.
    10030    2    1    2    0    0  0.00000000000E+00  0.00000000000E+00 -0.77900897517E+03  0.19783726831E+04  0.18185443326E+04 0.  0.
        4    1    3    3  502    0 -0.61443862161E+03 -0.80448337106E+02 -0.11133936655E+04  0.12742267545E+04  0.12699999809E+01 0. -1.
       -4    1    3    3    0  502  0.61443862161E+03  0.80448337106E+02  0.33438469033E+03  0.70414592855E+03  0.12699999809E+01 0.  1.
</event>
<event>
 5   0  0.2793920E-05  0.2489726E+04  0.7818609E-02  0.8406655E-01
        1   -1    0    0  501    0  0.00000000000E+00  0.00000000000E+00  0.20463738847E+04  0.20463738847E+04  0.50400001928E-02 0. -1.
       -1   -1    0    0    0  501  0.00000000000E+00  0.00000000000E+00 -0.75728256897E+03  0.75728256898E+03  0.50400001928E-02 0.  1.
    10030    2    1    2    0    0  0.00000000000E+00  0.00000000000E+00  0.12890913157E+04  0.28036564537E+04  0.24897255050E+04 0.  0.
        2    1    3    3  502    0 -0.77413909348E+02  0.10800468037E+04 -0.47051161995E+02  0.10838393901E+04  0.25500000920E-02 0.  1.
       -2    1    3    3    0  502  0.77413909348E+02 -0.10800468037E+04  0.13361424777E+04  0.17198170636E+04  0.25500000920E-02 0. -1.
</event>
<event>
 5   0  0.6648328E-05  0.2321093E+04  0.7818609E-02  0.8469651E-01
        2   -1    0    0  501    0  0.00000000000E+00  0.00000000000E+00  0.84284354237E+03  0.84284354237E+03  0.25500000920E-02 0.  1.
       -2   -1    0    0    0  501  0.00000000000E+00  0.00000000000E+00 -0.15980043273E+04  0.15980043273E+04  0.25500000920E-02 0. -1.
    10030    2    1    2    0    0  0.00000000000E+00  0.00000000000E+00 -0.75516078491E+03  0.24408478696E+04  0.23210925255E+04 0.  0.
        2    1    3    3  502    0 -0.41105119531E+03 -0.30488198080E+03  0.71777090101E+03  0.88153909370E+03  0.25500000920E-02 0.  1.
       -2    1    3    3    0  502  0.41105119531E+03  0.30488198080E+03 -0.14729316859E+04  0.15593087759E+04  0.25500000920E-02 0. -1.
</event>
<event>
 5   0  0.2331375E-05  0.1788962E+04  0.7818609E-02  0.8712191E-01
        3   -1    0    0  501    0  0.00000000000E+00  0.00000000000E+00  0.90174820240E+03  0.90174820806E+03  0.10100000352E+00 0.  1.
       -3   -1    0    0    0  501  0.00000000000E+00  0.00000000000E+00 -0.88727231718E+03  0.88727232293E+03  0.10100000352E+00 0. -1.
    10030    2    1    2    0    0  0.00000000000E+00  0.00000000000E+00  0.14475885222E+02  0.17890205310E+04  0.17889619641E+04 0.  0.
        2    1    3    3  502    0  0.82963723719E+03  0.34118664670E+02  0.33986602715E+03  0.89720173040E+03  0.25500000920E-02 0.  1.
       -2    1    3    3    0  502 -0.82963723719E+03 -0.34118664670E+02 -0.32539014193E+03  0.89181880059E+03  0.25500000920E-02 0. -1.
</event>
<event>
 5   0  0.7071821E-05  0.2431316E+04  0.7818609E-02  0.8427872E-01
       -2   -1    0    0    0  501  0.00000000000E+00  0.00000000000E+00  0.93491214442E+03  0.93491214443E+03  0.25500000920E-02 0.  1.
        2   -1    0    0  501    0  0.00000000000E+00  0.00000000000E+00 -0.15807088593E+04  0.15807088593E+04  0.25500000920E-02 0. -1.
    10030    2    1    2    0    0  0.00000000000E+00  0.00000000000E+00 -0.64579671485E+03  0.25156210037E+04  0.24313156186E+04 0.  0.
        5    1    3    3  502    0  0.41906461675E+03  0.10869724902E+04  0.36533836712E+02  0.11655389992E+04  0.46999998093E+01 0. -1.
       -5    1    3    3    0  502 -0.41906461675E+03 -0.10869724902E+04 -0.68233055156E+03  0.13500820045E+04  0.46999998093E+01 0.  1.
</event>
<event>
 5   0  0.7071821E-05  0.1814577E+04  0.7818609E-02  0.8698586E-01
       -2   -1    0    0    0  501  0.00000000000E+00  0.00000000000E+00  0.97017915611E+03  0.97017915612E+03  0.25500000920E-02 0.  1.
        2   -1    0    0  501    0  0.00000000000E+00  0.00000000000E+00 -0.84847478913E+03  0.84847478914E+03  0.25500000920E-02 0. -1.
    10030    2    1    2    0    0  0.00000000000E+00  0.00000000000E+00  0.12170436698E+03  0.18186539453E+04  0.18145771462E+04 0.  0.
        5    1    3    3  502    0  0.55172826143E+03 -0.20496593547E+03  0.75286368539E+03  0.95563639944E+03  0.46999998093E+01 0.  1.
       -5    1    3    3    0  502 -0.55172826143E+03  0.20496593547E+03 -0.63115931841E+03  0.86301754581E+03  0.46999998093E+01 0. -1.
</event>
<event>
 5   0  0.6909250E-05  0.2376424E+04  0.7818609E-02  0.8448383E-01
        2   -1    0    0  501    0  0.00000000000E+00  0.00000000000E+00  0.17476474405E+04  0.17476474405E+04  0.25500000920E-02 0. -1.
       -2   -1    0    0    0  501  0.00000000000E+00  0.00000000000E+00 -0.80785604466E+03  0.80785604467E+03  0.25500000920E-02 0.  1.
    10030    2    1    2    0    0  0.00000000000E+00  0.00000000000E+00  0.93979139582E+03  0.25555034851E+04  0.23764238248E+04 0.  0.
        4    1    3    3  502    0 -0.74219000117E+03 -0.91280159136E+03  0.64917155189E+03  0.13436807879E+04  0.12699999809E+01 0. -1.
       -4    1    3    3    0  502  0.74219000117E+03  0.91280159136E+03  0.29061984393E+03  0.12118226973E+04  0.12699999809E+01 0.  1.
</event>
<event>
 5   0  0.2896652E-05  0.1499873E+04  0.7818609E-02  0.8884537E-01
       -1   -1    0    0    0  501  0.00000000000E+00  0.00000000000E+00  0.59078178365E+03  0.59078178368E+03  0.50400001928E-02 0.  1.
        1   -1    0    0  501    0  0.00000000000E+00  0.00000000000E+00 -0.95196681584E+03  0.95196681585E+03  0.50400001928E-02 0. -1.
    10030    2    1    2    0    0  0.00000000000E+00  0.00000000000E+00 -0.36118503219E+03  0.15427485995E+04  0.14998728659E+04 0.  0.
        4    1    3    3  502    0  0.56466474361E+03 -0.35937867711E+03 -0.52849763023E+03  0.85282510768E+03  0.12699999809E+01 0. -1.
       -4    1    3    3    0  502 -0.56466474361E+03  0.35937867711E+03  0.16731259804E+03  0.68992349185E+03  0.12699999809E+01 0.  1.
</event>
<event>
 5   0  0.2793920E-05  0.2519143E+04  0.7818609E-02  0.8396197E-01
       -1   -1    0    0    0  501  0.00000000000E+00  0.00000000000E+00  0.14763114206E+04  0.14763114206E+04  0.50400001928E-02 0. -1.
        1   -1    0    0  501    0  0.00000000000E+00  0.00000000000E+00 -0.10746518223E+04  0.10746518223E+04  0.50400001928E-02 0.  1.
    10030    2    1    2    0    0  0.00000000000E+00  0.00000000000E+00  0.40165959829E+03  0.25509632429E+04  0.25191433134E+04 0.  0.
        2    1    3    3  502    0  0.44198944617E+03 -0.79875370110E+03 -0.67797930862E+03  0.11371095323E+04  0.25500000920E-02 0.  1.
       -2    1    3    3    0  502 -0.44198944617E+03  0.79875370110E+03  0.10796389069E+04  0.14138537106E+04  0.25500000920E-02 0. -1.
</event>
<event>
 5   0  0.6648328E-05  0.2233728E+04  0.7818609E-02  0.8504519E-01
        2   -1    0    0  501    0  0.00000000000E+00  0.00000000000E+00  0.13875773069E+04  0.13875773069E+04  0.25500000920E-02 0.  1.
       -2   -1    0    0    0  501  0.00000000000E+00  0.00000000000E+00 -0.89896658857E+03  0.89896658857E+03  0.25500000920E-02 0. -1.
    10030    2    1    2    0    0  0.00000000000E+00  0.00000000000E+00  0.48861071830E+03  0.22865438954E+04  0.22337283970E+04 0.  0.
        2    1    3    3  502    0 -0.34969687254E+03  0.86911390221E+03  0.86674417534E+03  0.12762806679E+04  0.25500000920E-02 0.  1.
       -2    1    3    3    0  502  0.34969687254E+03 -0.86911390221E+03 -0.37813345703E+03  0.10102632276E+04  0.25500000920E-02 0. -1.
</event>
<event>
 5   0  0.2793920E-05  0.2466697E+04  0.7818609E-02  0.8414947E-01
       -1   -1    0    0    0  501  0.00000000000E+00  0.00000000000E+00  0.78066368670E+03  0.78066368672E+03  0.50400001928E-02 0. -1.
        1   -1    0    0  501    0  0.00000000000E+00  0.00000000000E+00 -0.19485321979E+04  0.19485321979E+04  0.50400001928E-02 0.  1.
    10030    2    1    2    0    0  0.00000000000E+00  0.00000000000E+00 -0.11678685112E+04  0.27291958846E+04  0.24666968434E+04 0.  0.
        2    1    3    3  502    0 -0.99474641464E+03  0.72881455427E+03 -0.60759310262E+03  0.13747219582E+04  0.25500000920E-02 0. -1.
       -2    1    3    3    0  502  0.99474641464E+03 -0.72881455427E+03 -0.56027540860E+03  0.13544739265E+04  0.25500000920E-02 0.  1.
</event>
<event>
 5   0  0.6827859E-05  0.2496367E+04  0.7818609E-02  0.8404281E-01
        2   -1    0    0  501    0  0.00000000000E+00  0.00000000000E+00  0.13143615099E+04  0.13143615099E+04  0.25500000920E-02 0.  1.
       -2   -1    0    0    0  501  0.00000000000E+00  0.00000000000E+00 -0.11853376453E+04  0.11853376453E+04  0.25500000920E-02 0. -1.
    10030    2    1    2    0    0  0.00000000000E+00  0.00000000000E+00  0.12902386459E+03  0.24996991552E+04  0.24963671022E+04 0.  0.
        3    1    3    3  502    0 -0.72083403471E+03 -0.76208480339E+03 -0.61284289943E+03  0.12148873951E+04  0.10100000352E+00 0. -1.
       -3    1    3    3    0  502  0.72083403471E+03  0.76208480339E+03  0.74186676402E+03  0.12848117601E+04  0.10100000352E+00 0.  1.
</event>
<event>
 5   0  0.7071821E-05  0.2514331E+04  0.7818609E-02  0.8397898E-01
        2   -1    0    0  501    0  0.00000000000E+00  0.00000000000E+00  0.23054620881E+04  0.23054620881E+04  0.25500000920E-02 0. -1.
       -2   -1    0    0    0  501  0.00000000000E+00  0.00000000000E+00 -0.68553097223E+03  0.68553097224E+03  0.25500000920E-02 0.  1.
    10030    2    1    2    0    0  0.00000000000E+00  0.00000000000E+00  0.16199311159E+04  0.29909930604E+04  0.25143314553E+04 0.  0.
        5    1    3    3  502    0  0.51654590332E+03  0.10980616473E+04  0.12006916865E+04  0.17071150130E+04  0.46999998093E+01 0. -1.
       -5    1    3    3    0  502 -0.51654590332E+03 -0.10980616473E+04  0.41923942936E+03  0.12838780474E+04  0.46999998093E+01 0.  1.
</event>
<event>
 5   0  0.2980790E-05  0.2529237E+04  0.7818609E-02  0.8392643E-01
       -1   -1    0    0    0  501  0.00000000000E+00  0.00000000000E+00  0.10121427194E+04  0.10121427194E+04  0.50400001928E-02 0. -1.
        1   -1    0    0  501    0  0.00000000000E+00  0.00000000000E+00 -0.15800733010E+04  0.15800733010E+04  0.50400001928E-02 0.  1.
    10030    2    1    2    0    0  0.00000000000E+00  0.00000000000E+00 -0.56793058166E+03  0.25922160204E+04  0.25292367921E+04 0.  0.
        5    1    3    3  502    0  0.11830781070E+04  0.41062398247E+03 -0.10365346911E+03  0.12566033559E+04  0.46999998093E+01 0. -1.
       -5    1    3    3    0  502 -0.11830781070E+04 -0.41062398247E+03 -0.46427711255E+03  0.13356126645E+04  0.46999998093E+01 0.  1.
</event>
<event>
 5   0  0.2777539E-05  0.2549081E+04  0.7818609E-02  0.8385706E-01
       -1   -1    0    0    0  501  0.00000000000E+00  0.00000000000E+00  0.14081159552E+04  0.14081159552E+04  0.50400001928E-02 0.  1.
        1   -1    0    0  501    0  0.00000000000E+00  0.00000000000E+00 -0.11536363981E+04  0.11536363981E+04  0.50400001928E-02 0. -1.
    10030    2    1    2    0    0  0.00000000000E+00  0.00000000000E+00  0.25447955715E+03  0.25617523533E+04  0.25490812609E+04 0.  0.
        3    1    3    3  502    0  0.12628580488E+04  0.14364932392E+03  0.31856297798E+02  0.12714009649E+04  0.10100000352E+00 0.  1.
       -3    1    3    3    0  502 -0.12628580488E+04 -0.14364932392E+03  0.22262325935E+03  0.12903513884E+04  0.10100000352E+00 0. -1.
</event>
<event>
 5   0  0.6827859E-05  0.2717935E+04  0.7818609E-02  0.8329209E-01
        2   -1    0    0  501    0  0.00000000000E+00  0.00000000000E+00  0.13557037424E+04  0.13557037424E+04  0.25500000920E-02 0.  1.
       -2   -1    0    0    0  501  0.00000000000E+00  0.00000000000E+00 -0.13622387073E+04  0.13622387073E+04  0.25500000920E-02 0. -1.
    10030    2    1    2    0    0  0.00000000000E+00  0.00000000000E+00 -0.65349649053E+01  0.27179424498E+04  0.27179345935E+04 0.  0.
        3    1    3    3  502    0  0.24118476327E+02  0.87139817932E+03  0.10392687994E+04  0.13564645721E+04  0.10100000352E+00 0.  1.
       -3    1    3    3    0  502 -0.24118476327E+02 -0.87139817932E+03 -0.10458037643E+04  0.13614778777E+04  0.10100000352E+00 0. -1.
</event>
<event>
 5   0  0.6445331E-05  0.2556236E+04  0.7818609E-02  0.8383221E-01
       -2   -1    0    0    0  501  0.00000000000E+00  0.00000000000E+00  0.66755816582E+03  0.66755816583E+03  0.25500000920E-02 0.  1.
        2   -1    0    0  501    0  0.00000000000E+00  0.00000000000E+00 -0.24471057213E+04  0.24471057213E+04  0.25500000920E-02 0. -1.
    10030    2    1    2    0    0  0.00000000000E+00  0.00000000000E+00 -0.17795475555E+04  0.31146638871E+04  0.25562358318E+04 0.  0.
        1    1    3    3  502    0  0.79910277435E+03  0.81511051962E+03 -0.15903760612E+04  0.19576175365E+04  0.50400001928E-02 0. -1.
       -1    1    3    3    0  502 -0.79910277435E+03 -0.81511051962E+03 -0.18917149424E+03  0.11570463506E+04  0.50400001928E-02 0.  1.
</event>
<event>
 5   0  0.6445331E-05  0.2430596E+04  0.7818609E-02  0.8428137E-01
        2   -1    0    0  501    0  0.00000000000E+00  0.00000000000E+00  0.31118857032E+04  0.31118857032E+04  0.25500000920E-02 0. -1.
       -2   -1    0    0    0  501  0.00000000000E+00  0.00000000000E+00 -0.47461556152E+03  0.47461556152E+03  0.25500000920E-02 0.  1.
    10030    2    1    2    0    0  0.00000000000E+00  0.00000000000E+00  0.26372701417E+04  0.35865012648E+04  0.24305961248E+04 0.  0.
        1    1    3    3  502    0 -0.60864209702E+03 -0.28574515359E+03  0.28124237478E+04  0.28916816617E+04  0.50400001928E-02 0. -1.
       -1    1    3    3    0  502  0.60864209702E+03  0.28574515359E+03 -0.17515360612E+03  0.69481960308E+03  0.50400001928E-02 0.  1.
</event>
<event>
 5   0  0.6648328E-05  0.1346646E+04  0.7818609E-02  0.8993371E-01
        2   -1    0    0  501    0  0.00000000000E+00  0.00000000000E+00  0.52560293658E+03  0.52560293659E+03  0.25500000920E-02 0. -1.
       -2   -1    0    0    0  501  0.00000000000E+00  0.00000000000E+00 -0.86255988213E+03  0.86255988214E+03  0.25500000920E-02 0.  1.
    10030    2    1    2    0    0  0.00000000000E+00  0.00000000000E+00 -0.33695694555E+03  0.13881628187E+04  0.13466462149E+04 0.  0.
        2    1    3    3  502    0 -0.36513510893E+02  0.59879959519E+03  0.14667535440E+03  0.61758226276E+03  0.25500000920E-02 0. -1.
       -2    1    3    3    0  502  0.36513510893E+02 -0.59879959519E+03 -0.48363229995E+03  0.77058055597E+03  0.25500000920E-02 0.  1.
</event>
<event>
 5   0  0.2977854E-05  0.2442003E+04  0.7818609E-02  0.8423944E-01
       -1   -1    0    0    0  501  0.00000000000E+00  0.00000000000E+00  0.10045087898E+04  0.10045087898E+04  0.50400001928E-02 0.  1.
        1   -1    0    0  501    0  0.00000000000E+00  0.00000000000E+00 -0.14841531673E+04  0.14841531673E+04  0.50400001928E-02 0. -1.
    10030    2    1    2    0    0  0.00000000000E+00  0.00000000000E+00 -0.47964437751E+03  0.24886619572E+04  0.24420031958E+04 0.  0.
        1    1    3    3  502    0  0.61391231763E+03  0.10230946036E+04 -0.50407167846E+03  0.12952602668E+04  0.50400001928E-02 0. -1.
       -1    1    3    3    0  502 -0.61391231763E+03 -0.10230946036E+04  0.24427300945E+02  0.11934016904E+04  0.50400001928E-02 0.  1.
</event>
<event>
 5   0  0.6445331E-05  0.2539822E+04  0.7818609E-02  0.8388935E-01
        2   -1    0    0  501    0  0.00000000000E+00  0.00000000000E+00  0.15836451695E+04  0.15836451695E+04  0.25500000920E-02 0. -1.
       -2   -1    0    0    0  501  0.00000000000E+00  0.00000000000E+00 -0.10183299637E+04  0.10183299637E+04  0.25500000920E-02 0.  1.
    10030    2    1    2    0    0  0.00000000000E+00  0.00000000000E+00  0.56531520578E+03  0.26019751332E+04  0.25398215118E+04 0.  0.
        1    1    3    3  502    0 -0.26425638644E+03 -0.12383130305E+04  0.38210382475E+03  0.13225936383E+04  0.50400001928E-02 0. -1.
       -1    1    3    3    0  502  0.26425638644E+03  0.12383130305E+04  0.18321138103E+03  0.12793814949E+04  0.50400001928E-02 0.  1.
</event>
<event>
 5   0  0.6909250E-05  0.2513478E+04  0.7818609E-02  0.8398200E-01
        2   -1    0    0  501    0  0.00000000000E+00  0.00000000000E+00  0.14898178179E+04  0.14898178179E+04  0.25500000920E-02 0. -1.
       -2   -1    0    0    0  501  0.00000000000E+00  0.00000000000E+00 -0.10601247523E+04  0.10601247523E+04  0.25500000920E-02 0.  1.
    10030    2    1    2    0    0  0.00000000000E+00  0.00000000000E+00  0.42969306553E+03  0.25499425702E+04  0.25134778656E+04 0.  0.
        4    1    3    3  502    0  0.69682211710E+03  0.92688895954E+02 -0.84201477427E+03  0.10968786566E+04  0.12699999809E+01 0.  1.
       -4    1    3    3    0  502 -0.69682211710E+03 -0.92688895954E+02  0.12717078398E+04  0.14530639136E+04  0.12699999809E+01 0. -1.
</event>
<event>
 5   0  0.6827859E-05  0.2517486E+04  0.7818609E-02  0.8396782E-01
        2   -1    0    0  501    0  0.00000000000E+00  0.00000000000E+00  0.17459855125E+04  0.17459855125E+04  0.25500000920E-02 0. -1.
       -2   -1    0    0    0  501  0.00000000000E+00  0.00000000000E+00 -0.90747273110E+03  0.90747273110E+03  0.25500000920E-02 0.  1.
    10030    2    1    2    0    0  0.00000000000E+00  0.00000000000E+00  0.83851278144E+03  0.26534582436E+04  0.25174862395E+04 0.  0.
        3    1    3    3  502    0  0.76080428342E+02 -0.99549898891E+03 -0.38871559936E+03  0.10714038902E+04  0.10100000352E+00 0.  1.
       -3    1    3    3    0  502 -0.76080428342E+02  0.99549898891E+03  0.12272283808E+04  0.15820543535E+04  0.10100000352E+00 0. -1.
</event>
<event>
 5   0  0.2980790E-05  0.1511983E+04  0.7818609E-02  0.8876523E-01
        1   -1    0    0  501    0  0.00000000000E+00  0.00000000000E+00  0.92061908062E+03  0.92061908064E+03  0.50400001928E-02 0.  1.
       -1   -1    0    0    0  501  0.00000000000E+00  0.00000000000E+00 -0.62080303906E+03  0.62080303908E+03  0.50400001928E-02 0. -1.
    10030    2    1    2    0    0  0.00000000000E+00  0.00000000000E+00  0.29981604157E+03  0.15414221197E+04  0.15119829670E+04 0.  0.
        5    1    3    3  502    0  0.36019371613E+03 -0.65674070249E+03  0.25413944876E+03  0.79098471089E+03  0.46999998093E+01 0. -1.
       -5    1    3    3    0  502 -0.36019371613E+03  0.65674070249E+03  0.45676592807E+02  0.75043740883E+03  0.46999998093E+01 0.  1.
</event>
<event>
 5   0  0.2793920E-05  0.2335594E+04  0.7818609E-02  0.8464018E-01
        1   -1    0    0  501    0  0.00000000000E+00  0.00000000000E+00  0.19753218777E+04  0.19753218777E+04  0.50400001928E-02 0.  1.
       -1   -1    0    0    0  501  0.00000000000E+00  0.00000000000E+00 -0.69039348971E+03  0.69039348973E+03  0.50400001928E-02 0. -1.
    10030    2    1    2    0    0  0.00000000000E+00  0.00000000000E+00  0.12849283880E+04  0.26657153674E+04  0.23355935986E+04 0.  0.
        2    1    3    3  502    0 -0.75132424662E+03  0.82766802044E+03  0.25671886711E+03  0.11469206827E+04  0.25500000920E-02 0. -1.
       -2    1    3    3    0  502  0.75132424662E+03 -0.82766802044E+03  0.10282095209E+04  0.15187946848E+04  0.25500000920E-02 0.  1.
</event>
<event>
 5   0  0.6445331E-05  0.2510432E+04  0.7818609E-02  0.8399279E-01
       -2   -1    0    0    0  501  0.00000000000E+00  0.00000000000E+00  0.64523815740E+03  0.64523815741E+03  0.25500000920E-02 0. -1.
        2   -1    0    0  501    0  0.00000000000E+00  0.00000000000E+00 -0.24418374194E+04  0.24418374194E+04  0.25500000920E-02 0.  1.
    10030    2    1    2    0    0  0.00000000000E+00  0.00000000000E+00 -0.17965992620E+04  0.30870755768E+04  0.25104315782E+04 0.  0.
        1    1    3    3  502    0 -0.74649992654E+03  0.92949615981E+03 -0.41519619479E+03  0.12623839082E+04  0.50400001928E-02 0. -1.
       -1    1    3    3    0  502  0.74649992654E+03 -0.92949615981E+03 -0.13814030672E+04  0.18246916686E+04  0.50400001928E-02 0.  1.
</event>
<event>
 5   0  0.6909250E-05  0.2517977E+04  0.7818609E-02  0.8396609E-01
        2   -1    0    0  501    0  0.00000000000E+00  0.00000000000E+00  0.16028824132E+04  0.16028824132E+04  0.25500000920E-02 0.  1.
       -2   -1    0    0    0  501  0.00000000000E+00  0.00000000000E+00 -0.98887567685E+03  0.98887567685E+03  0.25500000920E-02 0. -1.
    10030    2    1    2    0    0  0.00000000000E+00  0.00000000000E+00  0.61400673631E+03  0.25917580900E+04  0.25179765140E+04 0.  0.
        4    1    3    3  502    0  0.99639384493E+03  0.76716241214E+02  0.10951850585E+04  0.14826051400E+04  0.12699999809E+01 0.  1.
       -4    1    3    3    0  502 -0.99639384493E+03 -0.76716241214E+02 -0.48117832219E+03  0.11091529500E+04  0.12699999809E+01 0. -1.
</event>
<event>
 5   0  0.6827859E-05  0.2834845E+04  0.7818609E-02  0.8292531E-01
        2   -1    0    0  501    0  0.00000000000E+00  0.00000000000E+00  0.20384224928E+04  0.20384224928E+04  0.25500000920E-02 0. -1.
       -2   -1    0    0    0  501  0.00000000000E+00  0.00000000000E+00 -0.98560873271E+03  0.98560873272E+03  0.25500000920E-02 0.  1.
    10030    2    1    2    0    0  0.00000000000E+00  0.00000000000E+00  0.10528137601E+04  0.30240312256E+04  0.28348453291E+04 0.  0.
        3    1    3    3  502    0  0.10066066890E+04 -0.31995820421E+03 -0.48190216451E+03  0.11609737229E+04  0.10100000352E+00 0.  1.
       -3    1    3    3    0  502 -0.10066066890E+04  0.31995820421E+03  0.15347159246E+04  0.18630575027E+04  0.10100000352E+00 0. -1.
</event>
<event>
 5   0  0.2977854E-05  0.1427187E+04  0.7818609E-02  0.8934371E-01
       -1   -1    0    0    0  501  0.00000000000E+00  0.00000000000E+00  0.41103480379E+03  0.41103480382E+03  0.50400001928E-02 0.  1.
        1   -1    0    0  501    0  0.00000000000E+00  0.00000000000E+00 -0.12388633574E+04  0.12388633574E+04  0.50400001928E-02 0. -1.
    10030    2    1    2    0    0  0.00000000000E+00  0.00000000000E+00 -0.82782855363E+03  0.16498981613E+04  0.14271873837E+04 0.  0.
        1    1    3    3  502    0 -0.30227390202E+02  0.26400665517E+03  0.35170315808E+03  0.44080417480E+03  0.50400001928E-02 0.  1.
       -1    1    3    3    0  502  0.30227390202E+02 -0.26400665517E+03 -0.11795317117E+04  0.12090939864E+04  0.50400001928E-02 0. -1.
</event>
<event>
 5   0  0.6648328E-05  0.2483392E+04  0.7818609E-02  0.8408926E-01
        2   -1    0    0  501    0  0.00000000000E+00  0.00000000000E+00  0.13814010756E+04  0.13814010756E+04  0.25500000920E-02 0. -1.
       -2   -1    0    0    0  501  0.00000000000E+00  0.00000000000E+00 -0.11161196430E+04  0.11161196430E+04  0.25500000920E-02 0.  1.
    10030    2    1    2    0    0  0.00000000000E+00  0.00000000000E+00  0.26528143259E+03  0.24975207186E+04  0.24833919347E+04 0.  0.
        2    1    3    3  502    0  0.79750804243E+03 -0.82846330559E+03 -0.33846686884E+03  0.11987202959E+04  0.25500000920E-02 0.  1.
       -2    1    3    3    0  502 -0.79750804243E+03  0.82846330559E+03  0.60374830143E+03  0.12988004227E+04  0.25500000920E-02 0. -1.
</event>
<event>
 5   0  0.2977854E-05  0.2485654E+04  0.7818609E-02  0.8408114E-01
       -1   -1    0    0    0  501  0.00000000000E+00  0.00000000000E+00  0.11124650841E+04  0.11124650841E+04  0.50400001928E-02 0.  1.
        1   -1    0    0  501    0  0.00000000000E+00  0.00000000000E+00 -0.13884650891E+04  0.13884650891E+04  0.50400001928E-02 0. -1.
    10030    2    1    2    0    0  0.00000000000E+00  0.00000000000E+00 -0.27600000498E+03  0.25009301733E+04  0.24856539841E+04 0.  0.
        1    1    3    3  502    0 -0.46304546044E+03  0.59653953156E+03  0.85515729177E+03  0.11408612996E+04  0.50400001928E-02 0.  1.
       -1    1    3    3    0  502  0.46304546044E+03 -0.59653953156E+03 -0.11311572967E+04  0.13600688737E+04  0.50400001928E-02 0. -1.
</event>
<event>
 5   0  0.2793920E-05  0.1275673E+04  0.7818609E-02  0.9049082E-01
        1   -1    0    0  501    0  0.00000000000E+00  0.00000000000E+00  0.52319742763E+03  0.52319742765E+03  0.50400001928E-02 0. -1.
       -1   -1    0    0    0  501  0.00000000000E+00  0.00000000000E+00 -0.77759447685E+03  0.77759447686E+03  0.50400001928E-02 0.  1.
    10030    2    1    2    0    0  0.00000000000E+00  0.00000000000E+00 -0.25439704922E+03  0.13007919045E+04  0.12756730460E+04 0.  0.
        2    1    3    3  502    0  0.31395646530E+02 -0.32141143165E+03  0.43367253395E+03  0.54070589208E+03  0.25500000920E-02 0. -1.
       -2    1    3    3    0  502 -0.31395646530E+02  0.32141143165E+03 -0.68806958317E+03  0.76008601244E+03  0.25500000920E-02 0.  1.
</event>
<event>
 5   0  0.7071821E-05  0.2057119E+04  0.7818609E-02  0.8580371E-01
       -2   -1    0    0    0  501  0.00000000000E+00  0.00000000000E+00  0.89521541803E+03  0.89521541803E+03  0.25500000920E-02 0.  1.
        2   -1    0    0  501    0  0.00000000000E+00  0.00000000000E+00 -0.11817659448E+04  0.11817659448E+04  0.25500000920E-02 0. -1.
    10030    2    1    2    0    0  0.00000000000E+00  0.00000000000E+00 -0.28655052679E+03  0.20769813629E+04  0.20571194368E+04 0.  0.
        5    1    3    3  502    0 -0.96135038060E+03 -0.16842351508E+03  0.18443830394E+03  0.99327771176E+03  0.46999998093E+01 0.  1.
       -5    1    3    3    0  502  0.96135038060E+03  0.16842351508E+03 -0.47098883074E+03  0.10837036511E+04  0.46999998093E+01 0. -1.
</event>
<event>
 5   0  0.2977854E-05  0.2511722E+04  0.7818609E-02  0.8398822E-01
        1   -1    0    0  501    0  0.00000000000E+00  0.00000000000E+00  0.18187853261E+04  0.18187853261E+04  0.50400001928E-02 0.  1.
       -1   -1    0    0    0  501  0.00000000000E+00  0.00000000000E+00 -0.86716471076E+03  0.86716471077E+03  0.50400001928E-02 0. -1.
    10030    2    1    2    0    0  0.00000000000E+00  0.00000000000E+00  0.95162061530E+03  0.26859500368E+04  0.25117216814E+04 0.  0.
        1    1    3    3  502    0 -0.36636901876E+03  0.22716912950E+03  0.17371884325E+04  0.17898758955E+04  0.50400001928E-02 0.  1.
       -1    1    3    3    0  502  0.36636901876E+03 -0.22716912950E+03 -0.78556781720E+03  0.89607414132E+03  0.50400001928E-02 0. -1.
</event>
<event>
 5   0  0.6909250E-05  0.2435226E+04  0.7818609E-02  0.8426432E-01
       -2   -1    0    0    0  501  0.00000000000E+00  0.00000000000E+00  0.73285315278E+03  0.73285315278E+03  0.25500000920E-02 0.  1.
        2   -1    0    0  501    0  0.00000000000E+00  0.00000000000E+00 -0.20230259865E+04  0.20230259865E+04  0.25500000920E-02 0. -1.
    10030    2    1    2    0    0  0.00000000000E+00  0.00000000000E+00 -0.12901728338E+04  0.27558791393E+04  0.24352256342E+04 0.  0.
        4    1    3    3  502    0 -0.69357522091E+03 -0.26573448696E+03 -0.17369708242E+04  0.18891084304E+04  0.12699999809E+01 0. -1.
       -4    1    3    3    0  502  0.69357522091E+03  0.26573448696E+03  0.44679799050E+03  0.86677070892E+03  0.12699999809E+01 0.  1.
</event>
<event>
 5   0  0.2331375E-05  0.1921168E+04  0.7818609E-02  0.8644391E-01
       -3   -1    0    0    0  501  0.00000000000E+00  0.00000000000E+00  0.13546749056E+04  0.13546749093E+04  0.10100000352E+00 0. -1.
        3   -1    0    0  501    0  0.00000000000E+00  0.00000000000E+00 -0.68113901201E+03  0.68113901950E+03  0.10100000352E+00 0.  1.
    10030    2    1    2    0    0  0.00000000000E+00  0.00000000000E+00  0.67353589355E+03  0.20358139288E+04  0.19211683302E+04 0.  0.
        4    1    3    3  502    0 -0.94716051929E+03 -0.15554022042E+03  0.29691351957E+03  0.10047213845E+04  0.12699999809E+01 0.  1.
       -4    1    3    3    0  502  0.94716051929E+03  0.15554022042E+03  0.37662237397E+03  0.10310925443E+04  0.12699999809E+01 0. -1.
</event>
<event>
 5   0  0.6827859E-05  0.2499662E+04  0.7818609E-02  0.8403106E-01
       -2   -1    0    0    0  501  0.00000000000E+00  0.00000000000E+00  0.12666361883E+04  0.12666361883E+04  0.25500000920E-02 0. -1.
        2   -1    0    0  501    0  0.00000000000E+00  0.00000000000E+00 -0.12332483307E+04  0.12332483307E+04  0.25500000920E-02 0.  1.
    10030    2    1    2    0    0  0.00000000000E+00  0.00000000000E+00  0.33387857525E+02  0.24998845190E+04  0.24996615489E+04 0.  0.
        3    1    3    3  502    0 -0.69621904566E+03  0.34887514339E+03  0.99435062911E+03  0.12629996077E+04  0.10100000352E+00 0. -1.
       -3    1    3    3    0  502  0.69621904566E+03 -0.34887514339E+03 -0.96096277159E+03  0.12368849113E+04  0.10100000352E+00 0.  1.
</event>
<event>
 5   0  0.6827859E-05  0.2680108E+04  0.7818609E-02  0.8341488E-01
        2   -1    0    0  501    0  0.00000000000E+00  0.00000000000E+00  0.17370330975E+04  0.17370330975E+04  0.25500000920E-02 0.  1.
       -2   -1    0    0    0  501  0.00000000000E+00  0.00000000000E+00 -0.10337999007E+04  0.10337999007E+04  0.25500000920E-02 0. -1.
    10030    2    1    2    0    0  0.00000000000E+00  0.00000000000E+00  0.70323319678E+03  0.27708329983E+04  0.26801079410E+04 0.  0.
        3    1    3    3  502    0  0.46173197363E+03 -0.32163791720E+03  0.16089673133E+04  0.17045301964E+04  0.10100000352E+00 0.  1.
       -3    1    3    3    0  502 -0.46173197363E+03  0.32163791720E+03 -0.90573411647E+03  0.10663028018E+04  0.10100000352E+00 0. -1.
</event>
<event>
 5   0  0.2777539E-05  0.2511767E+04  0.7818609E-02  0.8398805E-01
       -1   -1    0    0    0  501  0.00000000000E+00  0.00000000000E+00  0.11678289840E+04  0.11678289840E+04  0.50400001928E-02 0. -1.
        1   -1    0    0  501    0  0.00000000000E+00  0.00000000000E+00 -0.13505777575E+04  0.13505777575E+04  0.50400001928E-02 0.  1.
    10030    2    1    2    0    0  0.00000000000E+00  0.00000000000E+00 -0.18274877354E+03  0.25184067415E+04  0.25117673860E+04 0.  0.
        3    1    3    3  502    0  0.30743464777E+02 -0.10444958558E+04 -0.78987006191E+03  0.13098898726E+04  0.10100000352E+00 0.  1.
       -3    1    3    3    0  502 -0.30743464777E+02  0.10444958558E+04  0.60712128837E+03  0.12085168689E+04  0.10100000352E+00 0. -1.
</event>
<event>
 5   0  0.6648328E-05  0.2469707E+04  0.7818609E-02  0.8413858E-01
        2   -1    0    0  501    0  0.00000000000E+00  0.00000000000E+00  0.16506258193E+04  0.16506258193E+04  0.25500000920E-02 0. -1.
       -2   -1    0    0    0  501  0.00000000000E+00  0.00000000000E+00 -0.92380901718E+03  0.92380901718E+03  0.25500000920E-02 0.  1.
    10030    2    1    2    0    0  0.00000000000E+00  0.00000000000E+00  0.72681680216E+03  0.25744348365E+04  0.24697068781E+04 0.  0.
        2    1    3    3  502    0 -0.10342274296E+04  0.31874478923E+03 -0.25648383958E+03  0.11122088728E+04  0.25500000920E-02 0.  1.
       -2    1    3    3    0  502  0.10342274296E+04 -0.31874478923E+03  0.98330064173E+03  0.14622259637E+04  0.25500000920E-02 0. -1.
</event>
<event>
 5   0  0.6909250E-05  0.2485071E+04  0.7818609E-02  0.8408323E-01
       -2   -1    0    0    0  501  0.00000000000E+00  0.00000000000E+00  0.67892965876E+03  0.67892965877E+03  0.25500000920E-02 0.  1.
        2   -1    0    0  501    0  0.00000000000E+00  0.00000000000E+00 -0.22740121114E+04  0.22740121114E+04  0.25500000920E-02 0. -1.
    10030    2    1    2    0    0  0.00000000000E+00  0.00000000000E+00 -0.15950824527E+04  0.29529417702E+04  0.24850708375E+04 0.  0.
        4    1    3    3  502    0  0.32636916736E+03 -0.83471628328E+03  0.22508084334E+03  0.92408392796E+03  0.12699999809E+01 0.  1.
       -4    1    3    3    0  502 -0.32636916736E+03  0.83471628328E+03 -0.18201632960E+04  0.20288578422E+04  0.12699999809E+01 0. -1.
</event>
<event>
 5   0  0.6909250E-05  0.2409288E+04  0.7818609E-02  0.8436034E-01
        2   -1    0    0  501    0  0.00000000000E+00  0.00000000000E+00  0.20191876387E+04  0.20191876387E+04  0.25500000920E-02 0.  1.
       -2   -1    0    0    0  501  0.00000000000E+00  0.00000000000E+00 -0.71868884642E+03  0.71868884643E+03  0.25500000920E-02 0. -1.
    10030    2    1    2    0    0  0.00000000000E+00  0.00000000000E+00  0.13004987923E+04  0.27378764851E+04  0.24092883885E+04 0.  0.
        4    1    3    3  502    0  0.32568373453E+03  0.70460290674E+03 -0.39660065171E+03  0.87168161674E+03  0.12699999809E+01 0. -1.
       -4    1    3    3    0  502 -0.32568373453E+03 -0.70460290674E+03  0.16970994440E+04  0.18661948684E+04  0.12699999809E+01 0.  1.
</event>
<event>
 5   0  0.2896652E-05  0.2944765E+04  0.7818609E-02  0.8259682E-01
        1   -1    0    0  501    0  0.00000000000E+00  0.00000000000E+00  0.16118614753E+04  0.16118614753E+04  0.50400001928E-02 0. -1.
       -1   -1    0    0    0  501  0.00000000000E+00  0.00000000000E+00 -0.13449733980E+04  0.13449733981E+04  0.50400001928E-02 0.  1.
    10030    2    1    2    0    0  0.00000000000E+00  0.00000000000E+00  0.26688807726E+03  0.29568348734E+04  0.29447653935E+04 0.  0.
        4    1    3    3  502    0 -0.16632975642E+03  0.13903220942E+04 -0.32366691476E+03  0.14371579587E+04  0.12699999809E+01 0.  1.
       -4    1    3    3    0  502  0.16632975642E+03 -0.13903220942E+04  0.59055499202E+03  0.15196769147E+04  0.12699999809E+01 0. -1.
</event>
<event>
 5   0  0.2777539E-05  0.1666950E+04  0.7818609E-02  0.8780442E-01
        1   -1    0    0  501    0  0.00000000000E+00  0.00000000000E+00  0.13933137235E+04  0.13933137235E+04  0.50400001928E-02 0.  1.
       -1   -1    0    0    0  501  0.00000000000E+00  0.00000000000E+00 -0.49858171655E+03  0.49858171657E+03  0.50400001928E-02 0. -1.
    10030    2    1    2    0    0  0.00000000000E+00  0.00000000000E+00  0.89473200692E+03  0.18918954401E+04  0.16669502068E+04 0.  0.
        3    1    3    3  502    0  0.58607474836E+03 -0.19052820755E+03 -0.18951480805E+03  0.64474838597E+03  0.10100000352E+00 0. -1.
       -3    1    3    3    0  502 -0.58607474836E+03  0.19052820755E+03  0.10842468150E+04  0.12471470541E+04  0.10100000352E+00 0.  1.
</event>
<event>
 5   0  0.2977854E-05  0.1887305E+04  0.7818609E-02  0.8661201E-01
        1   -1    0    0  501    0  0.00000000000E+00  0.00000000000E+00  0.20036120102E+04  0.20036120102E+04  0.50400001928E-02 0. -1.
       -1   -1    0    0    0  501  0.00000000000E+00  0.00000000000E+00 -0.44443743291E+03  0.44443743293E+03  0.50400001928E-02 0.  1.
    10030    2    1    2    0    0  0.00000000000E+00  0.00000000000E+00  0.15591745773E+04  0.24480494432E+04  0.18873051459E+04 0.  0.
        1    1    3    3  502    0 -0.19307378797E+02  0.47417416796E+02  0.20018091844E+04  0.20024637817E+04  0.50400001928E-02 0. -1.
       -1    1    3    3    0  502  0.19307378797E+02 -0.47417416796E+02 -0.44263460708E+03  0.44558566146E+03  0.50400001928E-02 0.  1.
</event>
<event>
 5   0  0.2896652E-05  0.2380460E+04  0.7818609E-02  0.8446855E-01
       -1   -1    0    0    0  501  0.00000000000E+00  0.00000000000E+00  0.99960328520E+03  0.99960328521E+03  0.50400001928E-02 0. -1.
        1   -1    0    0  501    0  0.00000000000E+00  0.00000000000E+00 -0.14172096495E+04  0.14172096495E+04  0.50400001928E-02 0.  1.
    10030    2    1    2    0    0  0.00000000000E+00  0.00000000000E+00 -0.41760636426E+03  0.24168129347E+04  0.23804599736E+04 0.  0.
        4    1    3    3  502    0  0.14248908503E+03  0.66474924506E+03  0.78307650639E+03  0.10370174183E+04  0.12699999809E+01 0. -1.
       -4    1    3    3    0  502 -0.14248908503E+03 -0.66474924506E+03 -0.12006828707E+04  0.13797955163E+04  0.12699999809E+01 0.  1.
</event>
<event>
 5   0  0.2977854E-05  0.1960210E+04  0.7818609E-02  0.8625453E-01
        1   -1    0    0  501    0  0.00000000000E+00  0.00000000000E+00  0.79078517048E+03  0.79078517050E+03  0.50400001928E-02 0.  1.
       -1   -1    0    0    0  501  0.00000000000E+00  0.00000000000E+00 -0.12147490202E+04  0.12147490202E+04  0.50400001928E-02 0. -1.
    10030    2    1    2    0    0  0.00000000000E+00  0.00000000000E+00 -0.42396384967E+03  0.20055341907E+04  0.19602096939E+04 0.  0.
        1    1    3    3  502    0  0.44785250115E+03 -0.43156327867E+03 -0.98698389839E+03  0.11666001637E+04  0.50400001928E-02 0. -1.
       -1    1    3    3    0  502 -0.44785250115E+03  0.43156327867E+03  0.56302004872E+03  0.83893402695E+03  0.50400001928E-02 0.  1.
</event>
<event>
 5   0  0.6648328E-05  0.2547036E+04  0.7818609E-02  0.8386418E-01
       -2   -1    0    0    0  501  0.00000000000E+00  0.00000000000E+00  0.10015933729E+04  0.10015933729E+04  0.25500000920E-02 0.  1.
        2   -1    0    0  501    0  0.00000000000E+00  0.00000000000E+00 -0.16192684932E+04  0.16192684932E+04  0.25500000920E-02 0. -1.
    10030    2    1    2    0    0  0.00000000000E+00  0.00000000000E+00 -0.61767512035E+03  0.26208618661E+04  0.25470363890E+04 0.  0.
        2    1    3    3  502    0  0.20119607790E+03  0.95850942070E+03  0.52877660195E+03  0.11130250968E+04  0.25500000920E-02 0.  1.
       -2    1    3    3    0  502 -0.20119607790E+03 -0.95850942070E+03 -0.11464517223E+04  0.15078367693E+04  0.25500000920E-02 0. -1.
</event>
<event>
 5   0  0.2896652E-05  0.2584575E+04  0.7818609E-02  0.8373460E-01
        1   -1    0    0  501    0  0.00000000000E+00  0.00000000000E+00  0.14547822715E+04  0.14547822715E+04  0.50400001928E-02 0. -1.
       -1   -1    0    0    0  501  0.00000000000E+00  0.00000000000E+00 -0.11479431825E+04  0.11479431825E+04  0.50400001928E-02 0.  1.
    10030    2    1    2    0    0  0.00000000000E+00  0.00000000000E+00  0.30683908897E+03  0.26027254540E+04  0.25845753156E+04 0.  0.
        4    1    3    3  502    0 -0.56905834852E+03 -0.68406831610E+03 -0.79030018047E+03  0.11901062361E+04  0.12699999809E+01 0.  1.
       -4    1    3    3    0  502  0.56905834852E+03  0.68406831610E+03  0.10971392694E+04  0.14126192178E+04  0.12699999809E+01 0. -1.
</event>
<event>
 5   0  0.6648328E-05  0.2476640E+04  0.7818609E-02  0.8411355E-01
        2   -1    0    0  501    0  0.00000000000E+00  0.00000000000E+00  0.11194290922E+04  0.11194290922E+04  0.25500000920E-02 0.  1.
       -2   -1    0    0    0  501  0.00000000000E+00  0.00000000000E+00 -0.13698380074E+04  0.13698380074E+04  0.25500000920E-02 0. -1.
    10030    2    1    2    0    0  0.00000000000E+00  0.00000000000E+00 -0.25040891523E+03  0.24892670996E+04  0.24766400765E+04 0.  0.
        2    1    3    3  502    0 -0.29584423909E+02  0.10449806389E+04 -0.79234815410E+03  0.13117451624E+04  0.25500000920E-02 0. -1.
       -2    1    3    3    0  502  0.29584423909E+02 -0.10449806389E+04  0.54193923887E+03  0.11775219372E+04  0.25500000920E-02 0.  1.
</event>
<event>
 5   0  0.2977854E-05  0.2438544E+04  0.7818609E-02  0.8425213E-01
        1   -1    0    0  501    0  0.00000000000E+00  0.00000000000E+00  0.69792103408E+03  0.69792103409E+03  0.50400001928E-02 0. -1.
       -1   -1    0    0    0  501  0.00000000000E+00  0.00000000000E+00 -0.21300749360E+04  0.21300749360E+04  0.50400001928E-02 0.  1.
    10030    2    1    2    0    0  0.00000000000E+00  0.00000000000E+00 -0.14321539019E+04  0.28279959701E+04  0.24385439115E+04 0.  0.
        1    1    3    3  502    0  0.15307165761E+03 -0.73071144199E+03 -0.18340090229E+04  0.19801412172E+04  0.50400001928E-02 0.  1.
       -1    1    3    3    0  502 -0.15307165761E+03  0.73071144199E+03  0.40185512096E+03  0.84785475295E+03  0.50400001928E-02 0. -1.
</event>
<event>
 5   0  0.2777539E-05  0.2506529E+04  0.7818609E-02  0.8400663E-01
       -1   -1    0    0    0  501  0.00000000000E+00  0.00000000000E+00  0.10547830901E+04  0.10547830901E+04  0.50400001928E-02 0. -1.
        1   -1    0    0  501    0  0.00000000000E+00  0.00000000000E+00 -0.14890947292E+04  0.14890947292E+04  0.50400001928E-02 0.  1.
    10030    2    1    2    0    0  0.00000000000E+00  0.00000000000E+00 -0.43431163909E+03  0.25438778193E+04  0.25065290263E+04 0.  0.
        3    1    3    3  502    0 -0.11803075563E+04 -0.24411448572E+03 -0.56571784305E+03  0.13314482707E+04  0.10100000352E+00 0.  1.
       -3    1    3    3    0  502  0.11803075563E+04  0.24411448572E+03  0.13140620396E+03  0.12124295485E+04  0.10100000352E+00 0. -1.
</event>
<event>
 5   0  0.6648328E-05  0.2559287E+04  0.7818609E-02  0.8382163E-01
       -2   -1    0    0    0  501  0.00000000000E+00  0.00000000000E+00  0.80953935861E+03  0.80953935861E+03  0.25500000920E-02 0. -1.
        2   -1    0    0  501    0  0.00000000000E+00  0.00000000000E+00 -0.20227397241E+04  0.20227397241E+04  0.25500000920E-02 0.  1.
    10030    2    1    2    0    0  0.00000000000E+00  0.00000000000E+00 -0.12132003655E+04  0.28322790827E+04  0.25592869467E+04 0.  0.
        2    1    3    3  502    0 -0.11768858989E+04  0.36056142216E+03 -0.99381111960E+03  0.15820004740E+04  0.25500000920E-02 0.  1.
       -2    1    3    3    0  502  0.11768858989E+04 -0.36056142216E+03 -0.21938924585E+03  0.12502786087E+04  0.25500000920E-02 0. -1.
</event>
<event>
 5   0  0.6445331E-05  0.2456281E+04  0.7818609E-02  0.8418728E-01
       -2   -1    0    0    0  501  0.00000000000E+00  0.00000000000E+00  0.17467260401E+04  0.17467260401E+04  0.25500000920E-02 0. -1.
        2   -1    0    0  501    0  0.00000000000E+00  0.00000000000E+00 -0.86351770816E+03  0.86351770816E+03  0.25500000920E-02 0.  1.
    10030    2    1    2    0    0  0.00000000000E+00  0.00000000000E+00  0.88320833190E+03  0.26102437482E+04  0.24562808202E+04 0.  0.
        1    1    3    3  502    0  0.10060094425E+04 -0.18494935085E+03 -0.28075935905E+03  0.10607012202E+04  0.50400001928E-02 0.  1.
       -1    1    3    3    0  502 -0.10060094425E+04  0.18494935085E+03  0.11639676910E+04  0.15495425281E+04  0.50400001928E-02 0. -1.
</event>
<event>
 5   0  0.7071821E-05  0.2590813E+04  0.7818609E-02  0.8371329E-01
       -2   -1    0    0    0  501  0.00000000000E+00  0.00000000000E+00  0.12818356357E+04  0.12818356357E+04  0.25500000920E-02 0.  1.
        2   -1    0    0  501    0  0.00000000000E+00  0.00000000000E+00 -0.13091205795E+04  0.13091205795E+04  0.25500000920E-02 0. -1.
    10030    2    1    2    0    0  0.00000000000E+00  0.00000000000E+00 -0.27284943739E+02  0.25909562152E+04  0.25908125446E+04 0.  0.
        5    1    3    3  502    0 -0.10976688756E+04 -0.60704830280E+03  0.30990401153E+03  0.12920708916E+04  0.46999998093E+01 0. -1.
       -5    1    3    3    0  502  0.10976688756E+04  0.60704830280E+03 -0.33718895527E+03  0.12988853237E+04  0.46999998093E+01 0.  1.
</event>
<event>
 5   0  0.2896652E-05  0.2506785E+04  0.7818609E-02  0.8400572E-01
       -1   -1    0    0    0  501  0.00000000000E+00  0.00000000000E+00  0.99297399369E+03  0.99297399370E+03  0.50400001928E-02 0. -1.
        1   -1    0    0  501    0  0.00000000000E+00  0.00000000000E+00 -0.15821081718E+04  0.15821081719E+04  0.50400001928E-02 0.  1.
    10030    2    1    2    0    0  0.00000000000E+00  0.00000000000E+00 -0.58913417816E+03  0.25750821656E+04  0.25067846097E+04 0.  0.
        4    1    3    3  502    0 -0.10712940465E+03 -0.83430322369E+03  0.65997084218E+03  0.10691593444E+04  0.12699999809E+01 0. -1.
       -4    1    3    3    0  502  0.10712940465E+03  0.83430322369E+03 -0.12491050203E+04  0.15059228211E+04  0.12699999809E+01 0.  1.
</event>
<event>
 5   0  0.2977854E-05  0.2403363E+04  0.7818609E-02  0.8438246E-01
        1   -1    0    0  501    0  0.00000000000E+00  0.00000000000E+00  0.28608232124E+04  0.28608232124E+04  0.50400001928E-02 0.  1.
       -1   -1    0    0    0  501  0.00000000000E+00  0.00000000000E+00 -0.50476322105E+03  0.50476322108E+03  0.50400001928E-02 0. -1.
    10030    2    1    2    0    0  0.00000000000E+00  0.00000000000E+00  0.23560599914E+04  0.33655864335E+04  0.24033629269E+04 0.  0.
        1    1    3    3  502    0  0.69345968433E+03 -0.93074822169E+03  0.74220406050E+03  0.13776957042E+04  0.50400001928E-02 0. -1.
       -1    1    3    3    0  502 -0.69345968433E+03  0.93074822169E+03  0.16138559309E+04  0.19878907293E+04  0.50400001928E-02 0.  1.
</event>
<event>
 5   0  0.2777539E-05  0.2246701E+04  0.7818609E-02  0.8499238E-01
        1   -1    0    0  501    0  0.00000000000E+00  0.00000000000E+00  0.22742691243E+04  0.22742691243E+04  0.50400001928E-02 0. -1.
       -1   -1    0    0    0  501  0.00000000000E+00  0.00000000000E+00 -0.55486658860E+03  0.55486658862E+03  0.50400001928E-02 0.  1.
    10030    2    1    2    0    0  0.00000000000E+00  0.00000000000E+00  0.17194025357E+04  0.28291357130E+04  0.22467006482E+04 0.  0.
        3    1    3    3  502    0  0.14697156613E+03  0.28399404382E+03  0.22157472345E+04  0.22387025429E+04  0.10100000352E+00 0. -1.
       -3    1    3    3    0  502 -0.14697156613E+03 -0.28399404382E+03 -0.49634469874E+03  0.59043317009E+03  0.10100000352E+00 0.  1.
</event>
<event>
 5   0  0.6827859E-05  0.2444906E+04  0.7818609E-02  0.8422880E-01
       -2   -1    0    0    0  501  0.00000000000E+00  0.00000000000E+00  0.10046592300E+04  0.10046592300E+04  0.25500000920E-02 0.  1.
        2   -1    0    0  501    0  0.00000000000E+00  0.00000000000E+00 -0.14874611045E+04  0.14874611045E+04  0.25500000920E-02 0. -1.
    10030    2    1    2    0    0  0.00000000000E+00  0.00000000000E+00 -0.48280187453E+03  0.24921203345E+04  0.24449061560E+04 0.  0.
        3    1    3    3  502    0 -0.10275171767E+04 -0.41266026301E+02  0.43234535469E+03  0.11155343784E+04  0.10100000352E+00 0.  1.
       -3    1    3    3    0  502  0.10275171767E+04  0.41266026301E+02 -0.91514722922E+03  0.13765859562E+04  0.10100000352E+00 0. -1.
</event>
<event>
 5   0  0.6648328E-05  0.2515933E+04  0.7818609E-02  0.8397331E-01
       -2   -1    0    0    0  501  0.00000000000E+00  0.00000000000E+00  0.11045696542E+04  0.11045696542E+04  0.25500000920E-02 0. -1.
        2   -1    0    0  501    0  0.00000000000E+00  0.00000000000E+00 -0.14326658113E+04  0.14326658113E+04  0.25500000920E-02 0.  1.
    10030    2    1    2    0    0  0.00000000000E+00  0.00000000000E+00 -0.32809615716E+03  0.25372354655E+04  0.25159325744E+04 0.  0.
        2    1    3    3  502    0 -0.75192549752E+03  0.86284454883E+03 -0.69056696643E+03  0.13367031849E+04  0.25500000920E-02 0. -1.
       -2    1    3    3    0  502  0.75192549752E+03 -0.86284454883E+03  0.36247080927E+03  0.12005322806E+04  0.25500000920E-02 0.  1.
</event>
<event>
 5   0  0.2793920E-05  0.1457262E+04  0.7818609E-02  0.8913382E-01
       -1   -1    0    0    0  501  0.00000000000E+00  0.00000000000E+00  0.90126850191E+03  0.90126850193E+03  0.50400001928E-02 0. -1.
        1   -1    0    0  501    0  0.00000000000E+00  0.00000000000E+00 -0.58906193073E+03  0.58906193075E+03  0.50400001928E-02 0.  1.
    10030    2    1    2    0    0  0.00000000000E+00  0.00000000000E+00  0.31220657118E+03  0.14903304327E+04  0.14572617663E+04 0.  0.
        2    1    3    3  502    0 -0.47039313654E+03 -0.63325142456E+02 -0.40927373070E+03  0.62672542889E+03  0.25500000920E-02 0.  1.
       -2    1    3    3    0  502  0.47039313654E+03  0.63325142456E+02  0.72148030188E+03  0.86360500379E+03  0.25500000920E-02 0. -1.
</event>
<event>
 5   0  0.2793920E-05  0.2482597E+04  0.7818609E-02  0.8409212E-01
        1   -1    0    0  501    0  0.00000000000E+00  0.00000000000E+00  0.13717947344E+04  0.13717947344E+04  0.50400001928E-02 0.  1.
       -1   -1    0    0    0  501  0.00000000000E+00  0.00000000000E+00 -0.11232157795E+04  0.11232157795E+04  0.50400001928E-02 0. -1.
    10030    2    1    2    0    0  0.00000000000E+00  0.00000000000E+00  0.24857895494E+03  0.24950105139E+04  0.24825966180E+04 0.  0.
        2    1    3    3  502    0  0.10508006374E+04  0.44889126132E+03  0.61162258897E+03  0.12960584614E+04  0.25500000920E-02 0.  1.
       -2    1    3    3    0  502 -0.10508006374E+04 -0.44889126132E+03 -0.36304363402E+03  0.11989520525E+04  0.25500000920E-02 0. -1.
</event>
<event>
 5   0  0.6445331E-05  0.2669177E+04  0.7818609E-02  0.8345076E-01
        2   -1    0    0  501    0  0.00000000000E+00  0.00000000000E+00  0.10117719159E+04  0.10117719159E+04  0.25500000920E-02 0. -1.
       -2   -1    0    0    0  501  0.00000000000E+00  0.00000000000E+00 -0.17604026192E+04  0.17604026192E+04  0.25500000920E-02 0.  1.
    10030    2    1    2    0    0  0.00000000000E+00  0.00000000000E+00 -0.74863070326E+03  0.27721745351E+04  0.26691766002E+04 0.  0.
        1    1    3    3  502    0 -0.60382212825E+03 -0.10773243186E+04  0.15106754024E+03  0.12442066757E+04  0.50400001928E-02 0.  1.
       -1    1    3    3    0  502  0.60382212825E+03  0.10773243186E+04 -0.89969824350E+03  0.15279678594E+04  0.50400001928E-02 0. -1.
</event>
<event>
 5   0  0.2777539E-05  0.2603140E+04  0.7818609E-02  0.8367135E-01
       -1   -1    0    0    0  501  0.00000000000E+00  0.00000000000E+00  0.74860498853E+03  0.74860498854E+03  0.50400001928E-02 0. -1.
        1   -1    0    0  501    0  0.00000000000E+00  0.00000000000E+00 -0.22629892281E+04  0.22629892282E+04  0.50400001928E-02 0.  1.
    10030    2    1    2    0    0  0.00000000000E+00  0.00000000000E+00 -0.15143842396E+04  0.30115942167E+04  0.26031404305E+04 0.  0.
        3    1    3    3  502    0 -0.96205181467E+03 -0.38699224603E+03  0.15286028660E+03  0.10481760205E+04  0.10100000352E+00 0. -1.
       -3    1    3    3    0  502  0.96205181467E+03  0.38699224603E+03 -0.16672445262E+04  0.19634181962E+04  0.10100000352E+00 0.  1.
</event>
<event>
 5   0  0.6445331E-05  0.2565155E+04  0.7818609E-02  0.8380134E-01
       -2   -1    0    0    0  501  0.00000000000E+00  0.00000000000E+00  0.10665479834E+04  0.10665479834E+04  0.25500000920E-02 0.  1.
        2   -1    0    0  501    0  0.00000000000E+00  0.00000000000E+00 -0.15423642942E+04  0.15423642942E+04  0.25500000920E-02 0. -1.
    10030    2    1    2    0    0  0.00000000000E+00  0.00000000000E+00 -0.47581631083E+03  0.26089122776E+04  0.25651553775E+04 0.  0.
        1    1    3    3  502    0  0.11299854772E+04  0.55050272960E+03  0.21561495123E+02  0.12571337765E+04  0.50400001928E-02 0.  1.
       -1    1    3    3    0  502 -0.11299854772E+04 -0.55050272960E+03 -0.49737780595E+03  0.13517785011E+04  0.50400001928E-02 0. -1.
</event>
<event>
 5   0  0.2793920E-05  0.2481791E+04  0.7818609E-02  0.8409502E-01
       -1   -1    0    0    0  501  0.00000000000E+00  0.00000000000E+00  0.63337071994E+03  0.63337071996E+03  0.50400001928E-02 0. -1.
        1   -1    0    0  501    0  0.00000000000E+00  0.00000000000E+00 -0.24311530816E+04  0.24311530816E+04  0.50400001928E-02 0.  1.
    10030    2    1    2    0    0  0.00000000000E+00  0.00000000000E+00 -0.17977823616E+04  0.30645238015E+04  0.24817906258E+04 0.  0.
        2    1    3    3  502    0  0.86012001029E+03  0.79204718978E+03 -0.14120051547E+04  0.18332767766E+04  0.25500000920E-02 0.  1.
       -2    1    3    3    0  502 -0.86012001029E+03 -0.79204718978E+03 -0.38577720697E+03  0.12312470249E+04  0.25500000920E-02 0. -1.
</event>
<event>
 5   0  0.2896652E-05  0.2454293E+04  0.7818609E-02  0.8419452E-01
       -1   -1    0    0    0  501  0.00000000000E+00  0.00000000000E+00  0.15054356001E+04  0.15054356001E+04  0.50400001928E-02 0.  1.
        1   -1    0    0  501    0  0.00000000000E+00  0.00000000000E+00 -0.10003004594E+04  0.10003004594E+04  0.50400001928E-02 0. -1.
    10030    2    1    2    0    0  0.00000000000E+00  0.00000000000E+00  0.50513514071E+03  0.25057360595E+04  0.24542925028E+04 0.  0.
        4    1    3    3  502    0 -0.73440619662E+03  0.98306137362E+03  0.24119022533E+03  0.12505744535E+04  0.12699999809E+01 0. -1.
       -4    1    3    3    0  502  0.73440619662E+03 -0.98306137362E+03  0.26394491537E+03  0.12551616060E+04  0.12699999809E+01 0.  1.
</event>
<event>
 5   0  0.6909250E-05  0.2476109E+04  0.7818609E-02  0.8411546E-01
       -2   -1    0    0    0  501  0.00000000000E+00  0.00000000000E+00  0.73040634436E+03  0.73040634437E+03  0.25500000920E-02 0. -1.
        2   -1    0    0  501    0  0.00000000000E+00  0.00000000000E+00 -0.20985296505E+04  0.20985296505E+04  0.25500000920E-02 0.  1.
    10030    2    1    2    0    0  0.00000000000E+00  0.00000000000E+00 -0.13681233062E+04  0.28289359949E+04  0.24761093438E+04 0.  0.
        4    1    3    3  502    0  0.66844762802E+03  0.65872752310E+03  0.23848488353E+03  0.96830823277E+03  0.12699999809E+01 0. -1.
       -4    1    3    3    0  502 -0.66844762802E+03 -0.65872752310E+03 -0.16066081897E+04  0.18606277621E+04  0.12699999809E+01 0.  1.
</event>
<event>
 5   0  0.6648328E-05  0.2079970E+04  0.7818609E-02  0.8570118E-01
        2   -1    0    0  501    0  0.00000000000E+00  0.00000000000E+00  0.82259929552E+03  0.82259929552E+03  0.25500000920E-02 0. -1.
       -2   -1    0    0    0  501  0.00000000000E+00  0.00000000000E+00 -0.13148187319E+04  0.13148187319E+04  0.25500000920E-02 0.  1.
    10030    2    1    2    0    0  0.00000000000E+00  0.00000000000E+00 -0.49221943638E+03  0.21374180274E+04  0.20799701561E+04 0.  0.
        2    1    3    3  502    0 -0.49218207710E+03  0.77453863388E+03  0.25670577436E+03  0.95291717740E+03  0.25500000920E-02 0. -1.
       -2    1    3    3    0  502  0.49218207710E+03 -0.77453863388E+03 -0.74892521074E+03  0.11845008500E+04  0.25500000920E-02 0.  1.
</event>
<event>
 5   0  0.2980790E-05  0.2534361E+04  0.7818609E-02  0.8390846E-01
       -1   -1    0    0    0  501  0.00000000000E+00  0.00000000000E+00  0.14294787617E+04  0.14294787617E+04  0.50400001928E-02 0. -1.
        1   -1    0    0  501    0  0.00000000000E+00  0.00000000000E+00 -0.11233088115E+04  0.11233088115E+04  0.50400001928E-02 0.  1.
    10030    2    1    2    0    0  0.00000000000E+00  0.00000000000E+00  0.30616995024E+03  0.25527875732E+04  0.25343607390E+04 0.  0.
        5    1    3    3  502    0  0.16774386746E+03  0.89010746592E+03  0.10456966774E+04  0.13834496511E+04  0.46999998093E+01 0.  1.
       -5    1    3    3    0  502 -0.16774386746E+03 -0.89010746592E+03 -0.73952672717E+03  0.11693379221E+04  0.46999998093E+01 0. -1.
</event>
<event>
 5   0  0.7071821E-05  0.2516182E+04  0.7818609E-02  0.8397243E-01
        2   -1    0    0  501    0  0.00000000000E+00  0.00000000000E+00  0.15452471950E+04  0.15452471950E+04  0.25500000920E-02 0.  1.
       -2   -1    0    0    0  501  0.00000000000E+00  0.00000000000E+00 -0.10242977319E+04  0.10242977319E+04  0.25500000920E-02 0. -1.
    10030    2    1    2    0    0  0.00000000000E+00  0.00000000000E+00  0.52094946309E+03  0.25695449269E+04  0.25161821850E+04 0.  0.
        5    1    3    3  502    0  0.29899036314E+03 -0.10457343275E+04  0.90619436620E+03  0.14156856432E+04  0.46999998093E+01 0.  1.
       -5    1    3    3    0  502 -0.29899036314E+03  0.10457343275E+04 -0.38524490311E+03  0.11538592836E+04  0.46999998093E+01 0. -1.
</event>
<event>
 5   0  0.6648328E-05  0.2357964E+04  0.7818609E-02  0.8455411E-01
        2   -1    0    0  501    0  0.00000000000E+00  0.00000000000E+00  0.15312188466E+04  0.15312188466E+04  0.25500000920E-02 0. -1.
       -2   -1    0    0    0  501  0.00000000000E+00  0.00000000000E+00 -0.90777287747E+03  0.90777287747E+03  0.25500000920E-02 0.  1.
    10030    2    1    2    0    0  0.00000000000E+00  0.00000000000E+00  0.62344596917E+03  0.24389917241E+04  0.23579643241E+04 0.  0.
        2    1    3    3  502    0 -0.47762480800E+03 -0.10705579531E+04  0.18179134939E+03  0.11862832220E+04  0.25500000920E-02 0.  1.
       -2    1    3    3    0  502  0.47762480800E+03  0.10705579531E+04  0.44165461978E+03  0.12527085021E+04  0.25500000920E-02 0. -1.
</event>
<event>
 5   0  0.2331375E-05  0.2422083E+04  0.7818609E-02  0.8431282E-01
       -4   -1    0    0    0  501  0.00000000000E+00  0.00000000000E+00  0.11610290204E+04  0.11610297150E+04  0.12699999809E+01 0. -1.
        4   -1    0    0  501    0  0.00000000000E+00  0.00000000000E+00 -0.12632066257E+04  0.12632072641E+04  0.12699999809E+01 0.  1.
    10030    2    1    2    0    0  0.00000000000E+00  0.00000000000E+00 -0.10217760529E+03  0.24242369790E+04  0.24220827128E+04 0.  0.
        4    1    3    3  502    0  0.73677106384E+03  0.48200771134E+03  0.78118943639E+03  0.11770393293E+04  0.12699999809E+01 0. -1.
       -4    1    3    3    0  502 -0.73677106384E+03 -0.48200771134E+03 -0.88336704168E+03  0.12471976497E+04  0.12699999809E+01 0.  1.
</event>
<event>
 5   0  0.2777539E-05  0.1629131E+04  0.7818609E-02  0.8802849E-01
       -1   -1    0    0    0  501  0.00000000000E+00  0.00000000000E+00  0.72104873764E+03  0.72104873766E+03  0.50400001928E-02 0.  1.
        1   -1    0    0  501    0  0.00000000000E+00  0.00000000000E+00 -0.92021122127E+03  0.92021122129E+03  0.50400001928E-02 0. -1.
    10030    2    1    2    0    0  0.00000000000E+00  0.00000000000E+00 -0.19916248363E+03  0.16412599589E+04  0.16291312280E+04 0.  0.
        3    1    3    3  502    0 -0.40503684064E+03  0.54494844754E+03 -0.55292414778E+03  0.87564192234E+03  0.10100000352E+00 0.  1.
       -3    1    3    3    0  502  0.40503684064E+03 -0.54494844754E+03  0.35376166415E+03  0.76561803661E+03  0.10100000352E+00 0. -1.
</event>
<event>
 5   0  0.6445331E-05  0.2451231E+04  0.7818609E-02  0.8420569E-01
        2   -1    0    0  501    0  0.00000000000E+00  0.00000000000E+00  0.94394904195E+03  0.94394904196E+03  0.25500000920E-02 0.  1.
       -2   -1    0    0    0  501  0.00000000000E+00  0.00000000000E+00 -0.15913290541E+04  0.15913290542E+04  0.25500000920E-02 0. -1.
    10030    2    1    2    0    0  0.00000000000E+00  0.00000000000E+00 -0.64738001220E+03  0.25352780961E+04  0.24512311487E+04 0.  0.
        1    1    3    3  502    0 -0.84073154923E+03 -0.21777523600E+03 -0.12181413080E+04  0.14960360415E+04  0.50400001928E-02 0. -1.
       -1    1    3    3    0  502  0.84073154923E+03  0.21777523600E+03  0.57076129576E+03  0.10392420546E+04  0.50400001928E-02 0.  1.
</event>
<event>
 5   0  0.2777539E-05  0.2565695E+04  0.7818609E-02  0.8379948E-01
       -1   -1    0    0    0  501  0.00000000000E+00  0.00000000000E+00  0.13190777668E+04  0.13190777668E+04  0.50400001928E-02 0. -1.
        1   -1    0    0  501    0  0.00000000000E+00  0.00000000000E+00 -0.12476123351E+04  0.12476123351E+04  0.50400001928E-02 0.  1.
    10030    2    1    2    0    0  0.00000000000E+00  0.00000000000E+00  0.71465431693E+02  0.25666901018E+04  0.25656949879E+04 0.  0.
        3    1    3    3  502    0  0.11845651434E+04 -0.28417075393E+03 -0.36660492987E+03  0.12721425947E+04  0.10100000352E+00 0.  1.
       -3    1    3    3    0  502 -0.11845651434E+04  0.28417075393E+03  0.43807036156E+03  0.12945475072E+04  0.10100000352E+00 0. -1.
</event>
<event>
 5   0  0.6648328E-05  0.1406409E+04  0.7818609E-02  0.8949192E-01
       -2   -1    0    0    0  501  0.00000000000E+00  0.00000000000E+00  0.29720873796E+03  0.29720873797E+03  0.25500000920E-02 0.  1.
        2   -1    0    0  501    0  0.00000000000E+00  0.00000000000E+00 -0.16638027600E+04  0.16638027600E+04  0.25500000920E-02 0. -1.
    10030    2    1    2    0    0  0.00000000000E+00  0.00000000000E+00 -0.13665940220E+04  0.19610114979E+04  0.14064092129E+04 0.  0.
        2    1    3    3  502    0 -0.55451294455E+03  0.17789887723E+03 -0.12328932821E+04  0.13635096117E+04  0.25500000920E-02 0.  1.
       -2    1    3    3    0  502  0.55451294455E+03 -0.17789887723E+03 -0.13370073992E+03  0.59750188623E+03  0.25500000920E-02 0. -1.
</event>
<event>
 5   0  0.6827859E-05  0.2245548E+04  0.7818609E-02  0.8499706E-01
        2   -1    0    0  501    0  0.00000000000E+00  0.00000000000E+00  0.16190249266E+04  0.16190249266E+04  0.25500000920E-02 0. -1.
       -2   -1    0    0    0  501  0.00000000000E+00  0.00000000000E+00 -0.77862997807E+03  0.77862997807E+03  0.25500000920E-02 0.  1.
    10030    2    1    2    0    0  0.00000000000E+00  0.00000000000E+00  0.84039494852E+03  0.23976549047E+04  0.22455479003E+04 0.  0.
        3    1    3    3  502    0 -0.28916179977E+03 -0.10809544503E+04  0.32150099667E+03  0.11642336411E+04  0.10100000352E+00 0. -1.
       -3    1    3    3    0  502  0.28916179977E+03  0.10809544503E+04  0.51889395186E+03  0.12334212636E+04  0.10100000352E+00 0.  1.
</event>
<event>
 5   0  0.6445331E-05  0.2499500E+04  0.7818609E-02  0.8403164E-01
        2   -1    0    0  501    0  0.00000000000E+00  0.00000000000E+00  0.10300358876E+04  0.10300358876E+04  0.25500000920E-02 0. -1.
       -2   -1    0    0    0  501  0.00000000000E+00  0.00000000000E+00 -0.15163304962E+04  0.15163304962E+04  0.25500000920E-02 0.  1.
    10030    2    1    2    0    0  0.00000000000E+00  0.00000000000E+00 -0.48629460863E+03  0.25463663838E+04  0.24994998128E+04 0.  0.
        1    1    3    3  502    0 -0.47949611647E+03  0.31164471534E+02 -0.14184634530E+04  0.14976402497E+04  0.50400001928E-02 0.  1.
       -1    1    3    3    0  502  0.47949611647E+03 -0.31164471534E+02  0.93216884435E+03  0.10487261341E+04  0.50400001928E-02 0. -1.
</event>
<event>
 5   0  0.7071821E-05  0.1995446E+04  0.7818609E-02  0.8608753E-01
       -2   -1    0    0    0  501  0.00000000000E+00  0.00000000000E+00  0.11263573127E+04  0.11263573127E+04  0.25500000920E-02 0.  1.
        2   -1    0    0  501    0  0.00000000000E+00  0.00000000000E+00 -0.88377894282E+03  0.88377894282E+03  0.25500000920E-02 0. -1.
    10030    2    1    2    0    0  0.00000000000E+00  0.00000000000E+00  0.24257836983E+03  0.20101362555E+04  0.19954456896E+04 0.  0.
        5    1    3    3  502    0  0.91787270534E+03  0.30545316608E+03  0.36729360768E+03  0.10347553451E+04  0.46999998093E+01 0. -1.
       -5    1    3    3    0  502 -0.91787270534E+03 -0.30545316608E+03 -0.12471523784E+03  0.97538091043E+03  0.46999998093E+01 0.  1.
</event>
<event>
 5   0  0.2896652E-05  0.2515678E+04  0.7818609E-02  0.8397421E-01
        1   -1    0    0  501    0  0.00000000000E+00  0.00000000000E+00  0.73484188364E+03  0.73484188365E+03  0.50400001928E-02 0. -1.
       -1   -1    0    0    0  501  0.00000000000E+00  0.00000000000E+00 -0.21530612314E+04  0.21530612314E+04  0.50400001928E-02 0.  1.
    10030    2    1    2    0    0  0.00000000000E+00  0.00000000000E+00 -0.14182193478E+04  0.28879031151E+04  0.25156784937E+04 0.  0.
        4    1    3    3  502    0 -0.29072083911E+03 -0.11738631240E+04 -0.11062526010E+04  0.16389843411E+04  0.12699999809E+01 0.  1.
       -4    1    3    3    0  502  0.29072083911E+03  0.11738631240E+04 -0.31196674675E+03  0.12489187740E+04  0.12699999809E+01 0. -1.
</event>
<event>
 5   0  0.2980790E-05  0.2444252E+04  0.7818609E-02  0.8423120E-01
        1   -1    0    0  501    0  0.00000000000E+00  0.00000000000E+00  0.14485430599E+04  0.14485430599E+04  0.50400001928E-02 0. -1.
       -1   -1    0    0    0  501  0.00000000000E+00  0.00000000000E+00 -0.10310995369E+04  0.10310995369E+04  0.50400001928E-02 0.  1.
    10030    2    1    2    0    0  0.00000000000E+00  0.00000000000E+00  0.41744352306E+03  0.24796425968E+04  0.24442520968E+04 0.  0.
        5    1    3    3  502    0  0.82841964539E+03 -0.13298242263E+03  0.11101859202E+04  0.13915812233E+04  0.46999998093E+01 0. -1.
       -5    1    3    3    0  502 -0.82841964539E+03  0.13298242263E+03 -0.69274239717E+03  0.10880613735E+04  0.46999998093E+01 0.  1.
</event>
<event>
 5   0  0.6909250E-05  0.2508939E+04  0.7818609E-02  0.8399808E-01
       -2   -1    0    0    0  501  0.00000000000E+00  0.00000000000E+00  0.89119473555E+03  0.89119473556E+03  0.25500000920E-02 0.  1.
        2   -1    0    0  501    0  0.00000000000E+00  0.00000000000E+00 -0.17658243775E+04  0.17658243775E+04  0.25500000920E-02 0. -1.
    10030    2    1    2    0    0  0.00000000000E+00  0.00000000000E+00 -0.87462964195E+03  0.26570191131E+04  0.25089387311E+04 0.  0.
        4    1    3    3  502    0  0.11924019048E+04  0.33783370118E+03 -0.64304276252E+03  0.13962304679E+04  0.12699999809E+01 0.  1.
       -4    1    3    3    0  502 -0.11924019048E+04 -0.33783370118E+03 -0.23158687943E+03  0.12607886452E+04  0.12699999809E+01 0. -1.
</event>
<event>
 5   0  0.2896652E-05  0.2315590E+04  0.7818609E-02  0.8471799E-01
       -1   -1    0    0    0  501  0.00000000000E+00  0.00000000000E+00  0.66186131769E+03  0.66186131771E+03  0.50400001928E-02 0.  1.
        1   -1    0    0  501    0  0.00000000000E+00  0.00000000000E+00 -0.20253333189E+04  0.20253333189E+04  0.50400001928E-02 0. -1.
    10030    2    1    2    0    0  0.00000000000E+00  0.00000000000E+00 -0.13634720012E+04  0.26871946366E+04  0.23155904467E+04 0.  0.
        4    1    3    3  502    0  0.77448054278E+03 -0.24961494999E+03 -0.16375373271E+04  0.18285671562E+04  0.12699999809E+01 0. -1.
       -4    1    3    3    0  502 -0.77448054278E+03  0.24961494999E+03  0.27406532584E+03  0.85862748042E+03  0.12699999809E+01 0.  1.
</event>
<event>
 5   0  0.2977854E-05  0.2523280E+04  0.7818609E-02  0.8394739E-01
       -1   -1    0    0    0  501  0.00000000000E+00  0.00000000000E+00  0.58669185228E+03  0.58669185230E+03  0.50400001928E-02 0. -1.
        1   -1    0    0  501    0  0.00000000000E+00  0.00000000000E+00 -0.27130683725E+04  0.27130683725E+04  0.50400001928E-02 0.  1.
    10030    2    1    2    0    0  0.00000000000E+00  0.00000000000E+00 -0.21263765202E+04  0.32997602248E+04  0.25232796982E+04 0.  0.
        1    1    3    3  502    0  0.24584685601E+03  0.81285998910E+03  0.15696564883E+03  0.86360885441E+03  0.50400001928E-02 0. -1.
       -1    1    3    3    0  502 -0.24584685601E+03 -0.81285998910E+03 -0.22833421690E+04  0.24361513704E+04  0.50400001928E-02 0.  1.
</event>
<event>
 5   0  0.6445331E-05  0.2582769E+04  0.7818609E-02  0.8374078E-01
       -2   -1    0    0    0  501  0.00000000000E+00  0.00000000000E+00  0.15980695091E+04  0.15980695091E+04  0.25500000920E-02 0.  1.
        2   -1    0    0  501    0  0.00000000000E+00  0.00000000000E+00 -0.10435556907E+04  0.10435556907E+04  0.25500000920E-02 0. -1.
    10030    2    1    2    0    0  0.00000000000E+00  0.00000000000E+00  0.55451381840E+03  0.26416251998E+04  0.25827694674E+04 0.  0.
        1    1    3    3  502    0  0.49943583840E+03 -0.11797069961E+04  0.11066559423E+03  0.12858427692E+04  0.50400001928E-02 0. -1.
       -1    1    3    3    0  502 -0.49943583840E+03  0.11797069961E+04  0.44384822417E+03  0.13557824307E+04  0.50400001928E-02 0.  1.
</event>
<event>
 5   0  0.2980790E-05  0.2087638E+04  0.7818609E-02  0.8566709E-01
       -1   -1    0    0    0  501  0.00000000000E+00  0.00000000000E+00  0.13095758658E+04  0.13095758658E+04  0.50400001928E-02 0. -1.
        1   -1    0    0  501    0  0.00000000000E+00  0.00000000000E+00 -0.83199300103E+03  0.83199300104E+03  0.50400001928E-02 0.  1.
    10030    2    1    2    0    0  0.00000000000E+00  0.00000000000E+00  0.47758286475E+03  0.21415688668E+04  0.20876378562E+04 0.  0.
        5    1    3    3  502    0  0.32737162680E+03 -0.41779177708E+02 -0.77705217512E+03  0.84424513892E+03  0.46999998093E+01 0.  1.
       -5    1    3    3    0  502 -0.32737162680E+03  0.41779177708E+02  0.12546350399E+04  0.12973237279E+04  0.46999998093E+01 0. -1.
</event>
<event>
 5   0  0.6909250E-05  0.2359727E+04  0.7818609E-02  0.8454737E-01
        2   -1    0    0  501    0  0.00000000000E+00  0.00000000000E+00  0.12202216460E+04  0.12202216460E+04  0.25500000920E-02 0.  1.
       -2   -1    0    0    0  501  0.00000000000E+00  0.00000000000E+00 -0.11408403183E+04  0.11408403183E+04  0.25500000920E-02 0. -1.
    10030    2    1    2    0    0  0.00000000000E+00  0.00000000000E+00  0.79381327684E+02  0.23610619643E+04  0.23597271461E+04 0.  0.
        4    1    3    3  502    0 -0.33726814500E+03 -0.11241309858E+04  0.16082178668E+03  0.11846035349E+04  0.12699999809E+01 0. -1.
       -4    1    3    3    0  502  0.33726814500E+03  0.11241309858E+04 -0.81440458993E+02  0.11764584294E+04  0.12699999809E+01 0.  1.
</event>
<event>
 5   0  0.6445331E-05  0.2510882E+04  0.7818609E-02  0.8399119E-01
        2   -1    0    0  501    0  0.00000000000E+00  0.00000000000E+00  0.14740085254E+04  0.14740085254E+04  0.25500000920E-02 0.  1.
       -2   -1    0    0    0  501  0.00000000000E+00  0.00000000000E+00 -0.10692828024E+04  0.10692828024E+04  0.25500000920E-02 0. -1.
    10030    2    1    2    0    0  0.00000000000E+00  0.00000000000E+00  0.40472572298E+03  0.25432913278E+04  0.25108818903E+04 0.  0.
        1    1    3    3  502    0  0.93411935194E+03  0.26667371838E+03  0.10078875383E+04  0.13998325348E+04  0.50400001928E-02 0.  1.
       -1    1    3    3    0  502 -0.93411935194E+03 -0.26667371838E+03 -0.60316181528E+03  0.11434587930E+04  0.50400001928E-02 0. -1.
</event>
<event>
 5   0  0.6827859E-05  0.2510037E+04  0.7818609E-02  0.8399419E-01
        2   -1    0    0  501    0  0.00000000000E+00  0.00000000000E+00  0.21260096073E+04  0.21260096073E+04  0.25500000920E-02 0.  1.
       -2   -1    0    0    0  501  0.00000000000E+00  0.00000000000E+00 -0.74085800739E+03  0.74085800739E+03  0.25500000920E-02 0. -1.
    10030    2    1    2    0    0  0.00000000000E+00  0.00000000000E+00  0.13851515999E+04  0.28668676147E+04  0.25100368454E+04 0.  0.
        3    1    3    3  502    0  0.30312402504E+03  0.93758246795E+02 -0.69429077083E+03  0.76335736589E+03  0.10100000352E+00 0. -1.
       -3    1    3    3    0  502 -0.30312402504E+03 -0.93758246795E+02  0.20794423707E+04  0.21035102488E+04  0.10100000352E+00 0.  1.
</event>
<event>
 5   0  0.6648328E-05  0.1469646E+04  0.7818609E-02  0.8904893E-01
       -2   -1    0    0    0  501  0.00000000000E+00  0.00000000000E+00  0.22483882331E+03  0.22483882333E+03  0.25500000920E-02 0. -1.
        2   -1    0    0  501    0  0.00000000000E+00  0.00000000000E+00 -0.24015628743E+04  0.24015628743E+04  0.25500000920E-02 0.  1.
    10030    2    1    2    0    0  0.00000000000E+00  0.00000000000E+00 -0.21767240510E+04  0.26264016977E+04  0.14696456318E+04 0.  0.
        2    1    3    3  502    0 -0.41106977970E+03  0.96496537392E+02 -0.13611806287E+02  0.42246328454E+03  0.25500000920E-02 0. -1.
       -2    1    3    3    0  502  0.41106977970E+03 -0.96496537392E+02 -0.21631122447E+04  0.22039384131E+04  0.25500000920E-02 0.  1.
</event>
<event>
 5   0  0.6445331E-05  0.2518620E+04  0.7818609E-02  0.8396382E-01
        2   -1    0    0  501    0  0.00000000000E+00  0.00000000000E+00  0.19014565295E+04  0.19014565295E+04  0.25500000920E-02 0. -1.
       -2   -1    0    0    0  501  0.00000000000E+00  0.00000000000E+00 -0.83402466987E+03  0.83402466988E+03  0.25500000920E-02 0.  1.
    10030    2    1    2    0    0  0.00000000000E+00  0.00000000000E+00  0.10674318596E+04  0.27354811993E+04  0.25186199827E+04 0.  0.
        1    1    3    3  502    0 -0.12172014987E+04  0.25096718182E+03  0.75443187230E+03  0.14538677604E+04  0.50400001928E-02 0.  1.
       -1    1    3    3    0  502  0.12172014987E+04 -0.25096718182E+03  0.31299998729E+03  0.12816134389E+04  0.50400001928E-02 0. -1.
</event>
<event>
 5   0  0.7071821E-05  0.2499691E+04  0.7818609E-02  0.8403096E-01
       -2   -1    0    0    0  501  0.00000000000E+00  0.00000000000E+00  0.55714446233E+03  0.55714446234E+03  0.25500000920E-02 0. -1.
        2   -1    0    0  501    0  0.00000000000E+00  0.00000000000E+00 -0.28037849120E+04  0.28037849120E+04  0.25500000920E-02 0.  1.
    10030    2    1    2    0    0  0.00000000000E+00  0.00000000000E+00 -0.22466404497E+04  0.33609293743E+04  0.24996905707E+04 0.  0.
        5    1    3    3  502    0  0.33494263681E+03 -0.83579917435E+03 -0.22887675180E+04  0.24595173655E+04  0.46999998093E+01 0.  1.
       -5    1    3    3    0  502 -0.33494263681E+03  0.83579917435E+03  0.42127068318E+02  0.90141200884E+03  0.46999998093E+01 0. -1.
</event>
<event>
 5   0  0.6648328E-05  0.2477036E+04  0.7818609E-02  0.8411212E-01
       -2   -1    0    0    0  501  0.00000000000E+00  0.00000000000E+00  0.14715303809E+04  0.14715303809E+04  0.25500000920E-02 0. -1.
        2   -1    0    0  501    0  0.00000000000E+00  0.00000000000E+00 -0.10424025912E+04  0.10424025912E+04  0.25500000920E-02 0.  1.
    10030    2    1    2    0    0  0.00000000000E+00  0.00000000000E+00  0.42912778966E+03  0.25139329721E+04  0.24770361984E+04 0.  0.
        2    1    3    3  502    0 -0.74853203178E+03  0.46105499705E+03  0.10999432904E+04  0.14081005486E+04  0.25500000920E-02 0. -1.
       -2    1    3    3    0  502  0.74853203178E+03 -0.46105499705E+03 -0.67081550070E+03  0.11058324235E+04  0.25500000920E-02 0.  1.
</event>
<event>
 5   0  0.2777539E-05  0.2488274E+04  0.7818609E-02  0.8407175E-01
        1   -1    0    0  501    0  0.00000000000E+00  0.00000000000E+00  0.16182486387E+04  0.16182486387E+04  0.50400001928E-02 0. -1.
       -1   -1    0    0    0  501  0.00000000000E+00  0.00000000000E+00 -0.95651375350E+03  0.95651375351E+03  0.50400001928E-02 0.  1.
    10030    2    1    2    0    0  0.00000000000E+00  0.00000000000E+00  0.66173488519E+03  0.25747623922E+04  0.24882741646E+04 0.  0.
        3    1    3    3  502    0 -0.82993399205E+03 -0.69174419801E+03  0.96921906893E+03  0.14514427582E+04  0.10100000352E+00 0. -1.
       -3    1    3    3    0  502  0.82993399205E+03  0.69174419801E+03 -0.30748418373E+03  0.11233196340E+04  0.10100000352E+00 0.  1.
</event>
<event>
 5   0  0.2977854E-05  0.1794048E+04  0.7818609E-02  0.8709471E-01
       -1   -1    0    0    0  501  0.00000000000E+00  0.00000000000E+00  0.10438613149E+04  0.10438613149E+04  0.50400001928E-02 0. -1.
        1   -1    0    0  501    0  0.00000000000E+00  0.00000000000E+00 -0.77084226821E+03  0.77084226823E+03  0.50400001928E-02 0.  1.
    10030    2    1    2    0    0  0.00000000000E+00  0.00000000000E+00  0.27301904670E+03  0.18147035832E+04  0.17940484093E+04 0.  0.
        1    1    3    3  502    0  0.24891006589E+03 -0.71523795093E+03 -0.34978628052E+03  0.83418942058E+03  0.50400001928E-02 0.  1.
       -1    1    3    3    0  502 -0.24891006589E+03  0.71523795093E+03  0.62280532723E+03  0.98051416257E+03  0.50400001928E-02 0. -1.
</event>
<event>
 5   0  0.6648328E-05  0.2474982E+04  0.7818609E-02  0.8411953E-01
       -2   -1    0    0    0  501  0.00000000000E+00  0.00000000000E+00  0.65738147532E+03  0.65738147533E+03  0.25500000920E-02 0. -1.
        2   -1    0    0  501    0  0.00000000000E+00  0.00000000000E+00 -0.23295216298E+04  0.23295216298E+04  0.25500000920E-02 0.  1.
    10030    2    1    2    0    0  0.00000000000E+00  0.00000000000E+00 -0.16721401545E+04  0.29869031051E+04  0.24749823157E+04 0.  0.
        2    1    3    3  502    0 -0.18978710345E+03 -0.86771592273E+03  0.20379752503E+03  0.91130867350E+03  0.25500000920E-02 0. -1.
       -2    1    3    3    0  502  0.18978710345E+03  0.86771592273E+03 -0.18759376795E+04  0.20755944316E+04  0.25500000920E-02 0.  1.
</event>
<event>
 5   0  0.7071821E-05  0.2492325E+04  0.7818609E-02  0.8405725E-01
        2   -1    0    0  501    0  0.00000000000E+00  0.00000000000E+00  0.13459190942E+04  0.13459190942E+04  0.25500000920E-02 0. -1.
       -2   -1    0    0    0  501  0.00000000000E+00  0.00000000000E+00 -0.11537992452E+04  0.11537992452E+04  0.25500000920E-02 0.  1.
    10030    2    1    2    0    0  0.00000000000E+00  0.00000000000E+00  0.19211984903E+03  0.24997183394E+04  0.24923245655E+04 0.  0.
        5    1    3    3  502    0  0.34483417110E+03 -0.11598550906E+04 -0.20268931636E+03  0.12268983192E+04  0.46999998093E+01 0. -1.
       -5    1    3    3    0  502 -0.34483417110E+03  0.11598550906E+04  0.39480916539E+03  0.12728200202E+04  0.46999998093E+01 0.  1.
</event>
<event>
 5   0  0.7071821E-05  0.2459423E+04  0.7818609E-02  0.8417585E-01
       -2   -1    0    0    0  501  0.00000000000E+00  0.00000000000E+00  0.68251724580E+03  0.68251724580E+03  0.25500000920E-02 0.  1.
        2   -1    0    0  501    0  0.00000000000E+00  0.00000000000E+00 -0.22156084103E+04  0.22156084103E+04  0.25500000920E-02 0. -1.
    10030    2    1    2    0    0  0.00000000000E+00  0.00000000000E+00 -0.15330911645E+04  0.28981256561E+04  0.24594234690E+04 0.  0.
        5    1    3    3  502    0 -0.88506862790E+03  0.42049036946E+03  0.10895706366E+03  0.98592715686E+03  0.46999998093E+01 0.  1.
       -5    1    3    3    0  502  0.88506862790E+03 -0.42049036946E+03 -0.16420482281E+04  0.19121984992E+04  0.46999998093E+01 0. -1.
</event>
<event>
 5   0  0.2896652E-05  0.1531500E+04  0.7818609E-02  0.8863772E-01
       -1   -1    0    0    0  501  0.00000000000E+00  0.00000000000E+00  0.50108006918E+03  0.50108006921E+03  0.50400001928E-02 0. -1.
        1   -1    0    0  501    0  0.00000000000E+00  0.00000000000E+00 -0.11702184342E+04  0.11702184342E+04  0.50400001928E-02 0.  1.
    10030    2    1    2    0    0  0.00000000000E+00  0.00000000000E+00 -0.66913836504E+03  0.16712985034E+04  0.15315000934E+04 0.  0.
        4    1    3    3  502    0 -0.43918019487E+03  0.46699516050E+03 -0.79161679488E+03  0.10186375638E+04  0.12699999809E+01 0.  1.
       -4    1    3    3    0  502  0.43918019487E+03 -0.46699516050E+03  0.12247842984E+03  0.65266093967E+03  0.12699999809E+01 0. -1.
</event>
<event>
 5   0  0.2980790E-05  0.1596940E+04  0.7818609E-02  0.8822430E-01
       -1   -1    0    0    0  501  0.00000000000E+00  0.00000000000E+00  0.65033010034E+03  0.65033010036E+03  0.50400001928E-02 0. -1.
        1   -1    0    0  501    0  0.00000000000E+00  0.00000000000E+00 -0.98035490891E+03  0.98035490892E+03  0.50400001928E-02 0.  1.
    10030    2    1    2    0    0  0.00000000000E+00  0.00000000000E+00 -0.33002480856E+03  0.16306850093E+04  0.15969399567E+04 0.  0.
        5    1    3    3  502    0  0.46637572427E+02  0.27519026364E+03  0.59887791141E+03  0.66074320817E+03  0.46999998093E+01 0. -1.
       -5    1    3    3    0  502 -0.46637572427E+02 -0.27519026364E+03 -0.92890271998E+03  0.96994180111E+03  0.46999998093E+01 0.  1.
</event>
<event>
 5   0  0.6445331E-05  0.1659030E+04  0.7818609E-02  0.8785082E-01
        2   -1    0    0  501    0  0.00000000000E+00  0.00000000000E+00  0.72037487664E+03  0.72037487665E+03  0.25500000920E-02 0. -1.
       -2   -1    0    0    0  501  0.00000000000E+00  0.00000000000E+00 -0.95518999550E+03  0.95518999551E+03  0.25500000920E-02 0.  1.
    10030    2    1    2    0    0  0.00000000000E+00  0.00000000000E+00 -0.23481511886E+03  0.16755648722E+04  0.16590296865E+04 0.  0.
        1    1    3    3  502    0 -0.59486242732E+03 -0.54082552962E+03 -0.32375075355E+03  0.86669955081E+03  0.50400001928E-02 0.  1.
       -1    1    3    3    0  502  0.59486242732E+03  0.54082552962E+03  0.88935634691E+02  0.80886532134E+03  0.50400001928E-02 0. -1.
</event>
<event>
 5   0  0.6909250E-05  0.2437683E+04  0.7818609E-02  0.8425529E-01
        2   -1    0    0  501    0  0.00000000000E+00  0.00000000000E+00  0.10572443637E+04  0.10572443637E+04  0.25500000920E-02 0.  1.
       -2   -1    0    0    0  501  0.00000000000E+00  0.00000000000E+00 -0.14051384230E+04  0.14051384231E+04  0.25500000920E-02 0. -1.
    10030    2    1    2    0    0  0.00000000000E+00  0.00000000000E+00 -0.34789405930E+03  0.24623827868E+04  0.24376830623E+04 0.  0.
        4    1    3    3  502    0 -0.27862496877E+03  0.10353991435E+04 -0.75937940822E+03  0.13139033291E+04  0.12699999809E+01 0. -1.
       -4    1    3    3    0  502  0.27862496877E+03 -0.10353991435E+04  0.41148534891E+03  0.11484794577E+04  0.12699999809E+01 0.  1.
</event>
<event>
 5   0  0.6648328E-05  0.2624466E+04  0.7818609E-02  0.8359938E-01
       -2   -1    0    0    0  501  0.00000000000E+00  0.00000000000E+00  0.10705417722E+04  0.10705417722E+04  0.25500000920E-02 0.  1.
        2   -1    0    0  501    0  0.00000000000E+00  0.00000000000E+00 -0.16084898938E+04  0.16084898938E+04  0.25500000920E-02 0. -1.
    10030    2    1    2    0    0  0.00000000000E+00  0.00000000000E+00 -0.53794812161E+03  0.26790316661E+04  0.26244661336E+04 0.  0.
        2    1    3    3  502    0 -0.36620997294E+03  0.42596841964E+03  0.94159844513E+03  0.10964335232E+04  0.25500000920E-02 0.  1.
       -2    1    3    3    0  502  0.36620997294E+03 -0.42596841964E+03 -0.14795465667E+04  0.15825981429E+04  0.25500000920E-02 0. -1.
</event>
<event>
 5   0  0.6648328E-05  0.2285577E+04  0.7818609E-02  0.8483630E-01
        2   -1    0    0  501    0  0.00000000000E+00  0.00000000000E+00  0.96642739325E+03  0.96642739326E+03  0.25500000920E-02 0.  1.
       -2   -1    0    0    0  501  0.00000000000E+00  0.00000000000E+00 -0.13513334485E+04  0.13513334485E+04  0.25500000920E-02 0. -1.
    10030    2    1    2    0    0  0.00000000000E+00  0.00000000000E+00 -0.38490605520E+03  0.23177608417E+04  0.22855770930E+04 0.  0.
        2    1    3    3  502    0  0.63927723902E+03 -0.93830454094E+03 -0.32418550615E+03  0.11807569785E+04  0.25500000920E-02 0. -1.
       -2    1    3    3    0  502 -0.63927723902E+03  0.93830454094E+03 -0.60720549057E+02  0.11370038632E+04  0.25500000920E-02 0.  1.
</event>
<event>
 5   0  0.2793920E-05  0.2553959E+04  0.7818609E-02  0.8384010E-01
       -1   -1    0    0    0  501  0.00000000000E+00  0.00000000000E+00  0.82059892438E+03  0.82059892439E+03  0.50400001928E-02 0.  1.
        1   -1    0    0  501    0  0.00000000000E+00  0.00000000000E+00 -0.19871792122E+04  0.19871792122E+04  0.50400001928E-02 0. -1.
    10030    2    1    2    0    0  0.00000000000E+00  0.00000000000E+00 -0.11665802879E+04  0.28077781366E+04  0.25539593764E+04 0.  0.
        2    1    3    3  502    0 -0.87251971266E+03 -0.30522228199E+03  0.38530625299E+03  0.10014550409E+04  0.25500000920E-02 0.  1.
       -2    1    3    3    0  502  0.87251971266E+03  0.30522228199E+03 -0.15518865408E+04  0.18063230957E+04  0.25500000920E-02 0. -1.
</event>
<event>
 5   0  0.2777539E-05  0.2224027E+04  0.7818609E-02  0.8508493E-01
       -1   -1    0    0    0  501  0.00000000000E+00  0.00000000000E+00  0.11951719207E+04  0.11951719208E+04  0.50400001928E-02 0. -1.
        1   -1    0    0  501    0  0.00000000000E+00  0.00000000000E+00 -0.10346415710E+04  0.10346415710E+04  0.50400001928E-02 0.  1.
    10030    2    1    2    0    0  0.00000000000E+00  0.00000000000E+00  0.16053034978E+03  0.22298134917E+04  0.22240274761E+04 0.  0.
        3    1    3    3  502    0 -0.72859866716E+02  0.59702049930E+03  0.10180233234E+04  0.11824185105E+04  0.10100000352E+00 0. -1.
       -3    1    3    3    0  502  0.72859866716E+02 -0.59702049930E+03 -0.85749297360E+03  0.10473949812E+04  0.10100000352E+00 0.  1.
</event>
<event>
 5   0  0.7071821E-05  0.1788093E+04  0.7818609E-02  0.8712657E-01
        2   -1    0    0  501    0  0.00000000000E+00  0.00000000000E+00  0.25662554047E+04  0.25662554047E+04  0.25500000920E-02 0. -1.
       -2   -1    0    0    0  501  0.00000000000E+00  0.00000000000E+00 -0.31147292006E+03  0.31147292007E+03  0.25500000920E-02 0.  1.
    10030    2    1    2    0    0  0.00000000000E+00  0.00000000000E+00  0.22547824847E+04  0.28777283248E+04  0.17880929109E+04 0.  0.
        5    1    3    3  502    0 -0.59562696396E+03 -0.65021571832E+03  0.89006839197E+03  0.12529149185E+04  0.46999998093E+01 0. -1.
       -5    1    3    3    0  502  0.59562696396E+03  0.65021571832E+03  0.13647140927E+04  0.16248134063E+04  0.46999998093E+01 0.  1.
</event>
<event>
 5   0  0.6445331E-05  0.2514687E+04  0.7818609E-02  0.8397772E-01
        2   -1    0    0  501    0  0.00000000000E+00  0.00000000000E+00  0.16170417531E+04  0.16170417531E+04  0.25500000920E-02 0. -1.
       -2   -1    0    0    0  501  0.00000000000E+00  0.00000000000E+00 -0.97765716419E+03  0.97765716419E+03  0.25500000920E-02 0.  1.
    10030    2    1    2    0    0  0.00000000000E+00  0.00000000000E+00  0.63938458887E+03  0.25946989173E+04  0.25146868232E+04 0.  0.
        1    1    3    3  502    0 -0.45963380937E+03  0.38343137912E+03 -0.82121541887E+03  0.10162074716E+04  0.50400001928E-02 0.  1.
       -1    1    3    3    0  502  0.45963380937E+03 -0.38343137912E+03  0.14606000077E+04  0.15784914456E+04  0.50400001928E-02 0. -1.
</event>
<event>
 5   0  0.2896652E-05  0.2481957E+04  0.7818609E-02  0.8409442E-01
       -1   -1    0    0    0  501  0.00000000000E+00  0.00000000000E+00  0.11827346916E+04  0.11827346916E+04  0.50400001928E-02 0. -1.
        1   -1    0    0  501    0  0.00000000000E+00  0.00000000000E+00 -0.13020907160E+04  0.13020907160E+04  0.50400001928E-02 0.  1.
    10030    2    1    2    0    0  0.00000000000E+00  0.00000000000E+00 -0.11935602443E+03  0.24848254076E+04  0.24819571805E+04 0.  0.
        4    1    3    3  502    0  0.79215822331E+03 -0.92783105035E+03  0.16783147113E+03  0.12314845206E+04  0.12699999809E+01 0. -1.
       -4    1    3    3    0  502 -0.79215822331E+03  0.92783105035E+03 -0.28718749556E+03  0.12533408871E+04  0.12699999809E+01 0.  1.
</event>
<event>
 5   0  0.2777539E-05  0.2409411E+04  0.7818609E-02  0.8435989E-01
        1   -1    0    0  501    0  0.00000000000E+00  0.00000000000E+00  0.13607161989E+04  0.13607161989E+04  0.50400001928E-02 0. -1.
       -1   -1    0    0    0  501  0.00000000000E+00  0.00000000000E+00 -0.10665821043E+04  0.10665821043E+04  0.50400001928E-02 0.  1.
    10030    2    1    2    0    0  0.00000000000E+00  0.00000000000E+00  0.29413409466E+03  0.24272983032E+04  0.24094111702E+04 0.  0.
        3    1    3    3  502    0  0.91406079886E+03 -0.36607928027E+02  0.93676671889E+03  0.13093430338E+04  0.10100000352E+00 0. -1.
       -3    1    3    3    0  502 -0.91406079886E+03  0.36607928027E+02 -0.64263262424E+03  0.11179552694E+04  0.10100000352E+00 0.  1.
</event>
<event>
 5   0  0.7071821E-05  0.2462376E+04  0.7818609E-02  0.8416513E-01
        2   -1    0    0  501    0  0.00000000000E+00  0.00000000000E+00  0.98636113299E+03  0.98636113299E+03  0.25500000920E-02 0. -1.
       -2   -1    0    0    0  501  0.00000000000E+00  0.00000000000E+00 -0.15367842857E+04  0.15367842857E+04  0.25500000920E-02 0.  1.
    10030    2    1    2    0    0  0.00000000000E+00  0.00000000000E+00 -0.55042315270E+03  0.25231454187E+04  0.24623763231E+04 0.  0.
        5    1    3    3  502    0 -0.11315245393E+04 -0.22372179932E+03 -0.71642244402E+03  0.13578226817E+04  0.46999998093E+01 0.  1.
       -5    1    3    3    0  502  0.11315245393E+04  0.22372179932E+03  0.16599929132E+03  0.11653227370E+04  0.46999998093E+01 0. -1.
</event>
<event>
 5   0  0.7071821E-05  0.2494247E+04  0.7818609E-02  0.8405038E-01
       -2   -1    0    0    0  501  0.00000000000E+00  0.00000000000E+00  0.17206532414E+04  0.17206532414E+04  0.25500000920E-02 0. -1.
        2   -1    0    0  501    0  0.00000000000E+00  0.00000000000E+00 -0.90391106719E+03  0.90391106719E+03  0.25500000920E-02 0.  1.
    10030    2    1    2    0    0  0.00000000000E+00  0.00000000000E+00  0.81674217419E+03  0.26245643086E+04  0.24942473876E+04 0.  0.
        5    1    3    3  502    0 -0.27871361078E+03 -0.11396644317E+04  0.85328511071E+03  0.14507356286E+04  0.46999998093E+01 0. -1.
       -5    1    3    3    0  502  0.27871361078E+03  0.11396644317E+04 -0.36542936522E+02  0.11738286800E+04  0.46999998093E+01 0.  1.
</event>
<event>
 5   0  0.6648328E-05  0.2311951E+04  0.7818609E-02  0.8473224E-01
        2   -1    0    0  501    0  0.00000000000E+00  0.00000000000E+00  0.74055400457E+03  0.74055400458E+03  0.25500000920E-02 0. -1.
       -2   -1    0    0    0  501  0.00000000000E+00  0.00000000000E+00 -0.18044321327E+04  0.18044321327E+04  0.25500000920E-02 0.  1.
    10030    2    1    2    0    0  0.00000000000E+00  0.00000000000E+00 -0.10638781281E+04  0.25449861372E+04  0.23119510737E+04 0.  0.
        2    1    3    3  502    0 -0.92250909021E+03 -0.69459173572E+03 -0.47370352015E+03  0.12481489197E+04  0.25500000920E-02 0.  1.
       -2    1    3    3    0  502  0.92250909021E+03  0.69459173572E+03 -0.59017460793E+03  0.12968372175E+04  0.25500000920E-02 0. -1.
</event>
<event>
 5   0  0.6909250E-05  0.2096848E+04  0.7818609E-02  0.8562633E-01
        2   -1    0    0  501    0  0.00000000000E+00  0.00000000000E+00  0.10952138546E+04  0.10952138546E+04  0.25500000920E-02 0.  1.
       -2   -1    0    0    0  501  0.00000000000E+00  0.00000000000E+00 -0.10036328363E+04  0.10036328363E+04  0.25500000920E-02 0. -1.
    10030    2    1    2    0    0  0.00000000000E+00  0.00000000000E+00  0.91581018344E+02  0.20988466909E+04  0.20968477172E+04 0.  0.
        4    1    3    3  502    0 -0.63978990330E+03 -0.64606109813E+03 -0.47668882381E+03  0.10266254967E+04  0.12699999809E+01 0. -1.
       -4    1    3    3    0  502  0.63978990330E+03  0.64606109813E+03  0.56826984215E+03  0.10722211942E+04  0.12699999809E+01 0.  1.
</event>
<event>
 5   0  0.2977854E-05  0.2382203E+04  0.7818609E-02  0.8446197E-01
        1   -1    0    0  501    0  0.00000000000E+00  0.00000000000E+00  0.99819401949E+03  0.99819401951E+03  0.50400001928E-02 0. -1.
       -1   -1    0    0    0  501  0.00000000000E+00  0.00000000000E+00 -0.14212900818E+04  0.14212900818E+04  0.50400001928E-02 0.  1.
    10030    2    1    2    0    0  0.00000000000E+00  0.00000000000E+00 -0.42309606226E+03  0.24194841013E+04  0.23822033999E+04 0.  0.
        1    1    3    3  502    0 -0.10762992435E+04  0.50379250179E+03 -0.12968696318E+03  0.11954269760E+04  0.50400001928E-02 0. -1.
       -1    1    3    3    0  502  0.10762992435E+04 -0.50379250179E+03 -0.29340909908E+03  0.12240571253E+04  0.50400001928E-02 0.  1.
</event>
<event>
 5   0  0.2977854E-05  0.1629046E+04  0.7818609E-02  0.8802900E-01
       -1   -1    0    0    0  501  0.00000000000E+00  0.00000000000E+00  0.43509896825E+03  0.43509896828E+03  0.50400001928E-02 0. -1.
        1   -1    0    0  501    0  0.00000000000E+00  0.00000000000E+00 -0.15248201386E+04  0.15248201386E+04  0.50400001928E-02 0.  1.
    10030    2    1    2    0    0  0.00000000000E+00  0.00000000000E+00 -0.10897211704E+04  0.19599191069E+04  0.16290459406E+04 0.  0.
        1    1    3    3  502    0  0.65937138512E+03  0.33715287943E+03 -0.13685778757E+03  0.75310871835E+03  0.50400001928E-02 0. -1.
       -1    1    3    3    0  502 -0.65937138512E+03 -0.33715287943E+03 -0.95286338281E+03  0.12068103886E+04  0.50400001928E-02 0.  1.
</event>
<event>
 5   0  0.2777539E-05  0.2495873E+04  0.7818609E-02  0.8404457E-01
       -1   -1    0    0    0  501  0.00000000000E+00  0.00000000000E+00  0.12126740006E+04  0.12126740006E+04  0.50400001928E-02 0.  1.
        1   -1    0    0  501    0  0.00000000000E+00  0.00000000000E+00 -0.12842244734E+04  0.12842244734E+04  0.50400001928E-02 0. -1.
    10030    2    1    2    0    0  0.00000000000E+00  0.00000000000E+00 -0.71550472718E+02  0.24968984740E+04  0.24958730976E+04 0.  0.
        3    1    3    3  502    0 -0.47539082240E+03 -0.39776640080E+03  0.10477814931E+04  0.12173991174E+04  0.10100000352E+00 0.  1.
       -3    1    3    3    0  502  0.47539082240E+03  0.39776640080E+03 -0.11193319658E+04  0.12794993566E+04  0.10100000352E+00 0. -1.
</event>
<event>
 5   0  0.6445331E-05  0.2491330E+04  0.7818609E-02  0.8406081E-01
       -2   -1    0    0    0  501  0.00000000000E+00  0.00000000000E+00  0.10088209212E+04  0.10088209212E+04  0.25500000920E-02 0. -1.
        2   -1    0    0  501    0  0.00000000000E+00  0.00000000000E+00 -0.15381142979E+04  0.15381142979E+04  0.25500000920E-02 0.  1.
    10030    2    1    2    0    0  0.00000000000E+00  0.00000000000E+00 -0.52929337663E+03  0.25469352191E+04  0.24913304742E+04 0.  0.
        1    1    3    3  502    0  0.19357193027E+03 -0.68431605065E+03  0.78088327702E+03  0.10561899648E+04  0.50400001928E-02 0. -1.
       -1    1    3    3    0  502 -0.19357193027E+03  0.68431605065E+03 -0.13101766537E+04  0.14907452543E+04  0.50400001928E-02 0.  1.
</event>
<event>
 5   0  0.6909250E-05  0.2469313E+04  0.7818609E-02  0.8414000E-01
       -2   -1    0    0    0  501  0.00000000000E+00  0.00000000000E+00  0.62099450146E+03  0.62099450146E+03  0.25500000920E-02 0. -1.
        2   -1    0    0  501    0  0.00000000000E+00  0.00000000000E+00 -0.24547337535E+04  0.24547337535E+04  0.25500000920E-02 0.  1.
    10030    2    1    2    0    0  0.00000000000E+00  0.00000000000E+00 -0.18337392520E+04  0.30757282550E+04  0.24693125873E+04 0.  0.
        4    1    3    3  502    0  0.96399572587E+02  0.11922108676E+04 -0.53556132338E+03  0.13105293489E+04  0.12699999809E+01 0. -1.
       -4    1    3    3    0  502 -0.96399572587E+02 -0.11922108676E+04 -0.12981779287E+04  0.17651989060E+04  0.12699999809E+01 0.  1.
</event>
<event>
 5   0  0.2896652E-05  0.1867976E+04  0.7818609E-02  0.8670963E-01
       -1   -1    0    0    0  501  0.00000000000E+00  0.00000000000E+00  0.11307455646E+04  0.11307455646E+04  0.50400001928E-02 0. -1.
        1   -1    0    0  501    0  0.00000000000E+00  0.00000000000E+00 -0.77146745031E+03  0.77146745032E+03  0.50400001928E-02 0.  1.
    10030    2    1    2    0    0  0.00000000000E+00  0.00000000000E+00  0.35927811427E+03  0.19022130149E+04  0.18679758004E+04 0.  0.
        4    1    3    3  502    0  0.97151804481E+02 -0.89681567315E+03 -0.66903638314E+02  0.90454106288E+03  0.12699999809E+01 0.  1.
       -4    1    3    3    0  502 -0.97151804481E+02  0.89681567315E+03  0.42618175259E+03  0.99767195203E+03  0.12699999809E+01 0. -1.
</event>
<event>
 5   0  0.2980790E-05  0.2650595E+04  0.7818609E-02  0.8351215E-01
       -1   -1    0    0    0  501  0.00000000000E+00  0.00000000000E+00  0.15220778320E+04  0.15220778320E+04  0.50400001928E-02 0. -1.
        1   -1    0    0  501    0  0.00000000000E+00  0.00000000000E+00 -0.11539579074E+04  0.11539579074E+04  0.50400001928E-02 0.  1.
    10030    2    1    2    0    0  0.00000000000E+00  0.00000000000E+00  0.36811992463E+03  0.26760357394E+04  0.26505952161E+04 0.  0.
        5    1    3    3  502    0  0.10361153693E+04  0.13041878985E+03  0.10078867311E+04  0.14513448494E+04  0.46999998093E+01 0. -1.
       -5    1    3    3    0  502 -0.10361153693E+04 -0.13041878985E+03 -0.63976680645E+03  0.12246908900E+04  0.46999998093E+01 0.  1.
</event>
<event>
 5   0  0.6445331E-05  0.2592747E+04  0.7818609E-02  0.8370669E-01
        2   -1    0    0  501    0  0.00000000000E+00  0.00000000000E+00  0.24316202827E+04  0.24316202827E+04  0.25500000920E-02 0. -1.
       -2   -1    0    0    0  501  0.00000000000E+00  0.00000000000E+00 -0.69113737781E+03  0.69113737781E+03  0.25500000920E-02 0.  1.
    10030    2    1    2    0    0  0.00000000000E+00  0.00000000000E+00  0.17404829049E+04  0.31227576605E+04  0.25927465484E+04 0.  0.
        1    1    3    3  502    0 -0.28393722576E+02 -0.10828579628E+04  0.12480705322E+02  0.10833020535E+04  0.50400001928E-02 0.  1.
       -1    1    3    3    0  502  0.28393722576E+02  0.10828579628E+04  0.17280021996E+04  0.20394556070E+04  0.50400001928E-02 0. -1.
</event>
<event>
 5   0  0.2777539E-05  0.2027150E+04  0.7818609E-02  0.8594031E-01
       -1   -1    0    0    0  501  0.00000000000E+00  0.00000000000E+00  0.13335208464E+04  0.13335208464E+04  0.50400001928E-02 0.  1.
        1   -1    0    0  501    0  0.00000000000E+00  0.00000000000E+00 -0.77039266325E+03  0.77039266327E+03  0.50400001928E-02 0. -1.
    10030    2    1    2    0    0  0.00000000000E+00  0.00000000000E+00  0.56312818311E+03  0.21039135096E+04  0.20271503904E+04 0.  0.
        3    1    3    3  502    0 -0.94364924476E+03  0.30230845464E+03  0.50287669340E+03  0.11111927276E+04  0.10100000352E+00 0.  1.
       -3    1    3    3    0  502  0.94364924476E+03 -0.30230845464E+03  0.60251489715E+02  0.99272078204E+03  0.10100000352E+00 0. -1.
</event>
<event>
 5   0  0.6648328E-05  0.2471700E+04  0.7818609E-02  0.8413137E-01
        2   -1    0    0  501    0  0.00000000000E+00  0.00000000000E+00  0.13623901766E+04  0.13623901766E+04  0.25500000920E-02 0.  1.
       -2   -1    0    0    0  501  0.00000000000E+00  0.00000000000E+00 -0.11210630900E+04  0.11210630900E+04  0.25500000920E-02 0. -1.
    10030    2    1    2    0    0  0.00000000000E+00  0.00000000000E+00  0.24132708662E+03  0.24834532665E+04  0.24717000960E+04 0.  0.
        2    1    3    3  502    0  0.92313156688E+03  0.79018644114E+03 -0.10570499145E+03  0.12197294974E+04  0.25500000920E-02 0. -1.
       -2    1    3    3    0  502 -0.92313156688E+03 -0.79018644114E+03  0.34703207807E+03  0.12637237692E+04  0.25500000920E-02 0.  1.
</event>
<event>
 5   0  0.6648328E-05  0.2480713E+04  0.7818609E-02  0.8409889E-01
       -2   -1    0    0    0  501  0.00000000000E+00  0.00000000000E+00  0.13280801659E+04  0.13280801659E+04  0.25500000920E-02 0. -1.
        2   -1    0    0  501    0  0.00000000000E+00  0.00000000000E+00 -0.11584272192E+04  0.11584272193E+04  0.25500000920E-02 0.  1.
    10030    2    1    2    0    0  0.00000000000E+00  0.00000000000E+00  0.16965294666E+03  0.24865073852E+04  0.24807129730E+04 0.  0.
        2    1    3    3  502    0  0.26749412513E+03 -0.87268585778E+03 -0.75698671424E+03  0.11858172704E+04  0.25500000920E-02 0.  1.
       -2    1    3    3    0  502 -0.26749412513E+03  0.87268585778E+03  0.92663966090E+03  0.13006901147E+04  0.25500000920E-02 0. -1.
</event>
<event>
 5   0  0.6909250E-05  0.2540606E+04  0.7818609E-02  0.8388661E-01
        2   -1    0    0  501    0  0.00000000000E+00  0.00000000000E+00  0.18138070414E+04  0.18138070414E+04  0.25500000920E-02 0. -1.
       -2   -1    0    0    0  501  0.00000000000E+00  0.00000000000E+00 -0.88965903756E+03  0.88965903757E+03  0.25500000920E-02 0.  1.
    10030    2    1    2    0    0  0.00000000000E+00  0.00000000000E+00  0.92414800382E+03  0.27034660790E+04  0.25406060905E+04 0.  0.
        4    1    3    3  502    0  0.10048834360E+04  0.77225743862E+03  0.36994492698E+03  0.13202398015E+04  0.12699999809E+01 0. -1.
       -4    1    3    3    0  502 -0.10048834360E+04 -0.77225743862E+03  0.55420307683E+03  0.13832262775E+04  0.12699999809E+01 0.  1.
</event>
<event>
 5   0  0.6827859E-05  0.2559035E+04  0.7818609E-02  0.8382251E-01
       -2   -1    0    0    0  501  0.00000000000E+00  0.00000000000E+00  0.16882255328E+04  0.16882255328E+04  0.25500000920E-02 0.  1.
        2   -1    0    0  501    0  0.00000000000E+00  0.00000000000E+00 -0.96975495749E+03  0.96975495750E+03  0.25500000920E-02 0. -1.
    10030    2    1    2    0    0  0.00000000000E+00  0.00000000000E+00  0.71847057528E+03  0.26579804903E+04  0.25590350367E+04 0.  0.
        3    1    3    3  502    0 -0.12768969539E+04  0.23413103137E+02  0.27777410178E+03  0.13069707212E+04  0.10100000352E+00 0. -1.
       -3    1    3    3    0  502  0.12768969539E+04 -0.23413103137E+02  0.44069647349E+03  0.13510097691E+04  0.10100000352E+00 0.  1.
</event>
<event>
 5   0  0.6445331E-05  0.2503385E+04  0.7818609E-02  0.8401781E-01
        2   -1    0    0  501    0  0.00000000000E+00  0.00000000000E+00  0.10965860603E+04  0.10965860603E+04  0.25500000920E-02 0. -1.
       -2   -1    0    0    0  501  0.00000000000E+00  0.00000000000E+00 -0.14287379375E+04  0.14287379375E+04  0.25500000920E-02 0.  1.
    10030    2    1    2    0    0  0.00000000000E+00  0.00000000000E+00 -0.33215187721E+03  0.25253239978E+04  0.25033849932E+04 0.  0.
        1    1    3    3  502    0 -0.11137547384E+04 -0.31285726675E+03 -0.64818144627E+03  0.13260725749E+04  0.50400001928E-02 0. -1.
       -1    1    3    3    0  502  0.11137547384E+04  0.31285726675E+03  0.31602956906E+03  0.11992514229E+04  0.50400001928E-02 0.  1.
</event>
<event>
 5   0  0.7071821E-05  0.2442801E+04  0.7818609E-02  0.8423651E-01
       -2   -1    0    0    0  501  0.00000000000E+00  0.00000000000E+00  0.63022596309E+03  0.63022596310E+03  0.25500000920E-02 0. -1.
        2   -1    0    0  501    0  0.00000000000E+00  0.00000000000E+00 -0.23671188424E+04  0.23671188424E+04  0.25500000920E-02 0.  1.
    10030    2    1    2    0    0  0.00000000000E+00  0.00000000000E+00 -0.17368928793E+04  0.29973448055E+04  0.24428014674E+04 0.  0.
        5    1    3    3  502    0 -0.19569718532E+03  0.11663326447E+04 -0.49391960907E+03  0.12816426556E+04  0.46999998093E+01 0. -1.
       -5    1    3    3    0  502  0.19569718532E+03 -0.11663326447E+04 -0.12429732703E+04  0.17157021499E+04  0.46999998093E+01 0.  1.
</event>
<event>
 5   0  0.2896652E-05  0.2469851E+04  0.7818609E-02  0.8413806E-01
       -1   -1    0    0    0  501  0.00000000000E+00  0.00000000000E+00  0.15034094473E+04  0.15034094473E+04  0.50400001928E-02 0.  1.
        1   -1    0    0  501    0  0.00000000000E+00  0.00000000000E+00 -0.10143885050E+04  0.10143885050E+04  0.50400001928E-02 0. -1.
    10030    2    1    2    0    0  0.00000000000E+00  0.00000000000E+00  0.48902094231E+03  0.25177979524E+04  0.24698512196E+04 0.  0.
        4    1    3    3  502    0 -0.64828573342E+03  0.72143409296E+02 -0.82444512479E+03  0.10512803814E+04  0.12699999809E+01 0. -1.
       -4    1    3    3    0  502  0.64828573342E+03 -0.72143409296E+02  0.13134660671E+04  0.14665175710E+04  0.12699999809E+01 0.  1.
</event>
<event>
 5   0  0.2980790E-05  0.2426372E+04  0.7818609E-02  0.8429696E-01
        1   -1    0    0  501    0  0.00000000000E+00  0.00000000000E+00  0.88344061394E+03  0.88344061395E+03  0.50400001928E-02 0. -1.
       -1   -1    0    0    0  501  0.00000000000E+00  0.00000000000E+00 -0.16660092325E+04  0.16660092325E+04  0.50400001928E-02 0.  1.
    10030    2    1    2    0    0  0.00000000000E+00  0.00000000000E+00 -0.78256861855E+03  0.25494498464E+04  0.24263719576E+04 0.  0.
        5    1    3    3  502    0  0.59152502233E+03  0.10584325402E+04 -0.43353384561E+03  0.12876936668E+04  0.46999998093E+01 0. -1.
       -5    1    3    3    0  502 -0.59152502233E+03 -0.10584325402E+04 -0.34903477294E+03  0.12617561797E+04  0.46999998093E+01 0.  1.
</event>
<event>
 5   0  0.6909250E-05  0.1542949E+04  0.7818609E-02  0.8856384E-01
       -2   -1    0    0    0  501  0.00000000000E+00  0.00000000000E+00  0.38622883842E+03  0.38622883843E+03  0.25500000920E-02 0. -1.
        2   -1    0    0  501    0  0.00000000000E+00  0.00000000000E+00 -0.15409851499E+04  0.15409851499E+04  0.25500000920E-02 0.  1.
    10030    2    1    2    0    0  0.00000000000E+00  0.00000000000E+00 -0.11547563115E+04  0.19272139883E+04  0.15429490004E+04 0.  0.
        4    1    3    3  502    0  0.45541398646E+03  0.21298052369E+03  0.15350971761E+03  0.52567047552E+03  0.12699999809E+01 0. -1.
       -4    1    3    3    0  502 -0.45541398646E+03 -0.21298052369E+03 -0.13082660291E+04  0.14015435128E+04  0.12699999809E+01 0.  1.
</event>
<event>
 5   0  0.6648328E-05  0.2483436E+04  0.7818609E-02  0.8408911E-01
        2   -1    0    0  501    0  0.00000000000E+00  0.00000000000E+00  0.10034458210E+04  0.10034458210E+04  0.25500000920E-02 0.  1.
       -2   -1    0    0    0  501  0.00000000000E+00  0.00000000000E+00 -0.15365684676E+04  0.15365684676E+04  0.25500000920E-02 0. -1.
    10030    2    1    2    0    0  0.00000000000E+00  0.00000000000E+00 -0.53312264654E+03  0.25400142886E+04  0.24834356907E+04 0.  0.
        2    1    3    3  502    0  0.10582592395E+04 -0.48961878396E+03 -0.70316367631E+03  0.13616454484E+04  0.25500000920E-02 0.  1.
       -2    1    3    3    0  502 -0.10582592395E+04  0.48961878396E+03  0.17004102977E+03  0.11783688401E+04  0.25500000920E-02 0. -1.
</event>
<event>
 5   0  0.2980790E-05  0.2513901E+04  0.7818609E-02  0.8398050E-01
        1   -1    0    0  501    0  0.00000000000E+00  0.00000000000E+00  0.14676367955E+04  0.14676367955E+04  0.50400001928E-02 0.  1.
       -1   -1    0    0    0  501  0.00000000000E+00  0.00000000000E+00 -0.10765095827E+04  0.10765095827E+04  0.50400001928E-02 0. -1.
    10030    2    1    2    0    0  0.00000000000E+00  0.00000000000E+00  0.39112721280E+03  0.25441463781E+04  0.25139014095E+04 0.  0.
        5    1    3    3  502    0 -0.58623173006E+03 -0.79175504322E+03  0.98556994040E+03  0.13935257038E+04  0.46999998093E+01 0.  1.
       -5    1    3    3    0  502  0.58623173006E+03  0.79175504322E+03 -0.59444272760E+03  0.11506206743E+04  0.46999998093E+01 0. -1.
</event>
<event>
 5   0  0.2793920E-05  0.2487939E+04  0.7818609E-02  0.8407295E-01
        1   -1    0    0  501    0  0.00000000000E+00  0.00000000000E+00  0.16914329240E+04  0.16914329240E+04  0.50400001928E-02 0. -1.
       -1   -1    0    0    0  501  0.00000000000E+00  0.00000000000E+00 -0.91488096915E+03  0.91488096916E+03  0.50400001928E-02 0.  1.
    10030    2    1    2    0    0  0.00000000000E+00  0.00000000000E+00  0.77655195480E+03  0.26063138931E+04  0.24879387394E+04 0.  0.
        2    1    3    3  502    0  0.28724370250E+03  0.83862469654E+02 -0.87661640103E+03  0.92628190796E+03  0.25500000920E-02 0.  1.
       -2    1    3    3    0  502 -0.28724370250E+03 -0.83862469654E+02  0.16531683558E+04  0.16800319852E+04  0.25500000920E-02 0. -1.
</event>
<event>
 5   0  0.7071821E-05  0.2266450E+04  0.7818609E-02  0.8491268E-01
       -2   -1    0    0    0  501  0.00000000000E+00  0.00000000000E+00  0.10995182919E+04  0.10995182919E+04  0.25500000920E-02 0. -1.
        2   -1    0    0  501    0  0.00000000000E+00  0.00000000000E+00 -0.11679652019E+04  0.11679652019E+04  0.25500000920E-02 0.  1.
    10030    2    1    2    0    0  0.00000000000E+00  0.00000000000E+00 -0.68446909946E+02  0.22674834938E+04  0.22664501793E+04 0.  0.
        5    1    3    3  502    0 -0.91413029611E+02  0.11014566133E+04  0.21611852595E+03  0.11261848517E+04  0.46999998093E+01 0.  1.
       -5    1    3    3    0  502  0.91413029611E+02 -0.11014566133E+04 -0.28456543589E+03  0.11412986420E+04  0.46999998093E+01 0. -1.
</event>
<event>
 5   0  0.2793920E-05  0.2704199E+04  0.7818609E-02  0.8333644E-01
        1   -1    0    0  501    0  0.00000000000E+00  0.00000000000E+00  0.11478054231E+04  0.11478054231E+04  0.50400001928E-02 0. -1.
       -1   -1    0    0    0  501  0.00000000000E+00  0.00000000000E+00 -0.15927556414E+04  0.15927556414E+04  0.50400001928E-02 0.  1.
    10030    2    1    2    0    0  0.00000000000E+00  0.00000000000E+00 -0.44495021829E+03  0.27405610645E+04  0.27041993735E+04 0.  0.
        2    1    3    3  502    0  0.10309847824E+04  0.16810961387E+03 -0.10924957171E+04  0.15115347683E+04  0.25500000920E-02 0.  1.
       -2    1    3    3    0  502 -0.10309847824E+04 -0.16810961387E+03  0.64754549876E+03  0.12290262963E+04  0.25500000920E-02 0. -1.
</event>
<event>
 5   0  0.2777539E-05  0.2452163E+04  0.7818609E-02  0.8420229E-01
       -1   -1    0    0    0  501  0.00000000000E+00  0.00000000000E+00  0.99240586033E+03  0.99240586034E+03  0.50400001928E-02 0. -1.
        1   -1    0    0  501    0  0.00000000000E+00  0.00000000000E+00 -0.15147791318E+04  0.15147791318E+04  0.50400001928E-02 0.  1.
    10030    2    1    2    0    0  0.00000000000E+00  0.00000000000E+00 -0.52237327148E+03  0.25071849922E+04  0.24521628719E+04 0.  0.
        3    1    3    3  502    0 -0.56148511419E+03  0.79442148739E+03  0.50181854502E+03  0.10946199776E+04  0.10100000352E+00 0. -1.
       -3    1    3    3    0  502  0.56148511419E+03 -0.79442148739E+03 -0.10241918165E+04  0.14125650145E+04  0.10100000352E+00 0.  1.
</event>
<event>
 5   0  0.2977854E-05  0.2300258E+04  0.7818609E-02  0.8477819E-01
       -1   -1    0    0    0  501  0.00000000000E+00  0.00000000000E+00  0.25502698881E+04  0.25502698881E+04  0.50400001928E-02 0. -1.
        1   -1    0    0  501    0  0.00000000000E+00  0.00000000000E+00 -0.51868902840E+03  0.51868902842E+03  0.50400001928E-02 0.  1.
    10030    2    1    2    0    0  0.00000000000E+00  0.00000000000E+00  0.20315808597E+04  0.30689589165E+04  0.23002582555E+04 0.  0.
        1    1    3    3  502    0  0.48595325257E+03 -0.84229086177E+03  0.18351905633E+04  0.20769036720E+04  0.50400001928E-02 0. -1.
       -1    1    3    3    0  502 -0.48595325257E+03  0.84229086177E+03  0.19639029643E+03  0.99205524446E+03  0.50400001928E-02 0.  1.
</event>
<event>
 5   0  0.6445331E-05  0.2498129E+04  0.7818609E-02  0.8403652E-01
        2   -1    0    0  501    0  0.00000000000E+00  0.00000000000E+00  0.17351289624E+04  0.17351289624E+04  0.25500000920E-02 0.  1.
       -2   -1    0    0    0  501  0.00000000000E+00  0.00000000000E+00 -0.89916225572E+03  0.89916225572E+03  0.25500000920E-02 0. -1.
    10030    2    1    2    0    0  0.00000000000E+00  0.00000000000E+00  0.83596670672E+03  0.26342912182E+04  0.24981292776E+04 0.  0.
        1    1    3    3  502    0  0.69803472834E+02 -0.53790193223E+03 -0.76848839513E+03  0.94063033493E+03  0.50400001928E-02 0. -1.
       -1    1    3    3    0  502 -0.69803472834E+02  0.53790193223E+03  0.16044551019E+04  0.16936608832E+04  0.50400001928E-02 0.  1.
</event>
<event>
 5   0  0.6827859E-05  0.2624747E+04  0.7818609E-02  0.8359843E-01
        2   -1    0    0  501    0  0.00000000000E+00  0.00000000000E+00  0.95828490100E+03  0.95828490100E+03  0.25500000920E-02 0. -1.
       -2   -1    0    0    0  501  0.00000000000E+00  0.00000000000E+00 -0.17972993318E+04  0.17972993318E+04  0.25500000920E-02 0.  1.
    10030    2    1    2    0    0  0.00000000000E+00  0.00000000000E+00 -0.83901443075E+03  0.27555842328E+04  0.26247474638E+04 0.  0.
        3    1    3    3  502    0  0.41976357626E+03  0.21954088555E+02  0.88570320268E+03  0.98038442225E+03  0.10100000352E+00 0. -1.
       -3    1    3    3    0  502 -0.41976357626E+03 -0.21954088555E+02 -0.17247176334E+04  0.17751998105E+04  0.10100000352E+00 0.  1.
</event>
<event>
 5   0  0.7071821E-05  0.2499344E+04  0.7818609E-02  0.8403219E-01
       -2   -1    0    0    0  501  0.00000000000E+00  0.00000000000E+00  0.64021539722E+03  0.64021539722E+03  0.25500000920E-02 0. -1.
        2   -1    0    0  501    0  0.00000000000E+00  0.00000000000E+00 -0.24393051005E+04  0.24393051005E+04  0.25500000920E-02 0.  1.
    10030    2    1    2    0    0  0.00000000000E+00  0.00000000000E+00 -0.17990897033E+04  0.30795204977E+04  0.24993444611E+04 0.  0.
        5    1    3    3  502    0 -0.11704440630E+04 -0.39042894786E+03 -0.65533243433E+03  0.13970886720E+04  0.46999998093E+01 0. -1.
       -5    1    3    3    0  502  0.11704440630E+04  0.39042894786E+03 -0.11437572689E+04  0.16824318257E+04  0.46999998093E+01 0.  1.
</event>
<event>
 5   0  0.6909250E-05  0.2590415E+04  0.7818609E-02  0.8371464E-01
       -2   -1    0    0    0  501  0.00000000000E+00  0.00000000000E+00  0.14609988110E+04  0.14609988110E+04  0.25500000920E-02 0. -1.
        2   -1    0    0  501    0  0.00000000000E+00  0.00000000000E+00 -0.11482297965E+04  0.11482297965E+04  0.25500000920E-02 0.  1.
    10030    2    1    2    0    0  0.00000000000E+00  0.00000000000E+00  0.31276901454E+03  0.26092286075E+04  0.25904149223E+04 0.  0.
        4    1    3    3  502    0  0.22500686365E+03  0.11338355981E+04 -0.43211002925E+03  0.12340712874E+04  0.12699999809E+01 0.  1.
       -4    1    3    3    0  502 -0.22500686365E+03 -0.11338355981E+04  0.74487904380E+03  0.13751573201E+04  0.12699999809E+01 0. -1.
</event>
<event>
 5   0  0.6445331E-05  0.2353698E+04  0.7818609E-02  0.8457045E-01
        2   -1    0    0  501    0  0.00000000000E+00  0.00000000000E+00  0.18908698327E+04  0.18908698327E+04  0.25500000920E-02 0. -1.
       -2   -1    0    0    0  501  0.00000000000E+00  0.00000000000E+00 -0.73245318956E+03  0.73245318957E+03  0.25500000920E-02 0.  1.
    10030    2    1    2    0    0  0.00000000000E+00  0.00000000000E+00  0.11584166431E+04  0.26233230223E+04  0.23536980605E+04 0.  0.
        1    1    3    3  502    0 -0.64703266227E+03  0.22808233664E+03 -0.48651771526E+03  0.84105428221E+03  0.50400001928E-02 0.  1.
       -1    1    3    3    0  502  0.64703266227E+03 -0.22808233664E+03  0.16449343584E+04  0.17822687401E+04  0.50400001928E-02 0. -1.
</event>
<event>
 5   0  0.2793920E-05  0.2269171E+04  0.7818609E-02  0.8490177E-01
        1   -1    0    0  501    0  0.00000000000E+00  0.00000000000E+00  0.96799602378E+03  0.96799602380E+03  0.50400001928E-02 0.  1.
       -1   -1    0    0    0  501  0.00000000000E+00  0.00000000000E+00 -0.13298448053E+04  0.13298448053E+04  0.50400001928E-02 0. -1.
    10030    2    1    2    0    0  0.00000000000E+00  0.00000000000E+00 -0.36184878149E+03  0.22978408291E+04  0.22691712000E+04 0.  0.
        2    1    3    3  502    0 -0.55487973565E+03  0.53897629275E+03 -0.10214094336E+04  0.12812744422E+04  0.25500000920E-02 0. -1.
       -2    1    3    3    0  502  0.55487973565E+03 -0.53897629275E+03  0.65956065208E+03  0.10165663869E+04  0.25500000920E-02 0.  1.
</event>
<event>
 5   0  0.2777539E-05  0.2492270E+04  0.7818609E-02  0.8405745E-01
        1   -1    0    0  501    0  0.00000000000E+00  0.00000000000E+00  0.12617617995E+04  0.12617617995E+04  0.50400001928E-02 0. -1.
       -1   -1    0    0    0  501  0.00000000000E+00  0.00000000000E+00 -0.12307015818E+04  0.12307015818E+04  0.50400001928E-02 0.  1.
    10030    2    1    2    0    0  0.00000000000E+00  0.00000000000E+00  0.31060217690E+02  0.24924633813E+04  0.24922698430E+04 0.  0.
        3    1    3    3  502    0  0.42856903348E+03  0.10726935597E+04  0.48301623800E+03  0.12520573413E+04  0.10100000352E+00 0. -1.
       -3    1    3    3    0  502 -0.42856903348E+03 -0.10726935597E+04 -0.45195602031E+03  0.12404060400E+04  0.10100000352E+00 0.  1.
</event>
<event>
 5   0  0.6827859E-05  0.2388393E+04  0.7818609E-02  0.8443862E-01
       -2   -1    0    0    0  501  0.00000000000E+00  0.00000000000E+00  0.94615412225E+03  0.94615412226E+03  0.25500000920E-02 0.  1.
        2   -1    0    0  501    0  0.00000000000E+00  0.00000000000E+00 -0.15072650187E+04  0.15072650187E+04  0.25500000920E-02 0. -1.
    10030    2    1    2    0    0  0.00000000000E+00  0.00000000000E+00 -0.56111089646E+03  0.24534191410E+04  0.23883927741E+04 0.  0.
        3    1    3    3  502    0 -0.22259521837E+03 -0.11427128836E+04 -0.72985918792E+01  0.11642141750E+04  0.10100000352E+00 0.  1.
       -3    1    3    3    0  502  0.22259521837E+03  0.11427128836E+04 -0.55381230458E+03  0.12892049660E+04  0.10100000352E+00 0. -1.
</event>
<event>
 5   0  0.6827859E-05  0.2515129E+04  0.7818609E-02  0.8397616E-01
        2   -1    0    0  501    0  0.00000000000E+00  0.00000000000E+00  0.17686083033E+04  0.17686083033E+04  0.25500000920E-02 0.  1.
       -2   -1    0    0    0  501  0.00000000000E+00  0.00000000000E+00 -0.89418805199E+03  0.89418805199E+03  0.25500000920E-02 0. -1.
    10030    2    1    2    0    0  0.00000000000E+00  0.00000000000E+00  0.87442025132E+03  0.26627963553E+04  0.25151289537E+04 0.  0.
        3    1    3    3  502    0  0.80108196458E+03 -0.40602937554E+03 -0.49474256810E+03  0.10253596377E+04  0.10100000352E+00 0. -1.
       -3    1    3    3    0  502 -0.80108196458E+03  0.40602937554E+03  0.13691628194E+04  0.16374367176E+04  0.10100000352E+00 0.  1.
</event>
<event>
 5   0  0.2793920E-05  0.2121204E+04  0.7818609E-02  0.8551960E-01
       -1   -1    0    0    0  501  0.00000000000E+00  0.00000000000E+00  0.39694585286E+03  0.39694585289E+03  0.50400001928E-02 0.  1.
        1   -1    0    0  501    0  0.00000000000E+00  0.00000000000E+00 -0.28338300109E+04  0.28338300109E+04  0.50400001928E-02 0. -1.
    10030    2    1    2    0    0  0.00000000000E+00  0.00000000000E+00 -0.24368841580E+04  0.32307758638E+04  0.21212044414E+04 0.  0.
        2    1    3    3  502    0  0.84553333202E+03  0.13563378846E+03 -0.21715017570E+04  0.23342542751E+04  0.25500000920E-02 0. -1.
       -2    1    3    3    0  502 -0.84553333202E+03 -0.13563378846E+03 -0.26538240096E+03  0.89652158863E+03  0.25500000920E-02 0.  1.
</event>
<event>
 5   0  0.2977854E-05  0.2498698E+04  0.7818609E-02  0.8403449E-01
       -1   -1    0    0    0  501  0.00000000000E+00  0.00000000000E+00  0.19597641171E+04  0.19597641172E+04  0.50400001928E-02 0. -1.
        1   -1    0    0  501    0  0.00000000000E+00  0.00000000000E+00 -0.79645978096E+03  0.79645978097E+03  0.50400001928E-02 0.  1.
    10030    2    1    2    0    0  0.00000000000E+00  0.00000000000E+00  0.11633043362E+04  0.27562238981E+04  0.24986983007E+04 0.  0.
        1    1    3    3  502    0 -0.86226300604E+03 -0.17980818830E+03 -0.39569284117E+03  0.96560928990E+03  0.50400001928E-02 0.  1.
       -1    1    3    3    0  502  0.86226300604E+03  0.17980818830E+03  0.15589971774E+04  0.17906146082E+04  0.50400001928E-02 0. -1.
</event>
<event>
 5   0  0.7071821E-05  0.2332314E+04  0.7818609E-02  0.8465288E-01
       -2   -1    0    0    0  501  0.00000000000E+00  0.00000000000E+00  0.71018589428E+03  0.71018589429E+03  0.25500000920E-02 0. -1.
        2   -1    0    0  501    0  0.00000000000E+00  0.00000000000E+00 -0.19148812699E+04  0.19148812699E+04  0.25500000920E-02 0.  1.
    10030    2    1    2    0    0  0.00000000000E+00  0.00000000000E+00 -0.12046953756E+04  0.26250671642E+04  0.23323135871E+04 0.  0.
        5    1    3    3  502    0  0.58437128336E+03  0.94414760114E+03 -0.20125297405E+03  0.11284632644E+04  0.46999998093E+01 0. -1.
       -5    1    3    3    0  502 -0.58437128336E+03 -0.94414760114E+03 -0.10034424015E+04  0.14966038998E+04  0.46999998093E+01 0.  1.
</event>
<event>
 5   0  0.2896652E-05  0.2525476E+04  0.7818609E-02  0.8393965E-01
       -1   -1    0    0    0  501  0.00000000000E+00  0.00000000000E+00  0.16400017541E+04  0.16400017541E+04  0.50400001928E-02 0. -1.
        1   -1    0    0  501    0  0.00000000000E+00  0.00000000000E+00 -0.97225973652E+03  0.97225973653E+03  0.50400001928E-02 0.  1.
    10030    2    1    2    0    0  0.00000000000E+00  0.00000000000E+00  0.66774201761E+03  0.26122614907E+04  0.25254763300E+04 0.  0.
        4    1    3    3  502    0 -0.10138214606E+04 -0.36767764159E+03 -0.34557715149E+03  0.11324513158E+04  0.12699999809E+01 0.  1.
       -4    1    3    3    0  502  0.10138214606E+04  0.36767764159E+03  0.10133191691E+04  0.14798101748E+04  0.12699999809E+01 0. -1.
</event>
<event>
 5   0  0.2977854E-05  0.2066764E+04  0.7818609E-02  0.8576027E-01
       -1   -1    0    0    0  501  0.00000000000E+00  0.00000000000E+00  0.63687354940E+03  0.63687354942E+03  0.50400001928E-02 0. -1.
        1   -1    0    0  501    0  0.00000000000E+00  0.00000000000E+00 -0.16767516101E+04  0.16767516101E+04  0.50400001928E-02 0.  1.
    10030    2    1    2    0    0  0.00000000000E+00  0.00000000000E+00 -0.10398780607E+04  0.23136251596E+04  0.20667643789E+04 0.  0.
        1    1    3    3  502    0  0.86503968379E+03 -0.19975781373E+01  0.11289901043E+03  0.87237826167E+03  0.50400001928E-02 0. -1.
       -1    1    3    3    0  502 -0.86503968379E+03  0.19975781373E+01 -0.11527770712E+04  0.14412468979E+04  0.50400001928E-02 0.  1.
</event>
<event>
 5   0  0.6909250E-05  0.1504418E+04  0.7818609E-02  0.8881521E-01
        2   -1    0    0  501    0  0.00000000000E+00  0.00000000000E+00  0.12258774591E+04  0.12258774591E+04  0.25500000920E-02 0.  1.
       -2   -1    0    0    0  501  0.00000000000E+00  0.00000000000E+00 -0.46156163883E+03  0.46156163884E+03  0.25500000920E-02 0. -1.
    10030    2    1    2    0    0  0.00000000000E+00  0.00000000000E+00  0.76431582027E+03  0.16874390979E+04  0.15044175073E+04 0.  0.
        4    1    3    3  502    0  0.74650463230E+03  0.71525406428E+02  0.31645388040E+03  0.81395928714E+03  0.12699999809E+01 0. -1.
       -4    1    3    3    0  502 -0.74650463230E+03 -0.71525406428E+02  0.44786193987E+03  0.87347981081E+03  0.12699999809E+01 0.  1.
</event>
<event>
 5   0  0.2777539E-05  0.2536634E+04  0.7818609E-02  0.8390050E-01
        1   -1    0    0  501    0  0.00000000000E+00  0.00000000000E+00  0.12492959118E+04  0.12492959118E+04  0.50400001928E-02 0.  1.
       -1   -1    0    0    0  501  0.00000000000E+00  0.00000000000E+00 -0.12876274205E+04  0.12876274205E+04  0.50400001928E-02 0. -1.
    10030    2    1    2    0    0  0.00000000000E+00  0.00000000000E+00 -0.38331508669E+02  0.25369233323E+04  0.25366337318E+04 0.  0.
        3    1    3    3  502    0  0.11206672079E+04  0.31012833150E+03  0.48740277266E+03  0.12608076958E+04  0.10100000352E+00 0.  1.
       -3    1    3    3    0  502 -0.11206672079E+04 -0.31012833150E+03 -0.52573428132E+03  0.12761156365E+04  0.10100000352E+00 0. -1.
</event>
<event>
 5   0  0.2977854E-05  0.2377361E+04  0.7818609E-02  0.8448028E-01
        1   -1    0    0  501    0  0.00000000000E+00  0.00000000000E+00  0.96594541387E+03  0.96594541389E+03  0.50400001928E-02 0. -1.
       -1   -1    0    0    0  501  0.00000000000E+00  0.00000000000E+00 -0.14627758697E+04  0.14627758697E+04  0.50400001928E-02 0.  1.
    10030    2    1    2    0    0  0.00000000000E+00  0.00000000000E+00 -0.49683045582E+03  0.24287212836E+04  0.23773612623E+04 0.  0.
        1    1    3    3  502    0  0.55285974553E+03 -0.91317739401E+02  0.82254953356E+03  0.99527913820E+03  0.50400001928E-02 0. -1.
       -1    1    3    3    0  502 -0.55285974553E+03  0.91317739401E+02 -0.13193799894E+04  0.14334421454E+04  0.50400001928E-02 0.  1.
</event>
<event>
 5   0  0.2977854E-05  0.1658563E+04  0.7818609E-02  0.8785357E-01
       -1   -1    0    0    0  501  0.00000000000E+00  0.00000000000E+00  0.22488307250E+03  0.22488307256E+03  0.50400001928E-02 0.  1.
        1   -1    0    0  501    0  0.00000000000E+00  0.00000000000E+00 -0.30580695150E+04  0.30580695150E+04  0.50400001928E-02 0. -1.
    10030    2    1    2    0    0  0.00000000000E+00  0.00000000000E+00 -0.28331864425E+04  0.32829525875E+04  0.16585633163E+04 0.  0.
        1    1    3    3  502    0  0.43348753757E+03  0.33810064156E+02 -0.28143512393E+04  0.28477407649E+04  0.50400001928E-02 0. -1.
       -1    1    3    3    0  502 -0.43348753757E+03 -0.33810064156E+02 -0.18835203140E+02  0.43521182265E+03  0.50400001928E-02 0.  1.
</event>
<event>
 5   0  0.2980790E-05  0.2370214E+04  0.7818609E-02  0.8450740E-01
        1   -1    0    0  501    0  0.00000000000E+00  0.00000000000E+00  0.13825363580E+04  0.13825363580E+04  0.50400001928E-02 0. -1.
       -1   -1    0    0    0  501  0.00000000000E+00  0.00000000000E+00 -0.10158709033E+04  0.10158709033E+04  0.50400001928E-02 0.  1.
    10030    2    1    2    0    0  0.00000000000E+00  0.00000000000E+00  0.36666545468E+03  0.23984072613E+04  0.23702138797E+04 0.  0.
        5    1    3    3  502    0  0.10859292538E+04  0.47174039643E+03  0.23566856198E+03  0.12072046666E+04  0.46999998093E+01 0. -1.
       -5    1    3    3    0  502 -0.10859292538E+04 -0.47174039643E+03  0.13099689269E+03  0.11912025948E+04  0.46999998093E+01 0.  1.
</event>
<event>
 5   0  0.2980790E-05  0.2506008E+04  0.7818609E-02  0.8400848E-01
       -1   -1    0    0    0  501  0.00000000000E+00  0.00000000000E+00  0.25310542264E+04  0.25310542264E+04  0.50400001928E-02 0. -1.
        1   -1    0    0  501    0  0.00000000000E+00  0.00000000000E+00 -0.62030238132E+03  0.62030238134E+03  0.50400001928E-02 0.  1.
    10030    2    1    2    0    0  0.00000000000E+00  0.00000000000E+00  0.19107518451E+04  0.31513566077E+04  0.25060079520E+04 0.  0.
        5    1    3    3  502    0 -0.98706501677E+03  0.76535843793E+03  0.83009008494E+03  0.14997141477E+04  0.46999998093E+01 0.  1.
       -5    1    3    3    0  502  0.98706501677E+03 -0.76535843793E+03  0.10806617601E+04  0.16516424600E+04  0.46999998093E+01 0. -1.
</event>
<event>
 5   0  0.2793920E-05  0.1952400E+04  0.7818609E-02  0.8629204E-01
       -1   -1    0    0    0  501  0.00000000000E+00  0.00000000000E+00  0.95856078828E+03  0.95856078829E+03  0.50400001928E-02 0. -1.
        1   -1    0    0  501    0  0.00000000000E+00  0.00000000000E+00 -0.99416393755E+03  0.99416393756E+03  0.50400001928E-02 0.  1.
    10030    2    1    2    0    0  0.00000000000E+00  0.00000000000E+00 -0.35603149267E+02  0.19527247259E+04  0.19524001308E+04 0.  0.
        2    1    3    3  502    0  0.25453894398E+03 -0.94091730968E+03  0.35603089142E+02  0.97538865978E+03  0.25500000920E-02 0. -1.
       -2    1    3    3    0  502 -0.25453894398E+03  0.94091730968E+03 -0.71206238409E+02  0.97733606608E+03  0.25500000920E-02 0.  1.
</event>
<event>
 5   0  0.2793920E-05  0.2350687E+04  0.7818609E-02  0.8458200E-01
       -1   -1    0    0    0  501  0.00000000000E+00  0.00000000000E+00  0.65399636998E+03  0.65399637000E+03  0.50400001928E-02 0.  1.
        1   -1    0    0  501    0  0.00000000000E+00  0.00000000000E+00 -0.21122939524E+04  0.21122939524E+04  0.50400001928E-02 0. -1.
    10030    2    1    2    0    0  0.00000000000E+00  0.00000000000E+00 -0.14582975824E+04  0.27662903224E+04  0.23506871993E+04 0.  0.
        2    1    3    3  502    0 -0.27323567080E+03 -0.72299397054E+03  0.31287121831E+03  0.83382636831E+03  0.25500000920E-02 0.  1.
       -2    1    3    3    0  502  0.27323567080E+03  0.72299397054E+03 -0.17711688008E+04  0.19324639541E+04  0.25500000920E-02 0. -1.
</event>
<event>
 5   0  0.2793920E-05  0.2468744E+04  0.7818609E-02  0.8414206E-01
       -1   -1    0    0    0  501  0.00000000000E+00  0.00000000000E+00  0.69024010226E+03  0.69024010227E+03  0.50400001928E-02 0.  1.
        1   -1    0    0  501    0  0.00000000000E+00  0.00000000000E+00 -0.22074555968E+04  0.22074555968E+04  0.50400001928E-02 0. -1.
    10030    2    1    2    0    0  0.00000000000E+00  0.00000000000E+00 -0.15172154945E+04  0.28976956991E+04  0.24687441154E+04 0.  0.
        2    1    3    3  502    0  0.23263896851E+03 -0.12119715162E+04 -0.78918240545E+03  0.14648565509E+04  0.25500000920E-02 0.  1.
       -2    1    3    3    0  502 -0.23263896851E+03  0.12119715162E+04 -0.72803308908E+03  0.14328391482E+04  0.25500000920E-02 0. -1.
</event>
<event>
 5   0  0.7071821E-05  0.2505393E+04  0.7818609E-02  0.8401067E-01
       -2   -1    0    0    0  501  0.00000000000E+00  0.00000000000E+00  0.18628598184E+04  0.18628598184E+04  0.25500000920E-02 0.  1.
        2   -1    0    0  501    0  0.00000000000E+00  0.00000000000E+00 -0.84238653366E+03  0.84238653366E+03  0.25500000920E-02 0. -1.
    10030    2    1    2    0    0  0.00000000000E+00  0.00000000000E+00  0.10204732847E+04  0.27052463520E+04  0.25053926040E+04 0.  0.
        5    1    3    3  502    0  0.54797365117E+03 -0.10681603923E+04  0.89652283879E+03  0.14983380916E+04  0.46999998093E+01 0.  1.
       -5    1    3    3    0  502 -0.54797365117E+03  0.10681603923E+04  0.12395044593E+03  0.12069082605E+04  0.46999998093E+01 0. -1.
</event>
<event>
 5   0  0.2977854E-05  0.2292970E+04  0.7818609E-02  0.8480698E-01
        1   -1    0    0  501    0  0.00000000000E+00  0.00000000000E+00  0.11330869470E+04  0.11330869471E+04  0.50400001928E-02 0.  1.
       -1   -1    0    0    0  501  0.00000000000E+00  0.00000000000E+00 -0.11600413360E+04  0.11600413360E+04  0.50400001928E-02 0. -1.
    10030    2    1    2    0    0  0.00000000000E+00  0.00000000000E+00 -0.26954388959E+02  0.22931282831E+04  0.22929698610E+04 0.  0.
        1    1    3    3  502    0  0.20212199557E+03 -0.30888987539E+03  0.10720292516E+04  0.11338046447E+04  0.50400001928E-02 0.  1.
       -1    1    3    3    0  502 -0.20212199557E+03  0.30888987539E+03 -0.10989836405E+04  0.11593236383E+04  0.50400001928E-02 0. -1.
</event>
<event>
 5   0  0.2331375E-05  0.2621210E+04  0.7818609E-02  0.8361032E-01
        3   -1    0    0  501    0  0.00000000000E+00  0.00000000000E+00  0.14492905430E+04  0.14492905465E+04  0.10100000352E+00 0. -1.
       -3   -1    0    0    0  501  0.00000000000E+00  0.00000000000E+00 -0.11851907362E+04  0.11851907405E+04  0.10100000352E+00 0.  1.
    10030    2    1    2    0    0  0.00000000000E+00  0.00000000000E+00  0.26409980685E+03  0.26344812870E+04  0.26212102059E+04 0.  0.
        1    1    3    3  502    0 -0.36021598189E+03  0.52267006749E+03  0.12844790326E+04  0.14327686269E+04  0.50400001928E-02 0. -1.
       -1    1    3    3    0  502  0.36021598189E+03 -0.52267006749E+03 -0.10203792258E+04  0.12017126601E+04  0.50400001928E-02 0.  1.
</event>
<event>
 5   0  0.6827859E-05  0.2535747E+04  0.7818609E-02  0.8390360E-01
       -2   -1    0    0    0  501  0.00000000000E+00  0.00000000000E+00  0.13688547770E+04  0.13688547770E+04  0.25500000920E-02 0.  1.
        2   -1    0    0  501    0  0.00000000000E+00  0.00000000000E+00 -0.11743412487E+04  0.11743412487E+04  0.25500000920E-02 0. -1.
    10030    2    1    2    0    0  0.00000000000E+00  0.00000000000E+00  0.19451352825E+03  0.25431960257E+04  0.25357465395E+04 0.  0.
        3    1    3    3  502    0  0.49161412250E+03  0.93954852508E+03  0.79432864434E+03  0.13249127827E+04  0.10100000352E+00 0.  1.
       -3    1    3    3    0  502 -0.49161412250E+03 -0.93954852508E+03 -0.59981511609E+03  0.12182832430E+04  0.10100000352E+00 0. -1.
</event>
<event>
 5   0  0.2896652E-05  0.2491896E+04  0.7818609E-02  0.8405878E-01
       -1   -1    0    0    0  501  0.00000000000E+00  0.00000000000E+00  0.84113267036E+03  0.84113267038E+03  0.50400001928E-02 0.  1.
        1   -1    0    0  501    0  0.00000000000E+00  0.00000000000E+00 -0.18455908434E+04  0.18455908434E+04  0.50400001928E-02 0. -1.
    10030    2    1    2    0    0  0.00000000000E+00  0.00000000000E+00 -0.10044581730E+04  0.26867235138E+04  0.24918962695E+04 0.  0.
        4    1    3    3  502    0 -0.52345231680E+03 -0.84594350756E+03 -0.13110559205E+04  0.16457496728E+04  0.12699999809E+01 0. -1.
       -4    1    3    3    0  502  0.52345231680E+03  0.84594350756E+03  0.30659774748E+03  0.10409738410E+04  0.12699999809E+01 0.  1.
</event>
<event>
 5   0  0.6909250E-05  0.2477170E+04  0.7818609E-02  0.8411164E-01
       -2   -1    0    0    0  501  0.00000000000E+00  0.00000000000E+00  0.13599489647E+04  0.13599489647E+04  0.25500000920E-02 0. -1.
        2   -1    0    0  501    0  0.00000000000E+00  0.00000000000E+00 -0.11280513821E+04  0.11280513821E+04  0.25500000920E-02 0.  1.
    10030    2    1    2    0    0  0.00000000000E+00  0.00000000000E+00  0.23189758254E+03  0.24880003468E+04  0.24771696019E+04 0.  0.
        4    1    3    3  502    0  0.54560054937E+03 -0.94395605681E+03  0.70618964492E+03  0.12990144049E+04  0.12699999809E+01 0. -1.
       -4    1    3    3    0  502 -0.54560054937E+03  0.94395605681E+03 -0.47429206238E+03  0.11889859419E+04  0.12699999809E+01 0.  1.
</event>
<event>
 5   0  0.6445331E-05  0.2496821E+04  0.7818609E-02  0.8404119E-01
        2   -1    0    0  501    0  0.00000000000E+00  0.00000000000E+00  0.14425225277E+04  0.14425225277E+04  0.25500000920E-02 0.  1.
       -2   -1    0    0    0  501  0.00000000000E+00  0.00000000000E+00 -0.10804188309E+04  0.10804188309E+04  0.25500000920E-02 0. -1.
    10030    2    1    2    0    0  0.00000000000E+00  0.00000000000E+00  0.36210369682E+03  0.25229413586E+04  0.24968207808E+04 0.  0.
        1    1    3    3  502    0  0.95103967590E+03 -0.67501272369E+03 -0.26904027402E+03  0.11968714682E+04  0.50400001928E-02 0.  1.
       -1    1    3    3    0  502 -0.95103967590E+03  0.67501272369E+03  0.63114397084E+03  0.13260698904E+04  0.50400001928E-02 0. -1.
</event>
<event>
 5   0  0.2777539E-05  0.2016447E+04  0.7818609E-02  0.8598970E-01
       -1   -1    0    0    0  501  0.00000000000E+00  0.00000000000E+00  0.75153080718E+03  0.75153080719E+03  0.50400001928E-02 0. -1.
        1   -1    0    0  501    0  0.00000000000E+00  0.00000000000E+00 -0.13525920842E+04  0.13525920842E+04  0.50400001928E-02 0.  1.
    10030    2    1    2    0    0  0.00000000000E+00  0.00000000000E+00 -0.60106127698E+03  0.21041228914E+04  0.20164469949E+04 0.  0.
        3    1    3    3  502    0 -0.94797795039E+03  0.13078428442E+03 -0.63173974130E+03  0.11466742495E+04  0.10100000352E+00 0.  1.
       -3    1    3    3    0  502  0.94797795039E+03 -0.13078428442E+03  0.30678464323E+02  0.95744864188E+03  0.10100000352E+00 0. -1.
</event>
<event>
 5   0  0.6827859E-05  0.2343721E+04  0.7818609E-02  0.8460879E-01
        2   -1    0    0  501    0  0.00000000000E+00  0.00000000000E+00  0.17667319214E+04  0.17667319214E+04  0.25500000920E-02 0. -1.
       -2   -1    0    0    0  501  0.00000000000E+00  0.00000000000E+00 -0.77728663720E+03  0.77728663721E+03  0.25500000920E-02 0.  1.
    10030    2    1    2    0    0  0.00000000000E+00  0.00000000000E+00  0.98944528416E+03  0.25440185586E+04  0.23437210704E+04 0.  0.
        3    1    3    3  502    0 -0.91902091360E+03 -0.67536621366E+03  0.20237636795E+03  0.11583070261E+04  0.10100000352E+00 0.  1.
       -3    1    3    3    0  502  0.91902091360E+03  0.67536621366E+03  0.78706891621E+03  0.13857115325E+04  0.10100000352E+00 0. -1.
</event>
<event>
 5   0  0.2896652E-05  0.2438313E+04  0.7818609E-02  0.8425297E-01
       -1   -1    0    0    0  501  0.00000000000E+00  0.00000000000E+00  0.12742921147E+04  0.12742921147E+04  0.50400001928E-02 0.  1.
        1   -1    0    0  501    0  0.00000000000E+00  0.00000000000E+00 -0.11664065289E+04  0.11664065290E+04  0.50400001928E-02 0. -1.
    10030    2    1    2    0    0  0.00000000000E+00  0.00000000000E+00  0.10788558574E+03  0.24406986436E+04  0.24383130581E+04 0.  0.
        4    1    3    3  502    0  0.10601564877E+04  0.11378991759E+01 -0.54864947826E+03  0.11937130878E+04  0.12699999809E+01 0. -1.
       -4    1    3    3    0  502 -0.10601564877E+04 -0.11378991759E+01  0.65653506401E+03  0.12469855558E+04  0.12699999809E+01 0.  1.
</event>
<event>
 5   0  0.6648328E-05  0.2513060E+04  0.7818609E-02  0.8398347E-01
        2   -1    0    0  501    0  0.00000000000E+00  0.00000000000E+00  0.86961327539E+03  0.86961327539E+03  0.25500000920E-02 0.  1.
       -2   -1    0    0    0  501  0.00000000000E+00  0.00000000000E+00 -0.18155981409E+04  0.18155981409E+04  0.25500000920E-02 0. -1.
    10030    2    1    2    0    0  0.00000000000E+00  0.00000000000E+00 -0.94598486547E+03  0.26852114162E+04  0.25130604816E+04 0.  0.
        2    1    3    3  502    0 -0.91373277191E+03  0.14262763705E+03  0.43593713674E+03  0.10223949376E+04  0.25500000920E-02 0.  1.
       -2    1    3    3    0  502  0.91373277191E+03 -0.14262763705E+03 -0.13819220022E+04  0.16628164786E+04  0.25500000920E-02 0. -1.
</event>
<event>
 5   0  0.2896652E-05  0.2470402E+04  0.7818609E-02  0.8413606E-01
       -1   -1    0    0    0  501  0.00000000000E+00  0.00000000000E+00  0.62654132563E+03  0.62654132565E+03  0.50400001928E-02 0.  1.
        1   -1    0    0  501    0  0.00000000000E+00  0.00000000000E+00 -0.24351492051E+04  0.24351492051E+04  0.50400001928E-02 0. -1.
    10030    2    1    2    0    0  0.00000000000E+00  0.00000000000E+00 -0.18086078795E+04  0.30616905308E+04  0.24704020816E+04 0.  0.
        4    1    3    3  502    0  0.57131777891E+03  0.62944640875E+03 -0.20149662428E+04  0.21869378955E+04  0.12699999809E+01 0. -1.
       -4    1    3    3    0  502 -0.57131777891E+03 -0.62944640875E+03  0.20635836333E+03  0.87475263532E+03  0.12699999809E+01 0.  1.
</event>
<event>
 5   0  0.2896652E-05  0.2581358E+04  0.7818609E-02  0.8374561E-01
        1   -1    0    0  501    0  0.00000000000E+00  0.00000000000E+00  0.12357782951E+04  0.12357782951E+04  0.50400001928E-02 0.  1.
       -1   -1    0    0    0  501  0.00000000000E+00  0.00000000000E+00 -0.13480191888E+04  0.13480191888E+04  0.50400001928E-02 0. -1.
    10030    2    1    2    0    0  0.00000000000E+00  0.00000000000E+00 -0.11224089367E+03  0.25837974838E+04  0.25813584446E+04 0.  0.
        4    1    3    3  502    0 -0.53992651258E+03  0.64461777989E+03 -0.10362282216E+04  0.13344749009E+04  0.12699999809E+01 0. -1.
       -4    1    3    3    0  502  0.53992651258E+03 -0.64461777989E+03  0.92398732791E+03  0.12493225829E+04  0.12699999809E+01 0.  1.
</event>
<event>
 5   0  0.2793920E-05  0.2503176E+04  0.7818609E-02  0.8401855E-01
       -1   -1    0    0    0  501  0.00000000000E+00  0.00000000000E+00  0.10859243427E+04  0.10859243427E+04  0.50400001928E-02 0.  1.
        1   -1    0    0  501    0  0.00000000000E+00  0.00000000000E+00 -0.14425242992E+04  0.14425242992E+04  0.50400001928E-02 0. -1.
    10030    2    1    2    0    0  0.00000000000E+00  0.00000000000E+00 -0.35659995645E+03  0.25284486419E+04  0.25031757841E+04 0.  0.
        2    1    3    3  502    0 -0.68306105379E+03  0.42233928503E+03 -0.11479552881E+04  0.14009797351E+04  0.25500000920E-02 0. -1.
       -2    1    3    3    0  502  0.68306105379E+03 -0.42233928503E+03  0.79135533160E+03  0.11274689068E+04  0.25500000920E-02 0.  1.
</event>
<event>
 5   0  0.6648328E-05  0.2503393E+04  0.7818609E-02  0.8401778E-01
        2   -1    0    0  501    0  0.00000000000E+00  0.00000000000E+00  0.15282798997E+04  0.15282798997E+04  0.25500000920E-02 0. -1.
       -2   -1    0    0    0  501  0.00000000000E+00  0.00000000000E+00 -0.10251681250E+04  0.10251681250E+04  0.25500000920E-02 0.  1.
    10030    2    1    2    0    0  0.00000000000E+00  0.00000000000E+00  0.50311177464E+03  0.25534480247E+04  0.25033927693E+04 0.  0.
        2    1    3    3  502    0 -0.69026566819E+01 -0.11098266709E+04  0.84190387304E+03  0.13930416424E+04  0.25500000920E-02 0. -1.
       -2    1    3    3    0  502  0.69026566819E+01  0.11098266709E+04 -0.33879209840E+03  0.11604063823E+04  0.25500000920E-02 0.  1.
</event>
<event>
 5   0  0.6445331E-05  0.1260557E+04  0.7818609E-02  0.9061442E-01
       -2   -1    0    0    0  501  0.00000000000E+00  0.00000000000E+00  0.29919030494E+03  0.29919030495E+03  0.25500000920E-02 0. -1.
        2   -1    0    0  501    0  0.00000000000E+00  0.00000000000E+00 -0.13277536008E+04  0.13277536008E+04  0.25500000920E-02 0.  1.
    10030    2    1    2    0    0  0.00000000000E+00  0.00000000000E+00 -0.10285632959E+04  0.16269439058E+04  0.12605570272E+04 0.  0.
        1    1    3    3  502    0  0.16453833407E+02 -0.39993418086E+03  0.11408687463E+03  0.41621375836E+03  0.50400001928E-02 0. -1.
       -1    1    3    3    0  502 -0.16453833407E+02  0.39993418086E+03 -0.11426501705E+04  0.12107301474E+04  0.50400001928E-02 0.  1.
</event>
<event>
 5   0  0.2331375E-05  0.2459833E+04  0.7818609E-02  0.8417437E-01
        4   -1    0    0  501    0  0.00000000000E+00  0.00000000000E+00  0.15909994021E+04  0.15909999090E+04  0.12699999809E+01 0.  1.
       -4   -1    0    0    0  501  0.00000000000E+00  0.00000000000E+00 -0.95078123413E+03  0.95078208233E+03  0.12699999809E+01 0. -1.
    10030    2    1    2    0    0  0.00000000000E+00  0.00000000000E+00  0.64021816796E+03  0.25417819913E+04  0.24598325936E+04 0.  0.
        4    1    3    3  502    0 -0.11049557660E+04  0.17934291246E+03 -0.20637618924E+03  0.11382811030E+04  0.12699999809E+01 0.  1.
       -4    1    3    3    0  502  0.11049557660E+04 -0.17934291246E+03  0.84659435719E+03  0.14035008883E+04  0.12699999809E+01 0. -1.
</event>
<event>
 5   0  0.6445331E-05  0.2489556E+04  0.7818609E-02  0.8406716E-01
        2   -1    0    0  501    0  0.00000000000E+00  0.00000000000E+00  0.11152965299E+04  0.11152965299E+04  0.25500000920E-02 0. -1.
       -2   -1    0    0    0  501  0.00000000000E+00  0.00000000000E+00 -0.13892914551E+04  0.13892914551E+04  0.25500000920E-02 0.  1.
    10030    2    1    2    0    0  0.00000000000E+00  0.00000000000E+00 -0.27399492520E+03  0.25045879851E+04  0.24895557346E+04 0.  0.
        1    1    3    3  502    0 -0.80085191246E+03  0.85665702265E+02 -0.10918169750E+04  0.13567485784E+04  0.50400001928E-02 0.  1.
       -1    1    3    3    0  502  0.80085191246E+03 -0.85665702265E+02  0.81782204977E+03  0.11478394066E+04  0.50400001928E-02 0. -1.
</event>
<event>
 5   0  0.2977854E-05  0.2529450E+04  0.7818609E-02  0.8392568E-01
        1   -1    0    0  501    0  0.00000000000E+00  0.00000000000E+00  0.83775003855E+03  0.83775003856E+03  0.50400001928E-02 0.  1.
       -1   -1    0    0    0  501  0.00000000000E+00  0.00000000000E+00 -0.19093157276E+04  0.19093157276E+04  0.50400001928E-02 0. -1.
    10030    2    1    2    0    0  0.00000000000E+00  0.00000000000E+00 -0.10715656890E+04  0.27470657662E+04  0.25294499990E+04 0.  0.
        1    1    3    3  502    0 -0.10907900026E+04 -0.24039490632E+03 -0.11800454844E+04  0.16248445728E+04  0.50400001928E-02 0. -1.
       -1    1    3    3    0  502  0.10907900026E+04  0.24039490632E+03  0.10847979535E+03  0.11222211933E+04  0.50400001928E-02 0.  1.
</event>
<event>
 5   0  0.7071821E-05  0.2394992E+04  0.7818609E-02  0.8441381E-01
       -2   -1    0    0    0  501  0.00000000000E+00  0.00000000000E+00  0.70079454121E+03  0.70079454122E+03  0.25500000920E-02 0. -1.
        2   -1    0    0  501    0  0.00000000000E+00  0.00000000000E+00 -0.20462446052E+04  0.20462446052E+04  0.25500000920E-02 0.  1.
    10030    2    1    2    0    0  0.00000000000E+00  0.00000000000E+00 -0.13454500640E+04  0.27470391464E+04  0.23949923168E+04 0.  0.
        5    1    3    3  502    0  0.56402730732E+03 -0.34270663721E+02 -0.18836984125E+04  0.19666324214E+04  0.46999998093E+01 0.  1.
       -5    1    3    3    0  502 -0.56402730732E+03  0.34270663721E+02  0.53824834848E+03  0.78040672501E+03  0.46999998093E+01 0. -1.
</event>
<event>
 5   0  0.6909250E-05  0.2531714E+04  0.7818609E-02  0.8391774E-01
        2   -1    0    0  501    0  0.00000000000E+00  0.00000000000E+00  0.19368895661E+04  0.19368895661E+04  0.25500000920E-02 0.  1.
       -2   -1    0    0    0  501  0.00000000000E+00  0.00000000000E+00 -0.82730273549E+03  0.82730273549E+03  0.25500000920E-02 0. -1.
    10030    2    1    2    0    0  0.00000000000E+00  0.00000000000E+00  0.11095868306E+04  0.27641923016E+04  0.25317140726E+04 0.  0.
        4    1    3    3  502    0 -0.68166482128E+03  0.77719115026E+02 -0.60669911765E+03  0.91585622325E+03  0.12699999809E+01 0. -1.
       -4    1    3    3    0  502  0.68166482128E+03 -0.77719115026E+02  0.17162859483E+04  0.18483360784E+04  0.12699999809E+01 0.  1.
</event>
<event>
 5   0  0.6909250E-05  0.2471229E+04  0.7818609E-02  0.8413308E-01
        2   -1    0    0  501    0  0.00000000000E+00  0.00000000000E+00  0.17331315024E+04  0.17331315024E+04  0.25500000920E-02 0.  1.
       -2   -1    0    0    0  501  0.00000000000E+00  0.00000000000E+00 -0.88091580355E+03  0.88091580356E+03  0.25500000920E-02 0. -1.
    10030    2    1    2    0    0  0.00000000000E+00  0.00000000000E+00  0.85221569880E+03  0.26140473059E+04  0.24712287875E+04 0.  0.
        4    1    3    3  502    0 -0.93191743861E+03  0.72969489047E+03  0.80131353575E+03  0.14293459137E+04  0.12699999809E+01 0. -1.
       -4    1    3    3    0  502  0.93191743861E+03 -0.72969489047E+03  0.50902163052E+02  0.11847013922E+04  0.12699999809E+01 0.  1.
</event>
<event>
 5   0  0.2793920E-05  0.2424333E+04  0.7818609E-02  0.8430450E-01
        1   -1    0    0  501    0  0.00000000000E+00  0.00000000000E+00  0.14064085728E+04  0.14064085728E+04  0.50400001928E-02 0.  1.
       -1   -1    0    0    0  501  0.00000000000E+00  0.00000000000E+00 -0.10447512054E+04  0.10447512054E+04  0.50400001928E-02 0. -1.
    10030    2    1    2    0    0  0.00000000000E+00  0.00000000000E+00  0.36165736735E+03  0.24511597782E+04  0.24243325281E+04 0.  0.
        2    1    3    3  502    0  0.12083201451E+04 -0.95633100400E+02  0.16788905882E+03  0.12236707069E+04  0.25500000920E-02 0. -1.
       -2    1    3    3    0  502 -0.12083201451E+04  0.95633100400E+02  0.19376830853E+03  0.12274890713E+04  0.25500000920E-02 0.  1.
</event>
<event>
 5   0  0.2777539E-05  0.2341715E+04  0.7818609E-02  0.8461653E-01
        1   -1    0    0  501    0  0.00000000000E+00  0.00000000000E+00  0.16104454042E+04  0.16104454043E+04  0.50400001928E-02 0. -1.
       -1   -1    0    0    0  501  0.00000000000E+00  0.00000000000E+00 -0.85125947894E+03  0.85125947896E+03  0.50400001928E-02 0.  1.
    10030    2    1    2    0    0  0.00000000000E+00  0.00000000000E+00  0.75918592530E+03  0.24617048832E+04  0.23417146843E+04 0.  0.
        3    1    3    3  502    0  0.10024858061E+04 -0.46626371871E+03  0.78473293183E+03  0.13557969727E+04  0.10100000352E+00 0. -1.
       -3    1    3    3    0  502 -0.10024858061E+04  0.46626371871E+03 -0.25547006526E+02  0.11059079105E+04  0.10100000352E+00 0.  1.
</event>
<event>
 5   0  0.2980790E-05  0.2467103E+04  0.7818609E-02  0.8414800E-01
        1   -1    0    0  501    0  0.00000000000E+00  0.00000000000E+00  0.24124743949E+04  0.24124743949E+04  0.50400001928E-02 0.  1.
       -1   -1    0    0    0  501  0.00000000000E+00  0.00000000000E+00 -0.63074216907E+03  0.63074216909E+03  0.50400001928E-02 0. -1.
    10030    2    1    2    0    0  0.00000000000E+00  0.00000000000E+00  0.17817322258E+04  0.30432165640E+04  0.24671030239E+04 0.  0.
        5    1    3    3  502    0  0.92205720534E+03  0.57015165836E+03  0.16490647916E+03  0.10965758708E+04  0.46999998093E+01 0. -1.
       -5    1    3    3    0  502 -0.92205720534E+03 -0.57015165836E+03  0.16168257467E+04  0.19466406932E+04  0.46999998093E+01 0.  1.
</event>
<event>
 5   0  0.6909250E-05  0.1619770E+04  0.7818609E-02  0.8808494E-01
        2   -1    0    0  501    0  0.00000000000E+00  0.00000000000E+00  0.13371573426E+04  0.13371573426E+04  0.25500000920E-02 0. -1.
       -2   -1    0    0    0  501  0.00000000000E+00  0.00000000000E+00 -0.49052818262E+03  0.49052818263E+03  0.25500000920E-02 0.  1.
    10030    2    1    2    0    0  0.00000000000E+00  0.00000000000E+00  0.84662915993E+03  0.18276855252E+04  0.16197695653E+04 0.  0.
        4    1    3    3  502    0  0.31025810127E+03 -0.61773706497E+03  0.89944109783E+03  0.11343963471E+04  0.12699999809E+01 0. -1.
       -4    1    3    3    0  502 -0.31025810127E+03  0.61773706497E+03 -0.52811937902E+02  0.69328917814E+03  0.12699999809E+01 0.  1.
</event>
<event>
 5   0  0.7071821E-05  0.2298847E+04  0.7818609E-02  0.8478376E-01
        2   -1    0    0  501    0  0.00000000000E+00  0.00000000000E+00  0.12641347132E+04  0.12641347132E+04  0.25500000920E-02 0. -1.
       -2   -1    0    0    0  501  0.00000000000E+00  0.00000000000E+00 -0.10451211593E+04  0.10451211593E+04  0.25500000920E-02 0.  1.
    10030    2    1    2    0    0  0.00000000000E+00  0.00000000000E+00  0.21901355385E+03  0.23092558725E+04  0.22988466125E+04 0.  0.
        5    1    3    3  502    0  0.25077925648E+02 -0.65223476304E+03 -0.84088120517E+03  0.10644916062E+04  0.46999998093E+01 0.  1.
       -5    1    3    3    0  502 -0.25077925648E+02  0.65223476304E+03  0.10598947590E+04  0.12447642663E+04  0.46999998093E+01 0. -1.
</event>
<event>
 5   0  0.6445331E-05  0.2476560E+04  0.7818609E-02  0.8411384E-01
       -2   -1    0    0    0  501  0.00000000000E+00  0.00000000000E+00  0.10386278522E+04  0.10386278522E+04  0.25500000920E-02 0. -1.
        2   -1    0    0  501    0  0.00000000000E+00  0.00000000000E+00 -0.14763103912E+04  0.14763103912E+04  0.25500000920E-02 0.  1.
    10030    2    1    2    0    0  0.00000000000E+00  0.00000000000E+00 -0.43768253899E+03  0.25149382434E+04  0.24765597839E+04 0.  0.
        1    1    3    3  502    0 -0.72222418239E+03 -0.81663118103E+03  0.37749210023E+03  0.11536873672E+04  0.50400001928E-02 0. -1.
       -1    1    3    3    0  502  0.72222418239E+03  0.81663118103E+03 -0.81517463922E+03  0.13612508762E+04  0.50400001928E-02 0.  1.
</event>
<event>
 5   0  0.6445331E-05  0.2194942E+04  0.7818609E-02  0.8520536E-01
       -2   -1    0    0    0  501  0.00000000000E+00  0.00000000000E+00  0.10710796997E+04  0.10710796997E+04  0.25500000920E-02 0.  1.
        2   -1    0    0  501    0  0.00000000000E+00  0.00000000000E+00 -0.11245129839E+04  0.11245129839E+04  0.25500000920E-02 0. -1.
    10030    2    1    2    0    0  0.00000000000E+00  0.00000000000E+00 -0.53433284228E+02  0.21955926836E+04  0.21949423948E+04 0.  0.
        1    1    3    3  502    0  0.45379635071E+03  0.32800492408E+03  0.91745106127E+03  0.10748185000E+04  0.50400001928E-02 0.  1.
       -1    1    3    3    0  502 -0.45379635071E+03 -0.32800492408E+03 -0.97088434550E+03  0.11207741835E+04  0.50400001928E-02 0. -1.
</event>
<event>
 5   0  0.2331375E-05  0.2532026E+04  0.7818609E-02  0.8391664E-01
       -3   -1    0    0    0  501  0.00000000000E+00  0.00000000000E+00  0.11089021317E+04  0.11089021363E+04  0.10100000352E+00 0.  1.
        3   -1    0    0  501    0  0.00000000000E+00  0.00000000000E+00 -0.14453833587E+04  0.14453833623E+04  0.10100000352E+00 0. -1.
    10030    2    1    2    0    0  0.00000000000E+00  0.00000000000E+00 -0.33648122708E+03  0.25542854985E+04  0.25320258276E+04 0.  0.
        2    1    3    3  502    0  0.98003899906E+03  0.64680077829E+03  0.30916499472E+03  0.12142531369E+04  0.25500000920E-02 0. -1.
       -2    1    3    3    0  502 -0.98003899906E+03 -0.64680077829E+03 -0.64564622180E+03  0.13400323616E+04  0.25500000920E-02 0.  1.
</event>
<event>
 5   0  0.2331375E-05  0.2489691E+04  0.7818609E-02  0.8406667E-01
        3   -1    0    0  501    0  0.00000000000E+00  0.00000000000E+00  0.10907557378E+04  0.10907557425E+04  0.10100000352E+00 0.  1.
       -3   -1    0    0    0  501  0.00000000000E+00  0.00000000000E+00 -0.14207031391E+04  0.14207031427E+04  0.10100000352E+00 0. -1.
    10030    2    1    2    0    0  0.00000000000E+00  0.00000000000E+00 -0.32994740128E+03  0.25114588852E+04  0.24896908331E+04 0.  0.
        2    1    3    3  502    0 -0.88760655885E+02 -0.28862491902E+03  0.10532513164E+04  0.10956829529E+04  0.25500000920E-02 0.  1.
       -2    1    3    3    0  502  0.88760655885E+02  0.28862491902E+03 -0.13831987176E+04  0.14157759323E+04  0.25500000920E-02 0. -1.
</event>
<event>
 5   0  0.6909250E-05  0.2495867E+04  0.7818609E-02  0.8404459E-01
       -2   -1    0    0    0  501  0.00000000000E+00  0.00000000000E+00  0.14599437421E+04  0.14599437421E+04  0.25500000920E-02 0. -1.
        2   -1    0    0  501    0  0.00000000000E+00  0.00000000000E+00 -0.10667110127E+04  0.10667110127E+04  0.25500000920E-02 0.  1.
    10030    2    1    2    0    0  0.00000000000E+00  0.00000000000E+00  0.39323272940E+03  0.25266547549E+04  0.24958670379E+04 0.  0.
        4    1    3    3  502    0 -0.10937960459E+04  0.12882665516E+03 -0.39743599744E+03  0.11708727865E+04  0.12699999809E+01 0.  1.
       -4    1    3    3    0  502  0.10937960459E+04 -0.12882665516E+03  0.79066872685E+03  0.13557819684E+04  0.12699999809E+01 0. -1.
</event>
<event>
 5   0  0.2896652E-05  0.2489332E+04  0.7818609E-02  0.8406796E-01
        1   -1    0    0  501    0  0.00000000000E+00  0.00000000000E+00  0.22121931249E+04  0.22121931249E+04  0.50400001928E-02 0.  1.
       -1   -1    0    0    0  501  0.00000000000E+00  0.00000000000E+00 -0.70029729277E+03  0.70029729279E+03  0.50400001928E-02 0. -1.
    10030    2    1    2    0    0  0.00000000000E+00  0.00000000000E+00  0.15118958321E+04  0.29124904177E+04  0.24893315219E+04 0.  0.
        4    1    3    3  502    0 -0.25232755017E+03 -0.14015198986E+02  0.21818595207E+04  0.21964467212E+04  0.12699999809E+01 0.  1.
       -4    1    3    3    0  502  0.25232755017E+03  0.14015198986E+02 -0.66996368854E+03  0.71604369646E+03  0.12699999809E+01 0. -1.
</event>
<event>
 5   0  0.6909250E-05  0.2486684E+04  0.7818609E-02  0.8407745E-01
       -2   -1    0    0    0  501  0.00000000000E+00  0.00000000000E+00  0.81609543479E+03  0.81609543479E+03  0.25500000920E-02 0.  1.
        2   -1    0    0  501    0  0.00000000000E+00  0.00000000000E+00 -0.18942623335E+04  0.18942623335E+04  0.25500000920E-02 0. -1.
    10030    2    1    2    0    0  0.00000000000E+00  0.00000000000E+00 -0.10781668987E+04  0.27103577683E+04  0.24866836089E+04 0.  0.
        4    1    3    3  502    0  0.12894320030E+02  0.93244084371E+03  0.35725284060E+03  0.99862074660E+03  0.12699999809E+01 0.  1.
       -4    1    3    3    0  502 -0.12894320030E+02 -0.93244084371E+03 -0.14354197393E+04  0.17117370217E+04  0.12699999809E+01 0. -1.
</event>
<event>
 5   0  0.2777539E-05  0.2678720E+04  0.7818609E-02  0.8341943E-01
       -1   -1    0    0    0  501  0.00000000000E+00  0.00000000000E+00  0.71725198116E+03  0.71725198117E+03  0.50400001928E-02 0. -1.
        1   -1    0    0  501    0  0.00000000000E+00  0.00000000000E+00 -0.25010521256E+04  0.25010521256E+04  0.50400001928E-02 0.  1.
    10030    2    1    2    0    0  0.00000000000E+00  0.00000000000E+00 -0.17838001444E+04  0.32183041067E+04  0.26787195389E+04 0.  0.
        3    1    3    3  502    0  0.40955524566E+02  0.11214065336E+04 -0.17703894066E+04  0.20960698055E+04  0.10100000352E+00 0.  1.
       -3    1    3    3    0  502 -0.40955524566E+02 -0.11214065336E+04 -0.13410737841E+02  0.11222343012E+04  0.10100000352E+00 0. -1.
</event>
<event>
 5   0  0.2896652E-05  0.2534084E+04  0.7818609E-02  0.8390943E-01
       -1   -1    0    0    0  501  0.00000000000E+00  0.00000000000E+00  0.62324351357E+03  0.62324351359E+03  0.50400001928E-02 0. -1.
        1   -1    0    0  501    0  0.00000000000E+00  0.00000000000E+00 -0.25758713402E+04  0.25758713402E+04  0.50400001928E-02 0.  1.
    10030    2    1    2    0    0  0.00000000000E+00  0.00000000000E+00 -0.19526278267E+04  0.31991148538E+04  0.25340837434E+04 0.  0.
        4    1    3    3  502    0  0.88472046776E+03  0.67861504973E+03 -0.17360276799E+04  0.20632601412E+04  0.12699999809E+01 0.  1.
       -4    1    3    3    0  502 -0.88472046776E+03 -0.67861504973E+03 -0.21660014672E+03  0.11358547126E+04  0.12699999809E+01 0. -1.
</event>
<event>
 5   0  0.2793920E-05  0.2471197E+04  0.7818609E-02  0.8413319E-01
       -1   -1    0    0    0  501  0.00000000000E+00  0.00000000000E+00  0.55223636205E+03  0.55223636208E+03  0.50400001928E-02 0. -1.
        1   -1    0    0  501    0  0.00000000000E+00  0.00000000000E+00 -0.27645830315E+04  0.27645830315E+04  0.50400001928E-02 0.  1.
    10030    2    1    2    0    0  0.00000000000E+00  0.00000000000E+00 -0.22123466695E+04  0.33168193936E+04  0.24711966947E+04 0.  0.
        2    1    3    3  502    0  0.11439822500E+04  0.46632485414E+03 -0.10747242643E+04  0.16374329000E+04  0.25500000920E-02 0. -1.
       -2    1    3    3    0  502 -0.11439822500E+04 -0.46632485414E+03 -0.11376224052E+04  0.16793864936E+04  0.25500000920E-02 0.  1.
</event>
<event>
 5   0  0.6445331E-05  0.2064902E+04  0.7818609E-02  0.8576864E-01
       -2   -1    0    0    0  501  0.00000000000E+00  0.00000000000E+00  0.65265520477E+03  0.65265520478E+03  0.25500000920E-02 0.  1.
        2   -1    0    0  501    0  0.00000000000E+00  0.00000000000E+00 -0.16332588597E+04  0.16332588597E+04  0.25500000920E-02 0. -1.
    10030    2    1    2    0    0  0.00000000000E+00  0.00000000000E+00 -0.98060365495E+03  0.22859140645E+04  0.20649018335E+04 0.  0.
        1    1    3    3  502    0  0.52873498585E+03  0.73190411099E+03  0.64000654007E+02  0.90517423554E+03  0.50400001928E-02 0.  1.
       -1    1    3    3    0  502 -0.52873498585E+03 -0.73190411099E+03 -0.10446043090E+04  0.13807398290E+04  0.50400001928E-02 0. -1.
</event>
<event>
 5   0  0.2977854E-05  0.2384024E+04  0.7818609E-02  0.8445509E-01
       -1   -1    0    0    0  501  0.00000000000E+00  0.00000000000E+00  0.10265275466E+04  0.10265275466E+04  0.50400001928E-02 0. -1.
        1   -1    0    0  501    0  0.00000000000E+00  0.00000000000E+00 -0.13841736225E+04  0.13841736225E+04  0.50400001928E-02 0.  1.
    10030    2    1    2    0    0  0.00000000000E+00  0.00000000000E+00 -0.35764607595E+03  0.24107011691E+04  0.23840237858E+04 0.  0.
        1    1    3    3  502    0 -0.87448198820E+03 -0.68845065226E+03 -0.61045944580E+03  0.12693871684E+04  0.50400001928E-02 0.  1.
       -1    1    3    3    0  502  0.87448198820E+03  0.68845065226E+03  0.25281336984E+03  0.11413140007E+04  0.50400001928E-02 0. -1.
</event>
<event>
 5   0  0.6445331E-05  0.2282257E+04  0.7818609E-02  0.8484950E-01
        2   -1    0    0  501    0  0.00000000000E+00  0.00000000000E+00  0.16266943187E+04  0.16266943187E+04  0.25500000920E-02 0.  1.
       -2   -1    0    0    0  501  0.00000000000E+00  0.00000000000E+00 -0.80050302671E+03  0.80050302671E+03  0.25500000920E-02 0. -1.
    10030    2    1    2    0    0  0.00000000000E+00  0.00000000000E+00  0.82619129195E+03  0.24271973454E+04  0.22822565374E+04 0.  0.
        1    1    3    3  502    0  0.26582430794E+03  0.89721802000E+03  0.11076492041E+04  0.14500170680E+04  0.50400001928E-02 0.  1.
       -1    1    3    3    0  502 -0.26582430794E+03 -0.89721802000E+03 -0.28145791218E+03  0.97718027736E+03  0.50400001928E-02 0. -1.
</event>
<event>
 5   0  0.6648328E-05  0.2509069E+04  0.7818609E-02  0.8399762E-01
       -2   -1    0    0    0  501  0.00000000000E+00  0.00000000000E+00  0.10074169469E+04  0.10074169469E+04  0.25500000920E-02 0. -1.
        2   -1    0    0  501    0  0.00000000000E+00  0.00000000000E+00 -0.15622692230E+04  0.15622692230E+04  0.25500000920E-02 0.  1.
    10030    2    1    2    0    0  0.00000000000E+00  0.00000000000E+00 -0.55485227612E+03  0.25696861699E+04  0.25090687443E+04 0.  0.
        2    1    3    3  502    0 -0.12022026829E+04 -0.33169199835E+03 -0.41689850980E+03  0.13149582655E+04  0.25500000920E-02 0. -1.
       -2    1    3    3    0  502  0.12022026829E+04  0.33169199835E+03 -0.13795376632E+03  0.12547279044E+04  0.25500000920E-02 0.  1.
</event>
<event>
 5   0  0.6909250E-05  0.2426999E+04  0.7818609E-02  0.8429464E-01
       -2   -1    0    0    0  501  0.00000000000E+00  0.00000000000E+00  0.12475625970E+04  0.12475625970E+04  0.25500000920E-02 0.  1.
        2   -1    0    0  501    0  0.00000000000E+00  0.00000000000E+00 -0.11803659983E+04  0.11803659983E+04  0.25500000920E-02 0. -1.
    10030    2    1    2    0    0  0.00000000000E+00  0.00000000000E+00  0.67196598682E+02  0.24279285953E+04  0.24269985333E+04 0.  0.
        4    1    3    3  502    0 -0.59812376394E+03 -0.10471853110E+04  0.16866761165E+03  0.12177025453E+04  0.12699999809E+01 0. -1.
       -4    1    3    3    0  502  0.59812376394E+03  0.10471853110E+04 -0.10147101297E+03  0.12102260500E+04  0.12699999809E+01 0.  1.
</event>
<event>
 5   0  0.2896652E-05  0.2750658E+04  0.7818609E-02  0.8318753E-01
        1   -1    0    0  501    0  0.00000000000E+00  0.00000000000E+00  0.17383065668E+04  0.17383065668E+04  0.50400001928E-02 0. -1.
       -1   -1    0    0    0  501  0.00000000000E+00  0.00000000000E+00 -0.10881453553E+04  0.10881453553E+04  0.50400001928E-02 0.  1.
    10030    2    1    2    0    0  0.00000000000E+00  0.00000000000E+00  0.65016121155E+03  0.28264519221E+04  0.27506582607E+04 0.  0.
        4    1    3    3  502    0 -0.22190851689E+03  0.44137645952E+03  0.16439870518E+04  0.17166104999E+04  0.12699999809E+01 0. -1.
       -4    1    3    3    0  502  0.22190851689E+03 -0.44137645952E+03 -0.99382584026E+03  0.11098414223E+04  0.12699999809E+01 0.  1.
</event>
<event>
 5   0  0.2977854E-05  0.2577529E+04  0.7818609E-02  0.8375874E-01
        1   -1    0    0  501    0  0.00000000000E+00  0.00000000000E+00  0.11847490155E+04  0.11847490155E+04  0.50400001928E-02 0. -1.
       -1   -1    0    0    0  501  0.00000000000E+00  0.00000000000E+00 -0.14019125617E+04  0.14019125617E+04  0.50400001928E-02 0.  1.
    10030    2    1    2    0    0  0.00000000000E+00  0.00000000000E+00 -0.21716354622E+03  0.25866615772E+04  0.25775294584E+04 0.  0.
        1    1    3    3  502    0 -0.82985787465E+03 -0.98568709803E+03 -0.82578971887E+02  0.12911477197E+04  0.50400001928E-02 0.  1.
       -1    1    3    3    0  502  0.82985787465E+03  0.98568709803E+03 -0.13458457433E+03  0.12955138575E+04  0.50400001928E-02 0. -1.
</event>
<event>
 5   0  0.6909250E-05  0.2579879E+04  0.7818609E-02  0.8375068E-01
       -2   -1    0    0    0  501  0.00000000000E+00  0.00000000000E+00  0.94348716638E+03  0.94348716638E+03  0.25500000920E-02 0. -1.
        2   -1    0    0  501    0  0.00000000000E+00  0.00000000000E+00 -0.17636105782E+04  0.17636105782E+04  0.25500000920E-02 0.  1.
    10030    2    1    2    0    0  0.00000000000E+00  0.00000000000E+00 -0.82012341182E+03  0.27070977446E+04  0.25798790259E+04 0.  0.
        4    1    3    3  502    0  0.94632206400E+03 -0.27566618668E+03 -0.12832159661E+04  0.16180735842E+04  0.12699999809E+01 0.  1.
       -4    1    3    3    0  502 -0.94632206400E+03  0.27566618668E+03  0.46309255424E+03  0.10890241604E+04  0.12699999809E+01 0. -1.
</event>
<event>
 5   0  0.7071821E-05  0.2553403E+04  0.7818609E-02  0.8384204E-01
        2   -1    0    0  501    0  0.00000000000E+00  0.00000000000E+00  0.24898262445E+04  0.24898262445E+04  0.25500000920E-02 0.  1.
       -2   -1    0    0    0  501  0.00000000000E+00  0.00000000000E+00 -0.65465072349E+03  0.65465072350E+03  0.25500000920E-02 0. -1.
    10030    2    1    2    0    0  0.00000000000E+00  0.00000000000E+00  0.18351755211E+04  0.31444769680E+04  0.25534028686E+04 0.  0.
        5    1    3    3  502    0  0.11092017331E+04  0.57033399491E+03  0.58182998720E+03  0.13762839730E+04  0.46999998093E+01 0.  1.
       -5    1    3    3    0  502 -0.11092017331E+04 -0.57033399491E+03  0.12533455339E+04  0.17681929950E+04  0.46999998093E+01 0. -1.
</event>
<event>
 5   0  0.2793920E-05  0.2638153E+04  0.7818609E-02  0.8355356E-01
       -1   -1    0    0    0  501  0.00000000000E+00  0.00000000000E+00  0.87177843230E+03  0.87177843232E+03  0.50400001928E-02 0.  1.
        1   -1    0    0  501    0  0.00000000000E+00  0.00000000000E+00 -0.19958776372E+04  0.19958776372E+04  0.50400001928E-02 0. -1.
    10030    2    1    2    0    0  0.00000000000E+00  0.00000000000E+00 -0.11240992049E+04  0.28676560696E+04  0.26381532008E+04 0.  0.
        2    1    3    3  502    0  0.58619082820E+03 -0.10843968814E+04 -0.10723891727E+04  0.16338772357E+04  0.25500000920E-02 0. -1.
       -2    1    3    3    0  502 -0.58619082820E+03  0.10843968814E+04 -0.51710032225E+02  0.12337788339E+04  0.25500000920E-02 0.  1.
</event>
<event>
 5   0  0.2777539E-05  0.1745877E+04  0.7818609E-02  0.8735623E-01
       -1   -1    0    0    0  501  0.00000000000E+00  0.00000000000E+00  0.23314594926E+04  0.23314594926E+04  0.50400001928E-02 0. -1.
        1   -1    0    0  501    0  0.00000000000E+00  0.00000000000E+00 -0.32684304584E+03  0.32684304588E+03  0.50400001928E-02 0.  1.
    10030    2    1    2    0    0  0.00000000000E+00  0.00000000000E+00  0.20046164467E+04  0.26583025384E+04  0.17458766530E+04 0.  0.
        3    1    3    3  502    0  0.17421930177E+03  0.83959384261E+03  0.12513440800E+04  0.15169483189E+04  0.10100000352E+00 0.  1.
       -3    1    3    3    0  502 -0.17421930177E+03 -0.83959384261E+03  0.75327236673E+03  0.11413542195E+04  0.10100000352E+00 0. -1.
</event>
<event>
 5   0  0.6648328E-05  0.1881832E+04  0.7818609E-02  0.8663953E-01
        2   -1    0    0  501    0  0.00000000000E+00  0.00000000000E+00  0.10271194230E+04  0.10271194230E+04  0.25500000920E-02 0.  1.
       -2   -1    0    0    0  501  0.00000000000E+00  0.00000000000E+00 -0.86194783407E+03  0.86194783408E+03  0.25500000920E-02 0. -1.
    10030    2    1    2    0    0  0.00000000000E+00  0.00000000000E+00  0.16517158890E+03  0.18890672570E+04  0.18818324707E+04 0.  0.
        2    1    3    3  502    0  0.42664936574E+03  0.68686381586E+02 -0.75643601528E+03  0.87117331543E+03  0.25500000920E-02 0. -1.
       -2    1    3    3    0  502 -0.42664936574E+03 -0.68686381586E+02  0.92160760418E+03  0.10178939416E+04  0.25500000920E-02 0.  1.
</event>
<event>
 5   0  0.6909250E-05  0.2526290E+04  0.7818609E-02  0.8393679E-01
        2   -1    0    0  501    0  0.00000000000E+00  0.00000000000E+00  0.23795127472E+04  0.23795127472E+04  0.25500000920E-02 0. -1.
       -2   -1    0    0    0  501  0.00000000000E+00  0.00000000000E+00 -0.67053015883E+03  0.67053015884E+03  0.25500000920E-02 0.  1.
    10030    2    1    2    0    0  0.00000000000E+00  0.00000000000E+00  0.17089825883E+04  0.30500429060E+04  0.25262898174E+04 0.  0.
        4    1    3    3  502    0  0.61075801259E+03  0.10426272605E+04  0.41017665027E+03  0.12760656142E+04  0.12699999809E+01 0.  1.
       -4    1    3    3    0  502 -0.61075801259E+03 -0.10426272605E+04  0.12988059381E+04  0.17739772919E+04  0.12699999809E+01 0. -1.
</event>
<event>
 5   0  0.2977854E-05  0.2421228E+04  0.7818609E-02  0.8431599E-01
       -1   -1    0    0    0  501  0.00000000000E+00  0.00000000000E+00  0.10979671936E+04  0.10979671936E+04  0.50400001928E-02 0. -1.
        1   -1    0    0  501    0  0.00000000000E+00  0.00000000000E+00 -0.13348178619E+04  0.13348178619E+04  0.50400001928E-02 0.  1.
    10030    2    1    2    0    0  0.00000000000E+00  0.00000000000E+00 -0.23685066822E+03  0.24327850555E+04  0.24212279709E+04 0.  0.
        1    1    3    3  502    0  0.10285885923E+04 -0.53418974077E+03 -0.46971257979E+03  0.12505930909E+04  0.50400001928E-02 0.  1.
       -1    1    3    3    0  502 -0.10285885923E+04  0.53418974077E+03  0.23286191157E+03  0.11821919646E+04  0.50400001928E-02 0. -1.
</event>
<event>
 5   0  0.2977854E-05  0.1648962E+04  0.7818609E-02  0.8791021E-01
        1   -1    0    0  501    0  0.00000000000E+00  0.00000000000E+00  0.88843962254E+03  0.88843962256E+03  0.50400001928E-02 0.  1.
       -1   -1    0    0    0  501  0.00000000000E+00  0.00000000000E+00 -0.76512704783E+03  0.76512704785E+03  0.50400001928E-02 0. -1.
    10030    2    1    2    0    0  0.00000000000E+00  0.00000000000E+00  0.12331257471E+03  0.16535666704E+04  0.16489623229E+04 0.  0.
        1    1    3    3  502    0  0.67441174898E+03  0.26409035278E+03  0.45670332565E+03  0.85624345211E+03  0.50400001928E-02 0.  1.
       -1    1    3    3    0  502 -0.67441174898E+03 -0.26409035278E+03 -0.33339075094E+03  0.79732321829E+03  0.50400001928E-02 0. -1.
</event>
<event>
 5   0  0.6827859E-05  0.2402848E+04  0.7818609E-02  0.8438438E-01
        2   -1    0    0  501    0  0.00000000000E+00  0.00000000000E+00  0.20726937997E+04  0.20726937997E+04  0.25500000920E-02 0.  1.
       -2   -1    0    0    0  501  0.00000000000E+00  0.00000000000E+00 -0.69639814113E+03  0.69639814113E+03  0.25500000920E-02 0. -1.
    10030    2    1    2    0    0  0.00000000000E+00  0.00000000000E+00  0.13762956586E+04  0.27690919408E+04  0.24028484008E+04 0.  0.
        3    1    3    3  502    0  0.17062255216E+03 -0.70149157843E+03  0.17948422221E+04  0.19345958498E+04  0.10100000352E+00 0.  1.
       -3    1    3    3    0  502 -0.17062255216E+03  0.70149157843E+03 -0.41854656347E+03  0.83449609101E+03  0.10100000352E+00 0. -1.
</event>
<event>
 5   0  0.2896652E-05  0.2467166E+04  0.7818609E-02  0.8414777E-01
        1   -1    0    0  501    0  0.00000000000E+00  0.00000000000E+00  0.11209596160E+04  0.11209596160E+04  0.50400001928E-02 0.  1.
       -1   -1    0    0    0  501  0.00000000000E+00  0.00000000000E+00 -0.13575212285E+04  0.13575212285E+04  0.50400001928E-02 0. -1.
    10030    2    1    2    0    0  0.00000000000E+00  0.00000000000E+00 -0.23656161253E+03  0.24784808445E+04  0.24671655600E+04 0.  0.
        4    1    3    3  502    0 -0.57663565446E+03 -0.88543935416E+03  0.52120238982E+03  0.11782041724E+04  0.12699999809E+01 0.  1.
       -4    1    3    3    0  502  0.57663565446E+03  0.88543935416E+03 -0.75776400235E+03  0.13002766721E+04  0.12699999809E+01 0. -1.
</event>
<event>
 5   0  0.2777539E-05  0.2477580E+04  0.7818609E-02  0.8411017E-01
        1   -1    0    0  501    0  0.00000000000E+00  0.00000000000E+00  0.11175884755E+04  0.11175884755E+04  0.50400001928E-02 0.  1.
       -1   -1    0    0    0  501  0.00000000000E+00  0.00000000000E+00 -0.13731355253E+04  0.13731355254E+04  0.50400001928E-02 0. -1.
    10030    2    1    2    0    0  0.00000000000E+00  0.00000000000E+00 -0.25554704984E+03  0.24907240009E+04  0.24775798179E+04 0.  0.
        3    1    3    3  502    0  0.57960062892E+03 -0.39500956782E+03  0.89873666226E+03  0.11400425632E+04  0.10100000352E+00 0.  1.
       -3    1    3    3    0  502 -0.57960062892E+03  0.39500956782E+03 -0.11542837121E+04  0.13506814376E+04  0.10100000352E+00 0. -1.
</event>
<event>
 5   0  0.2977854E-05  0.2194580E+04  0.7818609E-02  0.8520688E-01
        1   -1    0    0  501    0  0.00000000000E+00  0.00000000000E+00  0.12154679482E+04  0.12154679482E+04  0.50400001928E-02 0.  1.
       -1   -1    0    0    0  501  0.00000000000E+00  0.00000000000E+00 -0.99060201950E+03  0.99060201951E+03  0.50400001928E-02 0. -1.
    10030    2    1    2    0    0  0.00000000000E+00  0.00000000000E+00  0.22486592873E+03  0.22060699677E+04  0.21945796902E+04 0.  0.
        1    1    3    3  502    0 -0.93370247153E+02 -0.48255365484E+03  0.10986245560E+04  0.12035580368E+04  0.50400001928E-02 0.  1.
       -1    1    3    3    0  502  0.93370247153E+02  0.48255365484E+03 -0.87375862730E+03  0.10025119309E+04  0.50400001928E-02 0. -1.
</event>
<event>
 5   0  0.2777539E-05  0.2488895E+04  0.7818609E-02  0.8406952E-01
        1   -1    0    0  501    0  0.00000000000E+00  0.00000000000E+00  0.11572721598E+04  0.11572721598E+04  0.50400001928E-02 0.  1.
       -1   -1    0    0    0  501  0.00000000000E+00  0.00000000000E+00 -0.13381897206E+04  0.13381897206E+04  0.50400001928E-02 0. -1.
    10030    2    1    2    0    0  0.00000000000E+00  0.00000000000E+00 -0.18091756076E+03  0.24954618804E+04  0.24888951028E+04 0.  0.
        3    1    3    3  502    0  0.17016335276E+03 -0.11012906761E+04  0.46494587839E+03  0.12074648648E+04  0.10100000352E+00 0.  1.
       -3    1    3    3    0  502 -0.17016335276E+03  0.11012906761E+04 -0.64586343916E+03  0.12879970155E+04  0.10100000352E+00 0. -1.
</event>
<event>
 5   0  0.7071821E-05  0.2498124E+04  0.7818609E-02  0.8403654E-01
        2   -1    0    0  501    0  0.00000000000E+00  0.00000000000E+00  0.12574122965E+04  0.12574122965E+04  0.25500000920E-02 0.  1.
       -2   -1    0    0    0  501  0.00000000000E+00  0.00000000000E+00 -0.12407666617E+04  0.12407666617E+04  0.25500000920E-02 0. -1.
    10030    2    1    2    0    0  0.00000000000E+00  0.00000000000E+00  0.16645634825E+02  0.24981789582E+04  0.24981235018E+04 0.  0.
        5    1    3    3  502    0  0.50564826790E+03  0.30128489620E+03 -0.10933732814E+04  0.12417487596E+04  0.46999998093E+01 0. -1.
       -5    1    3    3    0  502 -0.50564826790E+03 -0.30128489620E+03  0.11100189162E+04  0.12564301986E+04  0.46999998093E+01 0.  1.
</event>
<event>
 5   0  0.2896652E-05  0.2904618E+04  0.7818609E-02  0.8271505E-01
       -1   -1    0    0    0  501  0.00000000000E+00  0.00000000000E+00  0.17214856824E+04  0.17214856824E+04  0.50400001928E-02 0. -1.
        1   -1    0    0  501    0  0.00000000000E+00  0.00000000000E+00 -0.12252212237E+04  0.12252212237E+04  0.50400001928E-02 0.  1.
    10030    2    1    2    0    0  0.00000000000E+00  0.00000000000E+00  0.49626445865E+03  0.29467069061E+04  0.29046175614E+04 0.  0.
        4    1    3    3  502    0  0.69779579340E+03  0.12571637100E+04  0.40670489906E+02  0.14384141493E+04  0.12699999809E+01 0. -1.
       -4    1    3    3    0  502 -0.69779579340E+03 -0.12571637100E+04  0.45559396874E+03  0.15082927569E+04  0.12699999809E+01 0.  1.
</event>
<event>
 5   0  0.2977854E-05  0.2472908E+04  0.7818609E-02  0.8412701E-01
        1   -1    0    0  501    0  0.00000000000E+00  0.00000000000E+00  0.97594149213E+03  0.97594149215E+03  0.50400001928E-02 0.  1.
       -1   -1    0    0    0  501  0.00000000000E+00  0.00000000000E+00 -0.15665064992E+04  0.15665064992E+04  0.50400001928E-02 0. -1.
    10030    2    1    2    0    0  0.00000000000E+00  0.00000000000E+00 -0.59056500707E+03  0.25424479914E+04  0.24729081587E+04 0.  0.
        1    1    3    3  502    0 -0.70379312868E+03 -0.40977593916E+03 -0.12518091993E+04  0.14934079683E+04  0.50400001928E-02 0. -1.
       -1    1    3    3    0  502  0.70379312868E+03  0.40977593916E+03  0.66124419220E+03  0.10490400231E+04  0.50400001928E-02 0.  1.
</event>
<event>
 5   0  0.2777539E-05  0.2472081E+04  0.7818609E-02  0.8413000E-01
       -1   -1    0    0    0  501  0.00000000000E+00  0.00000000000E+00  0.16563386550E+04  0.16563386550E+04  0.50400001928E-02 0.  1.
        1   -1    0    0  501    0  0.00000000000E+00  0.00000000000E+00 -0.92239343532E+03  0.92239343533E+03  0.50400001928E-02 0. -1.
    10030    2    1    2    0    0  0.00000000000E+00  0.00000000000E+00  0.73394521967E+03  0.25787320903E+04  0.24720808256E+04 0.  0.
        3    1    3    3  502    0 -0.30669965777E+03 -0.21995091140E+03 -0.86081643334E+03  0.93991915908E+03  0.10100000352E+00 0. -1.
       -3    1    3    3    0  502  0.30669965777E+03  0.21995091140E+03  0.15947616530E+04  0.16388129312E+04  0.10100000352E+00 0.  1.
</event>
<event>
 5   0  0.7071821E-05  0.2663294E+04  0.7818609E-02  0.8347014E-01
        2   -1    0    0  501    0  0.00000000000E+00  0.00000000000E+00  0.82290980785E+03  0.82290980785E+03  0.25500000920E-02 0.  1.
       -2   -1    0    0    0  501  0.00000000000E+00  0.00000000000E+00 -0.21548951019E+04  0.21548951019E+04  0.25500000920E-02 0. -1.
    10030    2    1    2    0    0  0.00000000000E+00  0.00000000000E+00 -0.13319852941E+04  0.29778049098E+04  0.26632944368E+04 0.  0.
        5    1    3    3  502    0 -0.59973764071E+03  0.85467158399E+03 -0.15901022522E+04  0.19022607646E+04  0.46999998093E+01 0. -1.
       -5    1    3    3    0  502  0.59973764071E+03 -0.85467158399E+03  0.25811695810E+03  0.10755441452E+04  0.46999998093E+01 0.  1.
</event>
<event>
 5   0  0.6909250E-05  0.2001439E+04  0.7818609E-02  0.8605948E-01
       -2   -1    0    0    0  501  0.00000000000E+00  0.00000000000E+00  0.80735241205E+03  0.80735241205E+03  0.25500000920E-02 0.  1.
        2   -1    0    0  501    0  0.00000000000E+00  0.00000000000E+00 -0.12403998196E+04  0.12403998196E+04  0.25500000920E-02 0. -1.
    10030    2    1    2    0    0  0.00000000000E+00  0.00000000000E+00 -0.43304740758E+03  0.20477522317E+04  0.20014392684E+04 0.  0.
        4    1    3    3  502    0 -0.54161592313E+03 -0.62795301449E+03 -0.78963306298E+03  0.11450741389E+04  0.12699999809E+01 0. -1.
       -4    1    3    3    0  502  0.54161592313E+03  0.62795301449E+03  0.35658565540E+03  0.90267809275E+03  0.12699999809E+01 0.  1.
</event>
<event>
 5   0  0.2980790E-05  0.2429149E+04  0.7818609E-02  0.8428671E-01
        1   -1    0    0  501    0  0.00000000000E+00  0.00000000000E+00  0.77168900758E+03  0.77168900760E+03  0.50400001928E-02 0.  1.
       -1   -1    0    0    0  501  0.00000000000E+00  0.00000000000E+00 -0.19116394018E+04  0.19116394018E+04  0.50400001928E-02 0. -1.
    10030    2    1    2    0    0  0.00000000000E+00  0.00000000000E+00 -0.11399503942E+04  0.26833284094E+04  0.24291489150E+04 0.  0.
        5    1    3    3  502    0  0.11208087345E+04  0.27511705071E+03 -0.15186246063E+03  0.11640386196E+04  0.46999998093E+01 0.  1.
       -5    1    3    3    0  502 -0.11208087345E+04 -0.27511705071E+03 -0.98808793354E+03  0.15192897898E+04  0.46999998093E+01 0. -1.
</event>
<event>
 5   0  0.6909250E-05  0.2486720E+04  0.7818609E-02  0.8407732E-01
        2   -1    0    0  501    0  0.00000000000E+00  0.00000000000E+00  0.10506241496E+04  0.10506241496E+04  0.25500000920E-02 0. -1.
       -2   -1    0    0    0  501  0.00000000000E+00  0.00000000000E+00 -0.14714531398E+04  0.14714531398E+04  0.25500000920E-02 0.  1.
    10030    2    1    2    0    0  0.00000000000E+00  0.00000000000E+00 -0.42082899024E+03  0.25220772894E+04  0.24867200917E+04 0.  0.
        4    1    3    3  502    0  0.33192980457E+03 -0.62206015663E+03 -0.12490882157E+04  0.14343497541E+04  0.12699999809E+01 0.  1.
       -4    1    3    3    0  502 -0.33192980457E+03  0.62206015663E+03  0.82825922541E+03  0.10877275353E+04  0.12699999809E+01 0. -1.
</event>
<event>
 5   0  0.2777539E-05  0.2355773E+04  0.7818609E-02  0.8456249E-01
        1   -1    0    0  501    0  0.00000000000E+00  0.00000000000E+00  0.20659323791E+04  0.20659323791E+04  0.50400001928E-02 0. -1.
       -1   -1    0    0    0  501  0.00000000000E+00  0.00000000000E+00 -0.67156940490E+03  0.67156940492E+03  0.50400001928E-02 0.  1.
    10030    2    1    2    0    0  0.00000000000E+00  0.00000000000E+00  0.13943629742E+04  0.27375017840E+04  0.23557733154E+04 0.  0.
        3    1    3    3  502    0 -0.57951401294E+03 -0.53968412712E+02 -0.49279915708E+03  0.76262710428E+03  0.10100000352E+00 0.  1.
       -3    1    3    3    0  502  0.57951401294E+03  0.53968412712E+02  0.18871621313E+04  0.19748746797E+04  0.10100000352E+00 0. -1.
</event>
<event>
 5   0  0.6648328E-05  0.1431780E+04  0.7818609E-02  0.8931131E-01
        2   -1    0    0  501    0  0.00000000000E+00  0.00000000000E+00  0.12674389870E+04  0.12674389870E+04  0.25500000920E-02 0. -1.
       -2   -1    0    0    0  501  0.00000000000E+00  0.00000000000E+00 -0.40435747928E+03  0.40435747929E+03  0.25500000920E-02 0.  1.
    10030    2    1    2    0    0  0.00000000000E+00  0.00000000000E+00  0.86308150773E+03  0.16717964663E+04  0.14317799188E+04 0.  0.
        2    1    3    3  502    0 -0.17398555002E+03  0.23088589992E+03 -0.33316588597E+03  0.44111084546E+03  0.25500000920E-02 0.  1.
       -2    1    3    3    0  502  0.17398555002E+03 -0.23088589992E+03  0.11962473937E+04  0.12306856208E+04  0.25500000920E-02 0. -1.
</event>
<event>
 5   0  0.6445331E-05  0.2545998E+04  0.7818609E-02  0.8386779E-01
        2   -1    0    0  501    0  0.00000000000E+00  0.00000000000E+00  0.16883692575E+04  0.16883692575E+04  0.25500000920E-02 0. -1.
       -2   -1    0    0    0  501  0.00000000000E+00  0.00000000000E+00 -0.95981787285E+03  0.95981787285E+03  0.25500000920E-02 0.  1.
    10030    2    1    2    0    0  0.00000000000E+00  0.00000000000E+00  0.72855138462E+03  0.26481871303E+04  0.25459984205E+04 0.  0.
        1    1    3    3  502    0  0.79715806336E+03  0.10847193715E+03 -0.66188144226E+03  0.10417841344E+04  0.50400001928E-02 0.  1.
       -1    1    3    3    0  502 -0.79715806336E+03 -0.10847193715E+03  0.13904328269E+04  0.16064029959E+04  0.50400001928E-02 0. -1.
</event>
<event>
 5   0  0.2896652E-05  0.2480541E+04  0.7818609E-02  0.8409951E-01
       -1   -1    0    0    0  501  0.00000000000E+00  0.00000000000E+00  0.94850128577E+03  0.94850128578E+03  0.50400001928E-02 0. -1.
        1   -1    0    0  501    0  0.00000000000E+00  0.00000000000E+00 -0.16217904467E+04  0.16217904467E+04  0.50400001928E-02 0.  1.
    10030    2    1    2    0    0  0.00000000000E+00  0.00000000000E+00 -0.67328916092E+03  0.25702917325E+04  0.24805405249E+04 0.  0.
        4    1    3    3  502    0  0.98459341538E+03  0.72482854718E+03 -0.12061093475E+03  0.12285557484E+04  0.12699999809E+01 0.  1.
       -4    1    3    3    0  502 -0.98459341538E+03 -0.72482854718E+03 -0.55267822616E+03  0.13417359841E+04  0.12699999809E+01 0. -1.
</event>
<event>
 5   0  0.6445331E-05  0.2486595E+04  0.7818609E-02  0.8407777E-01
        2   -1    0    0  501    0  0.00000000000E+00  0.00000000000E+00  0.18291187390E+04  0.18291187390E+04  0.25500000920E-02 0. -1.
       -2   -1    0    0    0  501  0.00000000000E+00  0.00000000000E+00 -0.84509994602E+03  0.84509994602E+03  0.25500000920E-02 0.  1.
    10030    2    1    2    0    0  0.00000000000E+00  0.00000000000E+00  0.98401879294E+03  0.26742186850E+04  0.24865945770E+04 0.  0.
        1    1    3    3  502    0 -0.64171917392E+03 -0.10178931097E+04  0.82847065995E+03  0.14609153006E+04  0.50400001928E-02 0. -1.
       -1    1    3    3    0  502  0.64171917392E+03  0.10178931097E+04  0.15554813298E+03  0.12133033844E+04  0.50400001928E-02 0.  1.
</event>
<event>
 5   0  0.2793920E-05  0.2491023E+04  0.7818609E-02  0.8406191E-01
       -1   -1    0    0    0  501  0.00000000000E+00  0.00000000000E+00  0.10092258167E+04  0.10092258168E+04  0.50400001928E-02 0.  1.
        1   -1    0    0  501    0  0.00000000000E+00  0.00000000000E+00 -0.15371176799E+04  0.15371176799E+04  0.50400001928E-02 0. -1.
    10030    2    1    2    0    0  0.00000000000E+00  0.00000000000E+00 -0.52789186316E+03  0.25463434967E+04  0.24910229593E+04 0.  0.
        2    1    3    3  502    0  0.44544001248E+03 -0.10949616080E+04  0.13712074283E+03  0.11900251366E+04  0.25500000920E-02 0.  1.
       -2    1    3    3    0  502 -0.44544001248E+03  0.10949616080E+04 -0.66501260599E+03  0.13563183600E+04  0.25500000920E-02 0. -1.
</event>
<event>
 5   0  0.6909250E-05  0.2469368E+04  0.7818609E-02  0.8413980E-01
       -2   -1    0    0    0  501  0.00000000000E+00  0.00000000000E+00  0.80346882228E+03  0.80346882228E+03  0.25500000920E-02 0.  1.
        2   -1    0    0  501    0  0.00000000000E+00  0.00000000000E+00 -0.18973294266E+04  0.18973294266E+04  0.25500000920E-02 0. -1.
    10030    2    1    2    0    0  0.00000000000E+00  0.00000000000E+00 -0.10938606043E+04  0.27007982489E+04  0.24693683726E+04 0.  0.
        4    1    3    3  502    0 -0.75369681452E+02  0.19848015662E+03 -0.18772145250E+04  0.18891826136E+04  0.12699999809E+01 0. -1.
       -4    1    3    3    0  502  0.75369681452E+02 -0.19848015662E+03  0.78335392073E+03  0.81161563531E+03  0.12699999809E+01 0.  1.
</event>
<event>
 5   0  0.6827859E-05  0.2516942E+04  0.7818609E-02  0.8396974E-01
        2   -1    0    0  501    0  0.00000000000E+00  0.00000000000E+00  0.10963406553E+04  0.10963406553E+04  0.25500000920E-02 0.  1.
       -2   -1    0    0    0  501  0.00000000000E+00  0.00000000000E+00 -0.14445781216E+04  0.14445781216E+04  0.25500000920E-02 0. -1.
    10030    2    1    2    0    0  0.00000000000E+00  0.00000000000E+00 -0.34823746627E+03  0.25409187769E+04  0.25169423708E+04 0.  0.
        3    1    3    3  502    0  0.77932855066E+03  0.29572213198E+03  0.77770163035E+03  0.11400107040E+04  0.10100000352E+00 0.  1.
       -3    1    3    3    0  502 -0.77932855066E+03 -0.29572213198E+03 -0.11259390966E+04  0.14009080729E+04  0.10100000352E+00 0. -1.
</event>
<event>
 5   0  0.2793920E-05  0.2419567E+04  0.7818609E-02  0.8432214E-01
        1   -1    0    0  501    0  0.00000000000E+00  0.00000000000E+00  0.90148214400E+03  0.90148214402E+03  0.50400001928E-02 0. -1.
       -1   -1    0    0    0  501  0.00000000000E+00  0.00000000000E+00 -0.16235216325E+04  0.16235216325E+04  0.50400001928E-02 0.  1.
    10030    2    1    2    0    0  0.00000000000E+00  0.00000000000E+00 -0.72203948849E+03  0.25250037765E+04  0.24195667068E+04 0.  0.
        2    1    3    3  502    0 -0.54161760174E+03 -0.85836820732E+03  0.32602337458E+03  0.10660379199E+04  0.25500000920E-02 0. -1.
       -2    1    3    3    0  502  0.54161760174E+03  0.85836820732E+03 -0.10480628631E+04  0.14589658566E+04  0.25500000920E-02 0.  1.
</event>
<event>
 5   0  0.2896652E-05  0.2571574E+04  0.7818609E-02  0.8377921E-01
       -1   -1    0    0    0  501  0.00000000000E+00  0.00000000000E+00  0.98608810679E+03  0.98608810681E+03  0.50400001928E-02 0.  1.
        1   -1    0    0  501    0  0.00000000000E+00  0.00000000000E+00 -0.16765726412E+04  0.16765726412E+04  0.50400001928E-02 0. -1.
    10030    2    1    2    0    0  0.00000000000E+00  0.00000000000E+00 -0.69048453442E+03  0.26626607480E+04  0.25715741029E+04 0.  0.
        4    1    3    3  502    0  0.81772906203E+03 -0.48357990506E+02  0.68093601306E+03  0.10652205316E+04  0.12699999809E+01 0.  1.
       -4    1    3    3    0  502 -0.81772906203E+03  0.48357990506E+02 -0.13714205475E+04  0.15974402164E+04  0.12699999809E+01 0. -1.
</event>
<event>
 5   0  0.2777539E-05  0.2361372E+04  0.7818609E-02  0.8454109E-01
        1   -1    0    0  501    0  0.00000000000E+00  0.00000000000E+00  0.12009770943E+04  0.12009770943E+04  0.50400001928E-02 0.  1.
       -1   -1    0    0    0  501  0.00000000000E+00  0.00000000000E+00 -0.11607374233E+04  0.11607374233E+04  0.50400001928E-02 0. -1.
    10030    2    1    2    0    0  0.00000000000E+00  0.00000000000E+00  0.40239671014E+02  0.23617145176E+04  0.23613716843E+04 0.  0.
        3    1    3    3  502    0 -0.25428990221E+03  0.13973251104E+03  0.11647642689E+04  0.12003600882E+04  0.10100000352E+00 0.  1.
       -3    1    3    3    0  502  0.25428990221E+03 -0.13973251104E+03 -0.11245245979E+04  0.11613544293E+04  0.10100000352E+00 0. -1.
</event>
<event>
 5   0  0.2777539E-05  0.2469570E+04  0.7818609E-02  0.8413907E-01
        1   -1    0    0  501    0  0.00000000000E+00  0.00000000000E+00  0.97203804956E+03  0.97203804958E+03  0.50400001928E-02 0. -1.
       -1   -1    0    0    0  501  0.00000000000E+00  0.00000000000E+00 -0.15685542415E+04  0.15685542415E+04  0.50400001928E-02 0.  1.
    10030    2    1    2    0    0  0.00000000000E+00  0.00000000000E+00 -0.59651619197E+03  0.25405922911E+04  0.24695703315E+04 0.  0.
        3    1    3    3  502    0 -0.21800625915E+03 -0.12146136515E+04 -0.34287995649E+03  0.12807730971E+04  0.10100000352E+00 0. -1.
       -3    1    3    3    0  502  0.21800625915E+03  0.12146136515E+04 -0.25363623548E+03  0.12598191940E+04  0.10100000352E+00 0.  1.
</event>
<event>
 5   0  0.6445331E-05  0.2517415E+04  0.7818609E-02  0.8396807E-01
       -2   -1    0    0    0  501  0.00000000000E+00  0.00000000000E+00  0.12208745134E+04  0.12208745134E+04  0.25500000920E-02 0.  1.
        2   -1    0    0  501    0  0.00000000000E+00  0.00000000000E+00 -0.12977129440E+04  0.12977129440E+04  0.25500000920E-02 0. -1.
    10030    2    1    2    0    0  0.00000000000E+00  0.00000000000E+00 -0.76838430545E+02  0.25185874574E+04  0.25174150703E+04 0.  0.
        1    1    3    3  502    0  0.63060222330E+03 -0.58343741466E+03 -0.95878583290E+03  0.12873727721E+04  0.50400001928E-02 0. -1.
       -1    1    3    3    0  502 -0.63060222330E+03  0.58343741466E+03  0.88194740235E+03  0.12312146853E+04  0.50400001928E-02 0.  1.
</event>
<event>
 5   0  0.7071821E-05  0.2553490E+04  0.7818609E-02  0.8384174E-01
        2   -1    0    0  501    0  0.00000000000E+00  0.00000000000E+00  0.26322927791E+04  0.26322927791E+04  0.25500000920E-02 0. -1.
       -2   -1    0    0    0  501  0.00000000000E+00  0.00000000000E+00 -0.61926145955E+03  0.61926145955E+03  0.25500000920E-02 0.  1.
    10030    2    1    2    0    0  0.00000000000E+00  0.00000000000E+00  0.20130313195E+04  0.32515542386E+04  0.25534897441E+04 0.  0.
        5    1    3    3  502    0  0.96812899995E+03 -0.83629767971E+02 -0.47996821029E+02  0.97293035900E+03  0.46999998093E+01 0.  1.
       -5    1    3    3    0  502 -0.96812899995E+03  0.83629767971E+02  0.20610281406E+04  0.22786238796E+04  0.46999998093E+01 0. -1.
</event>
<event>
 5   0  0.6648328E-05  0.2105821E+04  0.7818609E-02  0.8558683E-01
        2   -1    0    0  501    0  0.00000000000E+00  0.00000000000E+00  0.16205635396E+04  0.16205635396E+04  0.25500000920E-02 0. -1.
       -2   -1    0    0    0  501  0.00000000000E+00  0.00000000000E+00 -0.68409572371E+03  0.68409572371E+03  0.25500000920E-02 0.  1.
    10030    2    1    2    0    0  0.00000000000E+00  0.00000000000E+00  0.93646781589E+03  0.23046592633E+04  0.21058210631E+04 0.  0.
        2    1    3    3  502    0  0.87547121827E+03  0.43350146298E+03  0.89806113869E+03  0.13269842430E+04  0.25500000920E-02 0. -1.
       -2    1    3    3    0  502 -0.87547121827E+03 -0.43350146298E+03  0.38406677198E+02  0.97767502028E+03  0.25500000920E-02 0.  1.
</event>
<event>
 5   0  0.2977854E-05  0.2545871E+04  0.7818609E-02  0.8386824E-01
        1   -1    0    0  501    0  0.00000000000E+00  0.00000000000E+00  0.12464158924E+04  0.12464158924E+04  0.50400001928E-02 0.  1.
       -1   -1    0    0    0  501  0.00000000000E+00  0.00000000000E+00 -0.13000189206E+04  0.13000189206E+04  0.50400001928E-02 0. -1.
    10030    2    1    2    0    0  0.00000000000E+00  0.00000000000E+00 -0.53603028198E+02  0.25464348130E+04  0.25458705726E+04 0.  0.
        1    1    3    3  502    0 -0.62588907986E+03  0.44889504323E+03 -0.10404955873E+04  0.12945558958E+04  0.50400001928E-02 0. -1.
       -1    1    3    3    0  502  0.62588907986E+03 -0.44889504323E+03  0.98689255912E+03  0.12518789172E+04  0.50400001928E-02 0.  1.
</event>
<event>
 5   0  0.6648328E-05  0.2505701E+04  0.7818609E-02  0.8400957E-01
        2   -1    0    0  501    0  0.00000000000E+00  0.00000000000E+00  0.20917821817E+04  0.20917821817E+04  0.25500000920E-02 0. -1.
       -2   -1    0    0    0  501  0.00000000000E+00  0.00000000000E+00 -0.75038120537E+03  0.75038120538E+03  0.25500000920E-02 0.  1.
    10030    2    1    2    0    0  0.00000000000E+00  0.00000000000E+00  0.13414009763E+04  0.28421633871E+04  0.25057007283E+04 0.  0.
        2    1    3    3  502    0 -0.67971832648E+02 -0.12194473150E+04  0.35399059047E+03  0.12716057810E+04  0.25500000920E-02 0.  1.
       -2    1    3    3    0  502  0.67971832648E+02  0.12194473150E+04  0.98741038588E+03  0.15705576061E+04  0.25500000920E-02 0. -1.
</event>
<event>
 5   0  0.2977854E-05  0.2495848E+04  0.7818609E-02  0.8404466E-01
       -1   -1    0    0    0  501  0.00000000000E+00  0.00000000000E+00  0.56184469868E+03  0.56184469870E+03  0.50400001928E-02 0.  1.
        1   -1    0    0  501    0  0.00000000000E+00  0.00000000000E+00 -0.27717868946E+04  0.27717868946E+04  0.50400001928E-02 0. -1.
    10030    2    1    2    0    0  0.00000000000E+00  0.00000000000E+00 -0.22099421959E+04  0.33336315933E+04  0.24958475696E+04 0.  0.
        1    1    3    3  502    0  0.57617528710E+03 -0.98278497979E+03 -0.42460494754E+03  0.12157851946E+04  0.50400001928E-02 0. -1.
       -1    1    3    3    0  502 -0.57617528710E+03  0.98278497979E+03 -0.17853372484E+04  0.21178463987E+04  0.50400001928E-02 0.  1.
</event>
<event>
 5   0  0.2980790E-05  0.2525238E+04  0.7818609E-02  0.8394049E-01
        1   -1    0    0  501    0  0.00000000000E+00  0.00000000000E+00  0.19855797209E+04  0.19855797209E+04  0.50400001928E-02 0. -1.
       -1   -1    0    0    0  501  0.00000000000E+00  0.00000000000E+00 -0.80289237430E+03  0.80289237431E+03  0.50400001928E-02 0.  1.
    10030    2    1    2    0    0  0.00000000000E+00  0.00000000000E+00  0.11826873466E+04  0.27884720952E+04  0.25252380613E+04 0.  0.
        5    1    3    3  502    0  0.42454220341E+03  0.67669425463E+03  0.16710373012E+04  0.18521714145E+04  0.46999998093E+01 0. -1.
       -5    1    3    3    0  502 -0.42454220341E+03 -0.67669425463E+03 -0.48834995453E+03  0.93630068077E+03  0.46999998093E+01 0.  1.
</event>
<event>
 5   0  0.6909250E-05  0.2536897E+04  0.7818609E-02  0.8389957E-01
        2   -1    0    0  501    0  0.00000000000E+00  0.00000000000E+00  0.16200952260E+04  0.16200952260E+04  0.25500000920E-02 0. -1.
       -2   -1    0    0    0  501  0.00000000000E+00  0.00000000000E+00 -0.99312781575E+03  0.99312781575E+03  0.25500000920E-02 0.  1.
    10030    2    1    2    0    0  0.00000000000E+00  0.00000000000E+00  0.62696741027E+03  0.26132230418E+04  0.25368970284E+04 0.  0.
        4    1    3    3  502    0 -0.66678546263E+03 -0.13815945590E+03  0.14158537839E+04  0.15710933896E+04  0.12699999809E+01 0. -1.
       -4    1    3    3    0  502  0.66678546263E+03  0.13815945590E+03 -0.78888637368E+03  0.10421296522E+04  0.12699999809E+01 0.  1.
</event>
<event>
 5   0  0.2777539E-05  0.2474472E+04  0.7818609E-02  0.8412137E-01
        1   -1    0    0  501    0  0.00000000000E+00  0.00000000000E+00  0.11024633819E+04  0.11024633819E+04  0.50400001928E-02 0.  1.
       -1   -1    0    0    0  501  0.00000000000E+00  0.00000000000E+00 -0.13884837246E+04  0.13884837247E+04  0.50400001928E-02 0. -1.
    10030    2    1    2    0    0  0.00000000000E+00  0.00000000000E+00 -0.28602034272E+03  0.24909471066E+04  0.24744716308E+04 0.  0.
        3    1    3    3  502    0 -0.12196423465E+04 -0.13116049641E+03  0.19377002796E+02  0.12268276194E+04  0.10100000352E+00 0.  1.
       -3    1    3    3    0  502  0.12196423465E+04  0.13116049641E+03 -0.30539734552E+03  0.12641194872E+04  0.10100000352E+00 0. -1.
</event>
<event>
 5   0  0.2331375E-05  0.1442753E+04  0.7818609E-02  0.8923440E-01
        3   -1    0    0  501    0  0.00000000000E+00  0.00000000000E+00  0.61381883523E+03  0.61381884354E+03  0.10100000352E+00 0.  1.
       -3   -1    0    0    0  501  0.00000000000E+00  0.00000000000E+00 -0.84778061800E+03  0.84778062401E+03  0.10100000352E+00 0. -1.
    10030    2    1    2    0    0  0.00000000000E+00  0.00000000000E+00 -0.23396178276E+03  0.14615994676E+04  0.14427525386E+04 0.  0.
        1    1    3    3  502    0 -0.14779825450E+03 -0.96854376192E+02 -0.82551602138E+03  0.84421667586E+03  0.50400001928E-02 0. -1.
       -1    1    3    3    0  502  0.14779825450E+03  0.96854376192E+02  0.59155423862E+03  0.61738279169E+03  0.50400001928E-02 0.  1.
</event>
<event>
 5   0  0.2977854E-05  0.2535089E+04  0.7818609E-02  0.8390591E-01
        1   -1    0    0  501    0  0.00000000000E+00  0.00000000000E+00  0.14519153834E+04  0.14519153835E+04  0.50400001928E-02 0. -1.
       -1   -1    0    0    0  501  0.00000000000E+00  0.00000000000E+00 -0.11065855331E+04  0.11065855331E+04  0.50400001928E-02 0.  1.
    10030    2    1    2    0    0  0.00000000000E+00  0.00000000000E+00  0.34532985036E+03  0.25585009165E+04  0.25350886048E+04 0.  0.
        1    1    3    3  502    0 -0.54112007659E+02 -0.10736733476E+04  0.85040681589E+03  0.13707276605E+04  0.50400001928E-02 0. -1.
       -1    1    3    3    0  502  0.54112007659E+02  0.10736733476E+04 -0.50507696552E+03  0.11877732561E+04  0.50400001928E-02 0.  1.
</event>
<event>
 5   0  0.2793920E-05  0.2450370E+04  0.7818609E-02  0.8420883E-01
        1   -1    0    0  501    0  0.00000000000E+00  0.00000000000E+00  0.14493126344E+04  0.14493126344E+04  0.50400001928E-02 0. -1.
       -1   -1    0    0    0  501  0.00000000000E+00  0.00000000000E+00 -0.10357174017E+04  0.10357174017E+04  0.50400001928E-02 0.  1.
    10030    2    1    2    0    0  0.00000000000E+00  0.00000000000E+00  0.41359523274E+03  0.24850300361E+04  0.24503700259E+04 0.  0.
        2    1    3    3  502    0  0.10824134011E+04 -0.43890295862E+03  0.58192666563E+03  0.13049495095E+04  0.25500000920E-02 0. -1.
       -2    1    3    3    0  502 -0.10824134011E+04  0.43890295862E+03 -0.16833143288E+03  0.11800805266E+04  0.25500000920E-02 0.  1.
</event>
<event>
 5   0  0.2896652E-05  0.2442532E+04  0.7818609E-02  0.8423750E-01
        1   -1    0    0  501    0  0.00000000000E+00  0.00000000000E+00  0.76161822068E+03  0.76161822070E+03  0.50400001928E-02 0.  1.
       -1   -1    0    0    0  501  0.00000000000E+00  0.00000000000E+00 -0.19583181294E+04  0.19583181294E+04  0.50400001928E-02 0. -1.
    10030    2    1    2    0    0  0.00000000000E+00  0.00000000000E+00 -0.11966999087E+04  0.27199363501E+04  0.24425321036E+04 0.  0.
        4    1    3    3  502    0 -0.90205417719E+03  0.47198526350E+03 -0.13495099120E+04  0.16904586488E+04  0.12699999809E+01 0.  1.
       -4    1    3    3    0  502  0.90205417719E+03 -0.47198526350E+03  0.15281000334E+03  0.10294777013E+04  0.12699999809E+01 0. -1.
</event>
<event>
 5   0  0.2980790E-05  0.1743191E+04  0.7818609E-02  0.8737107E-01
       -1   -1    0    0    0  501  0.00000000000E+00  0.00000000000E+00  0.68325426671E+03  0.68325426673E+03  0.50400001928E-02 0. -1.
        1   -1    0    0  501    0  0.00000000000E+00  0.00000000000E+00 -0.11118534947E+04  0.11118534947E+04  0.50400001928E-02 0.  1.
    10030    2    1    2    0    0  0.00000000000E+00  0.00000000000E+00 -0.42859922800E+03  0.17951077614E+04  0.17431909181E+04 0.  0.
        5    1    3    3  502    0 -0.64212109671E+03 -0.44394305465E+03 -0.61346708764E+03  0.99285895082E+03  0.46999998093E+01 0.  1.
       -5    1    3    3    0  502  0.64212109671E+03  0.44394305465E+03  0.18486785964E+03  0.80224881062E+03  0.46999998093E+01 0. -1.
</event>
<event>
 5   0  0.6445331E-05  0.2522148E+04  0.7818609E-02  0.8395138E-01
        2   -1    0    0  501    0  0.00000000000E+00  0.00000000000E+00  0.17968019742E+04  0.17968019742E+04  0.25500000920E-02 0. -1.
       -2   -1    0    0    0  501  0.00000000000E+00  0.00000000000E+00 -0.88507648541E+03  0.88507648542E+03  0.25500000920E-02 0.  1.
    10030    2    1    2    0    0  0.00000000000E+00  0.00000000000E+00  0.91172548880E+03  0.26818784596E+04  0.25221476375E+04 0.  0.
        1    1    3    3  502    0 -0.38294704383E+03  0.43634947943E+03 -0.73452598768E+03  0.93625730073E+03  0.50400001928E-02 0.  1.
       -1    1    3    3    0  502  0.38294704383E+03 -0.43634947943E+03  0.16462514765E+04  0.17456211589E+04  0.50400001928E-02 0. -1.
</event>
<event>
 5   0  0.2793920E-05  0.2214878E+04  0.7818609E-02  0.8512261E-01
        1   -1    0    0  501    0  0.00000000000E+00  0.00000000000E+00  0.17734499575E+04  0.17734499576E+04  0.50400001928E-02 0. -1.
       -1   -1    0    0    0  501  0.00000000000E+00  0.00000000000E+00 -0.69154552470E+03  0.69154552472E+03  0.50400001928E-02 0.  1.
    10030    2    1    2    0    0  0.00000000000E+00  0.00000000000E+00  0.10819044328E+04  0.24649954823E+04  0.22148782192E+04 0.  0.
        2    1    3    3  502    0  0.82430390794E+03 -0.49691944165E+03  0.11505426377E+04  0.15000514076E+04  0.25500000920E-02 0. -1.
       -2    1    3    3    0  502 -0.82430390794E+03  0.49691944165E+03 -0.68638204875E+02  0.96494407471E+03  0.25500000920E-02 0.  1.
</event>
<event>
 5   0  0.6827859E-05  0.2593253E+04  0.7818609E-02  0.8370497E-01
        2   -1    0    0  501    0  0.00000000000E+00  0.00000000000E+00  0.15057134903E+04  0.15057134903E+04  0.25500000920E-02 0. -1.
       -2   -1    0    0    0  501  0.00000000000E+00  0.00000000000E+00 -0.11165734885E+04  0.11165734885E+04  0.25500000920E-02 0.  1.
    10030    2    1    2    0    0  0.00000000000E+00  0.00000000000E+00  0.38914000177E+03  0.26222869789E+04  0.25932526021E+04 0.  0.
        3    1    3    3  502    0  0.10598368465E+04  0.57868255567E+02  0.94764766613E+03  0.14228980938E+04  0.10100000352E+00 0. -1.
       -3    1    3    3    0  502 -0.10598368465E+04 -0.57868255567E+02 -0.55850766436E+03  0.11993888850E+04  0.10100000352E+00 0.  1.
</event>
<event>
 5   0  0.2896652E-05  0.2524697E+04  0.7818609E-02  0.8394240E-01
       -1   -1    0    0    0  501  0.00000000000E+00  0.00000000000E+00  0.13604548271E+04  0.13604548271E+04  0.50400001928E-02 0.  1.
        1   -1    0    0  501    0  0.00000000000E+00  0.00000000000E+00 -0.11713169637E+04  0.11713169637E+04  0.50400001928E-02 0. -1.
    10030    2    1    2    0    0  0.00000000000E+00  0.00000000000E+00  0.18913786340E+03  0.25317717908E+04  0.25246970649E+04 0.  0.
        4    1    3    3  502    0  0.43363882508E+03  0.37574395613E+03 -0.10329910985E+04  0.11816506987E+04  0.12699999809E+01 0. -1.
       -4    1    3    3    0  502 -0.43363882508E+03 -0.37574395613E+03  0.12221289619E+04  0.13501210922E+04  0.12699999809E+01 0.  1.
</event>
<event>
 5   0  0.6445331E-05  0.2451197E+04  0.7818609E-02  0.8420581E-01
        2   -1    0    0  501    0  0.00000000000E+00  0.00000000000E+00  0.13170127226E+04  0.13170127226E+04  0.25500000920E-02 0. -1.
       -2   -1    0    0    0  501  0.00000000000E+00  0.00000000000E+00 -0.11405295269E+04  0.11405295269E+04  0.25500000920E-02 0.  1.
    10030    2    1    2    0    0  0.00000000000E+00  0.00000000000E+00  0.17648319572E+03  0.24575422495E+04  0.24511971748E+04 0.  0.
        1    1    3    3  502    0 -0.60504864077E+03 -0.48994803028E+03 -0.86075969859E+03  0.11606206050E+04  0.50400001928E-02 0.  1.
       -1    1    3    3    0  502  0.60504864077E+03  0.48994803028E+03  0.10372428943E+04  0.12969216445E+04  0.50400001928E-02 0. -1.
</event>
<event>
 5   0  0.2777539E-05  0.2501958E+04  0.7818609E-02  0.8402288E-01
        1   -1    0    0  501    0  0.00000000000E+00  0.00000000000E+00  0.12555576012E+04  0.12555576012E+04  0.50400001928E-02 0.  1.
       -1   -1    0    0    0  501  0.00000000000E+00  0.00000000000E+00 -0.12464175050E+04  0.12464175051E+04  0.50400001928E-02 0. -1.
    10030    2    1    2    0    0  0.00000000000E+00  0.00000000000E+00  0.91400961758E+01  0.25019751063E+04  0.25019584111E+04 0.  0.
        3    1    3    3  502    0  0.27274650958E+03 -0.79999374838E+03  0.92683880396E+03  0.12543567414E+04  0.10100000352E+00 0.  1.
       -3    1    3    3    0  502 -0.27274650958E+03  0.79999374838E+03 -0.91769870779E+03  0.12476183649E+04  0.10100000352E+00 0. -1.
</event>
<event>
 5   0  0.6909250E-05  0.2524441E+04  0.7818609E-02  0.8394330E-01
        2   -1    0    0  501    0  0.00000000000E+00  0.00000000000E+00  0.14049204937E+04  0.14049204937E+04  0.25500000920E-02 0. -1.
       -2   -1    0    0    0  501  0.00000000000E+00  0.00000000000E+00 -0.11340148529E+04  0.11340148529E+04  0.25500000920E-02 0.  1.
    10030    2    1    2    0    0  0.00000000000E+00  0.00000000000E+00  0.27090564082E+03  0.25389353467E+04  0.25244410923E+04 0.  0.
        4    1    3    3  502    0 -0.47908568931E+03 -0.95001358199E+03  0.81843220847E+03  0.13423419074E+04  0.12699999809E+01 0. -1.
       -4    1    3    3    0  502  0.47908568931E+03  0.95001358199E+03 -0.54752656765E+03  0.11965934392E+04  0.12699999809E+01 0.  1.
</event>
<event>
 5   0  0.6648328E-05  0.1355470E+04  0.7818609E-02  0.8986698E-01
        2   -1    0    0  501    0  0.00000000000E+00  0.00000000000E+00  0.14431649920E+04  0.14431649920E+04  0.25500000920E-02 0. -1.
       -2   -1    0    0    0  501  0.00000000000E+00  0.00000000000E+00 -0.31827601842E+03  0.31827601843E+03  0.25500000920E-02 0.  1.
    10030    2    1    2    0    0  0.00000000000E+00  0.00000000000E+00  0.11248889736E+04  0.17614410105E+04  0.13554701142E+04 0.  0.
        2    1    3    3  502    0  0.23431365020E+02 -0.67652946021E+03  0.51966591089E+03  0.85340131142E+03  0.25500000920E-02 0. -1.
       -2    1    3    3    0  502 -0.23431365020E+02  0.67652946021E+03  0.60522306273E+03  0.90803969906E+03  0.25500000920E-02 0.  1.
</event>
<event>
 5   0  0.7071821E-05  0.2452909E+04  0.7818609E-02  0.8419957E-01
        2   -1    0    0  501    0  0.00000000000E+00  0.00000000000E+00  0.13225365721E+04  0.13225365721E+04  0.25500000920E-02 0. -1.
       -2   -1    0    0    0  501  0.00000000000E+00  0.00000000000E+00 -0.11373527832E+04  0.11373527832E+04  0.25500000920E-02 0.  1.
    10030    2    1    2    0    0  0.00000000000E+00  0.00000000000E+00  0.18518378885E+03  0.24598893553E+04  0.24529090087E+04 0.  0.
        5    1    3    3  502    0 -0.10173280232E+04  0.66219679984E+03  0.26832656251E+03  0.12431742205E+04  0.46999998093E+01 0.  1.
       -5    1    3    3    0  502  0.10173280232E+04 -0.66219679984E+03 -0.83142773658E+02  0.12167151348E+04  0.46999998093E+01 0. -1.
</event>
<event>
 5   0  0.6648328E-05  0.2542098E+04  0.7818609E-02  0.8388140E-01
        2   -1    0    0  501    0  0.00000000000E+00  0.00000000000E+00  0.11209997467E+04  0.11209997467E+04  0.25500000920E-02 0.  1.
       -2   -1    0    0    0  501  0.00000000000E+00  0.00000000000E+00 -0.14411829738E+04  0.14411829738E+04  0.25500000920E-02 0. -1.
    10030    2    1    2    0    0  0.00000000000E+00  0.00000000000E+00 -0.32018322715E+03  0.25621827205E+04  0.25420981481E+04 0.  0.
        2    1    3    3  502    0  0.94286058270E+03  0.25822465184E+02 -0.10188283297E+04  0.13884034153E+04  0.25500000920E-02 0.  1.
       -2    1    3    3    0  502 -0.94286058270E+03 -0.25822465184E+02  0.69864510257E+03  0.11737793053E+04  0.25500000920E-02 0. -1.
</event>
<event>
 5   0  0.6827859E-05  0.2526776E+04  0.7818609E-02  0.8393508E-01
       -2   -1    0    0    0  501  0.00000000000E+00  0.00000000000E+00  0.81685829587E+03  0.81685829587E+03  0.25500000920E-02 0.  1.
        2   -1    0    0  501    0  0.00000000000E+00  0.00000000000E+00 -0.19540103024E+04  0.19540103024E+04  0.25500000920E-02 0. -1.
    10030    2    1    2    0    0  0.00000000000E+00  0.00000000000E+00 -0.11371520065E+04  0.27708685982E+04  0.25267762273E+04 0.  0.
        3    1    3    3  502    0 -0.10316991041E+04 -0.22758445254E+03  0.19113419617E+03  0.10736526512E+04  0.10100000352E+00 0.  1.
       -3    1    3    3    0  502  0.10316991041E+04  0.22758445254E+03 -0.13282862027E+04  0.16972159470E+04  0.10100000352E+00 0. -1.
</event>
<event>
 5   0  0.6827859E-05  0.2556773E+04  0.7818609E-02  0.8383034E-01
        2   -1    0    0  501    0  0.00000000000E+00  0.00000000000E+00  0.15431413366E+04  0.15431413366E+04  0.25500000920E-02 0.  1.
       -2   -1    0    0    0  501  0.00000000000E+00  0.00000000000E+00 -0.10590555084E+04  0.10590555084E+04  0.25500000920E-02 0. -1.
    10030    2    1    2    0    0  0.00000000000E+00  0.00000000000E+00  0.48408582821E+03  0.26021968450E+04  0.25567732263E+04 0.  0.
        3    1    3    3  502    0 -0.12309947601E+04 -0.93174670624E+02 -0.95884063571E+02  0.12382339773E+04  0.10100000352E+00 0.  1.
       -3    1    3    3    0  502  0.12309947601E+04  0.93174670624E+02  0.57996989178E+03  0.13639628677E+04  0.10100000352E+00 0. -1.
</event>
<event>
 5   0  0.6648328E-05  0.2454347E+04  0.7818609E-02  0.8419433E-01
       -2   -1    0    0    0  501  0.00000000000E+00  0.00000000000E+00  0.64343186761E+03  0.64343186762E+03  0.25500000920E-02 0.  1.
        2   -1    0    0  501    0  0.00000000000E+00  0.00000000000E+00 -0.23405036483E+04  0.23405036483E+04  0.25500000920E-02 0. -1.
    10030    2    1    2    0    0  0.00000000000E+00  0.00000000000E+00 -0.16970717807E+04  0.29839355160E+04  0.24543468652E+04 0.  0.
        2    1    3    3  502    0 -0.87038989766E+03  0.15898658400E+03  0.18530206335E+03  0.90398681546E+03  0.25500000920E-02 0.  1.
       -2    1    3    3    0  502  0.87038989766E+03 -0.15898658400E+03 -0.18823738441E+04  0.20799487005E+04  0.25500000920E-02 0. -1.
</event>
<event>
 5   0  0.2331375E-05  0.2484086E+04  0.7818609E-02  0.8408677E-01
        3   -1    0    0  501    0  0.00000000000E+00  0.00000000000E+00  0.11752849859E+04  0.11752849902E+04  0.10100000352E+00 0. -1.
       -3   -1    0    0    0  501  0.00000000000E+00  0.00000000000E+00 -0.13125929918E+04  0.13125929957E+04  0.10100000352E+00 0.  1.
    10030    2    1    2    0    0  0.00000000000E+00  0.00000000000E+00 -0.13730800593E+03  0.24878779860E+04  0.24840860260E+04 0.  0.
        5    1    3    3  502    0  0.20970994049E+03 -0.68454138082E+03  0.94782069525E+03  0.11878389291E+04  0.46999998093E+01 0. -1.
       -5    1    3    3    0  502 -0.20970994049E+03  0.68454138082E+03 -0.10851287012E+04  0.13000390568E+04  0.46999998093E+01 0.  1.
</event>
<event>
 5   0  0.2331375E-05  0.2493961E+04  0.7818609E-02  0.8405140E-01
       -4   -1    0    0    0  501  0.00000000000E+00  0.00000000000E+00  0.21202011647E+04  0.21202015450E+04  0.12699999809E+01 0. -1.
        4   -1    0    0  501    0  0.00000000000E+00  0.00000000000E+00 -0.73340129625E+03  0.73340239585E+03  0.12699999809E+01 0.  1.
    10030    2    1    2    0    0  0.00000000000E+00  0.00000000000E+00  0.13867998684E+04  0.28536039409E+04  0.24939610214E+04 0.  0.
        4    1    3    3  502    0  0.31796016174E+02  0.12384661417E+04  0.53098154275E+03  0.13478695718E+04  0.12699999809E+01 0.  1.
       -4    1    3    3    0  502 -0.31796016174E+02 -0.12384661417E+04  0.85581832567E+03  0.15057343691E+04  0.12699999809E+01 0. -1.
</event>
<event>
 5   0  0.6827859E-05  0.2284604E+04  0.7818609E-02  0.8484016E-01
       -2   -1    0    0    0  501  0.00000000000E+00  0.00000000000E+00  0.52550743153E+03  0.52550743154E+03  0.25500000920E-02 0.  1.
        2   -1    0    0  501    0  0.00000000000E+00  0.00000000000E+00 -0.24830363390E+04  0.24830363390E+04  0.25500000920E-02 0. -1.
    10030    2    1    2    0    0  0.00000000000E+00  0.00000000000E+00 -0.19575289075E+04  0.30085437705E+04  0.22846041661E+04 0.  0.
        3    1    3    3  502    0  0.10798638376E+04 -0.23155996541E+03 -0.13629861403E+04  0.17542682675E+04  0.10100000352E+00 0. -1.
       -3    1    3    3    0  502 -0.10798638376E+04  0.23155996541E+03 -0.59454276716E+03  0.12542755031E+04  0.10100000352E+00 0.  1.
</event>
<event>
 5   0  0.2896652E-05  0.2147057E+04  0.7818609E-02  0.8540793E-01
       -1   -1    0    0    0  501  0.00000000000E+00  0.00000000000E+00  0.93975747028E+03  0.93975747029E+03  0.50400001928E-02 0.  1.
        1   -1    0    0  501    0  0.00000000000E+00  0.00000000000E+00 -0.12263414131E+04  0.12263414131E+04  0.50400001928E-02 0. -1.
    10030    2    1    2    0    0  0.00000000000E+00  0.00000000000E+00 -0.28658394285E+03  0.21660988834E+04  0.21470570594E+04 0.  0.
        4    1    3    3  502    0  0.40950522456E+03 -0.90389713679E+02  0.85370169396E+03  0.95114300946E+03  0.12699999809E+01 0.  1.
       -4    1    3    3    0  502 -0.40950522456E+03  0.90389713679E+02 -0.11402856368E+04  0.12149558740E+04  0.12699999809E+01 0. -1.
</event>
<event>
 5   0  0.6445331E-05  0.2479877E+04  0.7818609E-02  0.8410190E-01
        2   -1    0    0  501    0  0.00000000000E+00  0.00000000000E+00  0.12227681973E+04  0.12227681974E+04  0.25500000920E-02 0.  1.
       -2   -1    0    0    0  501  0.00000000000E+00  0.00000000000E+00 -0.12573501684E+04  0.12573501684E+04  0.25500000920E-02 0. -1.
    10030    2    1    2    0    0  0.00000000000E+00  0.00000000000E+00 -0.34581971048E+02  0.24801183658E+04  0.24798772541E+04 0.  0.
        1    1    3    3  502    0  0.30628264671E+03  0.10523509359E+04 -0.59717168442E+03  0.12481448524E+04  0.50400001928E-02 0. -1.
       -1    1    3    3    0  502 -0.30628264671E+03 -0.10523509359E+04  0.56258971337E+03  0.12319735133E+04  0.50400001928E-02 0.  1.
</event>
<event>
 5   0  0.6648328E-05  0.2400522E+04  0.7818609E-02  0.8439308E-01
       -2   -1    0    0    0  501  0.00000000000E+00  0.00000000000E+00  0.14735284734E+04  0.14735284734E+04  0.25500000920E-02 0.  1.
        2   -1    0    0  501    0  0.00000000000E+00  0.00000000000E+00 -0.97767100414E+03  0.97767100414E+03  0.25500000920E-02 0. -1.
    10030    2    1    2    0    0  0.00000000000E+00  0.00000000000E+00  0.49585746929E+03  0.24511994776E+04  0.24005216618E+04 0.  0.
        2    1    3    3  502    0  0.33808422888E+03  0.17482576475E+03  0.14102749068E+04  0.14607327978E+04  0.25500000920E-02 0.  1.
       -2    1    3    3    0  502 -0.33808422888E+03 -0.17482576475E+03 -0.91441743747E+03  0.99046667980E+03  0.25500000920E-02 0. -1.
</event>
<event>
 5   0  0.2793920E-05  0.2196187E+04  0.7818609E-02  0.8520017E-01
        1   -1    0    0  501    0  0.00000000000E+00  0.00000000000E+00  0.96938724019E+03  0.96938724020E+03  0.50400001928E-02 0. -1.
       -1   -1    0    0    0  501  0.00000000000E+00  0.00000000000E+00 -0.12438881586E+04  0.12438881586E+04  0.50400001928E-02 0.  1.
    10030    2    1    2    0    0  0.00000000000E+00  0.00000000000E+00 -0.27450091840E+03  0.22132753988E+04  0.21961869767E+04 0.  0.
        2    1    3    3  502    0  0.69785177583E+03  0.24252415995E+03  0.68147108266E+03  0.10050959684E+04  0.25500000920E-02 0. -1.
       -2    1    3    3    0  502 -0.69785177583E+03 -0.24252415995E+03 -0.95597200107E+03  0.12081794304E+04  0.25500000920E-02 0.  1.
</event>
<event>
 5   0  0.7071821E-05  0.2475238E+04  0.7818609E-02  0.8411861E-01
        2   -1    0    0  501    0  0.00000000000E+00  0.00000000000E+00  0.10352893107E+04  0.10352893107E+04  0.25500000920E-02 0. -1.
       -2   -1    0    0    0  501  0.00000000000E+00  0.00000000000E+00 -0.14794900142E+04  0.14794900142E+04  0.25500000920E-02 0.  1.
    10030    2    1    2    0    0  0.00000000000E+00  0.00000000000E+00 -0.44420070351E+03  0.25147793250E+04  0.24752375216E+04 0.  0.
        5    1    3    3  502    0  0.77754283331E+03 -0.73168799284E+03  0.41378791826E+03  0.11450688660E+04  0.46999998093E+01 0. -1.
       -5    1    3    3    0  502 -0.77754283331E+03  0.73168799284E+03 -0.85798862177E+03  0.13697104590E+04  0.46999998093E+01 0.  1.
</event>
<event>
 5   0  0.2777539E-05  0.2502193E+04  0.7818609E-02  0.8402205E-01
        1   -1    0    0  501    0  0.00000000000E+00  0.00000000000E+00  0.13024678974E+04  0.13024678974E+04  0.50400001928E-02 0.  1.
       -1   -1    0    0    0  501  0.00000000000E+00  0.00000000000E+00 -0.12017507918E+04  0.12017507918E+04  0.50400001928E-02 0. -1.
    10030    2    1    2    0    0  0.00000000000E+00  0.00000000000E+00  0.10071710562E+03  0.25042186893E+04  0.25021925002E+04 0.  0.
        3    1    3    3  502    0  0.29205383030E+03 -0.10647995122E+04 -0.53846162423E+03  0.12284276014E+04  0.10100000352E+00 0. -1.
       -3    1    3    3    0  502 -0.29205383030E+03  0.10647995122E+04  0.63917872985E+03  0.12757910879E+04  0.10100000352E+00 0.  1.
</event>
<event>
 5   0  0.2777539E-05  0.2436411E+04  0.7818609E-02  0.8425996E-01
       -1   -1    0    0    0  501  0.00000000000E+00  0.00000000000E+00  0.15625329603E+04  0.15625329603E+04  0.50400001928E-02 0. -1.
        1   -1    0    0  501    0  0.00000000000E+00  0.00000000000E+00 -0.94975583947E+03  0.94975583948E+03  0.50400001928E-02 0.  1.
    10030    2    1    2    0    0  0.00000000000E+00  0.00000000000E+00  0.61277712086E+03  0.25122887998E+04  0.24364111340E+04 0.  0.
        3    1    3    3  502    0  0.81087700295E+03 -0.70605317294E+03 -0.28415337383E+03  0.11121041979E+04  0.10100000352E+00 0. -1.
       -3    1    3    3    0  502 -0.81087700295E+03  0.70605317294E+03  0.89693049469E+03  0.14001846019E+04  0.10100000352E+00 0.  1.
</event>
<event>
 5   0  0.2896652E-05  0.2462279E+04  0.7818609E-02  0.8416549E-01
        1   -1    0    0  501    0  0.00000000000E+00  0.00000000000E+00  0.11116482523E+04  0.11116482523E+04  0.50400001928E-02 0.  1.
       -1   -1    0    0    0  501  0.00000000000E+00  0.00000000000E+00 -0.13634743654E+04  0.13634743654E+04  0.50400001928E-02 0. -1.
    10030    2    1    2    0    0  0.00000000000E+00  0.00000000000E+00 -0.25182611310E+03  0.24751226178E+04  0.24622785345E+04 0.  0.
        4    1    3    3  502    0 -0.10417791002E+04  0.50453495352E+03 -0.54743692183E+03  0.12804483626E+04  0.12699999809E+01 0. -1.
       -4    1    3    3    0  502  0.10417791002E+04 -0.50453495352E+03  0.29561080873E+03  0.11946742552E+04  0.12699999809E+01 0.  1.
</event>
<event>
 5   0  0.6909250E-05  0.2471310E+04  0.7818609E-02  0.8413278E-01
        2   -1    0    0  501    0  0.00000000000E+00  0.00000000000E+00  0.19475272993E+04  0.19475272993E+04  0.25500000920E-02 0. -1.
       -2   -1    0    0    0  501  0.00000000000E+00  0.00000000000E+00 -0.78399042796E+03  0.78399042797E+03  0.25500000920E-02 0.  1.
    10030    2    1    2    0    0  0.00000000000E+00  0.00000000000E+00  0.11635368714E+04  0.27315177273E+04  0.24713095807E+04 0.  0.
        4    1    3    3  502    0  0.45396232305E+02 -0.64198257394E+03 -0.58411183276E+03  0.86913214716E+03  0.12699999809E+01 0.  1.
       -4    1    3    3    0  502 -0.45396232305E+02  0.64198257394E+03  0.17476487041E+04  0.18623855801E+04  0.12699999809E+01 0. -1.
</event>
<event>
 5   0  0.6648328E-05  0.2513928E+04  0.7818609E-02  0.8398040E-01
        2   -1    0    0  501    0  0.00000000000E+00  0.00000000000E+00  0.97349097371E+03  0.97349097371E+03  0.25500000920E-02 0. -1.
       -2   -1    0    0    0  501  0.00000000000E+00  0.00000000000E+00 -0.16229826924E+04  0.16229826924E+04  0.25500000920E-02 0.  1.
    10030    2    1    2    0    0  0.00000000000E+00  0.00000000000E+00 -0.64949171870E+03  0.25964736661E+04  0.25139284012E+04 0.  0.
        2    1    3    3  502    0 -0.90529428606E+03  0.30780018995E+03 -0.11674154970E+04  0.15090253954E+04  0.25500000920E-02 0.  1.
       -2    1    3    3    0  502  0.90529428606E+03 -0.30780018995E+03  0.51792377831E+03  0.10874482707E+04  0.25500000920E-02 0. -1.
</event>
<event>
 5   0  0.6909250E-05  0.2459705E+04  0.7818609E-02  0.8417483E-01
        2   -1    0    0  501    0  0.00000000000E+00  0.00000000000E+00  0.17635282688E+04  0.17635282688E+04  0.25500000920E-02 0. -1.
       -2   -1    0    0    0  501  0.00000000000E+00  0.00000000000E+00 -0.85767670030E+03  0.85767670031E+03  0.25500000920E-02 0.  1.
    10030    2    1    2    0    0  0.00000000000E+00  0.00000000000E+00  0.90585156851E+03  0.26212049691E+04  0.24597049469E+04 0.  0.
        4    1    3    3  502    0  0.39429656112E+03  0.90198161765E+03 -0.33269993992E+03  0.10391012846E+04  0.12699999809E+01 0.  1.
       -4    1    3    3    0  502 -0.39429656112E+03 -0.90198161765E+03  0.12385515084E+04  0.15821036845E+04  0.12699999809E+01 0. -1.
</event>
<event>
 5   0  0.6445331E-05  0.3075595E+04  0.7818609E-02  0.8222468E-01
        2   -1    0    0  501    0  0.00000000000E+00  0.00000000000E+00  0.19993087403E+04  0.19993087403E+04  0.25500000920E-02 0. -1.
       -2   -1    0    0    0  501  0.00000000000E+00  0.00000000000E+00 -0.11828195332E+04  0.11828195332E+04  0.25500000920E-02 0.  1.
    10030    2    1    2    0    0  0.00000000000E+00  0.00000000000E+00  0.81648920717E+03  0.31821282735E+04  0.30755951820E+04 0.  0.
        1    1    3    3  502    0 -0.23462965294E+03 -0.77441270446E+03 -0.94474229256E+03  0.12439067932E+04  0.50400001928E-02 0.  1.
       -1    1    3    3    0  502  0.23462965294E+03  0.77441270446E+03  0.17612314997E+04  0.19382214803E+04  0.50400001928E-02 0. -1.
</event>
<event>
 5   0  0.6827859E-05  0.1990762E+04  0.7818609E-02  0.8610952E-01
       -2   -1    0    0    0  501  0.00000000000E+00  0.00000000000E+00  0.62492251924E+03  0.62492251925E+03  0.25500000920E-02 0.  1.
        2   -1    0    0  501    0  0.00000000000E+00  0.00000000000E+00 -0.15854503161E+04  0.15854503161E+04  0.25500000920E-02 0. -1.
    10030    2    1    2    0    0  0.00000000000E+00  0.00000000000E+00 -0.96052779685E+03  0.22103728353E+04  0.19907622718E+04 0.  0.
        3    1    3    3  502    0  0.61466037834E+03  0.70594259008E+02 -0.13460194859E+04  0.14814045352E+04  0.10100000352E+00 0. -1.
       -3    1    3    3    0  502 -0.61466037834E+03 -0.70594259008E+02  0.38549168908E+03  0.72896830017E+03  0.10100000352E+00 0.  1.
</event>
<event>
 5   0  0.2977854E-05  0.2492423E+04  0.7818609E-02  0.8405690E-01
       -1   -1    0    0    0  501  0.00000000000E+00  0.00000000000E+00  0.10783670934E+04  0.10783670934E+04  0.50400001928E-02 0.  1.
        1   -1    0    0  501    0  0.00000000000E+00  0.00000000000E+00 -0.14401799001E+04  0.14401799001E+04  0.50400001928E-02 0. -1.
    10030    2    1    2    0    0  0.00000000000E+00  0.00000000000E+00 -0.36181280664E+03  0.25185469935E+04  0.24924226069E+04 0.  0.
        1    1    3    3  502    0 -0.99628755603E+03 -0.48986341210E+03 -0.75295636738E+03  0.13414538188E+04  0.50400001928E-02 0. -1.
       -1    1    3    3    0  502  0.99628755603E+03  0.48986341210E+03  0.39114356074E+03  0.11770931747E+04  0.50400001928E-02 0.  1.
</event>
<event>
 5   0  0.6648328E-05  0.2026553E+04  0.7818609E-02  0.8594306E-01
        2   -1    0    0  501    0  0.00000000000E+00  0.00000000000E+00  0.19593207372E+04  0.19593207372E+04  0.25500000920E-02 0. -1.
       -2   -1    0    0    0  501  0.00000000000E+00  0.00000000000E+00 -0.52402300972E+03  0.52402300973E+03  0.25500000920E-02 0.  1.
    10030    2    1    2    0    0  0.00000000000E+00  0.00000000000E+00  0.14352977275E+04  0.24833437470E+04  0.20265528858E+04 0.  0.
        2    1    3    3  502    0  0.75323753564E+03 -0.60556873833E+03  0.10906403816E+04  0.14572497123E+04  0.25500000920E-02 0.  1.
       -2    1    3    3    0  502 -0.75323753564E+03  0.60556873833E+03  0.34465734594E+03  0.10260940347E+04  0.25500000920E-02 0. -1.
</event>
<event>
 5   0  0.2793920E-05  0.2537754E+04  0.7818609E-02  0.8389658E-01
        1   -1    0    0  501    0  0.00000000000E+00  0.00000000000E+00  0.21292044124E+04  0.21292044124E+04  0.50400001928E-02 0.  1.
       -1   -1    0    0    0  501  0.00000000000E+00  0.00000000000E+00 -0.75617374389E+03  0.75617374391E+03  0.50400001928E-02 0. -1.
    10030    2    1    2    0    0  0.00000000000E+00  0.00000000000E+00  0.13730306685E+04  0.28853781563E+04  0.25377537092E+04 0.  0.
        2    1    3    3  502    0  0.75817655952E+03  0.98537240766E+03  0.39830015267E+03  0.13055395393E+04  0.25500000920E-02 0. -1.
       -2    1    3    3    0  502 -0.75817655952E+03 -0.98537240766E+03  0.97473051585E+03  0.15798386170E+04  0.25500000920E-02 0.  1.
</event>
<event>
 5   0  0.6648328E-05  0.2180934E+04  0.7818609E-02  0.8526406E-01
        2   -1    0    0  501    0  0.00000000000E+00  0.00000000000E+00  0.16107609702E+04  0.16107609702E+04  0.25500000920E-02 0.  1.
       -2   -1    0    0    0  501  0.00000000000E+00  0.00000000000E+00 -0.73823382039E+03  0.73823382040E+03  0.25500000920E-02 0. -1.
    10030    2    1    2    0    0  0.00000000000E+00  0.00000000000E+00  0.87252714985E+03  0.23489947906E+04  0.21809339511E+04 0.  0.
        2    1    3    3  502    0 -0.20713427344E+03 -0.55170672286E+03 -0.55195404536E+03  0.80742689049E+03  0.25500000920E-02 0. -1.
       -2    1    3    3    0  502  0.20713427344E+03  0.55170672286E+03  0.14244811952E+04  0.15415679002E+04  0.25500000920E-02 0.  1.
</event>
<event>
 5   0  0.6909250E-05  0.2445498E+04  0.7818609E-02  0.8422663E-01
        2   -1    0    0  501    0  0.00000000000E+00  0.00000000000E+00  0.13748619420E+04  0.13748619420E+04  0.25500000920E-02 0. -1.
       -2   -1    0    0    0  501  0.00000000000E+00  0.00000000000E+00 -0.10874658108E+04  0.10874658108E+04  0.25500000920E-02 0.  1.
    10030    2    1    2    0    0  0.00000000000E+00  0.00000000000E+00  0.28739613121E+03  0.24623277528E+04  0.24454981959E+04 0.  0.
        4    1    3    3  502    0  0.94985024557E+03 -0.30765622261E+03  0.85442108440E+03  0.13141175148E+04  0.12699999809E+01 0. -1.
       -4    1    3    3    0  502 -0.94985024557E+03  0.30765622261E+03 -0.56702495320E+03  0.11482102381E+04  0.12699999809E+01 0.  1.
</event>
<event>
 5   0  0.2977854E-05  0.2532681E+04  0.7818609E-02  0.8391435E-01
        1   -1    0    0  501    0  0.00000000000E+00  0.00000000000E+00  0.86376108538E+03  0.86376108539E+03  0.50400001928E-02 0. -1.
       -1   -1    0    0    0  501  0.00000000000E+00  0.00000000000E+00 -0.18565523801E+04  0.18565523801E+04  0.50400001928E-02 0.  1.
    10030    2    1    2    0    0  0.00000000000E+00  0.00000000000E+00 -0.99279129473E+03  0.27203134655E+04  0.25326805554E+04 0.  0.
        1    1    3    3  502    0  0.61173457794E+03  0.10821521144E+04 -0.75583837272E+03  0.14548415852E+04  0.50400001928E-02 0. -1.
       -1    1    3    3    0  502 -0.61173457794E+03 -0.10821521144E+04 -0.23695292201E+03  0.12654718803E+04  0.50400001928E-02 0.  1.
</event>
<event>
 5   0  0.2777539E-05  0.2524914E+04  0.7818609E-02  0.8394163E-01
        1   -1    0    0  501    0  0.00000000000E+00  0.00000000000E+00  0.14921418061E+04  0.14921418061E+04  0.50400001928E-02 0. -1.
       -1   -1    0    0    0  501  0.00000000000E+00  0.00000000000E+00 -0.10681275491E+04  0.10681275491E+04  0.50400001928E-02 0.  1.
    10030    2    1    2    0    0  0.00000000000E+00  0.00000000000E+00  0.42401425702E+03  0.25602693552E+04  0.25249140740E+04 0.  0.
        3    1    3    3  502    0 -0.56719048805E+03  0.34359779588E+03 -0.87729466493E+03  0.10997319830E+04  0.10100000352E+00 0.  1.
       -3    1    3    3    0  502  0.56719048805E+03 -0.34359779588E+03  0.13013089220E+04  0.14605373722E+04  0.10100000352E+00 0. -1.
</event>
<event>
 5   0  0.6827859E-05  0.2398530E+04  0.7818609E-02  0.8440054E-01
        2   -1    0    0  501    0  0.00000000000E+00  0.00000000000E+00  0.92766074159E+03  0.92766074159E+03  0.25500000920E-02 0. -1.
       -2   -1    0    0    0  501  0.00000000000E+00  0.00000000000E+00 -0.15503903174E+04  0.15503903174E+04  0.25500000920E-02 0.  1.
    10030    2    1    2    0    0  0.00000000000E+00  0.00000000000E+00 -0.62272957577E+03  0.24780510590E+04  0.23985297426E+04 0.  0.
        3    1    3    3  502    0 -0.44527533675E+03 -0.10444576890E+04  0.87537412781E+02  0.11387821558E+04  0.10100000352E+00 0.  1.
       -3    1    3    3    0  502  0.44527533675E+03  0.10444576890E+04 -0.71026698856E+03  0.13392689031E+04  0.10100000352E+00 0. -1.
</event>
<event>
 5   0  0.2980790E-05  0.2465659E+04  0.7818609E-02  0.8415323E-01
       -1   -1    0    0    0  501  0.00000000000E+00  0.00000000000E+00  0.80353307604E+03  0.80353307606E+03  0.50400001928E-02 0.  1.
        1   -1    0    0  501    0  0.00000000000E+00  0.00000000000E+00 -0.18914826330E+04  0.18914826330E+04  0.50400001928E-02 0. -1.
    10030    2    1    2    0    0  0.00000000000E+00  0.00000000000E+00 -0.10879495569E+04  0.26950157090E+04  0.24656592290E+04 0.  0.
        5    1    3    3  502    0  0.92676837030E+03  0.38634919374E+02  0.34363211178E+03  0.98919026857E+03  0.46999998093E+01 0.  1.
       -5    1    3    3    0  502 -0.92676837030E+03 -0.38634919374E+02 -0.14315816687E+04  0.17058254405E+04  0.46999998093E+01 0. -1.
</event>
<event>
 5   0  0.2896652E-05  0.2474164E+04  0.7818609E-02  0.8412248E-01
        1   -1    0    0  501    0  0.00000000000E+00  0.00000000000E+00  0.13639210194E+04  0.13639210194E+04  0.50400001928E-02 0. -1.
       -1   -1    0    0    0  501  0.00000000000E+00  0.00000000000E+00 -0.11220382011E+04  0.11220382011E+04  0.50400001928E-02 0.  1.
    10030    2    1    2    0    0  0.00000000000E+00  0.00000000000E+00  0.24188281836E+03  0.24859592205E+04  0.24741636866E+04 0.  0.
        4    1    3    3  502    0 -0.86487450488E+03 -0.19001901835E+03  0.98892021827E+03  0.13274335944E+04  0.12699999809E+01 0. -1.
       -4    1    3    3    0  502  0.86487450488E+03  0.19001901835E+03 -0.74703739992E+03  0.11585256261E+04  0.12699999809E+01 0.  1.
</event>
<event>
 5   0  0.6909250E-05  0.2469778E+04  0.7818609E-02  0.8413832E-01
        2   -1    0    0  501    0  0.00000000000E+00  0.00000000000E+00  0.21226507147E+04  0.21226507147E+04  0.25500000920E-02 0.  1.
       -2   -1    0    0    0  501  0.00000000000E+00  0.00000000000E+00 -0.71841811226E+03  0.71841811227E+03  0.25500000920E-02 0. -1.
    10030    2    1    2    0    0  0.00000000000E+00  0.00000000000E+00  0.14042326025E+04  0.28410688270E+04  0.24697779005E+04 0.  0.
        4    1    3    3  502    0  0.53879737463E+03  0.10394250079E+04  0.11538946231E+04  0.16438313089E+04  0.12699999809E+01 0.  1.
       -4    1    3    3    0  502 -0.53879737463E+03 -0.10394250079E+04  0.25033797933E+03  0.11972375181E+04  0.12699999809E+01 0. -1.
</event>
<event>
 5   0  0.6445331E-05  0.2486375E+04  0.7818609E-02  0.8407855E-01
       -2   -1    0    0    0  501  0.00000000000E+00  0.00000000000E+00  0.81946275862E+03  0.81946275862E+03  0.25500000920E-02 0. -1.
        2   -1    0    0  501    0  0.00000000000E+00  0.00000000000E+00 -0.18860109881E+04  0.18860109881E+04  0.25500000920E-02 0.  1.
    10030    2    1    2    0    0  0.00000000000E+00  0.00000000000E+00 -0.10665482295E+04  0.27054737468E+04  0.24863754882E+04 0.  0.
        1    1    3    3  502    0 -0.65932253890E+03 -0.38204863838E+03  0.53554976339E+03  0.93138655857E+03  0.50400001928E-02 0. -1.
       -1    1    3    3    0  502  0.65932253890E+03  0.38204863838E+03 -0.16020979929E+04  0.17740871882E+04  0.50400001928E-02 0.  1.
</event>
<event>
 5   0  0.2793920E-05  0.2218943E+04  0.7818609E-02  0.8510585E-01
        1   -1    0    0  501    0  0.00000000000E+00  0.00000000000E+00  0.15763560096E+04  0.15763560096E+04  0.50400001928E-02 0. -1.
       -1   -1    0    0    0  501  0.00000000000E+00  0.00000000000E+00 -0.78086862769E+03  0.78086862771E+03  0.50400001928E-02 0.  1.
    10030    2    1    2    0    0  0.00000000000E+00  0.00000000000E+00  0.79548738188E+03  0.23572246373E+04  0.22189429501E+04 0.  0.
        2    1    3    3  502    0  0.82481044838E+03  0.36587679479E+01  0.11860108768E+04  0.14446271014E+04  0.25500000920E-02 0. -1.
       -2    1    3    3    0  502 -0.82481044838E+03 -0.36587679479E+01 -0.39052349492E+03  0.91259753585E+03  0.25500000920E-02 0.  1.
</event>
<event>
 5   0  0.6648328E-05  0.1446367E+04  0.7818609E-02  0.8920923E-01
       -2   -1    0    0    0  501  0.00000000000E+00  0.00000000000E+00  0.50169286715E+03  0.50169286716E+03  0.25500000920E-02 0.  1.
        2   -1    0    0  501    0  0.00000000000E+00  0.00000000000E+00 -0.10424593217E+04  0.10424593217E+04  0.25500000920E-02 0. -1.
    10030    2    1    2    0    0  0.00000000000E+00  0.00000000000E+00 -0.54076645452E+03  0.15441521888E+04  0.14463670433E+04 0.  0.
        2    1    3    3  502    0 -0.22290132866E+03  0.68113228758E+03 -0.16705002129E+03  0.73588851406E+03  0.25500000920E-02 0.  1.
       -2    1    3    3    0  502  0.22290132866E+03 -0.68113228758E+03 -0.37371643323E+03  0.80826367478E+03  0.25500000920E-02 0. -1.
</event>
<event>
 5   0  0.6445331E-05  0.2615288E+04  0.7818609E-02  0.8363027E-01
       -2   -1    0    0    0  501  0.00000000000E+00  0.00000000000E+00  0.62034428946E+03  0.62034428947E+03  0.25500000920E-02 0.  1.
        2   -1    0    0  501    0  0.00000000000E+00  0.00000000000E+00 -0.27564255233E+04  0.27564255233E+04  0.25500000920E-02 0. -1.
    10030    2    1    2    0    0  0.00000000000E+00  0.00000000000E+00 -0.21360812338E+04  0.33767698127E+04  0.26152880015E+04 0.  0.
        1    1    3    3  502    0 -0.33345538688E+03  0.90359584875E+03  0.73933014126E+02  0.96599381132E+03  0.50400001928E-02 0.  1.
       -1    1    3    3    0  502  0.33345538688E+03 -0.90359584875E+03 -0.22100142479E+04  0.24107760014E+04  0.50400001928E-02 0. -1.
</event>
<event>
 5   0  0.6827859E-05  0.3136876E+04  0.7818609E-02  0.8205690E-01
       -2   -1    0    0    0  501  0.00000000000E+00  0.00000000000E+00  0.95577016712E+03  0.95577016712E+03  0.25500000920E-02 0. -1.
        2   -1    0    0  501    0  0.00000000000E+00  0.00000000000E+00 -0.25738380363E+04  0.25738380363E+04  0.25500000920E-02 0.  1.
    10030    2    1    2    0    0  0.00000000000E+00  0.00000000000E+00 -0.16180678691E+04  0.35296082034E+04  0.31368759045E+04 0.  0.
        3    1    3    3  502    0  0.14312799435E+04 -0.12505589099E+03 -0.10114511542E+03  0.14402887200E+04  0.10100000352E+00 0. -1.
       -3    1    3    3    0  502 -0.14312799435E+04  0.12505589099E+03 -0.15169227537E+04  0.20893194833E+04  0.10100000352E+00 0.  1.
</event>
<event>
 5   0  0.6648328E-05  0.1403604E+04  0.7818609E-02  0.8951214E-01
       -2   -1    0    0    0  501  0.00000000000E+00  0.00000000000E+00  0.26993044633E+03  0.26993044634E+03  0.25500000920E-02 0.  1.
        2   -1    0    0  501    0  0.00000000000E+00  0.00000000000E+00 -0.18246411647E+04  0.18246411647E+04  0.25500000920E-02 0. -1.
    10030    2    1    2    0    0  0.00000000000E+00  0.00000000000E+00 -0.15547107184E+04  0.20945716111E+04  0.14036042234E+04 0.  0.
        2    1    3    3  502    0 -0.18107874669E+03 -0.38633504192E+03 -0.16088677192E+04  0.16644817857E+04  0.25500000920E-02 0. -1.
       -2    1    3    3    0  502  0.18107874669E+03  0.38633504192E+03  0.54157000816E+02  0.43008982534E+03  0.25500000920E-02 0.  1.
</event>
<event>
 5   0  0.2980790E-05  0.2465619E+04  0.7818609E-02  0.8415337E-01
       -1   -1    0    0    0  501  0.00000000000E+00  0.00000000000E+00  0.10601888405E+04  0.10601888405E+04  0.50400001928E-02 0.  1.
        1   -1    0    0  501    0  0.00000000000E+00  0.00000000000E+00 -0.14335361790E+04  0.14335361790E+04  0.50400001928E-02 0. -1.
    10030    2    1    2    0    0  0.00000000000E+00  0.00000000000E+00 -0.37334733846E+03  0.24937250195E+04  0.24656188346E+04 0.  0.
        5    1    3    3  502    0 -0.69950099837E+03 -0.10140746335E+04 -0.13979926520E+03  0.12398447216E+04  0.46999998093E+01 0.  1.
       -5    1    3    3    0  502  0.69950099837E+03  0.10140746335E+04 -0.23354807326E+03  0.12538802979E+04  0.46999998093E+01 0. -1.
</event>
<event>
 5   0  0.6909250E-05  0.2296493E+04  0.7818609E-02  0.8479305E-01
        2   -1    0    0  501    0  0.00000000000E+00  0.00000000000E+00  0.12669775960E+04  0.12669775960E+04  0.25500000920E-02 0.  1.
       -2   -1    0    0    0  501  0.00000000000E+00  0.00000000000E+00 -0.10406416804E+04  0.10406416805E+04  0.25500000920E-02 0. -1.
    10030    2    1    2    0    0  0.00000000000E+00  0.00000000000E+00  0.22633591559E+03  0.23076192765E+04  0.22964927125E+04 0.  0.
        4    1    3    3  502    0  0.32211959818E+03  0.56802650420E+03  0.10622295544E+04  0.12468954985E+04  0.12699999809E+01 0.  1.
       -4    1    3    3    0  502 -0.32211959818E+03 -0.56802650420E+03 -0.83589363879E+03  0.10607237780E+04  0.12699999809E+01 0. -1.
</event>
<event>
 5   0  0.2777539E-05  0.2435268E+04  0.7818609E-02  0.8426417E-01
        1   -1    0    0  501    0  0.00000000000E+00  0.00000000000E+00  0.17822890801E+04  0.17822890801E+04  0.50400001928E-02 0.  1.
       -1   -1    0    0    0  501  0.00000000000E+00  0.00000000000E+00 -0.83186965562E+03  0.83186965563E+03  0.50400001928E-02 0. -1.
    10030    2    1    2    0    0  0.00000000000E+00  0.00000000000E+00  0.95041942450E+03  0.26141587358E+04  0.24352677087E+04 0.  0.
        3    1    3    3  502    0 -0.38062384195E+03 -0.34311766998E+03 -0.71047749674E+03  0.87600372607E+03  0.10100000352E+00 0. -1.
       -3    1    3    3    0  502  0.38062384195E+03  0.34311766998E+03  0.16608969212E+04  0.17381550097E+04  0.10100000352E+00 0.  1.
</event>
<event>
 5   0  0.2777539E-05  0.2462462E+04  0.7818609E-02  0.8416482E-01
       -1   -1    0    0    0  501  0.00000000000E+00  0.00000000000E+00  0.12524305438E+04  0.12524305438E+04  0.50400001928E-02 0.  1.
        1   -1    0    0  501    0  0.00000000000E+00  0.00000000000E+00 -0.12103900787E+04  0.12103900787E+04  0.50400001928E-02 0. -1.
    10030    2    1    2    0    0  0.00000000000E+00  0.00000000000E+00  0.42040465030E+02  0.24628206225E+04  0.24624617800E+04 0.  0.
        3    1    3    3  502    0  0.45546129367E+03 -0.11269816608E+04  0.21699990539E+03  0.12347556936E+04  0.10100000352E+00 0.  1.
       -3    1    3    3    0  502 -0.45546129367E+03  0.11269816608E+04 -0.17495944036E+03  0.12280649289E+04  0.10100000352E+00 0. -1.
</event>
<event>
 5   0  0.6827859E-05  0.1331455E+04  0.7818609E-02  0.9004987E-01
        2   -1    0    0  501    0  0.00000000000E+00  0.00000000000E+00  0.63887710879E+03  0.63887710880E+03  0.25500000920E-02 0.  1.
       -2   -1    0    0    0  501  0.00000000000E+00  0.00000000000E+00 -0.69370603865E+03  0.69370603865E+03  0.25500000920E-02 0. -1.
    10030    2    1    2    0    0  0.00000000000E+00  0.00000000000E+00 -0.54828929853E+02  0.13325831474E+04  0.13314547057E+04 0.  0.
        3    1    3    3  502    0  0.59083606101E+03 -0.21614942930E+03  0.19045114845E+03  0.65732752637E+03  0.10100000352E+00 0.  1.
       -3    1    3    3    0  502 -0.59083606101E+03  0.21614942930E+03 -0.24528007830E+03  0.67525562108E+03  0.10100000352E+00 0. -1.
</event>
<event>
 5   0  0.2331375E-05  0.2514056E+04  0.7818609E-02  0.8397995E-01
        3   -1    0    0  501    0  0.00000000000E+00  0.00000000000E+00  0.23352240828E+04  0.23352240850E+04  0.10100000352E+00 0. -1.
       -3   -1    0    0    0  501  0.00000000000E+00  0.00000000000E+00 -0.67664549555E+03  0.67664550309E+03  0.10100000352E+00 0.  1.
    10030    2    1    2    0    0  0.00000000000E+00  0.00000000000E+00  0.16585785873E+04  0.30118695881E+04  0.25140555852E+04 0.  0.
        1    1    3    3  502    0  0.11203191341E+04 -0.43129292035E+03  0.12759251385E+04  0.17518885537E+04  0.50400001928E-02 0. -1.
       -1    1    3    3    0  502 -0.11203191341E+04  0.43129292035E+03  0.38265344872E+03  0.12599810344E+04  0.50400001928E-02 0.  1.
</event>
<event>
 5   0  0.2777539E-05  0.1757609E+04  0.7818609E-02  0.8729173E-01
       -1   -1    0    0    0  501  0.00000000000E+00  0.00000000000E+00  0.12976153134E+04  0.12976153134E+04  0.50400001928E-02 0.  1.
        1   -1    0    0  501    0  0.00000000000E+00  0.00000000000E+00 -0.59516645209E+03  0.59516645211E+03  0.50400001928E-02 0. -1.
    10030    2    1    2    0    0  0.00000000000E+00  0.00000000000E+00  0.70244886127E+03  0.18927817655E+04  0.17576087190E+04 0.  0.
        3    1    3    3  502    0 -0.37592044855E+03  0.74840092566E+03  0.64522316844E+02  0.83999004085E+03  0.10100000352E+00 0. -1.
       -3    1    3    3    0  502  0.37592044855E+03 -0.74840092566E+03  0.63792654442E+03  0.10527917246E+04  0.10100000352E+00 0.  1.
</event>
<event>
 5   0  0.2896652E-05  0.1925658E+04  0.7818609E-02  0.8642189E-01
       -1   -1    0    0    0  501  0.00000000000E+00  0.00000000000E+00  0.73388125835E+03  0.73388125837E+03  0.50400001928E-02 0.  1.
        1   -1    0    0  501    0  0.00000000000E+00  0.00000000000E+00 -0.12632017589E+04  0.12632017589E+04  0.50400001928E-02 0. -1.
    10030    2    1    2    0    0  0.00000000000E+00  0.00000000000E+00 -0.52932050058E+03  0.19970830173E+04  0.19256584291E+04 0.  0.
        4    1    3    3  502    0 -0.50308761979E+03  0.38405958167E+03 -0.10171336042E+04  0.11979821773E+04  0.12699999809E+01 0. -1.
       -4    1    3    3    0  502  0.50308761979E+03 -0.38405958167E+03  0.48781310365E+03  0.79910083997E+03  0.12699999809E+01 0.  1.
</event>
<event>
 5   0  0.2980790E-05  0.2485453E+04  0.7818609E-02  0.8408186E-01
       -1   -1    0    0    0  501  0.00000000000E+00  0.00000000000E+00  0.92189848550E+03  0.92189848552E+03  0.50400001928E-02 0.  1.
        1   -1    0    0  501    0  0.00000000000E+00  0.00000000000E+00 -0.16752055274E+04  0.16752055274E+04  0.50400001928E-02 0. -1.
    10030    2    1    2    0    0  0.00000000000E+00  0.00000000000E+00 -0.75330704187E+03  0.25971040129E+04  0.24854532292E+04 0.  0.
        5    1    3    3  502    0 -0.26963312973E+03 -0.10794346608E+04 -0.95511573472E+03  0.14663387631E+04  0.46999998093E+01 0. -1.
       -5    1    3    3    0  502  0.26963312973E+03  0.10794346608E+04  0.20180869285E+03  0.11307652498E+04  0.46999998093E+01 0.  1.
</event>
<event>
 5   0  0.2896652E-05  0.2544140E+04  0.7818609E-02  0.8387427E-01
       -1   -1    0    0    0  501  0.00000000000E+00  0.00000000000E+00  0.20098925721E+04  0.20098925721E+04  0.50400001928E-02 0. -1.
        1   -1    0    0  501    0  0.00000000000E+00  0.00000000000E+00 -0.80509856844E+03  0.80509856845E+03  0.50400001928E-02 0.  1.
    10030    2    1    2    0    0  0.00000000000E+00  0.00000000000E+00  0.12047940037E+04  0.28149911406E+04  0.25441396444E+04 0.  0.
        4    1    3    3  502    0  0.47632363679E+01 -0.10373762714E+04  0.14169715635E+04  0.17561270574E+04  0.12699999809E+01 0. -1.
       -4    1    3    3    0  502 -0.47632363679E+01  0.10373762714E+04 -0.21217755985E+03  0.10588640832E+04  0.12699999809E+01 0.  1.
</event>
<event>
 5   0  0.6445331E-05  0.2541278E+04  0.7818609E-02  0.8388426E-01
        2   -1    0    0  501    0  0.00000000000E+00  0.00000000000E+00  0.11976586455E+04  0.11976586455E+04  0.25500000920E-02 0.  1.
       -2   -1    0    0    0  501  0.00000000000E+00  0.00000000000E+00 -0.13480665147E+04  0.13480665147E+04  0.25500000920E-02 0. -1.
    10030    2    1    2    0    0  0.00000000000E+00  0.00000000000E+00 -0.15040786923E+03  0.25457251601E+04  0.25412780375E+04 0.  0.
        1    1    3    3  502    0  0.79845535483E+02 -0.82645322699E+03  0.88831251649E+03  0.12159355957E+04  0.50400001928E-02 0.  1.
       -1    1    3    3    0  502 -0.79845535483E+02  0.82645322699E+03 -0.10387203857E+04  0.13297895644E+04  0.50400001928E-02 0. -1.
</event>
<event>
 5   0  0.2977854E-05  0.2439743E+04  0.7818609E-02  0.8424773E-01
       -1   -1    0    0    0  501  0.00000000000E+00  0.00000000000E+00  0.14309555125E+04  0.14309555125E+04  0.50400001928E-02 0.  1.
        1   -1    0    0  501    0  0.00000000000E+00  0.00000000000E+00 -0.10399248204E+04  0.10399248204E+04  0.50400001928E-02 0. -1.
    10030    2    1    2    0    0  0.00000000000E+00  0.00000000000E+00  0.39103069206E+03  0.24708803329E+04  0.24397427359E+04 0.  0.
        1    1    3    3  502    0  0.70966783479E+03  0.83306942258E+03 -0.35029988931E+03  0.11490618395E+04  0.50400001928E-02 0. -1.
       -1    1    3    3    0  502 -0.70966783479E+03 -0.83306942258E+03  0.74133058137E+03  0.13218184934E+04  0.50400001928E-02 0.  1.
</event>
<event>
 5   0  0.6827859E-05  0.2487212E+04  0.7818609E-02  0.8407556E-01
        2   -1    0    0  501    0  0.00000000000E+00  0.00000000000E+00  0.78971597514E+03  0.78971597515E+03  0.25500000920E-02 0. -1.
       -2   -1    0    0    0  501  0.00000000000E+00  0.00000000000E+00 -0.19583695444E+04  0.19583695444E+04  0.25500000920E-02 0.  1.
    10030    2    1    2    0    0  0.00000000000E+00  0.00000000000E+00 -0.11686535693E+04  0.27480855196E+04  0.24872118643E+04 0.  0.
        3    1    3    3  502    0 -0.11173788102E+04 -0.26232861567E+03 -0.11132937560E+04  0.15989917778E+04  0.10100000352E+00 0.  1.
       -3    1    3    3    0  502  0.11173788102E+04  0.26232861567E+03 -0.55359813248E+02  0.11490937417E+04  0.10100000352E+00 0. -1.
</event>
<event>
 5   0  0.6909250E-05  0.2511203E+04  0.7818609E-02  0.8399005E-01
       -2   -1    0    0    0  501  0.00000000000E+00  0.00000000000E+00  0.53915834607E+03  0.53915834607E+03  0.25500000920E-02 0. -1.
        2   -1    0    0  501    0  0.00000000000E+00  0.00000000000E+00 -0.29240668266E+04  0.29240668266E+04  0.25500000920E-02 0.  1.
    10030    2    1    2    0    0  0.00000000000E+00  0.00000000000E+00 -0.23849084806E+04  0.34632251727E+04  0.25112029261E+04 0.  0.
        4    1    3    3  502    0  0.64935040619E+03 -0.78144236102E+03 -0.22098461680E+04  0.24322273357E+04  0.12699999809E+01 0.  1.
       -4    1    3    3    0  502 -0.64935040619E+03  0.78144236102E+03 -0.17506231256E+03  0.10309978370E+04  0.12699999809E+01 0. -1.
</event>
<event>
 5   0  0.2896652E-05  0.2495613E+04  0.7818609E-02  0.8404550E-01
       -1   -1    0    0    0  501  0.00000000000E+00  0.00000000000E+00  0.14819617736E+04  0.14819617736E+04  0.50400001928E-02 0.  1.
        1   -1    0    0  501    0  0.00000000000E+00  0.00000000000E+00 -0.10506485383E+04  0.10506485383E+04  0.50400001928E-02 0. -1.
    10030    2    1    2    0    0  0.00000000000E+00  0.00000000000E+00  0.43131323527E+03  0.25326103119E+04  0.24956129277E+04 0.  0.
        4    1    3    3  502    0  0.22584000141E+03  0.12065771681E+04  0.44300275606E+03  0.13050230740E+04  0.12699999809E+01 0.  1.
       -4    1    3    3    0  502 -0.22584000141E+03 -0.12065771681E+04 -0.11689520783E+02  0.12275872379E+04  0.12699999809E+01 0. -1.
</event>
<event>
 5   0  0.2977854E-05  0.2455571E+04  0.7818609E-02  0.8418987E-01
       -1   -1    0    0    0  501  0.00000000000E+00  0.00000000000E+00  0.21660626082E+04  0.21660626082E+04  0.50400001928E-02 0. -1.
        1   -1    0    0  501    0  0.00000000000E+00  0.00000000000E+00 -0.69594340777E+03  0.69594340778E+03  0.50400001928E-02 0.  1.
    10030    2    1    2    0    0  0.00000000000E+00  0.00000000000E+00  0.14701192004E+04  0.28620060160E+04  0.24555708037E+04 0.  0.
        1    1    3    3  502    0  0.18755379990E+03  0.34802452462E+02  0.21486860269E+04  0.21571368248E+04  0.50400001928E-02 0. -1.
       -1    1    3    3    0  502 -0.18755379990E+03 -0.34802452462E+02 -0.67856682653E+03  0.70486919116E+03  0.50400001928E-02 0.  1.
</event>
<event>
 5   0  0.6648328E-05  0.1467714E+04  0.7818609E-02  0.8906211E-01
       -2   -1    0    0    0  501  0.00000000000E+00  0.00000000000E+00  0.46485698998E+03  0.46485698998E+03  0.25500000920E-02 0. -1.
        2   -1    0    0  501    0  0.00000000000E+00  0.00000000000E+00 -0.11585193848E+04  0.11585193848E+04  0.25500000920E-02 0.  1.
    10030    2    1    2    0    0  0.00000000000E+00  0.00000000000E+00 -0.69366239479E+03  0.16233763748E+04  0.14677136424E+04 0.  0.
        2    1    3    3  502    0  0.56770867953E+03 -0.25515931860E+03  0.83177074909E+02  0.62794732938E+03  0.25500000920E-02 0. -1.
       -2    1    3    3    0  502 -0.56770867953E+03  0.25515931860E+03 -0.77683946970E+03  0.99542904537E+03  0.25500000920E-02 0.  1.
</event>
<event>
 5   0  0.6827859E-05  0.1624791E+04  0.7818609E-02  0.8805461E-01
       -2   -1    0    0    0  501  0.00000000000E+00  0.00000000000E+00  0.50974975155E+03  0.50974975155E+03  0.25500000920E-02 0.  1.
        2   -1    0    0  501    0  0.00000000000E+00  0.00000000000E+00 -0.12947259901E+04  0.12947259901E+04  0.25500000920E-02 0. -1.
    10030    2    1    2    0    0  0.00000000000E+00  0.00000000000E+00 -0.78497623852E+03  0.18044757416E+04  0.16247907579E+04 0.  0.
        3    1    3    3  502    0  0.12150485877E+03 -0.17910632620E+03  0.47714236538E+03  0.52393449383E+03  0.10100000352E+00 0.  1.
       -3    1    3    3    0  502 -0.12150485877E+03  0.17910632620E+03 -0.12621186039E+04  0.12805412478E+04  0.10100000352E+00 0. -1.
</event>
<event>
 5   0  0.2896652E-05  0.2477529E+04  0.7818609E-02  0.8411035E-01
        1   -1    0    0  501    0  0.00000000000E+00  0.00000000000E+00  0.10628547895E+04  0.10628547895E+04  0.50400001928E-02 0.  1.
       -1   -1    0    0    0  501  0.00000000000E+00  0.00000000000E+00 -0.14437886137E+04  0.14437886137E+04  0.50400001928E-02 0. -1.
    10030    2    1    2    0    0  0.00000000000E+00  0.00000000000E+00 -0.38093382417E+03  0.25066434032E+04  0.24775291264E+04 0.  0.
        4    1    3    3  502    0 -0.63204634110E+03 -0.35498476387E+03 -0.12067807077E+04  0.14077705954E+04  0.12699999809E+01 0. -1.
       -4    1    3    3    0  502  0.63204634110E+03  0.35498476387E+03  0.82584688350E+03  0.10988728078E+04  0.12699999809E+01 0.  1.
</event>
<event>
 5   0  0.2793920E-05  0.2670118E+04  0.7818609E-02  0.8344766E-01
       -1   -1    0    0    0  501  0.00000000000E+00  0.00000000000E+00  0.85841279089E+03  0.85841279090E+03  0.50400001928E-02 0. -1.
        1   -1    0    0  501    0  0.00000000000E+00  0.00000000000E+00 -0.20763705504E+04  0.20763705504E+04  0.50400001928E-02 0.  1.
    10030    2    1    2    0    0  0.00000000000E+00  0.00000000000E+00 -0.12179577595E+04  0.29347833413E+04  0.26701183787E+04 0.  0.
        2    1    3    3  502    0  0.17213307485E+03 -0.10069627409E+04  0.33574062752E+03  0.10753257766E+04  0.25500000920E-02 0. -1.
       -2    1    3    3    0  502 -0.17213307485E+03  0.10069627409E+04 -0.15536983870E+04  0.18594575647E+04  0.25500000920E-02 0.  1.
</event>
<event>
 5   0  0.2977854E-05  0.2552189E+04  0.7818609E-02  0.8384625E-01
        1   -1    0    0  501    0  0.00000000000E+00  0.00000000000E+00  0.16909442296E+04  0.16909442296E+04  0.50400001928E-02 0. -1.
       -1   -1    0    0    0  501  0.00000000000E+00  0.00000000000E+00 -0.96302277045E+03  0.96302277046E+03  0.50400001928E-02 0.  1.
    10030    2    1    2    0    0  0.00000000000E+00  0.00000000000E+00  0.72792145912E+03  0.26539670000E+04  0.25521894888E+04 0.  0.
        1    1    3    3  502    0 -0.10785252053E+04  0.27123560440E+03  0.10147223377E+04  0.15054722828E+04  0.50400001928E-02 0. -1.
       -1    1    3    3    0  502  0.10785252053E+04 -0.27123560440E+03 -0.28680087862E+03  0.11484947172E+04  0.50400001928E-02 0.  1.
</event>
<event>
 5   0  0.6648328E-05  0.2498974E+04  0.7818609E-02  0.8403351E-01
        2   -1    0    0  501    0  0.00000000000E+00  0.00000000000E+00  0.88866579190E+03  0.88866579191E+03  0.25500000920E-02 0.  1.
       -2   -1    0    0    0  501  0.00000000000E+00  0.00000000000E+00 -0.17568105688E+04  0.17568105688E+04  0.25500000920E-02 0. -1.
    10030    2    1    2    0    0  0.00000000000E+00  0.00000000000E+00 -0.86814477693E+03  0.26454763607E+04  0.24989737537E+04 0.  0.
        2    1    3    3  502    0  0.24355784240E+03  0.11483789951E+04 -0.88708813845E+03  0.14714007287E+04  0.25500000920E-02 0. -1.
       -2    1    3    3    0  502 -0.24355784240E+03 -0.11483789951E+04  0.18943361517E+02  0.11740756321E+04  0.25500000920E-02 0.  1.
</event>
<event>
 5   0  0.2980790E-05  0.2393653E+04  0.7818609E-02  0.8441884E-01
        1   -1    0    0  501    0  0.00000000000E+00  0.00000000000E+00  0.84370199554E+03  0.84370199556E+03  0.50400001928E-02 0. -1.
       -1   -1    0    0    0  501  0.00000000000E+00  0.00000000000E+00 -0.16977481871E+04  0.16977481871E+04  0.50400001928E-02 0.  1.
    10030    2    1    2    0    0  0.00000000000E+00  0.00000000000E+00 -0.85404619153E+03  0.25414501826E+04  0.23936528849E+04 0.  0.
        5    1    3    3  502    0 -0.33137121439E+03 -0.50154242884E+03 -0.15258244097E+04  0.16399737525E+04  0.46999998093E+01 0.  1.
       -5    1    3    3    0  502  0.33137121439E+03  0.50154242884E+03  0.67177821818E+03  0.90147643013E+03  0.46999998093E+01 0. -1.
</event>
<event>
 5   0  0.2777539E-05  0.2466331E+04  0.7818609E-02  0.8415080E-01
        1   -1    0    0  501    0  0.00000000000E+00  0.00000000000E+00  0.86402169586E+03  0.86402169588E+03  0.50400001928E-02 0. -1.
       -1   -1    0    0    0  501  0.00000000000E+00  0.00000000000E+00 -0.17600213362E+04  0.17600213362E+04  0.50400001928E-02 0.  1.
    10030    2    1    2    0    0  0.00000000000E+00  0.00000000000E+00 -0.89599964032E+03  0.26240430321E+04  0.24663305696E+04 0.  0.
        3    1    3    3  502    0 -0.18773612029E+03  0.12149590461E+04 -0.55074791342E+03  0.13471056414E+04  0.10100000352E+00 0. -1.
       -3    1    3    3    0  502  0.18773612029E+03 -0.12149590461E+04 -0.34525172689E+03  0.12769373907E+04  0.10100000352E+00 0.  1.
</event>
<event>
 5   0  0.6827859E-05  0.2460659E+04  0.7818609E-02  0.8417137E-01
       -2   -1    0    0    0  501  0.00000000000E+00  0.00000000000E+00  0.12404051240E+04  0.12404051240E+04  0.25500000920E-02 0.  1.
        2   -1    0    0  501    0  0.00000000000E+00  0.00000000000E+00 -0.12203356424E+04  0.12203356424E+04  0.25500000920E-02 0. -1.
    10030    2    1    2    0    0  0.00000000000E+00  0.00000000000E+00  0.20069481618E+02  0.24607407664E+04  0.24606589230E+04 0.  0.
        3    1    3    3  502    0 -0.68838188895E+02  0.20478534524E+03  0.12212871632E+04  0.12402492004E+04  0.10100000352E+00 0.  1.
       -3    1    3    3    0  502  0.68838188895E+02 -0.20478534524E+03 -0.12012176816E+04  0.12204915660E+04  0.10100000352E+00 0. -1.
</event>
<event>
 5   0  0.6827859E-05  0.2492229E+04  0.7818609E-02  0.8405759E-01
       -2   -1    0    0    0  501  0.00000000000E+00  0.00000000000E+00  0.15426201580E+04  0.15426201580E+04  0.25500000920E-02 0. -1.
        2   -1    0    0  501    0  0.00000000000E+00  0.00000000000E+00 -0.10065999142E+04  0.10065999142E+04  0.25500000920E-02 0.  1.
    10030    2    1    2    0    0  0.00000000000E+00  0.00000000000E+00  0.53602024384E+03  0.25492200722E+04  0.24922289771E+04 0.  0.
        3    1    3    3  502    0  0.64595326498E+03 -0.17764108608E+03 -0.80672595255E+03  0.10486270780E+04  0.10100000352E+00 0.  1.
       -3    1    3    3    0  502 -0.64595326498E+03  0.17764108608E+03  0.13427461964E+04  0.15005929942E+04  0.10100000352E+00 0. -1.
</event>
<event>
 5   0  0.2977854E-05  0.1238363E+04  0.7818609E-02  0.9079925E-01
        1   -1    0    0  501    0  0.00000000000E+00  0.00000000000E+00  0.50637996359E+03  0.50637996362E+03  0.50400001928E-02 0. -1.
       -1   -1    0    0    0  501  0.00000000000E+00  0.00000000000E+00 -0.75711038650E+03  0.75711038652E+03  0.50400001928E-02 0.  1.
    10030    2    1    2    0    0  0.00000000000E+00  0.00000000000E+00 -0.25073042291E+03  0.12634903501E+04  0.12383626771E+04 0.  0.
        1    1    3    3  502    0 -0.18176743296E+03 -0.45416876775E+03 -0.51264175493E+03  0.70859737383E+03  0.50400001928E-02 0.  1.
       -1    1    3    3    0  502  0.18176743296E+03  0.45416876775E+03  0.26191133202E+03  0.55489297630E+03  0.50400001928E-02 0. -1.
</event>
<event>
 5   0  0.6445331E-05  0.2479259E+04  0.7818609E-02  0.8410412E-01
       -2   -1    0    0    0  501  0.00000000000E+00  0.00000000000E+00  0.10180607377E+04  0.10180607377E+04  0.25500000920E-02 0. -1.
        2   -1    0    0  501    0  0.00000000000E+00  0.00000000000E+00 -0.15094205316E+04  0.15094205316E+04  0.25500000920E-02 0.  1.
    10030    2    1    2    0    0  0.00000000000E+00  0.00000000000E+00 -0.49135979391E+03  0.25274812693E+04  0.24792593893E+04 0.  0.
        1    1    3    3  502    0 -0.10146184194E+04 -0.59493394408E+02  0.47783655416E+03  0.11230840456E+04  0.50400001928E-02 0. -1.
       -1    1    3    3    0  502  0.10146184194E+04  0.59493394408E+02 -0.96919634806E+03  0.14043972237E+04  0.50400001928E-02 0.  1.
</event>
<event>
 5   0  0.2793920E-05  0.2423278E+04  0.7818609E-02  0.8430840E-01
        1   -1    0    0  501    0  0.00000000000E+00  0.00000000000E+00  0.23377052601E+04  0.23377052601E+04  0.50400001928E-02 0.  1.
       -1   -1    0    0    0  501  0.00000000000E+00  0.00000000000E+00 -0.62799581943E+03  0.62799581945E+03  0.50400001928E-02 0. -1.
    10030    2    1    2    0    0  0.00000000000E+00  0.00000000000E+00  0.17097094406E+04  0.29657010795E+04  0.24232780529E+04 0.  0.
        2    1    3    3  502    0 -0.40763323214E+03  0.10127704191E+04  0.14980402184E+04  0.18536432423E+04  0.25500000920E-02 0.  1.
       -2    1    3    3    0  502  0.40763323214E+03 -0.10127704191E+04  0.21166922223E+03  0.11120578372E+04  0.25500000920E-02 0. -1.
</event>
<event>
 5   0  0.2977854E-05  0.2415765E+04  0.7818609E-02  0.8433625E-01
        1   -1    0    0  501    0  0.00000000000E+00  0.00000000000E+00  0.13528225242E+04  0.13528225242E+04  0.50400001928E-02 0.  1.
       -1   -1    0    0    0  501  0.00000000000E+00  0.00000000000E+00 -0.10784716207E+04  0.10784716207E+04  0.50400001928E-02 0. -1.
    10030    2    1    2    0    0  0.00000000000E+00  0.00000000000E+00  0.27435090349E+03  0.24312941449E+04  0.24157654689E+04 0.  0.
        1    1    3    3  502    0  0.80876745564E+03 -0.33377389344E+03 -0.70092650187E+03  0.11210743821E+04  0.50400001928E-02 0. -1.
       -1    1    3    3    0  502 -0.80876745564E+03  0.33377389344E+03  0.97527740536E+03  0.13102197627E+04  0.50400001928E-02 0.  1.
</event>
<event>
 5   0  0.2331375E-05  0.2427678E+04  0.7818609E-02  0.8429213E-01
        4   -1    0    0  501    0  0.00000000000E+00  0.00000000000E+00  0.13557196556E+04  0.13557202505E+04  0.12699999809E+01 0. -1.
       -4   -1    0    0    0  501  0.00000000000E+00  0.00000000000E+00 -0.10868053292E+04  0.10868060712E+04  0.12699999809E+01 0.  1.
    10030    2    1    2    0    0  0.00000000000E+00  0.00000000000E+00  0.26891432645E+03  0.24425263217E+04  0.24276778858E+04 0.  0.
        5    1    3    3  502    0  0.73956901855E+03 -0.59448592530E+03 -0.62714500090E+03  0.11374132014E+04  0.46999998093E+01 0.  1.
       -5    1    3    3    0  502 -0.73956901855E+03  0.59448592530E+03  0.89605932736E+03  0.13051131203E+04  0.46999998093E+01 0. -1.
</event>
<event>
 5   0  0.6445331E-05  0.2498649E+04  0.7818609E-02  0.8403467E-01
       -2   -1    0    0    0  501  0.00000000000E+00  0.00000000000E+00  0.63088109115E+03  0.63088109115E+03  0.25500000920E-02 0. -1.
        2   -1    0    0  501    0  0.00000000000E+00  0.00000000000E+00 -0.24740196569E+04  0.24740196569E+04  0.25500000920E-02 0.  1.
    10030    2    1    2    0    0  0.00000000000E+00  0.00000000000E+00 -0.18431385658E+04  0.31049007481E+04  0.24986494117E+04 0.  0.
        1    1    3    3  502    0  0.90019866734E+03  0.86518283923E+03 -0.97592265828E+03  0.15847157540E+04  0.50400001928E-02 0. -1.
       -1    1    3    3    0  502 -0.90019866734E+03 -0.86518283923E+03 -0.86721590749E+03  0.15201849941E+04  0.50400001928E-02 0.  1.
</event>
<event>
 5   0  0.2896652E-05  0.2523459E+04  0.7818609E-02  0.8394675E-01
       -1   -1    0    0    0  501  0.00000000000E+00  0.00000000000E+00  0.87882900144E+03  0.87882900146E+03  0.50400001928E-02 0.  1.
        1   -1    0    0  501    0  0.00000000000E+00  0.00000000000E+00 -0.18114578076E+04  0.18114578076E+04  0.50400001928E-02 0. -1.
    10030    2    1    2    0    0  0.00000000000E+00  0.00000000000E+00 -0.93262880611E+03  0.26902868090E+04  0.25234592576E+04 0.  0.
        4    1    3    3  502    0 -0.11890966721E+04 -0.27773298015E+02 -0.17485878580E+02  0.11895501757E+04  0.12699999809E+01 0.  1.
       -4    1    3    3    0  502  0.11890966721E+04  0.27773298015E+02 -0.91514292753E+03  0.15007366333E+04  0.12699999809E+01 0. -1.
</event>
<event>
 5   0  0.2793920E-05  0.2426317E+04  0.7818609E-02  0.8429716E-01
       -1   -1    0    0    0  501  0.00000000000E+00  0.00000000000E+00  0.16016201591E+04  0.16016201591E+04  0.50400001928E-02 0. -1.
        1   -1    0    0  501    0  0.00000000000E+00  0.00000000000E+00 -0.91891530544E+03  0.91891530546E+03  0.50400001928E-02 0.  1.
    10030    2    1    2    0    0  0.00000000000E+00  0.00000000000E+00  0.68270485361E+03  0.25205354645E+04  0.24263167787E+04 0.  0.
        2    1    3    3  502    0  0.96034180260E+03 -0.54925200541E+03 -0.17579304798E+03  0.11201952236E+04  0.25500000920E-02 0.  1.
       -2    1    3    3    0  502 -0.96034180260E+03  0.54925200541E+03  0.85849790159E+03  0.14003402409E+04  0.25500000920E-02 0. -1.
</event>
<event>
 5   0  0.6648328E-05  0.2964322E+04  0.7818609E-02  0.8253993E-01
       -2   -1    0    0    0  501  0.00000000000E+00  0.00000000000E+00  0.87940015054E+03  0.87940015055E+03  0.25500000920E-02 0. -1.
        2   -1    0    0  501    0  0.00000000000E+00  0.00000000000E+00 -0.24980674649E+04  0.24980674649E+04  0.25500000920E-02 0.  1.
    10030    2    1    2    0    0  0.00000000000E+00  0.00000000000E+00 -0.16186673143E+04  0.33774676154E+04  0.29643217806E+04 0.  0.
        2    1    3    3  502    0  0.83673881692E+03  0.10935124970E+04 -0.18433862682E+03  0.13892019861E+04  0.25500000920E-02 0. -1.
       -2    1    3    3    0  502 -0.83673881692E+03 -0.10935124970E+04 -0.14343286875E+04  0.19882656293E+04  0.25500000920E-02 0.  1.
</event>
<event>
 5   0  0.2777539E-05  0.2547094E+04  0.7818609E-02  0.8386398E-01
        1   -1    0    0  501    0  0.00000000000E+00  0.00000000000E+00  0.18566697674E+04  0.18566697675E+04  0.50400001928E-02 0. -1.
       -1   -1    0    0    0  501  0.00000000000E+00  0.00000000000E+00 -0.87356508906E+03  0.87356508908E+03  0.50400001928E-02 0.  1.
    10030    2    1    2    0    0  0.00000000000E+00  0.00000000000E+00  0.98310467838E+03  0.27302348565E+04  0.25470939447E+04 0.  0.
        3    1    3    3  502    0 -0.36092185347E+03  0.35825679644E+03  0.17431140044E+04  0.18157805371E+04  0.10100000352E+00 0. -1.
       -3    1    3    3    0  502  0.36092185347E+03 -0.35825679644E+03 -0.76000932599E+03  0.91445431942E+03  0.10100000352E+00 0.  1.
</event>
<event>
 5   0  0.7071821E-05  0.2561549E+04  0.7818609E-02  0.8381381E-01
        2   -1    0    0  501    0  0.00000000000E+00  0.00000000000E+00  0.13939101528E+04  0.13939101528E+04  0.25500000920E-02 0.  1.
       -2   -1    0    0    0  501  0.00000000000E+00  0.00000000000E+00 -0.11768215240E+04  0.11768215240E+04  0.25500000920E-02 0. -1.
    10030    2    1    2    0    0  0.00000000000E+00  0.00000000000E+00  0.21708862884E+03  0.25707316768E+04  0.25615491175E+04 0.  0.
        5    1    3    3  502    0 -0.12396931956E+04  0.32134088865E+03  0.12479477512E+03  0.12867381287E+04  0.46999998093E+01 0. -1.
       -5    1    3    3    0  502  0.12396931956E+04 -0.32134088865E+03  0.92293853724E+02  0.12839935481E+04  0.46999998093E+01 0.  1.
</event>
<event>
 5   0  0.2777539E-05  0.2453593E+04  0.7818609E-02  0.8419707E-01
       -1   -1    0    0    0  501  0.00000000000E+00  0.00000000000E+00  0.78071433821E+03  0.78071433822E+03  0.50400001928E-02 0. -1.
        1   -1    0    0  501    0  0.00000000000E+00  0.00000000000E+00 -0.19277599697E+04  0.19277599697E+04  0.50400001928E-02 0.  1.
    10030    2    1    2    0    0  0.00000000000E+00  0.00000000000E+00 -0.11470456315E+04  0.27084743080E+04  0.24535931603E+04 0.  0.
        3    1    3    3  502    0  0.11990176672E+04  0.86250448494E+02 -0.84379857782E+03  0.14686996140E+04  0.10100000352E+00 0.  1.
       -3    1    3    3    0  502 -0.11990176672E+04 -0.86250448494E+02 -0.30324705371E+03  0.12397746940E+04  0.10100000352E+00 0. -1.
</event>
<event>
 5   0  0.6648328E-05  0.2490395E+04  0.7818609E-02  0.8406415E-01
       -2   -1    0    0    0  501  0.00000000000E+00  0.00000000000E+00  0.16732904551E+04  0.16732904551E+04  0.25500000920E-02 0.  1.
        2   -1    0    0  501    0  0.00000000000E+00  0.00000000000E+00 -0.92662772823E+03  0.92662772824E+03  0.25500000920E-02 0. -1.
    10030    2    1    2    0    0  0.00000000000E+00  0.00000000000E+00  0.74666272685E+03  0.25999181833E+04  0.24903954169E+04 0.  0.
        2    1    3    3  502    0 -0.79483208320E+03 -0.78131570954E+03 -0.20633979885E+03  0.11334850643E+04  0.25500000920E-02 0. -1.
       -2    1    3    3    0  502  0.79483208320E+03  0.78131570954E+03  0.95300252571E+03  0.14664331190E+04  0.25500000920E-02 0.  1.
</event>
<event>
 5   0  0.6648328E-05  0.1440125E+04  0.7818609E-02  0.8925276E-01
        2   -1    0    0  501    0  0.00000000000E+00  0.00000000000E+00  0.49588843213E+03  0.49588843214E+03  0.25500000920E-02 0. -1.
       -2   -1    0    0    0  501  0.00000000000E+00  0.00000000000E+00 -0.10455773596E+04  0.10455773596E+04  0.25500000920E-02 0.  1.
    10030    2    1    2    0    0  0.00000000000E+00  0.00000000000E+00 -0.54968892747E+03  0.15414657918E+04  0.14401246023E+04 0.  0.
        2    1    3    3  502    0  0.43046779049E+03 -0.13004190140E+03  0.32711486363E+03  0.55607333040E+03  0.25500000920E-02 0. -1.
       -2    1    3    3    0  502 -0.43046779049E+03  0.13004190140E+03 -0.87680379111E+03  0.98539246135E+03  0.25500000920E-02 0.  1.
</event>
<event>
 5   0  0.2977854E-05  0.2400654E+04  0.7818609E-02  0.8439259E-01
       -1   -1    0    0    0  501  0.00000000000E+00  0.00000000000E+00  0.15467120170E+04  0.15467120170E+04  0.50400001928E-02 0. -1.
        1   -1    0    0  501    0  0.00000000000E+00  0.00000000000E+00 -0.93151495342E+03  0.93151495343E+03  0.50400001928E-02 0.  1.
    10030    2    1    2    0    0  0.00000000000E+00  0.00000000000E+00  0.61519706356E+03  0.24782269704E+04  0.24006543879E+04 0.  0.
        1    1    3    3  502    0  0.45264534320E+03  0.68711955213E+03  0.12097742035E+04  0.14630703022E+04  0.50400001928E-02 0. -1.
       -1    1    3    3    0  502 -0.45264534320E+03 -0.68711955213E+03 -0.59457713996E+03  0.10151566682E+04  0.50400001928E-02 0.  1.
</event>
<event>
 5   0  0.6827859E-05  0.2500482E+04  0.7818609E-02  0.8402814E-01
       -2   -1    0    0    0  501  0.00000000000E+00  0.00000000000E+00  0.12779261005E+04  0.12779261005E+04  0.25500000920E-02 0. -1.
        2   -1    0    0  501    0  0.00000000000E+00  0.00000000000E+00 -0.12231561562E+04  0.12231561562E+04  0.25500000920E-02 0.  1.
    10030    2    1    2    0    0  0.00000000000E+00  0.00000000000E+00  0.54769944318E+02  0.25010822566E+04  0.25004824950E+04 0.  0.
        3    1    3    3  502    0 -0.41307728428E+03  0.60300354292E+03  0.10419541765E+04  0.12727586698E+04  0.10100000352E+00 0. -1.
       -3    1    3    3    0  502  0.41307728428E+03 -0.60300354292E+03 -0.98718423214E+03  0.12283235868E+04  0.10100000352E+00 0.  1.
</event>
<event>
 5   0  0.6648328E-05  0.1295409E+04  0.7818609E-02  0.9033214E-01
       -2   -1    0    0    0  501  0.00000000000E+00  0.00000000000E+00  0.25735751250E+03  0.25735751251E+03  0.25500000920E-02 0.  1.
        2   -1    0    0  501    0  0.00000000000E+00  0.00000000000E+00 -0.16301105072E+04  0.16301105072E+04  0.25500000920E-02 0. -1.
    10030    2    1    2    0    0  0.00000000000E+00  0.00000000000E+00 -0.13727529947E+04  0.18874680197E+04  0.12954091018E+04 0.  0.
        2    1    3    3  502    0  0.11833207710E+03 -0.53802763785E+03 -0.19002903030E+03  0.58274115345E+03  0.25500000920E-02 0.  1.
       -2    1    3    3    0  502 -0.11833207710E+03  0.53802763785E+03 -0.11827239644E+04  0.13047268663E+04  0.25500000920E-02 0. -1.
</event>
<event>
 5   0  0.2777539E-05  0.2431077E+04  0.7818609E-02  0.8427960E-01
        1   -1    0    0  501    0  0.00000000000E+00  0.00000000000E+00  0.19302817764E+04  0.19302817764E+04  0.50400001928E-02 0. -1.
       -1   -1    0    0    0  501  0.00000000000E+00  0.00000000000E+00 -0.76544983403E+03  0.76544983405E+03  0.50400001928E-02 0.  1.
    10030    2    1    2    0    0  0.00000000000E+00  0.00000000000E+00  0.11648319423E+04  0.26957316104E+04  0.24310770168E+04 0.  0.
        3    1    3    3  502    0  0.12095487793E+04 -0.12003575210E+03  0.59441138636E+03  0.13530490522E+04  0.10100000352E+00 0.  1.
       -3    1    3    3    0  502 -0.12095487793E+04  0.12003575210E+03  0.57042055596E+03  0.13426825582E+04  0.10100000352E+00 0. -1.
</event>
<event>
 5   0  0.2777539E-05  0.1500485E+04  0.7818609E-02  0.8884130E-01
        1   -1    0    0  501    0  0.00000000000E+00  0.00000000000E+00  0.16948998554E+04  0.16948998554E+04  0.50400001928E-02 0.  1.
       -1   -1    0    0    0  501  0.00000000000E+00  0.00000000000E+00 -0.33209277447E+03  0.33209277451E+03  0.50400001928E-02 0. -1.
    10030    2    1    2    0    0  0.00000000000E+00  0.00000000000E+00  0.13628070809E+04  0.20269926299E+04  0.15004852488E+04 0.  0.
        3    1    3    3  502    0  0.64783934564E+03  0.11622663629E+03  0.11678361391E+04  0.13405393343E+04  0.10100000352E+00 0.  1.
       -3    1    3    3    0  502 -0.64783934564E+03 -0.11622663629E+03  0.19497094182E+03  0.68645329564E+03  0.10100000352E+00 0. -1.
</event>
<event>
 5   0  0.2896652E-05  0.2465949E+04  0.7818609E-02  0.8415218E-01
        1   -1    0    0  501    0  0.00000000000E+00  0.00000000000E+00  0.10511330411E+04  0.10511330411E+04  0.50400001928E-02 0.  1.
       -1   -1    0    0    0  501  0.00000000000E+00  0.00000000000E+00 -0.14462740588E+04  0.14462740588E+04  0.50400001928E-02 0. -1.
    10030    2    1    2    0    0  0.00000000000E+00  0.00000000000E+00 -0.39514101765E+03  0.24974070999E+04  0.24659492693E+04 0.  0.
        4    1    3    3  502    0 -0.95371156338E+03 -0.45241639814E+02 -0.98765868281E+03  0.13737117015E+04  0.12699999809E+01 0. -1.
       -4    1    3    3    0  502  0.95371156338E+03  0.45241639814E+02  0.59251766516E+03  0.11236953985E+04  0.12699999809E+01 0.  1.
</event>
<event>
 5   0  0.6827859E-05  0.2560838E+04  0.7818609E-02  0.8381626E-01
        2   -1    0    0  501    0  0.00000000000E+00  0.00000000000E+00  0.22160457536E+04  0.22160457536E+04  0.25500000920E-02 0.  1.
       -2   -1    0    0    0  501  0.00000000000E+00  0.00000000000E+00 -0.73981930050E+03  0.73981930050E+03  0.25500000920E-02 0. -1.
    10030    2    1    2    0    0  0.00000000000E+00  0.00000000000E+00  0.14762264531E+04  0.29558650541E+04  0.25608384715E+04 0.  0.
        3    1    3    3  502    0 -0.10311409572E+04 -0.39543994279E+03 -0.97961402000E+01  0.11044095240E+04  0.10100000352E+00 0. -1.
       -3    1    3    3    0  502  0.10311409572E+04  0.39543994279E+03  0.14860225933E+04  0.18514555301E+04  0.10100000352E+00 0.  1.
</event>
<event>
 5   0  0.6648328E-05  0.2520884E+04  0.7818609E-02  0.8395583E-01
        2   -1    0    0  501    0  0.00000000000E+00  0.00000000000E+00  0.22614074254E+04  0.22614074254E+04  0.25500000920E-02 0.  1.
       -2   -1    0    0    0  501  0.00000000000E+00  0.00000000000E+00 -0.70253339930E+03  0.70253339930E+03  0.25500000920E-02 0. -1.
    10030    2    1    2    0    0  0.00000000000E+00  0.00000000000E+00  0.15588740261E+04  0.29639408247E+04  0.25208841669E+04 0.  0.
        2    1    3    3  502    0  0.13913366901E+03 -0.58779563773E+03  0.20801490290E+04  0.21660752231E+04  0.25500000920E-02 0.  1.
       -2    1    3    3    0  502 -0.13913366901E+03  0.58779563773E+03 -0.52127500285E+03  0.79786560158E+03  0.25500000920E-02 0. -1.
</event>
<event>
 5   0  0.6909250E-05  0.2434446E+04  0.7818609E-02  0.8426719E-01
       -2   -1    0    0    0  501  0.00000000000E+00  0.00000000000E+00  0.96003903183E+03  0.96003903183E+03  0.25500000920E-02 0.  1.
        2   -1    0    0  501    0  0.00000000000E+00  0.00000000000E+00 -0.15433036577E+04  0.15433036577E+04  0.25500000920E-02 0. -1.
    10030    2    1    2    0    0  0.00000000000E+00  0.00000000000E+00 -0.58326462587E+03  0.25033426895E+04  0.24344459323E+04 0.  0.
        4    1    3    3  502    0  0.44540675320E+03 -0.90256864547E+01 -0.14564577117E+04  0.15230690456E+04  0.12699999809E+01 0. -1.
       -4    1    3    3    0  502 -0.44540675320E+03  0.90256864547E+01  0.87319308587E+03  0.98027364389E+03  0.12699999809E+01 0.  1.
</event>
<event>
 5   0  0.2793920E-05  0.2454707E+04  0.7818609E-02  0.8419301E-01
        1   -1    0    0  501    0  0.00000000000E+00  0.00000000000E+00  0.18103364984E+04  0.18103364984E+04  0.50400001928E-02 0. -1.
       -1   -1    0    0    0  501  0.00000000000E+00  0.00000000000E+00 -0.83210854301E+03  0.83210854303E+03  0.50400001928E-02 0.  1.
    10030    2    1    2    0    0  0.00000000000E+00  0.00000000000E+00  0.97822795539E+03  0.26424450414E+04  0.24547068795E+04 0.  0.
        2    1    3    3  502    0  0.38103310319E+03  0.49838776563E+03  0.16246966591E+04  0.17416129952E+04  0.25500000920E-02 0. -1.
       -2    1    3    3    0  502 -0.38103310319E+03 -0.49838776563E+03 -0.64646870376E+03  0.90083204628E+03  0.25500000920E-02 0.  1.
</event>
<event>
 5   0  0.2331375E-05  0.1453565E+04  0.7818609E-02  0.8915933E-01
       -3   -1    0    0    0  501  0.00000000000E+00  0.00000000000E+00  0.76771871809E+03  0.76771872473E+03  0.10100000352E+00 0.  1.
        3   -1    0    0  501    0  0.00000000000E+00  0.00000000000E+00 -0.68802869277E+03  0.68802870018E+03  0.10100000352E+00 0. -1.
    10030    2    1    2    0    0  0.00000000000E+00  0.00000000000E+00  0.79690025325E+02  0.14557474249E+04  0.14535646064E+04 0.  0.
        5    1    3    3  502    0 -0.15545262815E+03 -0.21192567501E+03  0.71844087828E+03  0.76502117416E+03  0.46999998093E+01 0.  1.
       -5    1    3    3    0  502  0.15545262815E+03  0.21192567501E+03 -0.63875085296E+03  0.69072625075E+03  0.46999998093E+01 0. -1.
</event>
<event>
 5   0  0.6445331E-05  0.2575968E+04  0.7818609E-02  0.8376410E-01
        2   -1    0    0  501    0  0.00000000000E+00  0.00000000000E+00  0.20033758861E+04  0.20033758861E+04  0.25500000920E-02 0.  1.
       -2   -1    0    0    0  501  0.00000000000E+00  0.00000000000E+00 -0.82805373819E+03  0.82805373820E+03  0.25500000920E-02 0. -1.
    10030    2    1    2    0    0  0.00000000000E+00  0.00000000000E+00  0.11753221479E+04  0.28314296243E+04  0.25759680833E+04 0.  0.
        1    1    3    3  502    0 -0.53775311509E+03 -0.23808842542E+02 -0.69849009693E+03  0.88183540942E+03  0.50400001928E-02 0. -1.
       -1    1    3    3    0  502  0.53775311509E+03  0.23808842542E+02  0.18738122448E+04  0.19495942149E+04  0.50400001928E-02 0.  1.
</event>
<event>
 5   0  0.6648328E-05  0.2430261E+04  0.7818609E-02  0.8428260E-01
        2   -1    0    0  501    0  0.00000000000E+00  0.00000000000E+00  0.19564972155E+04  0.19564972155E+04  0.25500000920E-02 0.  1.
       -2   -1    0    0    0  501  0.00000000000E+00  0.00000000000E+00 -0.75468659138E+03  0.75468659139E+03  0.25500000920E-02 0. -1.
    10030    2    1    2    0    0  0.00000000000E+00  0.00000000000E+00  0.12018106241E+04  0.27111838069E+04  0.24302610680E+04 0.  0.
        2    1    3    3  502    0 -0.21911939528E+03 -0.56208248766E+03 -0.57581712456E+03  0.83397565508E+03  0.25500000920E-02 0. -1.
       -2    1    3    3    0  502  0.21911939528E+03  0.56208248766E+03  0.17776277487E+04  0.18772081518E+04  0.25500000920E-02 0.  1.
</event>
<event>
 5   0  0.2977854E-05  0.1340847E+04  0.7818609E-02  0.8997786E-01
        1   -1    0    0  501    0  0.00000000000E+00  0.00000000000E+00  0.86813584884E+03  0.86813584886E+03  0.50400001928E-02 0.  1.
       -1   -1    0    0    0  501  0.00000000000E+00  0.00000000000E+00 -0.51773880069E+03  0.51773880072E+03  0.50400001928E-02 0. -1.
    10030    2    1    2    0    0  0.00000000000E+00  0.00000000000E+00  0.35039704815E+03  0.13858746496E+04  0.13408469163E+04 0.  0.
        1    1    3    3  502    0 -0.18106211546E+02  0.34607447927E+03 -0.41798386022E+03  0.54296030014E+03  0.50400001928E-02 0. -1.
       -1    1    3    3    0  502  0.18106211546E+02 -0.34607447927E+03  0.76838090837E+03  0.84291434943E+03  0.50400001928E-02 0.  1.
</event>
<event>
 5   0  0.2777539E-05  0.2448476E+04  0.7818609E-02  0.8421575E-01
        1   -1    0    0  501    0  0.00000000000E+00  0.00000000000E+00  0.17223048845E+04  0.17223048845E+04  0.50400001928E-02 0. -1.
       -1   -1    0    0    0  501  0.00000000000E+00  0.00000000000E+00 -0.87020497335E+03  0.87020497336E+03  0.50400001928E-02 0.  1.
    10030    2    1    2    0    0  0.00000000000E+00  0.00000000000E+00  0.85209991115E+03  0.25925098579E+04  0.24484756696E+04 0.  0.
        3    1    3    3  502    0  0.49997974777E+03 -0.40629006131E+03 -0.67620115146E+03  0.93396968341E+03  0.10100000352E+00 0.  1.
       -3    1    3    3    0  502 -0.49997974777E+03  0.40629006131E+03  0.15283010626E+04  0.16585401745E+04  0.10100000352E+00 0. -1.
</event>
<event>
 5   0  0.2896652E-05  0.2519382E+04  0.7818609E-02  0.8396113E-01
       -1   -1    0    0    0  501  0.00000000000E+00  0.00000000000E+00  0.10841772710E+04  0.10841772710E+04  0.50400001928E-02 0.  1.
        1   -1    0    0  501    0  0.00000000000E+00  0.00000000000E+00 -0.14636175790E+04  0.14636175790E+04  0.50400001928E-02 0. -1.
    10030    2    1    2    0    0  0.00000000000E+00  0.00000000000E+00 -0.37944030801E+03  0.25477948500E+04  0.25193816008E+04 0.  0.
        4    1    3    3  502    0  0.69294139018E+03  0.36464864746E+03  0.80816203727E+03  0.11252839187E+04  0.12699999809E+01 0.  1.
       -4    1    3    3    0  502 -0.69294139018E+03 -0.36464864746E+03 -0.11876023453E+04  0.14225109313E+04  0.12699999809E+01 0. -1.
</event>
<event>
 5   0  0.2777539E-05  0.2587372E+04  0.7818609E-02  0.8372503E-01
        1   -1    0    0  501    0  0.00000000000E+00  0.00000000000E+00  0.17146913621E+04  0.17146913621E+04  0.50400001928E-02 0. -1.
       -1   -1    0    0    0  501  0.00000000000E+00  0.00000000000E+00 -0.97604940540E+03  0.97604940541E+03  0.50400001928E-02 0.  1.
    10030    2    1    2    0    0  0.00000000000E+00  0.00000000000E+00  0.73864195668E+03  0.26907407675E+04  0.25873720138E+04 0.  0.
        3    1    3    3  502    0  0.12985892415E+03 -0.84549015180E+03 -0.63997115445E+03  0.10683070840E+04  0.10100000352E+00 0.  1.
       -3    1    3    3    0  502 -0.12985892415E+03  0.84549015180E+03  0.13786131111E+04  0.16224336835E+04  0.10100000352E+00 0. -1.
</event>
<event>
 5   0  0.6827859E-05  0.2474024E+04  0.7818609E-02  0.8412299E-01
       -2   -1    0    0    0  501  0.00000000000E+00  0.00000000000E+00  0.81890476209E+03  0.81890476209E+03  0.25500000920E-02 0. -1.
        2   -1    0    0  501    0  0.00000000000E+00  0.00000000000E+00 -0.18685913184E+04  0.18685913184E+04  0.25500000920E-02 0.  1.
    10030    2    1    2    0    0  0.00000000000E+00  0.00000000000E+00 -0.10496865563E+04  0.26874960805E+04  0.24740237097E+04 0.  0.
        3    1    3    3  502    0  0.10455747574E+04  0.24469516953E+03  0.14222448949E+03  0.10832036350E+04  0.10100000352E+00 0. -1.
       -3    1    3    3    0  502 -0.10455747574E+04 -0.24469516953E+03 -0.11919110458E+04  0.16042924455E+04  0.10100000352E+00 0.  1.
</event>
<event>
 5   0  0.2793920E-05  0.2508923E+04  0.7818609E-02  0.8399814E-01
        1   -1    0    0  501    0  0.00000000000E+00  0.00000000000E+00  0.11790128635E+04  0.11790128635E+04  0.50400001928E-02 0. -1.
       -1   -1    0    0    0  501  0.00000000000E+00  0.00000000000E+00 -0.13347381266E+04  0.13347381267E+04  0.50400001928E-02 0.  1.
    10030    2    1    2    0    0  0.00000000000E+00  0.00000000000E+00 -0.15572526316E+03  0.25137509901E+04  0.25089228133E+04 0.  0.
        2    1    3    3  502    0 -0.77012923528E+03  0.11691028720E+03 -0.10630688947E+04  0.13179083918E+04  0.25500000920E-02 0.  1.
       -2    1    3    3    0  502  0.77012923528E+03 -0.11691028720E+03  0.90734363155E+03  0.11958425983E+04  0.25500000920E-02 0. -1.
</event>
<event>
 5   0  0.6445331E-05  0.2397280E+04  0.7818609E-02  0.8440523E-01
       -2   -1    0    0    0  501  0.00000000000E+00  0.00000000000E+00  0.88221632811E+03  0.88221632812E+03  0.25500000920E-02 0. -1.
        2   -1    0    0  501    0  0.00000000000E+00  0.00000000000E+00 -0.16285545348E+04  0.16285545348E+04  0.25500000920E-02 0.  1.
    10030    2    1    2    0    0  0.00000000000E+00  0.00000000000E+00 -0.74633820671E+03  0.25107708629E+04  0.23972796265E+04 0.  0.
        1    1    3    3  502    0  0.57568313330E+03 -0.88752769709E+03  0.21709032709E+03  0.10799280963E+04  0.50400001928E-02 0. -1.
       -1    1    3    3    0  502 -0.57568313330E+03  0.88752769709E+03 -0.96342853380E+03  0.14308427666E+04  0.50400001928E-02 0.  1.
</event>
<event>
 5   0  0.2793920E-05  0.2517733E+04  0.7818609E-02  0.8396695E-01
        1   -1    0    0  501    0  0.00000000000E+00  0.00000000000E+00  0.17720256126E+04  0.17720256126E+04  0.50400001928E-02 0.  1.
       -1   -1    0    0    0  501  0.00000000000E+00  0.00000000000E+00 -0.89431248633E+03  0.89431248635E+03  0.50400001928E-02 0. -1.
    10030    2    1    2    0    0  0.00000000000E+00  0.00000000000E+00  0.87771312629E+03  0.26663380990E+04  0.25177328147E+04 0.  0.
        2    1    3    3  502    0 -0.69698214668E+03  0.10213184112E+04  0.68917445267E+03  0.14155694388E+04  0.25500000920E-02 0. -1.
       -2    1    3    3    0  502  0.69698214668E+03 -0.10213184112E+04  0.18853867362E+03  0.12507686602E+04  0.25500000920E-02 0.  1.
</event>
<event>
 5   0  0.2777539E-05  0.2325533E+04  0.7818609E-02  0.8467921E-01
        1   -1    0    0  501    0  0.00000000000E+00  0.00000000000E+00  0.10142703711E+04  0.10142703712E+04  0.50400001928E-02 0.  1.
       -1   -1    0    0    0  501  0.00000000000E+00  0.00000000000E+00 -0.13330037636E+04  0.13330037636E+04  0.50400001928E-02 0. -1.
    10030    2    1    2    0    0  0.00000000000E+00  0.00000000000E+00 -0.31873339244E+03  0.23472741348E+04  0.23255332481E+04 0.  0.
        3    1    3    3  502    0 -0.66773669746E+03  0.56819549803E+03  0.61151928624E+03  0.10689594327E+04  0.10100000352E+00 0.  1.
       -3    1    3    3    0  502  0.66773669746E+03 -0.56819549803E+03 -0.93025267867E+03  0.12783147021E+04  0.10100000352E+00 0. -1.
</event>
<event>
 5   0  0.6909250E-05  0.2470021E+04  0.7818609E-02  0.8413744E-01
       -2   -1    0    0    0  501  0.00000000000E+00  0.00000000000E+00  0.76456397387E+03  0.76456397388E+03  0.25500000920E-02 0.  1.
        2   -1    0    0  501    0  0.00000000000E+00  0.00000000000E+00 -0.19949283229E+04  0.19949283229E+04  0.25500000920E-02 0. -1.
    10030    2    1    2    0    0  0.00000000000E+00  0.00000000000E+00 -0.12303643491E+04  0.27594922968E+04  0.24700205069E+04 0.  0.
        4    1    3    3  502    0  0.93495175926E+03  0.70139373916E+03 -0.10608862519E+04  0.15784705325E+04  0.12699999809E+01 0.  1.
       -4    1    3    3    0  502 -0.93495175926E+03 -0.70139373916E+03 -0.16947809712E+03  0.11810217643E+04  0.12699999809E+01 0. -1.
</event>
<event>
 5   0  0.2896652E-05  0.2141714E+04  0.7818609E-02  0.8543087E-01
        1   -1    0    0  501    0  0.00000000000E+00  0.00000000000E+00  0.17054682963E+04  0.17054682963E+04  0.50400001928E-02 0. -1.
       -1   -1    0    0    0  501  0.00000000000E+00  0.00000000000E+00 -0.67238719992E+03  0.67238719994E+03  0.50400001928E-02 0.  1.
    10030    2    1    2    0    0  0.00000000000E+00  0.00000000000E+00  0.10330810963E+04  0.23778554962E+04  0.21417143155E+04 0.  0.
        4    1    3    3  502    0  0.36840311403E+03  0.37008994226E+03  0.15545255274E+04  0.16398898280E+04  0.12699999809E+01 0. -1.
       -4    1    3    3    0  502 -0.36840311403E+03 -0.37008994226E+03 -0.52144443108E+03  0.73796566817E+03  0.12699999809E+01 0.  1.
</event>
<event>
 5   0  0.6648328E-05  0.2425850E+04  0.7818609E-02  0.8429889E-01
        2   -1    0    0  501    0  0.00000000000E+00  0.00000000000E+00  0.19230361071E+04  0.19230361071E+04  0.25500000920E-02 0. -1.
       -2   -1    0    0    0  501  0.00000000000E+00  0.00000000000E+00 -0.76503324042E+03  0.76503324042E+03  0.25500000920E-02 0.  1.
    10030    2    1    2    0    0  0.00000000000E+00  0.00000000000E+00  0.11580028667E+04  0.26880693475E+04  0.24258495786E+04 0.  0.
        2    1    3    3  502    0  0.37868809214E+03 -0.96864741608E+03  0.12705657770E+04  0.16419561144E+04  0.25500000920E-02 0. -1.
       -2    1    3    3    0  502 -0.37868809214E+03  0.96864741608E+03 -0.11256291032E+03  0.10461132332E+04  0.25500000920E-02 0.  1.
</event>
<event>
 5   0  0.2980790E-05  0.2530570E+04  0.7818609E-02  0.8392175E-01
        1   -1    0    0  501    0  0.00000000000E+00  0.00000000000E+00  0.20412961096E+04  0.20412961096E+04  0.50400001928E-02 0.  1.
       -1   -1    0    0    0  501  0.00000000000E+00  0.00000000000E+00 -0.78427941118E+03  0.78427941119E+03  0.50400001928E-02 0. -1.
    10030    2    1    2    0    0  0.00000000000E+00  0.00000000000E+00  0.12570166984E+04  0.28255755208E+04  0.25305703001E+04 0.  0.
        5    1    3    3  502    0 -0.96032995806E+03  0.21217838264E+03  0.15173419667E+04  0.18082040892E+04  0.46999998093E+01 0.  1.
       -5    1    3    3    0  502  0.96032995806E+03 -0.21217838264E+03 -0.26032526830E+03  0.10173714315E+04  0.46999998093E+01 0. -1.
</event>
<event>
 5   0  0.6827859E-05  0.2664499E+04  0.7818609E-02  0.8346616E-01
        2   -1    0    0  501    0  0.00000000000E+00  0.00000000000E+00  0.16185195697E+04  0.16185195697E+04  0.25500000920E-02 0. -1.
       -2   -1    0    0    0  501  0.00000000000E+00  0.00000000000E+00 -0.10966125900E+04  0.10966125901E+04  0.25500000920E-02 0.  1.
    10030    2    1    2    0    0  0.00000000000E+00  0.00000000000E+00  0.52190697962E+03  0.27151321597E+04  0.26644991554E+04 0.  0.
        3    1    3    3  502    0  0.99202406539E+03 -0.82718768647E+03  0.59355718518E+03  0.14214996860E+04  0.10100000352E+00 0. -1.
       -3    1    3    3    0  502 -0.99202406539E+03  0.82718768647E+03 -0.71650205564E+02  0.12936324737E+04  0.10100000352E+00 0.  1.
</event>
<event>
 5   0  0.2793920E-05  0.2492071E+04  0.7818609E-02  0.8405816E-01
       -1   -1    0    0    0  501  0.00000000000E+00  0.00000000000E+00  0.12734778296E+04  0.12734778296E+04  0.50400001928E-02 0.  1.
        1   -1    0    0  501    0  0.00000000000E+00  0.00000000000E+00 -0.12191841403E+04  0.12191841403E+04  0.50400001928E-02 0. -1.
    10030    2    1    2    0    0  0.00000000000E+00  0.00000000000E+00  0.54293689291E+02  0.24926619699E+04  0.24920706033E+04 0.  0.
        2    1    3    3  502    0  0.10615026053E+04 -0.32005093651E+03  0.59595004925E+03  0.12587203201E+04  0.25500000920E-02 0.  1.
       -2    1    3    3    0  502 -0.10615026053E+04  0.32005093651E+03 -0.54165635996E+03  0.12339416499E+04  0.25500000920E-02 0. -1.
</event>
<event>
 5   0  0.6648328E-05  0.2423750E+04  0.7818609E-02  0.8430665E-01
       -2   -1    0    0    0  501  0.00000000000E+00  0.00000000000E+00  0.75818688925E+03  0.75818688925E+03  0.25500000920E-02 0.  1.
        2   -1    0    0  501    0  0.00000000000E+00  0.00000000000E+00 -0.19370428006E+04  0.19370428006E+04  0.25500000920E-02 0. -1.
    10030    2    1    2    0    0  0.00000000000E+00  0.00000000000E+00 -0.11788559113E+04  0.26952296898E+04  0.24237495376E+04 0.  0.
        2    1    3    3  502    0 -0.76311880005E+03  0.33541135980E+03 -0.15676094063E+04  0.17754577816E+04  0.25500000920E-02 0. -1.
       -2    1    3    3    0  502  0.76311880005E+03 -0.33541135980E+03  0.38875349503E+03  0.91977190824E+03  0.25500000920E-02 0.  1.
</event>
<event>
 5   0  0.6445331E-05  0.2430552E+04  0.7818609E-02  0.8428153E-01
       -2   -1    0    0    0  501  0.00000000000E+00  0.00000000000E+00  0.97819660477E+03  0.97819660478E+03  0.25500000920E-02 0. -1.
        2   -1    0    0  501    0  0.00000000000E+00  0.00000000000E+00 -0.15098153842E+04  0.15098153842E+04  0.25500000920E-02 0.  1.
    10030    2    1    2    0    0  0.00000000000E+00  0.00000000000E+00 -0.53161877947E+03  0.24880119890E+04  0.24305524333E+04 0.  0.
        1    1    3    3  502    0  0.47549988606E+03  0.76418540753E+03 -0.11017024934E+04  0.14226130404E+04  0.50400001928E-02 0.  1.
       -1    1    3    3    0  502 -0.47549988606E+03 -0.76418540753E+03  0.57008371396E+03  0.10653989486E+04  0.50400001928E-02 0. -1.
</event>
<event>
 5   0  0.2777539E-05  0.2503723E+04  0.7818609E-02  0.8401660E-01
       -1   -1    0    0    0  501  0.00000000000E+00  0.00000000000E+00  0.13017941114E+04  0.13017941114E+04  0.50400001928E-02 0.  1.
        1   -1    0    0  501    0  0.00000000000E+00  0.00000000000E+00 -0.12038439419E+04  0.12038439419E+04  0.50400001928E-02 0. -1.
    10030    2    1    2    0    0  0.00000000000E+00  0.00000000000E+00  0.97950169447E+02  0.25056380533E+04  0.25037227919E+04 0.  0.
        3    1    3    3  502    0  0.49470574227E+03 -0.11317020444E+04  0.25327250981E+03  0.12608054026E+04  0.10100000352E+00 0. -1.
       -3    1    3    3    0  502 -0.49470574227E+03  0.11317020444E+04 -0.15532234036E+03  0.12448326507E+04  0.10100000352E+00 0.  1.
</event>
<event>
 5   0  0.2896652E-05  0.2465785E+04  0.7818609E-02  0.8415277E-01
        1   -1    0    0  501    0  0.00000000000E+00  0.00000000000E+00  0.19850641095E+04  0.19850641095E+04  0.50400001928E-02 0. -1.
       -1   -1    0    0    0  501  0.00000000000E+00  0.00000000000E+00 -0.76573025037E+03  0.76573025039E+03  0.50400001928E-02 0.  1.
    10030    2    1    2    0    0  0.00000000000E+00  0.00000000000E+00  0.12193338592E+04  0.27507943599E+04  0.24657847738E+04 0.  0.
        4    1    3    3  502    0  0.29325748409E+03  0.11483146708E+04  0.23070343552E+03  0.12074155139E+04  0.12699999809E+01 0.  1.
       -4    1    3    3    0  502 -0.29325748409E+03 -0.11483146708E+04  0.98863042364E+03  0.15433788461E+04  0.12699999809E+01 0. -1.
</event>
<event>
 5   0  0.6648328E-05  0.2533780E+04  0.7818609E-02  0.8391049E-01
        2   -1    0    0  501    0  0.00000000000E+00  0.00000000000E+00  0.14964650557E+04  0.14964650557E+04  0.25500000920E-02 0.  1.
       -2   -1    0    0    0  501  0.00000000000E+00  0.00000000000E+00 -0.10725341802E+04  0.10725341802E+04  0.25500000920E-02 0. -1.
    10030    2    1    2    0    0  0.00000000000E+00  0.00000000000E+00  0.42393087553E+03  0.25689992359E+04  0.25337797235E+04 0.  0.
        2    1    3    3  502    0 -0.10021722902E+03 -0.53777272678E+03 -0.94661969244E+03  0.10933123254E+04  0.25500000920E-02 0. -1.
       -2    1    3    3    0  502  0.10021722902E+03  0.53777272678E+03  0.13705505680E+04  0.14756869106E+04  0.25500000920E-02 0.  1.
</event>
<event>
 5   0  0.6909250E-05  0.2497105E+04  0.7818609E-02  0.8404017E-01
       -2   -1    0    0    0  501  0.00000000000E+00  0.00000000000E+00  0.11410625531E+04  0.11410625531E+04  0.25500000920E-02 0. -1.
        2   -1    0    0  501    0  0.00000000000E+00  0.00000000000E+00 -0.13661686231E+04  0.13661686231E+04  0.25500000920E-02 0.  1.
    10030    2    1    2    0    0  0.00000000000E+00  0.00000000000E+00 -0.22510607005E+03  0.25072311763E+04  0.24971054099E+04 0.  0.
        4    1    3    3  502    0  0.46801619674E+03 -0.61227744914E+01  0.10496403454E+04  0.11492706889E+04  0.12699999809E+01 0. -1.
       -4    1    3    3    0  502 -0.46801619674E+03  0.61227744914E+01 -0.12747464154E+04  0.13579604874E+04  0.12699999809E+01 0.  1.
</event>
<event>
 5   0  0.6827859E-05  0.2604108E+04  0.7818609E-02  0.8366807E-01
       -2   -1    0    0    0  501  0.00000000000E+00  0.00000000000E+00  0.19420432338E+04  0.19420432338E+04  0.25500000920E-02 0.  1.
        2   -1    0    0  501    0  0.00000000000E+00  0.00000000000E+00 -0.87296962840E+03  0.87296962840E+03  0.25500000920E-02 0. -1.
    10030    2    1    2    0    0  0.00000000000E+00  0.00000000000E+00  0.10690736054E+04  0.28150128622E+04  0.26041081085E+04 0.  0.
        3    1    3    3  502    0  0.70537699451E+03  0.17850891445E+02  0.17174519263E+04  0.18567489028E+04  0.10100000352E+00 0.  1.
       -3    1    3    3    0  502 -0.70537699451E+03 -0.17850891445E+02 -0.64837832089E+03  0.95826395941E+03  0.10100000352E+00 0. -1.
</event>
<event>
 5   0  0.7071821E-05  0.2478784E+04  0.7818609E-02  0.8410583E-01
       -2   -1    0    0    0  501  0.00000000000E+00  0.00000000000E+00  0.18709868189E+04  0.18709868189E+04  0.25500000920E-02 0.  1.
        2   -1    0    0  501    0  0.00000000000E+00  0.00000000000E+00 -0.82100676880E+03  0.82100676880E+03  0.25500000920E-02 0. -1.
    10030    2    1    2    0    0  0.00000000000E+00  0.00000000000E+00  0.10499800501E+04  0.26919935877E+04  0.24787842525E+04 0.  0.
        5    1    3    3  502    0  0.37238934560E+02  0.26837899825E+03  0.18384187167E+04  0.18582840184E+04  0.46999998093E+01 0.  1.
       -5    1    3    3    0  502 -0.37238934560E+02 -0.26837899825E+03 -0.78843866663E+03  0.83370956932E+03  0.46999998093E+01 0. -1.
</event>
<event>
 5   0  0.2896652E-05  0.2553859E+04  0.7818609E-02  0.8384045E-01
       -1   -1    0    0    0  501  0.00000000000E+00  0.00000000000E+00  0.16168725914E+04  0.16168725915E+04  0.50400001928E-02 0. -1.
        1   -1    0    0  501    0  0.00000000000E+00  0.00000000000E+00 -0.10084586157E+04  0.10084586158E+04  0.50400001928E-02 0.  1.
    10030    2    1    2    0    0  0.00000000000E+00  0.00000000000E+00  0.60841397571E+03  0.26253312072E+04  0.25538591155E+04 0.  0.
        4    1    3    3  502    0 -0.12441258414E+04  0.89592219691E+02  0.58511551056E+03  0.13777654549E+04  0.12699999809E+01 0.  1.
       -4    1    3    3    0  502  0.12441258414E+04 -0.89592219691E+02  0.23298465147E+02  0.12475657523E+04  0.12699999809E+01 0. -1.
</event>
<event>
 5   0  0.2980790E-05  0.1461704E+04  0.7818609E-02  0.8910326E-01
       -1   -1    0    0    0  501  0.00000000000E+00  0.00000000000E+00  0.23231830518E+03  0.23231830523E+03  0.50400001928E-02 0. -1.
        1   -1    0    0  501    0  0.00000000000E+00  0.00000000000E+00 -0.22991936776E+04  0.22991936776E+04  0.50400001928E-02 0.  1.
    10030    2    1    2    0    0  0.00000000000E+00  0.00000000000E+00 -0.20668753724E+04  0.25315119828E+04  0.14617041815E+04 0.  0.
        5    1    3    3  502    0 -0.33821484432E+03 -0.63301651627E+03 -0.79456544540E+03  0.10707266354E+04  0.46999998093E+01 0. -1.
       -5    1    3    3    0  502  0.33821484432E+03  0.63301651627E+03 -0.12723099270E+04  0.14607853474E+04  0.46999998093E+01 0.  1.
</event>
<event>
 5   0  0.2977854E-05  0.1646225E+04  0.7818609E-02  0.8792643E-01
       -1   -1    0    0    0  501  0.00000000000E+00  0.00000000000E+00  0.64957943417E+03  0.64957943419E+03  0.50400001928E-02 0.  1.
        1   -1    0    0  501    0  0.00000000000E+00  0.00000000000E+00 -0.10430038477E+04  0.10430038477E+04  0.50400001928E-02 0. -1.
    10030    2    1    2    0    0  0.00000000000E+00  0.00000000000E+00 -0.39342441355E+03  0.16925832819E+04  0.16462245889E+04 0.  0.
        1    1    3    3  502    0  0.41965093935E+03 -0.37492798105E+03 -0.81432439921E+03  0.98984954869E+03  0.50400001928E-02 0. -1.
       -1    1    3    3    0  502 -0.41965093935E+03  0.37492798105E+03  0.42089998566E+03  0.70273373324E+03  0.50400001928E-02 0.  1.
</event>
<event>
 5   0  0.6909250E-05  0.2888175E+04  0.7818609E-02  0.8276404E-01
       -2   -1    0    0    0  501  0.00000000000E+00  0.00000000000E+00  0.10068725707E+04  0.10068725707E+04  0.25500000920E-02 0. -1.
        2   -1    0    0  501    0  0.00000000000E+00  0.00000000000E+00 -0.20711547815E+04  0.20711547815E+04  0.25500000920E-02 0.  1.
    10030    2    1    2    0    0  0.00000000000E+00  0.00000000000E+00 -0.10642822109E+04  0.30780273522E+04  0.28881751603E+04 0.  0.
        4    1    3    3  502    0  0.35660572218E+03 -0.13958730411E+04 -0.42686436514E+03  0.15026123875E+04  0.12699999809E+01 0. -1.
       -4    1    3    3    0  502 -0.35660572218E+03  0.13958730411E+04 -0.63741784572E+03  0.15754149647E+04  0.12699999809E+01 0.  1.
</event>
<event>
 5   0  0.6909250E-05  0.2330531E+04  0.7818609E-02  0.8465980E-01
        2   -1    0    0  501    0  0.00000000000E+00  0.00000000000E+00  0.11481642272E+04  0.11481642273E+04  0.25500000920E-02 0.  1.
       -2   -1    0    0    0  501  0.00000000000E+00  0.00000000000E+00 -0.11826215924E+04  0.11826215924E+04  0.25500000920E-02 0. -1.
    10030    2    1    2    0    0  0.00000000000E+00  0.00000000000E+00 -0.34457365148E+02  0.23307858196E+04  0.23305311041E+04 0.  0.
        4    1    3    3  502    0 -0.11499318461E+04  0.18196104058E+03 -0.66112680428E+02  0.11661155905E+04  0.12699999809E+01 0. -1.
       -4    1    3    3    0  502  0.11499318461E+04 -0.18196104058E+03  0.31655315280E+02  0.11646702292E+04  0.12699999809E+01 0.  1.
</event>
<event>
 5   0  0.2331375E-05  0.2563889E+04  0.7818609E-02  0.8380572E-01
        3   -1    0    0  501    0  0.00000000000E+00  0.00000000000E+00  0.12397849950E+04  0.12397849991E+04  0.10100000352E+00 0.  1.
       -3   -1    0    0    0  501  0.00000000000E+00  0.00000000000E+00 -0.13255376134E+04  0.13255376172E+04  0.10100000352E+00 0. -1.
    10030    2    1    2    0    0  0.00000000000E+00  0.00000000000E+00 -0.85752618351E+02  0.25653226164E+04  0.25638889630E+04 0.  0.
        4    1    3    3  502    0  0.51316591500E+03 -0.19180279736E+03 -0.12025120744E+04  0.13214251668E+04  0.12699999809E+01 0. -1.
       -4    1    3    3    0  502 -0.51316591500E+03  0.19180279736E+03  0.11167594561E+04  0.12438974496E+04  0.12699999809E+01 0.  1.
</event>
<event>
 5   0  0.6648328E-05  0.2424060E+04  0.7818609E-02  0.8430550E-01
       -2   -1    0    0    0  501  0.00000000000E+00  0.00000000000E+00  0.73039714535E+03  0.73039714535E+03  0.25500000920E-02 0.  1.
        2   -1    0    0  501    0  0.00000000000E+00  0.00000000000E+00 -0.20112572965E+04  0.20112572965E+04  0.25500000920E-02 0. -1.
    10030    2    1    2    0    0  0.00000000000E+00  0.00000000000E+00 -0.12808601512E+04  0.27416544419E+04  0.24240598903E+04 0.  0.
        2    1    3    3  502    0 -0.11992649878E+01  0.97944046402E+03 -0.14479097468E+04  0.17480697056E+04  0.25500000920E-02 0. -1.
       -2    1    3    3    0  502  0.11992649878E+01 -0.97944046402E+03  0.16704959559E+03  0.99358473629E+03  0.25500000920E-02 0.  1.
</event>
<event>
 5   0  0.2793920E-05  0.2278704E+04  0.7818609E-02  0.8486366E-01
       -1   -1    0    0    0  501  0.00000000000E+00  0.00000000000E+00  0.90130570039E+03  0.90130570040E+03  0.50400001928E-02 0.  1.
        1   -1    0    0  501    0  0.00000000000E+00  0.00000000000E+00 -0.14402690942E+04  0.14402690942E+04  0.50400001928E-02 0. -1.
    10030    2    1    2    0    0  0.00000000000E+00  0.00000000000E+00 -0.53896339383E+03  0.23415747946E+04  0.22787037936E+04 0.  0.
        2    1    3    3  502    0  0.82330890924E+03 -0.78714577139E+03 -0.29641004935E+03  0.11769855321E+04  0.25500000920E-02 0. -1.
       -2    1    3    3    0  502 -0.82330890924E+03  0.78714577139E+03 -0.24255334447E+03  0.11645892625E+04  0.25500000920E-02 0.  1.
</event>
<event>
 5   0  0.2777539E-05  0.1266955E+04  0.7818609E-02  0.9056188E-01
       -1   -1    0    0    0  501  0.00000000000E+00  0.00000000000E+00  0.79707762318E+03  0.79707762319E+03  0.50400001928E-02 0. -1.
        1   -1    0    0  501    0  0.00000000000E+00  0.00000000000E+00 -0.50345655289E+03  0.50345655292E+03  0.50400001928E-02 0.  1.
    10030    2    1    2    0    0  0.00000000000E+00  0.00000000000E+00  0.29362107029E+03  0.13005341761E+04  0.12669553308E+04 0.  0.
        3    1    3    3  502    0  0.42262682262E+03 -0.45296013947E+03  0.10987302667E+02  0.61960233228E+03  0.10100000352E+00 0. -1.
       -3    1    3    3    0  502 -0.42262682262E+03  0.45296013947E+03  0.28263376762E+03  0.68093184383E+03  0.10100000352E+00 0.  1.
</event>
<event>
 5   0  0.7071821E-05  0.2184624E+04  0.7818609E-02  0.8524855E-01
       -2   -1    0    0    0  501  0.00000000000E+00  0.00000000000E+00  0.58364950101E+03  0.58364950102E+03  0.25500000920E-02 0.  1.
        2   -1    0    0  501    0  0.00000000000E+00  0.00000000000E+00 -0.20442845889E+04  0.20442845889E+04  0.25500000920E-02 0. -1.
    10030    2    1    2    0    0  0.00000000000E+00  0.00000000000E+00 -0.14606350879E+04  0.26279340900E+04  0.21846241601E+04 0.  0.
        5    1    3    3  502    0  0.99764440008E+03  0.31675420752E+02 -0.19664007334E+03  0.10173431524E+04  0.46999998093E+01 0.  1.
       -5    1    3    3    0  502 -0.99764440008E+03 -0.31675420752E+02 -0.12639950146E+04  0.16105909376E+04  0.46999998093E+01 0. -1.
</event>
<event>
 5   0  0.6445331E-05  0.2474012E+04  0.7818609E-02  0.8412303E-01
        2   -1    0    0  501    0  0.00000000000E+00  0.00000000000E+00  0.19681572216E+04  0.19681572216E+04  0.25500000920E-02 0.  1.
       -2   -1    0    0    0  501  0.00000000000E+00  0.00000000000E+00 -0.77747035447E+03  0.77747035447E+03  0.25500000920E-02 0. -1.
    10030    2    1    2    0    0  0.00000000000E+00  0.00000000000E+00  0.11906868672E+04  0.27456275761E+04  0.24740120394E+04 0.  0.
        1    1    3    3  502    0  0.40246812405E+03  0.10969601655E+04  0.10459796002E+04  0.15682396244E+04  0.50400001928E-02 0.  1.
       -1    1    3    3    0  502 -0.40246812405E+03 -0.10969601655E+04  0.14470726693E+03  0.11773879516E+04  0.50400001928E-02 0. -1.
</event>
<event>
 5   0  0.2896652E-05  0.2500207E+04  0.7818609E-02  0.8402912E-01
       -1   -1    0    0    0  501  0.00000000000E+00  0.00000000000E+00  0.75065309742E+03  0.75065309744E+03  0.50400001928E-02 0. -1.
        1   -1    0    0  501    0  0.00000000000E+00  0.00000000000E+00 -0.20818654944E+04  0.20818654944E+04  0.50400001928E-02 0.  1.
    10030    2    1    2    0    0  0.00000000000E+00  0.00000000000E+00 -0.13312123970E+04  0.28325185919E+04  0.25002070169E+04 0.  0.
        4    1    3    3  502    0 -0.95620488675E+03  0.72962399746E+03 -0.10515927229E+04  0.15976632408E+04  0.12699999809E+01 0.  1.
       -4    1    3    3    0  502  0.95620488675E+03 -0.72962399746E+03 -0.27961967411E+03  0.12348553511E+04  0.12699999809E+01 0. -1.
</event>
<event>
 5   0  0.2896652E-05  0.2273150E+04  0.7818609E-02  0.8488583E-01
        1   -1    0    0  501    0  0.00000000000E+00  0.00000000000E+00  0.10280635855E+04  0.10280635855E+04  0.50400001928E-02 0.  1.
       -1   -1    0    0    0  501  0.00000000000E+00  0.00000000000E+00 -0.12565399069E+04  0.12565399069E+04  0.50400001928E-02 0. -1.
    10030    2    1    2    0    0  0.00000000000E+00  0.00000000000E+00 -0.22847632137E+03  0.22846034924E+04  0.22731501684E+04 0.  0.
        4    1    3    3  502    0 -0.85707544650E+03  0.74647165205E+03 -0.11599650326E+03  0.11424775928E+04  0.12699999809E+01 0. -1.
       -4    1    3    3    0  502  0.85707544650E+03 -0.74647165205E+03 -0.11247981812E+03  0.11421258997E+04  0.12699999809E+01 0.  1.
</event>
<event>
 5   0  0.2980790E-05  0.2433781E+04  0.7818609E-02  0.8426964E-01
        1   -1    0    0  501    0  0.00000000000E+00  0.00000000000E+00  0.17961124584E+04  0.17961124584E+04  0.50400001928E-02 0. -1.
       -1   -1    0    0    0  501  0.00000000000E+00  0.00000000000E+00 -0.82445975672E+03  0.82445975673E+03  0.50400001928E-02 0.  1.
    10030    2    1    2    0    0  0.00000000000E+00  0.00000000000E+00  0.97165270171E+03  0.26205722152E+04  0.24337809602E+04 0.  0.
        5    1    3    3  502    0 -0.79624882056E+03  0.18989567843E+03  0.14553360872E+04  0.16697597940E+04  0.46999998093E+01 0. -1.
       -5    1    3    3    0  502  0.79624882056E+03 -0.18989567843E+03 -0.48368338547E+03  0.95081242120E+03  0.46999998093E+01 0.  1.
</event>
<event>
 5   0  0.6909250E-05  0.2476677E+04  0.7818609E-02  0.8411342E-01
       -2   -1    0    0    0  501  0.00000000000E+00  0.00000000000E+00  0.19485661935E+04  0.19485661935E+04  0.25500000920E-02 0. -1.
        2   -1    0    0  501    0  0.00000000000E+00  0.00000000000E+00 -0.78697994013E+03  0.78697994014E+03  0.25500000920E-02 0.  1.
    10030    2    1    2    0    0  0.00000000000E+00  0.00000000000E+00  0.11615862533E+04  0.27355461336E+04  0.24766772146E+04 0.  0.
        4    1    3    3  502    0 -0.50257285425E+03  0.76083690626E+03 -0.34465492190E+03  0.97480300566E+03  0.12699999809E+01 0.  1.
       -4    1    3    3    0  502  0.50257285425E+03 -0.76083690626E+03  0.15062411752E+04  0.17607431279E+04  0.12699999809E+01 0. -1.
</event>
<event>
 5   0  0.2980790E-05  0.1667557E+04  0.7818609E-02  0.8780087E-01
        1   -1    0    0  501    0  0.00000000000E+00  0.00000000000E+00  0.97640316041E+03  0.97640316042E+03  0.50400001928E-02 0.  1.
       -1   -1    0    0    0  501  0.00000000000E+00  0.00000000000E+00 -0.71198689372E+03  0.71198689374E+03  0.50400001928E-02 0. -1.
    10030    2    1    2    0    0  0.00000000000E+00  0.00000000000E+00  0.26441626669E+03  0.16883900542E+04  0.16675565996E+04 0.  0.
        5    1    3    3  502    0  0.57587335866E+03 -0.59708660392E+02 -0.47526167841E+03  0.74906007923E+03  0.46999998093E+01 0. -1.
       -5    1    3    3    0  502 -0.57587335866E+03  0.59708660392E+02  0.73967794510E+03  0.93932997493E+03  0.46999998093E+01 0.  1.
</event>
<event>
 5   0  0.6827859E-05  0.2424439E+04  0.7818609E-02  0.8430410E-01
        2   -1    0    0  501    0  0.00000000000E+00  0.00000000000E+00  0.12615311264E+04  0.12615311264E+04  0.25500000920E-02 0.  1.
       -2   -1    0    0    0  501  0.00000000000E+00  0.00000000000E+00 -0.11648352913E+04  0.11648352913E+04  0.25500000920E-02 0. -1.
    10030    2    1    2    0    0  0.00000000000E+00  0.00000000000E+00  0.96695835036E+02  0.24263664177E+04  0.24244388853E+04 0.  0.
        3    1    3    3  502    0 -0.82698683862E+03  0.21026533718E+03  0.91005350153E+03  0.12475239994E+04  0.10100000352E+00 0.  1.
       -3    1    3    3    0  502  0.82698683862E+03 -0.21026533718E+03 -0.81335766650E+03  0.11788424183E+04  0.10100000352E+00 0. -1.
</event>
<event>
 5   0  0.6827859E-05  0.2487204E+04  0.7818609E-02  0.8407558E-01
        2   -1    0    0  501    0  0.00000000000E+00  0.00000000000E+00  0.10660566119E+04  0.10660566119E+04  0.25500000920E-02 0. -1.
       -2   -1    0    0    0  501  0.00000000000E+00  0.00000000000E+00 -0.14507168286E+04  0.14507168286E+04  0.25500000920E-02 0.  1.
    10030    2    1    2    0    0  0.00000000000E+00  0.00000000000E+00 -0.38466021670E+03  0.25167734405E+04  0.24872042675E+04 0.  0.
        3    1    3    3  502    0 -0.11789197075E+04  0.86904463635E+01 -0.59278625997E+03  0.13195918917E+04  0.10100000352E+00 0. -1.
       -3    1    3    3    0  502  0.11789197075E+04 -0.86904463635E+01  0.20812604327E+03  0.11971815487E+04  0.10100000352E+00 0.  1.
</event>
<event>
 5   0  0.2331375E-05  0.2297740E+04  0.7818609E-02  0.8478813E-01
        3   -1    0    0  501    0  0.00000000000E+00  0.00000000000E+00  0.10517146671E+04  0.10517146719E+04  0.10100000352E+00 0. -1.
       -3   -1    0    0    0  501  0.00000000000E+00  0.00000000000E+00 -0.12550006649E+04  0.12550006689E+04  0.10100000352E+00 0.  1.
    10030    2    1    2    0    0  0.00000000000E+00  0.00000000000E+00 -0.20328599779E+03  0.23067153409E+04  0.22977402958E+04 0.  0.
        3    1    3    3  502    0  0.23888480843E+03  0.10006965843E+04 -0.61495518347E+03  0.11985947995E+04  0.10100000352E+00 0.  1.
       -3    1    3    3    0  502 -0.23888480843E+03 -0.10006965843E+04  0.41166918567E+03  0.11081205414E+04  0.10100000352E+00 0. -1.
</event>
<event>
 5   0  0.2980790E-05  0.2456792E+04  0.7818609E-02  0.8418542E-01
        1   -1    0    0  501    0  0.00000000000E+00  0.00000000000E+00  0.19889513869E+04  0.19889513869E+04  0.50400001928E-02 0.  1.
       -1   -1    0    0    0  501  0.00000000000E+00  0.00000000000E+00 -0.75866929013E+03  0.75866929014E+03  0.50400001928E-02 0. -1.
    10030    2    1    2    0    0  0.00000000000E+00  0.00000000000E+00  0.12302820968E+04  0.27476206771E+04  0.24567916776E+04 0.  0.
        5    1    3    3  502    0 -0.10682665292E+04  0.19004846604E+03  0.12591774360E+04  0.16621858206E+04  0.46999998093E+01 0.  1.
       -5    1    3    3    0  502  0.10682665292E+04 -0.19004846604E+03 -0.28895339211E+02  0.10854348564E+04  0.46999998093E+01 0. -1.
</event>
<event>
 5   0  0.6827859E-05  0.1638695E+04  0.7818609E-02  0.8797122E-01
        2   -1    0    0  501    0  0.00000000000E+00  0.00000000000E+00  0.49796746172E+03  0.49796746172E+03  0.25500000920E-02 0.  1.
       -2   -1    0    0    0  501  0.00000000000E+00  0.00000000000E+00 -0.13481415213E+04  0.13481415213E+04  0.25500000920E-02 0. -1.
    10030    2    1    2    0    0  0.00000000000E+00  0.00000000000E+00 -0.85017405962E+03  0.18461089831E+04  0.16386953487E+04 0.  0.
        3    1    3    3  502    0 -0.17996164339E+03  0.38612588533E+02 -0.13245501507E+04  0.13372771729E+04  0.10100000352E+00 0. -1.
       -3    1    3    3    0  502  0.17996164339E+03 -0.38612588533E+02  0.47437609109E+03  0.50883181021E+03  0.10100000352E+00 0.  1.
</event>
<event>
 5   0  0.6648328E-05  0.2324352E+04  0.7818609E-02  0.8468381E-01
       -2   -1    0    0    0  501  0.00000000000E+00  0.00000000000E+00  0.91018762847E+03  0.91018762847E+03  0.25500000920E-02 0. -1.
        2   -1    0    0  501    0  0.00000000000E+00  0.00000000000E+00 -0.14839283513E+04  0.14839283513E+04  0.25500000920E-02 0.  1.
    10030    2    1    2    0    0  0.00000000000E+00  0.00000000000E+00 -0.57374072280E+03  0.23941159797E+04  0.23243521479E+04 0.  0.
        2    1    3    3  502    0  0.75954233330E+02  0.82871100722E+03 -0.11224667333E+04  0.13973054593E+04  0.25500000920E-02 0.  1.
       -2    1    3    3    0  502 -0.75954233330E+02 -0.82871100722E+03  0.54872601054E+03  0.99681052046E+03  0.25500000920E-02 0. -1.
</event>
<event>
 5   0  0.6445331E-05  0.1627565E+04  0.7818609E-02  0.8803790E-01
       -2   -1    0    0    0  501  0.00000000000E+00  0.00000000000E+00  0.41498962278E+03  0.41498962279E+03  0.25500000920E-02 0.  1.
        2   -1    0    0  501    0  0.00000000000E+00  0.00000000000E+00 -0.15958044723E+04  0.15958044723E+04  0.25500000920E-02 0. -1.
    10030    2    1    2    0    0  0.00000000000E+00  0.00000000000E+00 -0.11808148496E+04  0.20107940951E+04  0.16275654162E+04 0.  0.
        1    1    3    3  502    0 -0.59549078183E+03  0.36048481849E+03 -0.11111858304E+04  0.13112179549E+04  0.50400001928E-02 0. -1.
       -1    1    3    3    0  502  0.59549078183E+03 -0.36048481849E+03 -0.69629019158E+02  0.69957614021E+03  0.50400001928E-02 0.  1.
</event>
<event>
 5   0  0.2977854E-05  0.2467276E+04  0.7818609E-02  0.8414737E-01
       -1   -1    0    0    0  501  0.00000000000E+00  0.00000000000E+00  0.74802479346E+03  0.74802479348E+03  0.50400001928E-02 0.  1.
        1   -1    0    0  501    0  0.00000000000E+00  0.00000000000E+00 -0.20345087099E+04  0.20345087099E+04  0.50400001928E-02 0. -1.
    10030    2    1    2    0    0  0.00000000000E+00  0.00000000000E+00 -0.12864839164E+04  0.27825335034E+04  0.24672761966E+04 0.  0.
        1    1    3    3  502    0  0.71652683867E+02  0.10440345526E+04 -0.13799484392E+04  0.17318775791E+04  0.50400001928E-02 0. -1.
       -1    1    3    3    0  502 -0.71652683867E+02 -0.10440345526E+04  0.93464522740E+02  0.10506559243E+04  0.50400001928E-02 0.  1.
</event>
<event>
 5   0  0.6909250E-05  0.2536859E+04  0.7818609E-02  0.8389971E-01
       -2   -1    0    0    0  501  0.00000000000E+00  0.00000000000E+00  0.77157872961E+03  0.77157872961E+03  0.25500000920E-02 0. -1.
        2   -1    0    0  501    0  0.00000000000E+00  0.00000000000E+00 -0.20852222635E+04  0.20852222635E+04  0.25500000920E-02 0.  1.
    10030    2    1    2    0    0  0.00000000000E+00  0.00000000000E+00 -0.13136435339E+04  0.28568009931E+04  0.25368588018E+04 0.  0.
        4    1    3    3  502    0  0.10153054582E+04  0.85750588695E+01 -0.15129620204E+04  0.18220796891E+04  0.12699999809E+01 0.  1.
       -4    1    3    3    0  502 -0.10153054582E+04 -0.85750588695E+01  0.19931848654E+03  0.10347213041E+04  0.12699999809E+01 0. -1.
</event>
<event>
 5   0  0.6909250E-05  0.2513848E+04  0.7818609E-02  0.8398069E-01
        2   -1    0    0  501    0  0.00000000000E+00  0.00000000000E+00  0.13314256234E+04  0.13314256234E+04  0.25500000920E-02 0. -1.
       -2   -1    0    0    0  501  0.00000000000E+00  0.00000000000E+00 -0.11865909486E+04  0.11865909486E+04  0.25500000920E-02 0.  1.
    10030    2    1    2    0    0  0.00000000000E+00  0.00000000000E+00  0.14483467486E+03  0.25180165720E+04  0.25138477229E+04 0.  0.
        4    1    3    3  502    0 -0.96537868547E+03  0.16869634101E+03  0.86076860985E+03  0.13043537382E+04  0.12699999809E+01 0. -1.
       -4    1    3    3    0  502  0.96537868547E+03 -0.16869634101E+03 -0.71593393499E+03  0.12136628337E+04  0.12699999809E+01 0.  1.
</event>
<event>
 5   0  0.6827859E-05  0.2495717E+04  0.7818609E-02  0.8404513E-01
       -2   -1    0    0    0  501  0.00000000000E+00  0.00000000000E+00  0.58463470249E+03  0.58463470249E+03  0.25500000920E-02 0. -1.
        2   -1    0    0  501    0  0.00000000000E+00  0.00000000000E+00 -0.26634598717E+04  0.26634598717E+04  0.25500000920E-02 0.  1.
    10030    2    1    2    0    0  0.00000000000E+00  0.00000000000E+00 -0.20788251692E+04  0.32480945742E+04  0.24957171873E+04 0.  0.
        3    1    3    3  502    0 -0.66059021920E+03 -0.10560219963E+04 -0.11367112230E+04  0.16863197530E+04  0.10100000352E+00 0.  1.
       -3    1    3    3    0  502  0.66059021920E+03  0.10560219963E+04 -0.94211394617E+03  0.15617748212E+04  0.10100000352E+00 0. -1.
</event>
<event>
 5   0  0.2896652E-05  0.2347656E+04  0.7818609E-02  0.8459365E-01
       -1   -1    0    0    0  501  0.00000000000E+00  0.00000000000E+00  0.81996362894E+03  0.81996362896E+03  0.50400001928E-02 0. -1.
        1   -1    0    0  501    0  0.00000000000E+00  0.00000000000E+00 -0.16804064065E+04  0.16804064065E+04  0.50400001928E-02 0.  1.
    10030    2    1    2    0    0  0.00000000000E+00  0.00000000000E+00 -0.86044277756E+03  0.25003700355E+04  0.23476559673E+04 0.  0.
        4    1    3    3  502    0 -0.65307269424E+03 -0.96506533988E+03 -0.58090038102E+03  0.13020376031E+04  0.12699999809E+01 0.  1.
       -4    1    3    3    0  502  0.65307269424E+03  0.96506533988E+03 -0.27954239654E+03  0.11983324324E+04  0.12699999809E+01 0. -1.
</event>
<event>
 5   0  0.2793920E-05  0.2516162E+04  0.7818609E-02  0.8397250E-01
       -1   -1    0    0    0  501  0.00000000000E+00  0.00000000000E+00  0.75507652195E+03  0.75507652197E+03  0.50400001928E-02 0.  1.
        1   -1    0    0  501    0  0.00000000000E+00  0.00000000000E+00 -0.20961693047E+04  0.20961693047E+04  0.50400001928E-02 0. -1.
    10030    2    1    2    0    0  0.00000000000E+00  0.00000000000E+00 -0.13410927827E+04  0.28512458266E+04  0.25161623382E+04 0.  0.
        2    1    3    3  502    0  0.48831967913E+03 -0.11101478007E+04 -0.29151083010E+03  0.12473422997E+04  0.25500000920E-02 0.  1.
       -2    1    3    3    0  502 -0.48831967913E+03  0.11101478007E+04 -0.10495819526E+04  0.16039035269E+04  0.25500000920E-02 0. -1.
</event>
<event>
 5   0  0.6827859E-05  0.2393426E+04  0.7818609E-02  0.8441969E-01
       -2   -1    0    0    0  501  0.00000000000E+00  0.00000000000E+00  0.15257109500E+04  0.15257109500E+04  0.25500000920E-02 0.  1.
        2   -1    0    0  501    0  0.00000000000E+00  0.00000000000E+00 -0.93865906600E+03  0.93865906600E+03  0.25500000920E-02 0. -1.
    10030    2    1    2    0    0  0.00000000000E+00  0.00000000000E+00  0.58705188400E+03  0.24643700160E+04  0.23934263434E+04 0.  0.
        3    1    3    3  502    0  0.74650131195E+03  0.58472716036E+03 -0.45814893938E+03  0.10531241720E+04  0.10100000352E+00 0. -1.
       -3    1    3    3    0  502 -0.74650131195E+03 -0.58472716036E+03  0.10452008234E+04  0.14112458440E+04  0.10100000352E+00 0.  1.
</event>
<event>
 5   0  0.6909250E-05  0.2527864E+04  0.7818609E-02  0.8393125E-01
        2   -1    0    0  501    0  0.00000000000E+00  0.00000000000E+00  0.10644714784E+04  0.10644714784E+04  0.25500000920E-02 0.  1.
       -2   -1    0    0    0  501  0.00000000000E+00  0.00000000000E+00 -0.15007677173E+04  0.15007677173E+04  0.25500000920E-02 0. -1.
    10030    2    1    2    0    0  0.00000000000E+00  0.00000000000E+00 -0.43629623883E+03  0.25652391957E+04  0.25278642612E+04 0.  0.
        4    1    3    3  502    0 -0.31293045751E+03 -0.72192645515E+03  0.78562757617E+03  0.11118972881E+04  0.12699999809E+01 0.  1.
       -4    1    3    3    0  502  0.31293045751E+03  0.72192645515E+03 -0.12219238150E+04  0.14533419076E+04  0.12699999809E+01 0. -1.
</event>
<event>
 5   0  0.6909250E-05  0.2542930E+04  0.7818609E-02  0.8387849E-01
       -2   -1    0    0    0  501  0.00000000000E+00  0.00000000000E+00  0.83326264636E+03  0.83326264636E+03  0.25500000920E-02 0.  1.
        2   -1    0    0  501    0  0.00000000000E+00  0.00000000000E+00 -0.19401118999E+04  0.19401118999E+04  0.25500000920E-02 0. -1.
    10030    2    1    2    0    0  0.00000000000E+00  0.00000000000E+00 -0.11068492536E+04  0.27733745463E+04  0.25429296302E+04 0.  0.
        4    1    3    3  502    0  0.57734225696E+02 -0.48400143792E+03  0.72731581579E+03  0.87554585347E+03  0.12699999809E+01 0.  1.
       -4    1    3    3    0  502 -0.57734225696E+02  0.48400143792E+03 -0.18341650694E+04  0.18978286928E+04  0.12699999809E+01 0. -1.
</event>
<event>
 5   0  0.2777539E-05  0.2497068E+04  0.7818609E-02  0.8404031E-01
        1   -1    0    0  501    0  0.00000000000E+00  0.00000000000E+00  0.20300416657E+04  0.20300416657E+04  0.50400001928E-02 0. -1.
       -1   -1    0    0    0  501  0.00000000000E+00  0.00000000000E+00 -0.76788410951E+03  0.76788410952E+03  0.50400001928E-02 0.  1.
    10030    2    1    2    0    0  0.00000000000E+00  0.00000000000E+00  0.12621575562E+04  0.27979257752E+04  0.24970676697E+04 0.  0.
        3    1    3    3  502    0 -0.85211670193E+03  0.52960333893E+03  0.14637534870E+04  0.17745863888E+04  0.10100000352E+00 0. -1.
       -3    1    3    3    0  502  0.85211670193E+03 -0.52960333893E+03 -0.20159593082E+03  0.10233393864E+04  0.10100000352E+00 0.  1.
</event>
<event>
 5   0  0.2977854E-05  0.2260224E+04  0.7818609E-02  0.8493772E-01
        1   -1    0    0  501    0  0.00000000000E+00  0.00000000000E+00  0.18792852223E+04  0.18792852223E+04  0.50400001928E-02 0. -1.
       -1   -1    0    0    0  501  0.00000000000E+00  0.00000000000E+00 -0.67959497605E+03  0.67959497607E+03  0.50400001928E-02 0.  1.
    10030    2    1    2    0    0  0.00000000000E+00  0.00000000000E+00  0.11996902463E+04  0.25588801984E+04  0.22602237019E+04 0.  0.
        1    1    3    3  502    0 -0.22754894185E+03  0.10530325715E+04  0.98626130020E+03  0.14606051725E+04  0.50400001928E-02 0. -1.
       -1    1    3    3    0  502  0.22754894185E+03 -0.10530325715E+04  0.21342894609E+03  0.10982750259E+04  0.50400001928E-02 0.  1.
</event>
<event>
 5   0  0.2793920E-05  0.2421211E+04  0.7818609E-02  0.8431605E-01
        1   -1    0    0  501    0  0.00000000000E+00  0.00000000000E+00  0.16663046377E+04  0.16663046377E+04  0.50400001928E-02 0.  1.
       -1   -1    0    0    0  501  0.00000000000E+00  0.00000000000E+00 -0.87953075029E+03  0.87953075030E+03  0.50400001928E-02 0. -1.
    10030    2    1    2    0    0  0.00000000000E+00  0.00000000000E+00  0.78677388740E+03  0.25458353880E+04  0.24212114061E+04 0.  0.
        2    1    3    3  502    0 -0.73297786619E+03 -0.56663953879E+03  0.12127454167E+04  0.15261351070E+04  0.25500000920E-02 0.  1.
       -2    1    3    3    0  502  0.73297786619E+03  0.56663953879E+03 -0.42597152928E+03  0.10197002810E+04  0.25500000920E-02 0. -1.
</event>
<event>
 5   0  0.6445331E-05  0.2407141E+04  0.7818609E-02  0.8436835E-01
        2   -1    0    0  501    0  0.00000000000E+00  0.00000000000E+00  0.16589684981E+04  0.16589684981E+04  0.25500000920E-02 0. -1.
       -2   -1    0    0    0  501  0.00000000000E+00  0.00000000000E+00 -0.87318229890E+03  0.87318229890E+03  0.25500000920E-02 0.  1.
    10030    2    1    2    0    0  0.00000000000E+00  0.00000000000E+00  0.78578619918E+03  0.25321507970E+04  0.24071409821E+04 0.  0.
        1    1    3    3  502    0  0.83873512632E+03 -0.70185536159E+03  0.92148741071E+03  0.14301106981E+04  0.50400001928E-02 0. -1.
       -1    1    3    3    0  502 -0.83873512632E+03  0.70185536159E+03 -0.13570121153E+03  0.11020400989E+04  0.50400001928E-02 0.  1.
</event>
<event>
 5   0  0.6909250E-05  0.2525550E+04  0.7818609E-02  0.8393939E-01
        2   -1    0    0  501    0  0.00000000000E+00  0.00000000000E+00  0.87238890942E+03  0.87238890943E+03  0.25500000920E-02 0. -1.
       -2   -1    0    0    0  501  0.00000000000E+00  0.00000000000E+00 -0.18278558802E+04  0.18278558802E+04  0.25500000920E-02 0.  1.
    10030    2    1    2    0    0  0.00000000000E+00  0.00000000000E+00 -0.95546697074E+03  0.27002447896E+04  0.25255503938E+04 0.  0.
        4    1    3    3  502    0 -0.10037872897E+04  0.76550382276E+03 -0.44367809865E+03  0.13380720809E+04  0.12699999809E+01 0. -1.
       -4    1    3    3    0  502  0.10037872897E+04 -0.76550382276E+03 -0.51178887209E+03  0.13621727086E+04  0.12699999809E+01 0.  1.
</event>
<event>
 5   0  0.2980790E-05  0.2297926E+04  0.7818609E-02  0.8478739E-01
        1   -1    0    0  501    0  0.00000000000E+00  0.00000000000E+00  0.13766216389E+04  0.13766216390E+04  0.50400001928E-02 0.  1.
       -1   -1    0    0    0  501  0.00000000000E+00  0.00000000000E+00 -0.95895363589E+03  0.95895363590E+03  0.50400001928E-02 0. -1.
    10030    2    1    2    0    0  0.00000000000E+00  0.00000000000E+00  0.41766800305E+03  0.23355752749E+04  0.22979263051E+04 0.  0.
        5    1    3    3  502    0 -0.66618327949E+03  0.93448757676E+03  0.26475398875E+03  0.11777877387E+04  0.46999998093E+01 0.  1.
       -5    1    3    3    0  502  0.66618327949E+03 -0.93448757676E+03  0.15291401430E+03  0.11577875361E+04  0.46999998093E+01 0. -1.
</event>
<event>
 5   0  0.6445331E-05  0.2514288E+04  0.7818609E-02  0.8397913E-01
        2   -1    0    0  501    0  0.00000000000E+00  0.00000000000E+00  0.19518921422E+04  0.19518921422E+04  0.25500000920E-02 0.  1.
       -2   -1    0    0    0  501  0.00000000000E+00  0.00000000000E+00 -0.80968140447E+03  0.80968140447E+03  0.25500000920E-02 0. -1.
    10030    2    1    2    0    0  0.00000000000E+00  0.00000000000E+00  0.11422107378E+04  0.27615735467E+04  0.25142877887E+04 0.  0.
        1    1    3    3  502    0  0.17908052995E+01 -0.85904018565E+03  0.15792332696E+04  0.17977572048E+04  0.50400001928E-02 0.  1.
       -1    1    3    3    0  502 -0.17908052995E+01  0.85904018565E+03 -0.43702253185E+03  0.96381634190E+03  0.50400001928E-02 0. -1.
</event>
<event>
 5   0  0.2777539E-05  0.1839613E+04  0.7818609E-02  0.8685513E-01
        1   -1    0    0  501    0  0.00000000000E+00  0.00000000000E+00  0.88178920598E+03  0.88178920599E+03  0.50400001928E-02 0.  1.
       -1   -1    0    0    0  501  0.00000000000E+00  0.00000000000E+00 -0.95946296742E+03  0.95946296744E+03  0.50400001928E-02 0. -1.
    10030    2    1    2    0    0  0.00000000000E+00  0.00000000000E+00 -0.77673761445E+02  0.18412521734E+04  0.18396130987E+04 0.  0.
        3    1    3    3  502    0  0.61739755111E+03 -0.63650543457E+03  0.20576820921E+03  0.91030734946E+03  0.10100000352E+00 0.  1.
       -3    1    3    3    0  502 -0.61739755111E+03  0.63650543457E+03 -0.28344197065E+03  0.93094482397E+03  0.10100000352E+00 0. -1.
</event>
<event>
 5   0  0.2980790E-05  0.1552324E+04  0.7818609E-02  0.8850385E-01
        1   -1    0    0  501    0  0.00000000000E+00  0.00000000000E+00  0.10745187959E+04  0.10745187960E+04  0.50400001928E-02 0. -1.
       -1   -1    0    0    0  501  0.00000000000E+00  0.00000000000E+00 -0.56064849498E+03  0.56064849500E+03  0.50400001928E-02 0.  1.
    10030    2    1    2    0    0  0.00000000000E+00  0.00000000000E+00  0.51387030097E+03  0.16351672910E+04  0.15523238654E+04 0.  0.
        5    1    3    3  502    0  0.59240837407E+03  0.10220646081E+03  0.77406387479E+03  0.98009734953E+03  0.46999998093E+01 0. -1.
       -5    1    3    3    0  502 -0.59240837407E+03 -0.10220646081E+03 -0.26019357383E+03  0.65506994143E+03  0.46999998093E+01 0.  1.
</event>
<event>
 5   0  0.2980790E-05  0.2476309E+04  0.7818609E-02  0.8411475E-01
        1   -1    0    0  501    0  0.00000000000E+00  0.00000000000E+00  0.14320025447E+04  0.14320025447E+04  0.50400001928E-02 0.  1.
       -1   -1    0    0    0  501  0.00000000000E+00  0.00000000000E+00 -0.10705470303E+04  0.10705470303E+04  0.50400001928E-02 0. -1.
    10030    2    1    2    0    0  0.00000000000E+00  0.00000000000E+00  0.36145551447E+03  0.25025495750E+04  0.24763086008E+04 0.  0.
        5    1    3    3  502    0  0.48616961227E+03 -0.10133369206E+04  0.70564634805E+03  0.13270913552E+04  0.46999998093E+01 0.  1.
       -5    1    3    3    0  502 -0.48616961227E+03  0.10133369206E+04 -0.34419083358E+03  0.11754582198E+04  0.46999998093E+01 0. -1.
</event>
<event>
 5   0  0.2331375E-05  0.2467540E+04  0.7818609E-02  0.8414642E-01
       -4   -1    0    0    0  501  0.00000000000E+00  0.00000000000E+00  0.88487692741E+03  0.88487783878E+03  0.12699999809E+01 0.  1.
        4   -1    0    0  501    0  0.00000000000E+00  0.00000000000E+00 -0.17202238578E+04  0.17202243266E+04  0.12699999809E+01 0. -1.
    10030    2    1    2    0    0  0.00000000000E+00  0.00000000000E+00 -0.83534693036E+03  0.26051021654E+04  0.24675398270E+04 0.  0.
        2    1    3    3  502    0 -0.50851964840E+03 -0.10188363448E+04 -0.91909130897E+03  0.14633347411E+04  0.25500000920E-02 0. -1.
       -2    1    3    3    0  502  0.50851964840E+03  0.10188363448E+04  0.83744378605E+02  0.11417674243E+04  0.25500000920E-02 0.  1.
</event>
<event>
 5   0  0.7071821E-05  0.2498288E+04  0.7818609E-02  0.8403596E-01
       -2   -1    0    0    0  501  0.00000000000E+00  0.00000000000E+00  0.11532920956E+04  0.11532920956E+04  0.25500000920E-02 0.  1.
        2   -1    0    0  501    0  0.00000000000E+00  0.00000000000E+00 -0.13529622948E+04  0.13529622948E+04  0.25500000920E-02 0. -1.
    10030    2    1    2    0    0  0.00000000000E+00  0.00000000000E+00 -0.19967019917E+03  0.25062543904E+04  0.24982879900E+04 0.  0.
        5    1    3    3  502    0 -0.68354502261E+03  0.99567272464E+03 -0.41982032117E+03  0.12786200235E+04  0.46999998093E+01 0. -1.
       -5    1    3    3    0  502  0.68354502261E+03 -0.99567272464E+03  0.22015012200E+03  0.12276343669E+04  0.46999998093E+01 0.  1.
</event>
<event>
 5   0  0.6648328E-05  0.2564914E+04  0.7818609E-02  0.8380218E-01
       -2   -1    0    0    0  501  0.00000000000E+00  0.00000000000E+00  0.93299235996E+03  0.93299235996E+03  0.25500000920E-02 0. -1.
        2   -1    0    0  501    0  0.00000000000E+00  0.00000000000E+00 -0.17628179073E+04  0.17628179073E+04  0.25500000920E-02 0.  1.
    10030    2    1    2    0    0  0.00000000000E+00  0.00000000000E+00 -0.82982554732E+03  0.26958102672E+04  0.25649137525E+04 0.  0.
        2    1    3    3  502    0 -0.11348942025E+04 -0.23045492592E+02  0.21235234107E+03  0.11548200996E+04  0.25500000920E-02 0. -1.
       -2    1    3    3    0  502  0.11348942025E+04  0.23045492592E+02 -0.10421778884E+04  0.15409901676E+04  0.25500000920E-02 0.  1.
</event>
<event>
 5   0  0.2977854E-05  0.2539129E+04  0.7818609E-02  0.8389177E-01
        1   -1    0    0  501    0  0.00000000000E+00  0.00000000000E+00  0.98684703294E+03  0.98684703295E+03  0.50400001928E-02 0. -1.
       -1   -1    0    0    0  501  0.00000000000E+00  0.00000000000E+00 -0.16332760374E+04  0.16332760375E+04  0.50400001928E-02 0.  1.
    10030    2    1    2    0    0  0.00000000000E+00  0.00000000000E+00 -0.64642900451E+03  0.26201230704E+04  0.25391286785E+04 0.  0.
        1    1    3    3  502    0  0.51270267909E+03 -0.10079125379E+03 -0.15171753330E+04  0.16046320155E+04  0.50400001928E-02 0.  1.
       -1    1    3    3    0  502 -0.51270267909E+03  0.10079125379E+03  0.87074632851E+03  0.10154910549E+04  0.50400001928E-02 0. -1.
</event>
<event>
 5   0  0.7071821E-05  0.2470139E+04  0.7818609E-02  0.8413702E-01
       -2   -1    0    0    0  501  0.00000000000E+00  0.00000000000E+00  0.12999295514E+04  0.12999295514E+04  0.25500000920E-02 0.  1.
        2   -1    0    0  501    0  0.00000000000E+00  0.00000000000E+00 -0.11734451814E+04  0.11734451814E+04  0.25500000920E-02 0. -1.
    10030    2    1    2    0    0  0.00000000000E+00  0.00000000000E+00  0.12648437002E+03  0.24733747327E+04  0.24701385128E+04 0.  0.
        5    1    3    3  502    0 -0.29564854089E+02  0.98838551006E+03  0.80420761421E+03  0.12745791360E+04  0.46999998093E+01 0.  1.
       -5    1    3    3    0  502  0.29564854089E+02 -0.98838551006E+03 -0.67772324419E+03  0.11987955968E+04  0.46999998093E+01 0. -1.
</event>
<event>
 5   0  0.2980790E-05  0.2461609E+04  0.7818609E-02  0.8416792E-01
        1   -1    0    0  501    0  0.00000000000E+00  0.00000000000E+00  0.15444621261E+04  0.15444621261E+04  0.50400001928E-02 0. -1.
       -1   -1    0    0    0  501  0.00000000000E+00  0.00000000000E+00 -0.98084578327E+03  0.98084578328E+03  0.50400001928E-02 0.  1.
    10030    2    1    2    0    0  0.00000000000E+00  0.00000000000E+00  0.56361634281E+03  0.25253079094E+04  0.24616085504E+04 0.  0.
        5    1    3    3  502    0 -0.73392068500E+03  0.27816236843E+03  0.12544150025E+04  0.14797273274E+04  0.46999998093E+01 0. -1.
       -5    1    3    3    0  502  0.73392068500E+03 -0.27816236843E+03 -0.69079865968E+03  0.10455805819E+04  0.46999998093E+01 0.  1.
</event>
<event>
 5   0  0.6827859E-05  0.2539207E+04  0.7818609E-02  0.8389149E-01
        2   -1    0    0  501    0  0.00000000000E+00  0.00000000000E+00  0.24729398827E+04  0.24729398827E+04  0.25500000920E-02 0.  1.
       -2   -1    0    0    0  501  0.00000000000E+00  0.00000000000E+00 -0.65181267544E+03  0.65181267544E+03  0.25500000920E-02 0. -1.
    10030    2    1    2    0    0  0.00000000000E+00  0.00000000000E+00  0.18211272073E+04  0.31247525582E+04  0.25392074048E+04 0.  0.
        3    1    3    3  502    0 -0.11171230661E+04 -0.55144893988E+03  0.12115800938E+04  0.17378107526E+04  0.10100000352E+00 0.  1.
       -3    1    3    3    0  502  0.11171230661E+04  0.55144893988E+03  0.60954711351E+03  0.13869418055E+04  0.10100000352E+00 0. -1.
</event>
<event>
 5   0  0.7071821E-05  0.2433699E+04  0.7818609E-02  0.8426994E-01
        2   -1    0    0  501    0  0.00000000000E+00  0.00000000000E+00  0.19511803456E+04  0.19511803456E+04  0.25500000920E-02 0. -1.
       -2   -1    0    0    0  501  0.00000000000E+00  0.00000000000E+00 -0.75888545691E+03  0.75888545692E+03  0.25500000920E-02 0.  1.
    10030    2    1    2    0    0  0.00000000000E+00  0.00000000000E+00  0.11922948887E+04  0.27100658025E+04  0.24336987391E+04 0.  0.
        5    1    3    3  502    0 -0.62631492250E+03 -0.54813837323E+03  0.15846300442E+04  0.17899163459E+04  0.46999998093E+01 0. -1.
       -5    1    3    3    0  502  0.62631492250E+03  0.54813837323E+03 -0.39233515548E+03  0.92014945665E+03  0.46999998093E+01 0.  1.
</event>
<event>
 5   0  0.2896652E-05  0.2516725E+04  0.7818609E-02  0.8397051E-01
        1   -1    0    0  501    0  0.00000000000E+00  0.00000000000E+00  0.15802347404E+04  0.15802347405E+04  0.50400001928E-02 0.  1.
       -1   -1    0    0    0  501  0.00000000000E+00  0.00000000000E+00 -0.10020510517E+04  0.10020510517E+04  0.50400001928E-02 0. -1.
    10030    2    1    2    0    0  0.00000000000E+00  0.00000000000E+00  0.57818368876E+03  0.25822857921E+04  0.25167247633E+04 0.  0.
        4    1    3    3  502    0 -0.40734239772E+02  0.88232977863E+03  0.12087150917E+04  0.14970500668E+04  0.12699999809E+01 0. -1.
       -4    1    3    3    0  502  0.40734239772E+02 -0.88232977863E+03 -0.63053140298E+03  0.10852357254E+04  0.12699999809E+01 0.  1.
</event>
<event>
 5   0  0.6827859E-05  0.2546217E+04  0.7818609E-02  0.8386703E-01
        2   -1    0    0  501    0  0.00000000000E+00  0.00000000000E+00  0.26070456179E+04  0.26070456179E+04  0.25500000920E-02 0. -1.
       -2   -1    0    0    0  501  0.00000000000E+00  0.00000000000E+00 -0.62170209527E+03  0.62170209527E+03  0.25500000920E-02 0.  1.
    10030    2    1    2    0    0  0.00000000000E+00  0.00000000000E+00  0.19853435227E+04  0.32287477132E+04  0.25462173695E+04 0.  0.
        3    1    3    3  502    0 -0.10875565499E+04 -0.57265489927E+03  0.57192754678E+03  0.13556599913E+04  0.10100000352E+00 0. -1.
       -3    1    3    3    0  502  0.10875565499E+04  0.57265489927E+03  0.14134159759E+04  0.18730877219E+04  0.10100000352E+00 0.  1.
</event>
<event>
 5   0  0.6648328E-05  0.2399269E+04  0.7818609E-02  0.8439777E-01
       -2   -1    0    0    0  501  0.00000000000E+00  0.00000000000E+00  0.45761840295E+03  0.45761840296E+03  0.25500000920E-02 0.  1.
        2   -1    0    0  501    0  0.00000000000E+00  0.00000000000E+00 -0.31448110694E+04  0.31448110694E+04  0.25500000920E-02 0. -1.
    10030    2    1    2    0    0  0.00000000000E+00  0.00000000000E+00 -0.26871926664E+04  0.36024294723E+04  0.23992694048E+04 0.  0.
        2    1    3    3  502    0  0.22778227609E+03 -0.10321501460E+03  0.41804721318E+03  0.48713609699E+03  0.25500000920E-02 0.  1.
       -2    1    3    3    0  502 -0.22778227609E+03  0.10321501460E+03 -0.31052398796E+04  0.31152933753E+04  0.25500000920E-02 0. -1.
</event>
<event>
 5   0  0.6909250E-05  0.2497991E+04  0.7818609E-02  0.8403702E-01
        2   -1    0    0  501    0  0.00000000000E+00  0.00000000000E+00  0.20991453806E+04  0.20991453806E+04  0.25500000920E-02 0. -1.
       -2   -1    0    0    0  501  0.00000000000E+00  0.00000000000E+00 -0.74315451230E+03  0.74315451231E+03  0.25500000920E-02 0.  1.
    10030    2    1    2    0    0  0.00000000000E+00  0.00000000000E+00  0.13559908683E+04  0.28422998929E+04  0.24979906818E+04 0.  0.
        4    1    3    3  502    0  0.89690063294E+03  0.10501494251E+03 -0.30379739247E+03  0.95276091024E+03  0.12699999809E+01 0.  1.
       -4    1    3    3    0  502 -0.89690063294E+03 -0.10501494251E+03  0.16597882608E+04  0.18895389827E+04  0.12699999809E+01 0. -1.
</event>
<event>
 5   0  0.6827859E-05  0.2763712E+04  0.7818609E-02  0.8314624E-01
        2   -1    0    0  501    0  0.00000000000E+00  0.00000000000E+00  0.11219319178E+04  0.11219319178E+04  0.25500000920E-02 0.  1.
       -2   -1    0    0    0  501  0.00000000000E+00  0.00000000000E+00 -0.17019977704E+04  0.17019977704E+04  0.25500000920E-02 0. -1.
    10030    2    1    2    0    0  0.00000000000E+00  0.00000000000E+00 -0.58006585260E+03  0.28239296882E+04  0.27637117235E+04 0.  0.
        3    1    3    3  502    0  0.64025045751E+03  0.10338009062E+04 -0.96073485436E+03  0.15497343103E+04  0.10100000352E+00 0.  1.
       -3    1    3    3    0  502 -0.64025045751E+03 -0.10338009062E+04  0.38066900175E+03  0.12741953779E+04  0.10100000352E+00 0. -1.
</event>
<event>
 5   0  0.6445331E-05  0.2518608E+04  0.7818609E-02  0.8396386E-01
        2   -1    0    0  501    0  0.00000000000E+00  0.00000000000E+00  0.20390536547E+04  0.20390536547E+04  0.25500000920E-02 0. -1.
       -2   -1    0    0    0  501  0.00000000000E+00  0.00000000000E+00 -0.77773633808E+03  0.77773633808E+03  0.25500000920E-02 0.  1.
    10030    2    1    2    0    0  0.00000000000E+00  0.00000000000E+00  0.12613173166E+04  0.28167899928E+04  0.25186076491E+04 0.  0.
        1    1    3    3  502    0  0.84148100326E+03 -0.75398949814E+03  0.12526048228E+04  0.16868933826E+04  0.50400001928E-02 0. -1.
       -1    1    3    3    0  502 -0.84148100326E+03  0.75398949814E+03  0.87124938445E+01  0.11298966102E+04  0.50400001928E-02 0.  1.
</event>
<event>
 5   0  0.6445331E-05  0.2340557E+04  0.7818609E-02  0.8462100E-01
       -2   -1    0    0    0  501  0.00000000000E+00  0.00000000000E+00  0.83968338253E+03  0.83968338253E+03  0.25500000920E-02 0.  1.
        2   -1    0    0  501    0  0.00000000000E+00  0.00000000000E+00 -0.16310332849E+04  0.16310332849E+04  0.25500000920E-02 0. -1.
    10030    2    1    2    0    0  0.00000000000E+00  0.00000000000E+00 -0.79134990237E+03  0.24707166674E+04  0.23405568104E+04 0.  0.
        1    1    3    3  502    0 -0.11202645106E+04  0.28337943639E+03 -0.59104868122E+03  0.12979349068E+04  0.50400001928E-02 0. -1.
       -1    1    3    3    0  502  0.11202645106E+04 -0.28337943639E+03 -0.20030122114E+03  0.11727817606E+04  0.50400001928E-02 0.  1.
</event>
<event>
 5   0  0.2977854E-05  0.2265085E+04  0.7818609E-02  0.8491816E-01
        1   -1    0    0  501    0  0.00000000000E+00  0.00000000000E+00  0.20617804273E+04  0.20617804273E+04  0.50400001928E-02 0.  1.
       -1   -1    0    0    0  501  0.00000000000E+00  0.00000000000E+00 -0.62210919195E+03  0.62210919198E+03  0.50400001928E-02 0. -1.
    10030    2    1    2    0    0  0.00000000000E+00  0.00000000000E+00  0.14396712354E+04  0.26838896193E+04  0.22650850365E+04 0.  0.
        1    1    3    3  502    0  0.18623095694E+03  0.83023500359E+03  0.16054850875E+04  0.18170180232E+04  0.50400001928E-02 0.  1.
       -1    1    3    3    0  502 -0.18623095694E+03 -0.83023500359E+03 -0.16581385213E+03  0.86687159608E+03  0.50400001928E-02 0. -1.
</event>
<event>
 5   0  0.2793920E-05  0.2493470E+04  0.7818609E-02  0.8405316E-01
       -1   -1    0    0    0  501  0.00000000000E+00  0.00000000000E+00  0.10812943143E+04  0.10812943143E+04  0.50400001928E-02 0.  1.
        1   -1    0    0  501    0  0.00000000000E+00  0.00000000000E+00 -0.14374882263E+04  0.14374882263E+04  0.50400001928E-02 0. -1.
    10030    2    1    2    0    0  0.00000000000E+00  0.00000000000E+00 -0.35619391197E+03  0.25187825407E+04  0.24934697480E+04 0.  0.
        2    1    3    3  502    0  0.11922368050E+04  0.15120798911E+03 -0.51321069307E+03  0.13067814166E+04  0.25500000920E-02 0. -1.
       -2    1    3    3    0  502 -0.11922368050E+04 -0.15120798911E+03  0.15701678110E+03  0.12120011241E+04  0.25500000920E-02 0.  1.
</event>
<event>
 5   0  0.6445331E-05  0.1961285E+04  0.7818609E-02  0.8624938E-01
        2   -1    0    0  501    0  0.00000000000E+00  0.00000000000E+00  0.14229384598E+04  0.14229384598E+04  0.25500000920E-02 0.  1.
       -2   -1    0    0    0  501  0.00000000000E+00  0.00000000000E+00 -0.67582689971E+03  0.67582689972E+03  0.25500000920E-02 0. -1.
    10030    2    1    2    0    0  0.00000000000E+00  0.00000000000E+00  0.74711156010E+03  0.20987653595E+04  0.19612853824E+04 0.  0.
        1    1    3    3  502    0  0.81839726977E+03  0.13341389158E+03 -0.18667517389E+03  0.84995351532E+03  0.50400001928E-02 0. -1.
       -1    1    3    3    0  502 -0.81839726977E+03 -0.13341389158E+03  0.93378673398E+03  0.12488118442E+04  0.50400001928E-02 0.  1.
</event>
<event>
 5   0  0.2980790E-05  0.2478794E+04  0.7818609E-02  0.8410579E-01
        1   -1    0    0  501    0  0.00000000000E+00  0.00000000000E+00  0.19065830790E+04  0.19065830790E+04  0.50400001928E-02 0. -1.
       -1   -1    0    0    0  501  0.00000000000E+00  0.00000000000E+00 -0.80568481174E+03  0.80568481175E+03  0.50400001928E-02 0.  1.
    10030    2    1    2    0    0  0.00000000000E+00  0.00000000000E+00  0.11008982673E+04  0.27122678908E+04  0.24787940851E+04 0.  0.
        5    1    3    3  502    0 -0.63038309870E+03 -0.10005107472E+04  0.95644810233E+03  0.15209272398E+04  0.46999998093E+01 0. -1.
       -5    1    3    3    0  502  0.63038309870E+03  0.10005107472E+04  0.14445016495E+03  0.11913406509E+04  0.46999998093E+01 0.  1.
</event>
<event>
 5   0  0.7071821E-05  0.2822859E+04  0.7818609E-02  0.8296206E-01
        2   -1    0    0  501    0  0.00000000000E+00  0.00000000000E+00  0.19566816663E+04  0.19566816663E+04  0.25500000920E-02 0.  1.
       -2   -1    0    0    0  501  0.00000000000E+00  0.00000000000E+00 -0.10181185089E+04  0.10181185089E+04  0.25500000920E-02 0. -1.
    10030    2    1    2    0    0  0.00000000000E+00  0.00000000000E+00  0.93856315737E+03  0.29748001752E+04  0.28228594159E+04 0.  0.
        5    1    3    3  502    0  0.75346672220E+03  0.83930622754E+03  0.13634599190E+04  0.17695174726E+04  0.46999998093E+01 0.  1.
       -5    1    3    3    0  502 -0.75346672220E+03 -0.83930622754E+03 -0.42489676167E+03  0.12052827026E+04  0.46999998093E+01 0. -1.
</event>
<event>
 5   0  0.2777539E-05  0.2490597E+04  0.7818609E-02  0.8406343E-01
       -1   -1    0    0    0  501  0.00000000000E+00  0.00000000000E+00  0.11676941995E+04  0.11676941995E+04  0.50400001928E-02 0. -1.
        1   -1    0    0  501    0  0.00000000000E+00  0.00000000000E+00 -0.13280600698E+04  0.13280600698E+04  0.50400001928E-02 0.  1.
    10030    2    1    2    0    0  0.00000000000E+00  0.00000000000E+00 -0.16036587029E+03  0.24957542694E+04  0.24905967479E+04 0.  0.
        3    1    3    3  502    0 -0.26775585500E+02  0.12395594854E+04 -0.19679995542E+03  0.12553704165E+04  0.10100000352E+00 0. -1.
       -3    1    3    3    0  502  0.26775585500E+02 -0.12395594854E+04  0.36434085134E+02  0.12403838529E+04  0.10100000352E+00 0.  1.
</event>
<event>
 5   0  0.6648328E-05  0.2360156E+04  0.7818609E-02  0.8454573E-01
       -2   -1    0    0    0  501  0.00000000000E+00  0.00000000000E+00  0.16551557977E+04  0.16551557977E+04  0.25500000920E-02 0. -1.
        2   -1    0    0  501    0  0.00000000000E+00  0.00000000000E+00 -0.84136129413E+03  0.84136129414E+03  0.25500000920E-02 0.  1.
    10030    2    1    2    0    0  0.00000000000E+00  0.00000000000E+00  0.81379450359E+03  0.24965170919E+04  0.23601559474E+04 0.  0.
        2    1    3    3  502    0 -0.22582115867E+03 -0.89614734830E+03 -0.36933240117E+03  0.99522946507E+03  0.25500000920E-02 0.  1.
       -2    1    3    3    0  502  0.22582115867E+03  0.89614734830E+03  0.11831269048E+04  0.15012876268E+04  0.25500000920E-02 0. -1.
</event>
<event>
 5   0  0.2896652E-05  0.2446556E+04  0.7818609E-02  0.8422276E-01
       -1   -1    0    0    0  501  0.00000000000E+00  0.00000000000E+00  0.11223071574E+04  0.11223071574E+04  0.50400001928E-02 0.  1.
        1   -1    0    0  501    0  0.00000000000E+00  0.00000000000E+00 -0.13333331075E+04  0.13333331075E+04  0.50400001928E-02 0. -1.
    10030    2    1    2    0    0  0.00000000000E+00  0.00000000000E+00 -0.21102595016E+03  0.24556402649E+04  0.24465561835E+04 0.  0.
        4    1    3    3  502    0  0.45432300690E+03 -0.84735397045E+03 -0.86462101715E+03  0.12930542379E+04  0.12699999809E+01 0. -1.
       -4    1    3    3    0  502 -0.45432300690E+03  0.84735397045E+03  0.65359506699E+03  0.11625860271E+04  0.12699999809E+01 0.  1.
</event>
<event>
 5   0  0.2980790E-05  0.2015464E+04  0.7818609E-02  0.8599425E-01
        1   -1    0    0  501    0  0.00000000000E+00  0.00000000000E+00  0.15844331303E+04  0.15844331303E+04  0.50400001928E-02 0. -1.
       -1   -1    0    0    0  501  0.00000000000E+00  0.00000000000E+00 -0.64093846193E+03  0.64093846195E+03  0.50400001928E-02 0.  1.
    10030    2    1    2    0    0  0.00000000000E+00  0.00000000000E+00  0.94349466837E+03  0.22253715923E+04  0.20154643471E+04 0.  0.
        5    1    3    3  502    0  0.53613114725E+03  0.66070544262E+03 -0.12442503339E+03  0.85992555951E+03  0.46999998093E+01 0.  1.
       -5    1    3    3    0  502 -0.53613114725E+03 -0.66070544262E+03  0.10679197018E+04  0.13654460328E+04  0.46999998093E+01 0. -1.
</event>
<event>
 5   0  0.2977854E-05  0.2520267E+04  0.7818609E-02  0.8395801E-01
       -1   -1    0    0    0  501  0.00000000000E+00  0.00000000000E+00  0.69147899391E+03  0.69147899393E+03  0.50400001928E-02 0. -1.
        1   -1    0    0  501    0  0.00000000000E+00  0.00000000000E+00 -0.22964352410E+04  0.22964352410E+04  0.50400001928E-02 0.  1.
    10030    2    1    2    0    0  0.00000000000E+00  0.00000000000E+00 -0.16049562471E+04  0.29879142349E+04  0.25202672319E+04 0.  0.
        1    1    3    3  502    0 -0.42253939600E+03 -0.38781687901E+03  0.52777283804E+03  0.77941365232E+03  0.50400001928E-02 0. -1.
       -1    1    3    3    0  502  0.42253939600E+03  0.38781687901E+03 -0.21327290851E+04  0.22085005826E+04  0.50400001928E-02 0.  1.
</event>
<event>
 5   0  0.2793920E-05  0.2433043E+04  0.7818609E-02  0.8427235E-01
        1   -1    0    0  501    0  0.00000000000E+00  0.00000000000E+00  0.95674327759E+03  0.95674327761E+03  0.50400001928E-02 0. -1.
       -1   -1    0    0    0  501  0.00000000000E+00  0.00000000000E+00 -0.15468360088E+04  0.15468360088E+04  0.50400001928E-02 0.  1.
    10030    2    1    2    0    0  0.00000000000E+00  0.00000000000E+00 -0.59009273124E+03  0.25035792864E+04  0.24330433231E+04 0.  0.
        2    1    3    3  502    0  0.77961704141E+03 -0.47142638614E+03  0.53447559465E+03  0.10562716176E+04  0.25500000920E-02 0. -1.
       -2    1    3    3    0  502 -0.77961704141E+03  0.47142638614E+03 -0.11245683259E+04  0.14473076689E+04  0.25500000920E-02 0.  1.
</event>
<event>
 5   0  0.6827859E-05  0.2534076E+04  0.7818609E-02  0.8390945E-01
        2   -1    0    0  501    0  0.00000000000E+00  0.00000000000E+00  0.59627563536E+03  0.59627563537E+03  0.25500000920E-02 0. -1.
       -2   -1    0    0    0  501  0.00000000000E+00  0.00000000000E+00 -0.26923545286E+04  0.26923545286E+04  0.25500000920E-02 0.  1.
    10030    2    1    2    0    0  0.00000000000E+00  0.00000000000E+00 -0.20960788932E+04  0.32886301639E+04  0.25340760897E+04 0.  0.
        3    1    3    3  502    0  0.28470194209E+03 -0.30559295250E+03  0.50437106424E+03  0.65485298281E+03  0.10100000352E+00 0. -1.
       -3    1    3    3    0  502 -0.28470194209E+03  0.30559295250E+03 -0.26004499574E+04  0.26337771811E+04  0.10100000352E+00 0.  1.
</event>
<event>
 5   0  0.6445331E-05  0.2663545E+04  0.7818609E-02  0.8346931E-01
        2   -1    0    0  501    0  0.00000000000E+00  0.00000000000E+00  0.15421612118E+04  0.15421612118E+04  0.25500000920E-02 0. -1.
       -2   -1    0    0    0  501  0.00000000000E+00  0.00000000000E+00 -0.11500864024E+04  0.11500864024E+04  0.25500000920E-02 0.  1.
    10030    2    1    2    0    0  0.00000000000E+00  0.00000000000E+00  0.39207480938E+03  0.26922476142E+04  0.26635454868E+04 0.  0.
        1    1    3    3  502    0 -0.17651364231E+03 -0.11302836700E+04  0.88523568324E+03  0.14464924665E+04  0.50400001928E-02 0. -1.
       -1    1    3    3    0  502  0.17651364231E+03  0.11302836700E+04 -0.49316087386E+03  0.12457551478E+04  0.50400001928E-02 0.  1.
</event>
<event>
 5   0  0.2793920E-05  0.2494941E+04  0.7818609E-02  0.8404790E-01
        1   -1    0    0  501    0  0.00000000000E+00  0.00000000000E+00  0.12463400857E+04  0.12463400857E+04  0.50400001928E-02 0.  1.
       -1   -1    0    0    0  501  0.00000000000E+00  0.00000000000E+00 -0.12486020623E+04  0.12486020623E+04  0.50400001928E-02 0. -1.
    10030    2    1    2    0    0  0.00000000000E+00  0.00000000000E+00 -0.22619765364E+01  0.24949421480E+04  0.24949411227E+04 0.  0.
        2    1    3    3  502    0  0.70521142850E+03 -0.98982248018E+03  0.28013608276E+03  0.12472160703E+04  0.25500000920E-02 0.  1.
       -2    1    3    3    0  502 -0.70521142850E+03  0.98982248018E+03 -0.28239805929E+03  0.12477260777E+04  0.25500000920E-02 0. -1.
</event>
<event>
 5   0  0.2896652E-05  0.2463949E+04  0.7818609E-02  0.8415943E-01
        1   -1    0    0  501    0  0.00000000000E+00  0.00000000000E+00  0.26735983238E+04  0.26735983238E+04  0.50400001928E-02 0.  1.
       -1   -1    0    0    0  501  0.00000000000E+00  0.00000000000E+00 -0.56768480964E+03  0.56768480967E+03  0.50400001928E-02 0. -1.
    10030    2    1    2    0    0  0.00000000000E+00  0.00000000000E+00  0.21059135142E+04  0.32412831335E+04  0.24639489894E+04 0.  0.
        4    1    3    3  502    0  0.15846680472E+03 -0.74186399828E+03  0.23299145392E+04  0.24503014698E+04  0.12699999809E+01 0.  1.
       -4    1    3    3    0  502 -0.15846680472E+03  0.74186399828E+03 -0.22400102502E+03  0.79098166367E+03  0.12699999809E+01 0. -1.
</event>
<event>
 5   0  0.2777539E-05  0.2484246E+04  0.7818609E-02  0.8408620E-01
        1   -1    0    0  501    0  0.00000000000E+00  0.00000000000E+00  0.98031819596E+03  0.98031819598E+03  0.50400001928E-02 0.  1.
       -1   -1    0    0    0  501  0.00000000000E+00  0.00000000000E+00 -0.15738456567E+04  0.15738456567E+04  0.50400001928E-02 0. -1.
    10030    2    1    2    0    0  0.00000000000E+00  0.00000000000E+00 -0.59352746071E+03  0.25541638527E+04  0.24842459902E+04 0.  0.
        3    1    3    3  502    0  0.16155570558E+03  0.12264287147E+04 -0.18116312721E+03  0.12502190716E+04  0.10100000352E+00 0.  1.
       -3    1    3    3    0  502 -0.16155570558E+03 -0.12264287147E+04 -0.41236433350E+03  0.13039447810E+04  0.10100000352E+00 0. -1.
</event>
<event>
 5   0  0.2896652E-05  0.1592435E+04  0.7818609E-02  0.8825209E-01
        1   -1    0    0  501    0  0.00000000000E+00  0.00000000000E+00  0.71434147259E+03  0.71434147261E+03  0.50400001928E-02 0. -1.
       -1   -1    0    0    0  501  0.00000000000E+00  0.00000000000E+00 -0.88747822056E+03  0.88747822058E+03  0.50400001928E-02 0.  1.
    10030    2    1    2    0    0  0.00000000000E+00  0.00000000000E+00 -0.17313674797E+03  0.16018196932E+04  0.15924352407E+04 0.  0.
        4    1    3    3  502    0  0.25807724248E+03  0.72703708363E+03  0.11150346013E+03  0.77950074957E+03  0.12699999809E+01 0. -1.
       -4    1    3    3    0  502 -0.25807724248E+03 -0.72703708363E+03 -0.28464020810E+03  0.82231894362E+03  0.12699999809E+01 0.  1.
</event>
<event>
 5   0  0.6648328E-05  0.2011234E+04  0.7818609E-02  0.8601386E-01
       -2   -1    0    0    0  501  0.00000000000E+00  0.00000000000E+00  0.75776180806E+03  0.75776180806E+03  0.25500000920E-02 0.  1.
        2   -1    0    0  501    0  0.00000000000E+00  0.00000000000E+00 -0.13345431408E+04  0.13345431408E+04  0.25500000920E-02 0. -1.
    10030    2    1    2    0    0  0.00000000000E+00  0.00000000000E+00 -0.57678133276E+03  0.20923049489E+04  0.20112342711E+04 0.  0.
        2    1    3    3  502    0  0.26424282771E+02  0.87324853088E+03 -0.80646511754E+03  0.11889689757E+04  0.25500000920E-02 0. -1.
       -2    1    3    3    0  502 -0.26424282771E+02 -0.87324853088E+03  0.22968378479E+03  0.90333597316E+03  0.25500000920E-02 0.  1.
</event>
<event>
 5   0  0.6445331E-05  0.2431481E+04  0.7818609E-02  0.8427811E-01
       -2   -1    0    0    0  501  0.00000000000E+00  0.00000000000E+00  0.10792738902E+04  0.10792738902E+04  0.25500000920E-02 0. -1.
        2   -1    0    0  501    0  0.00000000000E+00  0.00000000000E+00 -0.13694621613E+04  0.13694621613E+04  0.25500000920E-02 0.  1.
    10030    2    1    2    0    0  0.00000000000E+00  0.00000000000E+00 -0.29018827104E+03  0.24487360515E+04  0.24314808281E+04 0.  0.
        1    1    3    3  502    0 -0.11121800838E+04 -0.20335886363E+03  0.30498384107E+03  0.11710313871E+04  0.50400001928E-02 0. -1.
       -1    1    3    3    0  502  0.11121800838E+04  0.20335886363E+03 -0.59517211210E+03  0.12777046644E+04  0.50400001928E-02 0.  1.
</event>
<event>
 5   0  0.2977854E-05  0.1485413E+04  0.7818609E-02  0.8894211E-01
       -1   -1    0    0    0  501  0.00000000000E+00  0.00000000000E+00  0.33651175862E+03  0.33651175866E+03  0.50400001928E-02 0. -1.
        1   -1    0    0  501    0  0.00000000000E+00  0.00000000000E+00 -0.16392093080E+04  0.16392093080E+04  0.50400001928E-02 0.  1.
    10030    2    1    2    0    0  0.00000000000E+00  0.00000000000E+00 -0.13026975494E+04  0.19757210666E+04  0.14854133526E+04 0.  0.
        1    1    3    3  502    0  0.43614520219E+03 -0.48407666720E+02 -0.14483410645E+04  0.15133597651E+04  0.50400001928E-02 0.  1.
       -1    1    3    3    0  502 -0.43614520219E+03  0.48407666720E+02  0.14564351515E+03  0.46236130150E+03  0.50400001928E-02 0. -1.
</event>
<event>
 5   0  0.6648328E-05  0.1919049E+04  0.7818609E-02  0.8645432E-01
       -2   -1    0    0    0  501  0.00000000000E+00  0.00000000000E+00  0.13115219516E+04  0.13115219516E+04  0.25500000920E-02 0. -1.
        2   -1    0    0  501    0  0.00000000000E+00  0.00000000000E+00 -0.70199881987E+03  0.70199881987E+03  0.25500000920E-02 0.  1.
    10030    2    1    2    0    0  0.00000000000E+00  0.00000000000E+00  0.60952313172E+03  0.20135207715E+04  0.19190485791E+04 0.  0.
        2    1    3    3  502    0  0.37139475873E+03 -0.42649682665E+03 -0.50854514083E+03  0.76056016871E+03  0.25500000920E-02 0.  1.
       -2    1    3    3    0  502 -0.37139475873E+03  0.42649682665E+03  0.11180682726E+04  0.12529606028E+04  0.25500000920E-02 0. -1.
</event>
<event>
 5   0  0.2777539E-05  0.2527873E+04  0.7818609E-02  0.8393122E-01
        1   -1    0    0  501    0  0.00000000000E+00  0.00000000000E+00  0.13759151107E+04  0.13759151107E+04  0.50400001928E-02 0. -1.
       -1   -1    0    0    0  501  0.00000000000E+00  0.00000000000E+00 -0.11610715842E+04  0.11610715842E+04  0.50400001928E-02 0.  1.
    10030    2    1    2    0    0  0.00000000000E+00  0.00000000000E+00  0.21484352645E+03  0.25369866949E+04  0.25278733649E+04 0.  0.
        3    1    3    3  502    0  0.59959584156E+03 -0.28535977227E+03  0.11867479055E+04  0.13598955748E+04  0.10100000352E+00 0. -1.
       -3    1    3    3    0  502 -0.59959584156E+03  0.28535977227E+03 -0.97190437905E+03  0.11770911201E+04  0.10100000352E+00 0.  1.
</event>
<event>
 5   0  0.6445331E-05  0.2184613E+04  0.7818609E-02  0.8524860E-01
        2   -1    0    0  501    0  0.00000000000E+00  0.00000000000E+00  0.17840477519E+04  0.17840477519E+04  0.25500000920E-02 0. -1.
       -2   -1    0    0    0  501  0.00000000000E+00  0.00000000000E+00 -0.66877913371E+03  0.66877913372E+03  0.25500000920E-02 0.  1.
    10030    2    1    2    0    0  0.00000000000E+00  0.00000000000E+00  0.11152686182E+04  0.24528268856E+04  0.21846133846E+04 0.  0.
        1    1    3    3  502    0  0.52410176206E+03  0.71278673541E+03  0.12768990097E+04  0.15534537869E+04  0.50400001928E-02 0. -1.
       -1    1    3    3    0  502 -0.52410176206E+03 -0.71278673541E+03 -0.16163039149E+03  0.89937309869E+03  0.50400001928E-02 0.  1.
</event>
<event>
 5   0  0.2777539E-05  0.2545588E+04  0.7818609E-02  0.8386922E-01
       -1   -1    0    0    0  501  0.00000000000E+00  0.00000000000E+00  0.16933140712E+04  0.16933140712E+04  0.50400001928E-02 0.  1.
        1   -1    0    0  501    0  0.00000000000E+00  0.00000000000E+00 -0.95670632450E+03  0.95670632452E+03  0.50400001928E-02 0. -1.
    10030    2    1    2    0    0  0.00000000000E+00  0.00000000000E+00  0.73660774670E+03  0.26500203957E+04  0.25455877760E+04 0.  0.
        3    1    3    3  502    0 -0.27071038846E+03 -0.92982063497E+03  0.12281134401E+04  0.15640054858E+04  0.10100000352E+00 0.  1.
       -3    1    3    3    0  502  0.27071038846E+03  0.92982063497E+03 -0.49150569345E+03  0.10860149099E+04  0.10100000352E+00 0. -1.
</event>
<event>
 5   0  0.7071821E-05  0.2508704E+04  0.7818609E-02  0.8399891E-01
       -2   -1    0    0    0  501  0.00000000000E+00  0.00000000000E+00  0.82062482217E+03  0.82062482218E+03  0.25500000920E-02 0. -1.
        2   -1    0    0  501    0  0.00000000000E+00  0.00000000000E+00 -0.19173183528E+04  0.19173183528E+04  0.25500000920E-02 0.  1.
    10030    2    1    2    0    0  0.00000000000E+00  0.00000000000E+00 -0.10966935307E+04  0.27379431750E+04  0.25087040737E+04 0.  0.
        5    1    3    3  502    0  0.36876937472E+03  0.43701352892E+03  0.67009459512E+03  0.88092027596E+03  0.46999998093E+01 0. -1.
       -5    1    3    3    0  502 -0.36876937472E+03 -0.43701352892E+03 -0.17667881258E+04  0.18570228991E+04  0.46999998093E+01 0.  1.
</event>
<event>
 5   0  0.6445331E-05  0.2519551E+04  0.7818609E-02  0.8396053E-01
       -2   -1    0    0    0  501  0.00000000000E+00  0.00000000000E+00  0.70782088101E+03  0.70782088102E+03  0.25500000920E-02 0.  1.
        2   -1    0    0  501    0  0.00000000000E+00  0.00000000000E+00 -0.22421403573E+04  0.22421403573E+04  0.25500000920E-02 0. -1.
    10030    2    1    2    0    0  0.00000000000E+00  0.00000000000E+00 -0.15343194763E+04  0.29499612383E+04  0.25195505655E+04 0.  0.
        1    1    3    3  502    0  0.55182221512E+03  0.27178844132E+02  0.55840583304E+03  0.78553390829E+03  0.50400001928E-02 0.  1.
       -1    1    3    3    0  502 -0.55182221512E+03 -0.27178844132E+02 -0.20927253093E+04  0.21644273300E+04  0.50400001928E-02 0. -1.
</event>
<event>
 5   0  0.2793920E-05  0.2504771E+04  0.7818609E-02  0.8401288E-01
        1   -1    0    0  501    0  0.00000000000E+00  0.00000000000E+00  0.89831346035E+03  0.89831346037E+03  0.50400001928E-02 0. -1.
       -1   -1    0    0    0  501  0.00000000000E+00  0.00000000000E+00 -0.17460160849E+04  0.17460160849E+04  0.50400001928E-02 0.  1.
    10030    2    1    2    0    0  0.00000000000E+00  0.00000000000E+00 -0.84770262451E+03  0.26443295452E+04  0.25047712479E+04 0.  0.
        2    1    3    3  502    0  0.47791027982E+03 -0.19720054132E+03  0.78039902167E+03  0.93611373353E+03  0.25500000920E-02 0. -1.
       -2    1    3    3    0  502 -0.47791027982E+03  0.19720054132E+03 -0.16281016462E+04  0.17082158117E+04  0.25500000920E-02 0.  1.
</event>
<event>
 5   0  0.6648328E-05  0.2477405E+04  0.7818609E-02  0.8411079E-01
       -2   -1    0    0    0  501  0.00000000000E+00  0.00000000000E+00  0.18721381856E+04  0.18721381856E+04  0.25500000920E-02 0.  1.
        2   -1    0    0  501    0  0.00000000000E+00  0.00000000000E+00 -0.81958930636E+03  0.81958930637E+03  0.25500000920E-02 0. -1.
    10030    2    1    2    0    0  0.00000000000E+00  0.00000000000E+00  0.10525488793E+04  0.26917274920E+04  0.24774054468E+04 0.  0.
        2    1    3    3  502    0  0.45686735498E+03  0.89934042007E+03  0.13073868125E+04  0.16513028943E+04  0.25500000920E-02 0.  1.
       -2    1    3    3    0  502 -0.45686735498E+03 -0.89934042007E+03 -0.25483793326E+03  0.10404245977E+04  0.25500000920E-02 0. -1.
</event>
<event>
 5   0  0.6445331E-05  0.1287833E+04  0.7818609E-02  0.9039270E-01
       -2   -1    0    0    0  501  0.00000000000E+00  0.00000000000E+00  0.53422172993E+03  0.53422172993E+03  0.25500000920E-02 0. -1.
        2   -1    0    0  501    0  0.00000000000E+00  0.00000000000E+00 -0.77613512291E+03  0.77613512291E+03  0.25500000920E-02 0.  1.
    10030    2    1    2    0    0  0.00000000000E+00  0.00000000000E+00 -0.24191339298E+03  0.13103568528E+04  0.12878326724E+04 0.  0.
        1    1    3    3  502    0  0.30446446307E+03  0.50633824349E+03  0.13955098944E+03  0.60708442969E+03  0.50400001928E-02 0. -1.
       -1    1    3    3    0  502 -0.30446446307E+03 -0.50633824349E+03 -0.38146438242E+03  0.70327242316E+03  0.50400001928E-02 0.  1.
</event>
<event>
 5   0  0.2793920E-05  0.2148618E+04  0.7818609E-02  0.8540124E-01
       -1   -1    0    0    0  501  0.00000000000E+00  0.00000000000E+00  0.89396175454E+03  0.89396175455E+03  0.50400001928E-02 0. -1.
        1   -1    0    0  501    0  0.00000000000E+00  0.00000000000E+00 -0.12910387932E+04  0.12910387933E+04  0.50400001928E-02 0.  1.
    10030    2    1    2    0    0  0.00000000000E+00  0.00000000000E+00 -0.39707703871E+03  0.21850005478E+04  0.21486175135E+04 0.  0.
        2    1    3    3  502    0 -0.21340838477E+03 -0.85835190751E+03  0.42156412425E+03  0.97980990334E+03  0.25500000920E-02 0. -1.
       -2    1    3    3    0  502  0.21340838477E+03  0.85835190751E+03 -0.81864116296E+03  0.12051906445E+04  0.25500000920E-02 0.  1.
</event>
<event>
 5   0  0.2896652E-05  0.2369890E+04  0.7818609E-02  0.8450863E-01
       -1   -1    0    0    0  501  0.00000000000E+00  0.00000000000E+00  0.12663360649E+04  0.12663360649E+04  0.50400001928E-02 0. -1.
        1   -1    0    0  501    0  0.00000000000E+00  0.00000000000E+00 -0.11087853583E+04  0.11087853583E+04  0.50400001928E-02 0.  1.
    10030    2    1    2    0    0  0.00000000000E+00  0.00000000000E+00  0.15755070666E+03  0.23751214232E+04  0.23698901978E+04 0.  0.
        4    1    3    3  502    0 -0.43252280931E+03 -0.51140652159E+03  0.10584199412E+04  0.12525442091E+04  0.12699999809E+01 0. -1.
       -4    1    3    3    0  502  0.43252280931E+03  0.51140652159E+03 -0.90086923456E+03  0.11225772141E+04  0.12699999809E+01 0.  1.
</event>
<event>
 5   0  0.7071821E-05  0.2531198E+04  0.7818609E-02  0.8391955E-01
        2   -1    0    0  501    0  0.00000000000E+00  0.00000000000E+00  0.10648079589E+04  0.10648079589E+04  0.25500000920E-02 0. -1.
       -2   -1    0    0    0  501  0.00000000000E+00  0.00000000000E+00 -0.15042532732E+04  0.15042532732E+04  0.25500000920E-02 0.  1.
    10030    2    1    2    0    0  0.00000000000E+00  0.00000000000E+00 -0.43944531422E+03  0.25690612321E+04  0.25311980227E+04 0.  0.
        5    1    3    3  502    0 -0.19416107054E+03  0.14902140535E+03 -0.14799943042E+04  0.15001037067E+04  0.46999998093E+01 0.  1.
       -5    1    3    3    0  502  0.19416107054E+03 -0.14902140535E+03  0.10405489900E+04  0.10689575254E+04  0.46999998093E+01 0. -1.
</event>
<event>
 5   0  0.2777539E-05  0.2453748E+04  0.7818609E-02  0.8419651E-01
        1   -1    0    0  501    0  0.00000000000E+00  0.00000000000E+00  0.15816650822E+04  0.15816650822E+04  0.50400001928E-02 0.  1.
       -1   -1    0    0    0  501  0.00000000000E+00  0.00000000000E+00 -0.95166759349E+03  0.95166759351E+03  0.50400001928E-02 0. -1.
    10030    2    1    2    0    0  0.00000000000E+00  0.00000000000E+00  0.62999748868E+03  0.25333326757E+04  0.24537476663E+04 0.  0.
        3    1    3    3  502    0  0.43011804470E+03 -0.11473116928E+04  0.37942246002E+03  0.12826874390E+04  0.10100000352E+00 0. -1.
       -3    1    3    3    0  502 -0.43011804470E+03  0.11473116928E+04  0.25057502866E+03  0.12506452367E+04  0.10100000352E+00 0.  1.
</event>
<event>
 5   0  0.2777539E-05  0.2381700E+04  0.7818609E-02  0.8446387E-01
        1   -1    0    0  501    0  0.00000000000E+00  0.00000000000E+00  0.10512954762E+04  0.10512954763E+04  0.50400001928E-02 0.  1.
       -1   -1    0    0    0  501  0.00000000000E+00  0.00000000000E+00 -0.13489302703E+04  0.13489302703E+04  0.50400001928E-02 0. -1.
    10030    2    1    2    0    0  0.00000000000E+00  0.00000000000E+00 -0.29763479407E+03  0.24002257466E+04  0.23817004774E+04 0.  0.
        3    1    3    3  502    0 -0.60832490289E+03  0.97034853935E+02  0.87825112502E+03  0.10727534662E+04  0.10100000352E+00 0.  1.
       -3    1    3    3    0  502  0.60832490289E+03 -0.97034853935E+02 -0.11758859191E+04  0.13274722804E+04  0.10100000352E+00 0. -1.
</event>
<event>
 5   0  0.6827859E-05  0.1867713E+04  0.7818609E-02  0.8671097E-01
       -2   -1    0    0    0  501  0.00000000000E+00  0.00000000000E+00  0.60272484214E+03  0.60272484215E+03  0.25500000920E-02 0. -1.
        2   -1    0    0  501    0  0.00000000000E+00  0.00000000000E+00 -0.14469095027E+04  0.14469095027E+04  0.25500000920E-02 0.  1.
    10030    2    1    2    0    0  0.00000000000E+00  0.00000000000E+00 -0.84418466052E+03  0.20496343448E+04  0.18677133630E+04 0.  0.
        3    1    3    3  502    0  0.87198700599E+03 -0.22774748970E+03 -0.69058188023E+03  0.11354001943E+04  0.10100000352E+00 0.  1.
       -3    1    3    3    0  502 -0.87198700599E+03  0.22774748970E+03 -0.15360278028E+03  0.91423415053E+03  0.10100000352E+00 0. -1.
</event>
<event>
 5   0  0.7071821E-05  0.2506439E+04  0.7818609E-02  0.8400695E-01
        2   -1    0    0  501    0  0.00000000000E+00  0.00000000000E+00  0.17466276731E+04  0.17466276731E+04  0.25500000920E-02 0. -1.
       -2   -1    0    0    0  501  0.00000000000E+00  0.00000000000E+00 -0.89919547690E+03  0.89919547691E+03  0.25500000920E-02 0.  1.
    10030    2    1    2    0    0  0.00000000000E+00  0.00000000000E+00  0.84743219618E+03  0.26458231500E+04  0.25064394694E+04 0.  0.
        5    1    3    3  502    0  0.51486631392E+03 -0.55488363103E+03 -0.63060256914E+03  0.98522325155E+03  0.46999998093E+01 0.  1.
       -5    1    3    3    0  502 -0.51486631392E+03  0.55488363103E+03  0.14780347653E+04  0.16605998984E+04  0.46999998093E+01 0. -1.
</event>
<event>
 5   0  0.2980790E-05  0.2476084E+04  0.7818609E-02  0.8411556E-01
       -1   -1    0    0    0  501  0.00000000000E+00  0.00000000000E+00  0.87721021346E+03  0.87721021347E+03  0.50400001928E-02 0. -1.
        1   -1    0    0  501    0  0.00000000000E+00  0.00000000000E+00 -0.17472986362E+04  0.17472986362E+04  0.50400001928E-02 0.  1.
    10030    2    1    2    0    0  0.00000000000E+00  0.00000000000E+00 -0.87008842273E+03  0.26245088497E+04  0.24760841744E+04 0.  0.
        5    1    3    3  502    0  0.46815898702E+03  0.73589771222E+03  0.49626412916E+03  0.10035030921E+04  0.46999998093E+01 0. -1.
       -5    1    3    3    0  502 -0.46815898702E+03 -0.73589771222E+03 -0.13663525519E+04  0.16210057576E+04  0.46999998093E+01 0.  1.
</event>
<event>
 5   0  0.2793920E-05  0.2509945E+04  0.7818609E-02  0.8399451E-01
        1   -1    0    0  501    0  0.00000000000E+00  0.00000000000E+00  0.12744878859E+04  0.12744878859E+04  0.50400001928E-02 0. -1.
       -1   -1    0    0    0  501  0.00000000000E+00  0.00000000000E+00 -0.12357562968E+04  0.12357562968E+04  0.50400001928E-02 0.  1.
    10030    2    1    2    0    0  0.00000000000E+00  0.00000000000E+00  0.38731589062E+02  0.25102441827E+04  0.25099453622E+04 0.  0.
        2    1    3    3  502    0 -0.23959799322E+03 -0.59603388967E+03  0.10975910045E+04  0.12717584712E+04  0.25500000920E-02 0. -1.
       -2    1    3    3    0  502  0.23959799322E+03  0.59603388967E+03 -0.10588594154E+04  0.12384857115E+04  0.25500000920E-02 0.  1.
</event>
<event>
 5   0  0.6909250E-05  0.1678033E+04  0.7818609E-02  0.8773993E-01
        2   -1    0    0  501    0  0.00000000000E+00  0.00000000000E+00  0.14889449734E+04  0.14889449734E+04  0.25500000920E-02 0. -1.
       -2   -1    0    0    0  501  0.00000000000E+00  0.00000000000E+00 -0.47278348010E+03  0.47278348011E+03  0.25500000920E-02 0.  1.
    10030    2    1    2    0    0  0.00000000000E+00  0.00000000000E+00  0.10161614933E+04  0.19617284535E+04  0.16780328795E+04 0.  0.
        4    1    3    3  502    0 -0.55968844420E+03  0.40640406891E+03 -0.47109820703E+02  0.69327943133E+03  0.12699999809E+01 0.  1.
       -4    1    3    3    0  502  0.55968844420E+03 -0.40640406891E+03  0.10632713140E+04  0.12684490222E+04  0.12699999809E+01 0. -1.
</event>
<event>
 5   0  0.7071821E-05  0.2482478E+04  0.7818609E-02  0.8409255E-01
       -2   -1    0    0    0  501  0.00000000000E+00  0.00000000000E+00  0.10047649157E+04  0.10047649157E+04  0.25500000920E-02 0.  1.
        2   -1    0    0  501    0  0.00000000000E+00  0.00000000000E+00 -0.15333677748E+04  0.15333677748E+04  0.25500000920E-02 0. -1.
    10030    2    1    2    0    0  0.00000000000E+00  0.00000000000E+00 -0.52860285912E+03  0.25381326904E+04  0.24824779096E+04 0.  0.
        5    1    3    3  502    0 -0.85315068185E+03  0.53198713831E+03 -0.10084761745E+04  0.14240515039E+04  0.46999998093E+01 0. -1.
       -5    1    3    3    0  502  0.85315068185E+03 -0.53198713831E+03  0.47987331541E+03  0.11140811865E+04  0.46999998093E+01 0.  1.
</event>
<event>
 5   0  0.2977854E-05  0.1365721E+04  0.7818609E-02  0.8979012E-01
       -1   -1    0    0    0  501  0.00000000000E+00  0.00000000000E+00  0.10131562297E+04  0.10131562297E+04  0.50400001928E-02 0.  1.
        1   -1    0    0  501    0  0.00000000000E+00  0.00000000000E+00 -0.46024355053E+03  0.46024355056E+03  0.50400001928E-02 0. -1.
    10030    2    1    2    0    0  0.00000000000E+00  0.00000000000E+00  0.55291267917E+03  0.14733997803E+04  0.13657212313E+04 0.  0.
        1    1    3    3  502    0 -0.57876717843E+03  0.13513293935E+03 -0.86308391819E+02  0.60056764535E+03  0.50400001928E-02 0. -1.
       -1    1    3    3    0  502  0.57876717843E+03 -0.13513293935E+03  0.63922107099E+03  0.87283213492E+03  0.50400001928E-02 0.  1.
</event>
<event>
 5   0  0.6648328E-05  0.2357553E+04  0.7818609E-02  0.8455568E-01
        2   -1    0    0  501    0  0.00000000000E+00  0.00000000000E+00  0.12382056402E+04  0.12382056402E+04  0.25500000920E-02 0.  1.
       -2   -1    0    0    0  501  0.00000000000E+00  0.00000000000E+00 -0.11221995199E+04  0.11221995199E+04  0.25500000920E-02 0. -1.
    10030    2    1    2    0    0  0.00000000000E+00  0.00000000000E+00  0.11600612029E+03  0.23604051601E+04  0.23575527777E+04 0.  0.
        2    1    3    3  502    0  0.75698726533E+03 -0.89612521967E+03 -0.58083959440E+02  0.11744972863E+04  0.25500000920E-02 0.  1.
       -2    1    3    3    0  502 -0.75698726533E+03  0.89612521967E+03  0.17409007973E+03  0.11859078738E+04  0.25500000920E-02 0. -1.
</event>
<event>
 5   0  0.2793920E-05  0.2477624E+04  0.7818609E-02  0.8411001E-01
        1   -1    0    0  501    0  0.00000000000E+00  0.00000000000E+00  0.12808622226E+04  0.12808622226E+04  0.50400001928E-02 0. -1.
       -1   -1    0    0    0  501  0.00000000000E+00  0.00000000000E+00 -0.11981421598E+04  0.11981421598E+04  0.50400001928E-02 0.  1.
    10030    2    1    2    0    0  0.00000000000E+00  0.00000000000E+00  0.82720062804E+02  0.24790043825E+04  0.24776238858E+04 0.  0.
        2    1    3    3  502    0  0.99810092400E+03 -0.15778013886E+02  0.77539037965E+03  0.12639955067E+04  0.25500000920E-02 0. -1.
       -2    1    3    3    0  502 -0.99810092400E+03  0.15778013886E+02 -0.69267031685E+03  0.12150088757E+04  0.25500000920E-02 0.  1.
</event>
<event>
 5   0  0.6445331E-05  0.2493856E+04  0.7818609E-02  0.8405178E-01
        2   -1    0    0  501    0  0.00000000000E+00  0.00000000000E+00  0.17491634959E+04  0.17491634959E+04  0.25500000920E-02 0.  1.
       -2   -1    0    0    0  501  0.00000000000E+00  0.00000000000E+00 -0.88889860584E+03  0.88889860584E+03  0.25500000920E-02 0. -1.
    10030    2    1    2    0    0  0.00000000000E+00  0.00000000000E+00  0.86026489008E+03  0.26380621018E+04  0.24938556437E+04 0.  0.
        1    1    3    3  502    0 -0.13692183414E+03  0.10681953911E+04  0.10949986313E+04  0.15358421094E+04  0.50400001928E-02 0.  1.
       -1    1    3    3    0  502  0.13692183414E+03 -0.10681953911E+04 -0.23473374123E+03  0.11022199924E+04  0.50400001928E-02 0. -1.
</event>
<event>
 5   0  0.2777539E-05  0.2421143E+04  0.7818609E-02  0.8431630E-01
       -1   -1    0    0    0  501  0.00000000000E+00  0.00000000000E+00  0.78606203997E+03  0.78606203998E+03  0.50400001928E-02 0.  1.
        1   -1    0    0  501    0  0.00000000000E+00  0.00000000000E+00 -0.18643355227E+04  0.18643355228E+04  0.50400001928E-02 0. -1.
    10030    2    1    2    0    0  0.00000000000E+00  0.00000000000E+00 -0.10782734828E+04  0.26503975627E+04  0.24211430228E+04 0.  0.
        3    1    3    3  502    0  0.29230238373E+03 -0.36796911514E+03 -0.17604095941E+04  0.18220548572E+04  0.10100000352E+00 0. -1.
       -3    1    3    3    0  502 -0.29230238373E+03  0.36796911514E+03  0.68213611136E+03  0.82834270556E+03  0.10100000352E+00 0.  1.
</event>
<event>
 5   0  0.2777539E-05  0.2566120E+04  0.7818609E-02  0.8379801E-01
        1   -1    0    0  501    0  0.00000000000E+00  0.00000000000E+00  0.19706719865E+04  0.19706719865E+04  0.50400001928E-02 0.  1.
       -1   -1    0    0    0  501  0.00000000000E+00  0.00000000000E+00 -0.83537124724E+03  0.83537124725E+03  0.50400001928E-02 0. -1.
    10030    2    1    2    0    0  0.00000000000E+00  0.00000000000E+00  0.11353007393E+04  0.28060432338E+04  0.25661198065E+04 0.  0.
        3    1    3    3  502    0 -0.66853480868E+03  0.65063716560E+03  0.15309055387E+04  0.17927462984E+04  0.10100000352E+00 0.  1.
       -3    1    3    3    0  502  0.66853480868E+03 -0.65063716560E+03 -0.39560479946E+03  0.10132969354E+04  0.10100000352E+00 0. -1.
</event>
<event>
 5   0  0.6909250E-05  0.2566243E+04  0.7818609E-02  0.8379759E-01
       -2   -1    0    0    0  501  0.00000000000E+00  0.00000000000E+00  0.16692655412E+04  0.16692655412E+04  0.25500000920E-02 0.  1.
        2   -1    0    0  501    0  0.00000000000E+00  0.00000000000E+00 -0.98630279719E+03  0.98630279719E+03  0.25500000920E-02 0. -1.
    10030    2    1    2    0    0  0.00000000000E+00  0.00000000000E+00  0.68296274402E+03  0.26555683384E+04  0.25662433809E+04 0.  0.
        4    1    3    3  502    0 -0.12057129544E+04  0.37432987029E+03  0.57866028256E+03  0.13887821700E+04  0.12699999809E+01 0. -1.
       -4    1    3    3    0  502  0.12057129544E+04 -0.37432987029E+03  0.10430246146E+03  0.12667861684E+04  0.12699999809E+01 0.  1.
</event>
<event>
 5   0  0.6445331E-05  0.2500450E+04  0.7818609E-02  0.8402825E-01
       -2   -1    0    0    0  501  0.00000000000E+00  0.00000000000E+00  0.19449011474E+04  0.19449011474E+04  0.25500000920E-02 0.  1.
        2   -1    0    0  501    0  0.00000000000E+00  0.00000000000E+00 -0.80367188284E+03  0.80367188285E+03  0.25500000920E-02 0. -1.
    10030    2    1    2    0    0  0.00000000000E+00  0.00000000000E+00  0.11412292645E+04  0.27485730302E+04  0.25004498532E+04 0.  0.
        1    1    3    3  502    0 -0.68537900561E+02  0.31245566872E+03 -0.75792665067E+03  0.82266566511E+03  0.50400001928E-02 0. -1.
       -1    1    3    3    0  502  0.68537900561E+02 -0.31245566872E+03  0.18991559152E+04  0.19259073651E+04  0.50400001928E-02 0.  1.
</event>
<event>
 5   0  0.2331375E-05  0.2493651E+04  0.7818609E-02  0.8405251E-01
        4   -1    0    0  501    0  0.00000000000E+00  0.00000000000E+00  0.10545231835E+04  0.10545239482E+04  0.12699999809E+01 0.  1.
       -4   -1    0    0    0  501  0.00000000000E+00  0.00000000000E+00 -0.14741949853E+04  0.14741955323E+04  0.12699999809E+01 0. -1.
    10030    2    1    2    0    0  0.00000000000E+00  0.00000000000E+00 -0.41967180182E+03  0.25287194806E+04  0.24936514973E+04 0.  0.
        5    1    3    3  502    0  0.35053272210E+03 -0.10927790572E+04 -0.70404265980E+03  0.13463793722E+04  0.46999998093E+01 0.  1.
       -5    1    3    3    0  502 -0.35053272210E+03  0.10927790572E+04  0.28437085799E+03  0.11823401084E+04  0.46999998093E+01 0. -1.
</event>
<event>
 5   0  0.2896652E-05  0.2453781E+04  0.7818609E-02  0.8419639E-01
       -1   -1    0    0    0  501  0.00000000000E+00  0.00000000000E+00  0.85800061658E+03  0.85800061659E+03  0.50400001928E-02 0.  1.
        1   -1    0    0  501    0  0.00000000000E+00  0.00000000000E+00 -0.17543810755E+04  0.17543810755E+04  0.50400001928E-02 0. -1.
    10030    2    1    2    0    0  0.00000000000E+00  0.00000000000E+00 -0.89638045891E+03  0.26123816921E+04  0.24537807926E+04 0.  0.
        4    1    3    3  502    0 -0.65462726645E+03  0.91865018461E+03  0.65493179943E+02  0.11299318516E+04  0.12699999809E+01 0.  1.
       -4    1    3    3    0  502  0.65462726645E+03 -0.91865018461E+03 -0.96187363885E+03  0.14824498405E+04  0.12699999809E+01 0. -1.
</event>
<event>
 5   0  0.2980790E-05  0.2529519E+04  0.7818609E-02  0.8392544E-01
        1   -1    0    0  501    0  0.00000000000E+00  0.00000000000E+00  0.12935753836E+04  0.12935753837E+04  0.50400001928E-02 0. -1.
       -1   -1    0    0    0  501  0.00000000000E+00  0.00000000000E+00 -0.12365855021E+04  0.12365855021E+04  0.50400001928E-02 0.  1.
    10030    2    1    2    0    0  0.00000000000E+00  0.00000000000E+00  0.56989881531E+02  0.25301608858E+04  0.25295189782E+04 0.  0.
        5    1    3    3  502    0  0.34668455184E+02 -0.68132270962E+03 -0.10367597950E+04  0.12410864188E+04  0.46999998093E+01 0.  1.
       -5    1    3    3    0  502 -0.34668455184E+02  0.68132270962E+03  0.10937496765E+04  0.12890744670E+04  0.46999998093E+01 0. -1.
</event>
<event>
 5   0  0.6648328E-05  0.2490890E+04  0.7818609E-02  0.8406238E-01
       -2   -1    0    0    0  501  0.00000000000E+00  0.00000000000E+00  0.13292048578E+04  0.13292048578E+04  0.25500000920E-02 0.  1.
        2   -1    0    0  501    0  0.00000000000E+00  0.00000000000E+00 -0.11669630962E+04  0.11669630962E+04  0.25500000920E-02 0. -1.
    10030    2    1    2    0    0  0.00000000000E+00  0.00000000000E+00  0.16224176161E+03  0.24961679539E+04  0.24908898139E+04 0.  0.
        2    1    3    3  502    0 -0.58352513891E+03  0.27886545755E+03 -0.98549601630E+03  0.11787577908E+04  0.25500000920E-02 0. -1.
       -2    1    3    3    0  502  0.58352513891E+03 -0.27886545755E+03  0.11477377779E+04  0.13174101632E+04  0.25500000920E-02 0.  1.
</event>
<event>
 5   0  0.2896652E-05  0.2627497E+04  0.7818609E-02  0.8358921E-01
        1   -1    0    0  501    0  0.00000000000E+00  0.00000000000E+00  0.20478894506E+04  0.20478894506E+04  0.50400001928E-02 0. -1.
       -1   -1    0    0    0  501  0.00000000000E+00  0.00000000000E+00 -0.84278735439E+03  0.84278735441E+03  0.50400001928E-02 0.  1.
    10030    2    1    2    0    0  0.00000000000E+00  0.00000000000E+00  0.12051020962E+04  0.28906768050E+04  0.26274971606E+04 0.  0.
        4    1    3    3  502    0 -0.46644739685E+03 -0.62388458705E+03 -0.56129965478E+03  0.96013752523E+03  0.12699999809E+01 0.  1.
       -4    1    3    3    0  502  0.46644739685E+03  0.62388458705E+03  0.17664017510E+04  0.19305392798E+04  0.12699999809E+01 0. -1.
</event>
<event>
 5   0  0.7071821E-05  0.2482677E+04  0.7818609E-02  0.8409183E-01
       -2   -1    0    0    0  501  0.00000000000E+00  0.00000000000E+00  0.56081146525E+03  0.56081146525E+03  0.25500000920E-02 0. -1.
        2   -1    0    0  501    0  0.00000000000E+00  0.00000000000E+00 -0.27476639884E+04  0.27476639884E+04  0.25500000920E-02 0.  1.
    10030    2    1    2    0    0  0.00000000000E+00  0.00000000000E+00 -0.21868525231E+04  0.33084754536E+04  0.24826771577E+04 0.  0.
        5    1    3    3  502    0 -0.91307517917E+03  0.77739199025E+03 -0.66604062237E+03  0.13717422462E+04  0.46999998093E+01 0. -1.
       -5    1    3    3    0  502  0.91307517917E+03 -0.77739199025E+03 -0.15208119007E+04  0.19367332074E+04  0.46999998093E+01 0.  1.
</event>
<event>
 5   0  0.2980790E-05  0.2081000E+04  0.7818609E-02  0.8569660E-01
       -1   -1    0    0    0  501  0.00000000000E+00  0.00000000000E+00  0.74066919171E+03  0.74066919173E+03  0.50400001928E-02 0.  1.
        1   -1    0    0  501    0  0.00000000000E+00  0.00000000000E+00 -0.14617050966E+04  0.14617050966E+04  0.50400001928E-02 0. -1.
    10030    2    1    2    0    0  0.00000000000E+00  0.00000000000E+00 -0.72103590490E+03  0.22023742883E+04  0.20809996948E+04 0.  0.
        5    1    3    3  502    0 -0.65580281829E+03  0.57400945917E+03 -0.96204676677E+03  0.12981218229E+04  0.46999998093E+01 0. -1.
       -5    1    3    3    0  502  0.65580281829E+03 -0.57400945917E+03  0.24101086187E+03  0.90425246543E+03  0.46999998093E+01 0.  1.
</event>
<event>
 5   0  0.2977854E-05  0.2482219E+04  0.7818609E-02  0.8409347E-01
        1   -1    0    0  501    0  0.00000000000E+00  0.00000000000E+00  0.14261865004E+04  0.14261865004E+04  0.50400001928E-02 0.  1.
       -1   -1    0    0    0  501  0.00000000000E+00  0.00000000000E+00 -0.10800504391E+04  0.10800504391E+04  0.50400001928E-02 0. -1.
    10030    2    1    2    0    0  0.00000000000E+00  0.00000000000E+00  0.34613606125E+03  0.25062369395E+04  0.24822194553E+04 0.  0.
        1    1    3    3  502    0  0.53399223905E+03 -0.83410664225E+03  0.92828377295E+03  0.13574212188E+04  0.50400001928E-02 0.  1.
       -1    1    3    3    0  502 -0.53399223905E+03  0.83410664225E+03 -0.58214771170E+03  0.11488157208E+04  0.50400001928E-02 0. -1.
</event>
<event>
 5   0  0.6648328E-05  0.2660058E+04  0.7818609E-02  0.8348082E-01
        2   -1    0    0  501    0  0.00000000000E+00  0.00000000000E+00  0.98709563686E+03  0.98709563687E+03  0.25500000920E-02 0. -1.
       -2   -1    0    0    0  501  0.00000000000E+00  0.00000000000E+00 -0.17921037153E+04  0.17921037153E+04  0.25500000920E-02 0.  1.
    10030    2    1    2    0    0  0.00000000000E+00  0.00000000000E+00 -0.80500807848E+03  0.27791993522E+04  0.26600584642E+04 0.  0.
        2    1    3    3  502    0 -0.29497620075E+03 -0.56841299004E+02 -0.17561955412E+04  0.17817027449E+04  0.25500000920E-02 0.  1.
       -2    1    3    3    0  502  0.29497620075E+03  0.56841299004E+02  0.95118746274E+03  0.99749660729E+03  0.25500000920E-02 0. -1.
</event>
<event>
 5   0  0.2980790E-05  0.2466732E+04  0.7818609E-02  0.8414934E-01
        1   -1    0    0  501    0  0.00000000000E+00  0.00000000000E+00  0.16781510694E+04  0.16781510694E+04  0.50400001928E-02 0.  1.
       -1   -1    0    0    0  501  0.00000000000E+00  0.00000000000E+00 -0.90646854930E+03  0.90646854932E+03  0.50400001928E-02 0. -1.
    10030    2    1    2    0    0  0.00000000000E+00  0.00000000000E+00  0.77168252009E+03  0.25846196187E+04  0.24667315747E+04 0.  0.
        5    1    3    3  502    0 -0.42031969664E+03  0.10295744440E+04  0.94469510217E+03  0.14591652097E+04  0.46999998093E+01 0.  1.
       -5    1    3    3    0  502  0.42031969664E+03 -0.10295744440E+04 -0.17301258208E+03  0.11254544090E+04  0.46999998093E+01 0. -1.
</event>
<event>
 5   0  0.6445331E-05  0.2477131E+04  0.7818609E-02  0.8411178E-01
       -2   -1    0    0    0  501  0.00000000000E+00  0.00000000000E+00  0.13701088612E+04  0.13701088612E+04  0.25500000920E-02 0. -1.
        2   -1    0    0  501    0  0.00000000000E+00  0.00000000000E+00 -0.11196511433E+04  0.11196511433E+04  0.25500000920E-02 0.  1.
    10030    2    1    2    0    0  0.00000000000E+00  0.00000000000E+00  0.25045771793E+03  0.24897600045E+04  0.24771305601E+04 0.  0.
        1    1    3    3  502    0  0.40279502722E+03 -0.11707480837E+04  0.15929922615E+03  0.12483073151E+04  0.50400001928E-02 0. -1.
       -1    1    3    3    0  502 -0.40279502722E+03  0.11707480837E+04  0.91158491784E+02  0.12414526894E+04  0.50400001928E-02 0.  1.
</event>
<event>
 5   0  0.2977854E-05  0.2313735E+04  0.7818609E-02  0.8472525E-01
       -1   -1    0    0    0  501  0.00000000000E+00  0.00000000000E+00  0.20360017418E+04  0.20360017418E+04  0.50400001928E-02 0. -1.
        1   -1    0    0  501    0  0.00000000000E+00  0.00000000000E+00 -0.65733849209E+03  0.65733849211E+03  0.50400001928E-02 0.  1.
    10030    2    1    2    0    0  0.00000000000E+00  0.00000000000E+00  0.13786632497E+04  0.26933402339E+04  0.23137349156E+04 0.  0.
        1    1    3    3  502    0 -0.10542474654E+04  0.45656470892E+03  0.84746160103E+03  0.14276134690E+04  0.50400001928E-02 0.  1.
       -1    1    3    3    0  502  0.10542474654E+04 -0.45656470892E+03  0.53120164869E+03  0.12657267649E+04  0.50400001928E-02 0. -1.
</event>
<event>
 5   0  0.2793920E-05  0.2446486E+04  0.7818609E-02  0.8422302E-01
        1   -1    0    0  501    0  0.00000000000E+00  0.00000000000E+00  0.13203552719E+04  0.13203552719E+04  0.50400001928E-02 0.  1.
       -1   -1    0    0    0  501  0.00000000000E+00  0.00000000000E+00 -0.11332736152E+04  0.11332736152E+04  0.50400001928E-02 0. -1.
    10030    2    1    2    0    0  0.00000000000E+00  0.00000000000E+00  0.18708165663E+03  0.24536288871E+04  0.24464862905E+04 0.  0.
        2    1    3    3  502    0 -0.44212927798E+03  0.24020940326E+03  0.12117600989E+04  0.13120752239E+04  0.25500000920E-02 0.  1.
       -2    1    3    3    0  502  0.44212927798E+03 -0.24020940326E+03 -0.10246784423E+04  0.11415536632E+04  0.25500000920E-02 0. -1.
</event>
<event>
 5   0  0.6909250E-05  0.2468022E+04  0.7818609E-02  0.8414467E-01
        2   -1    0    0  501    0  0.00000000000E+00  0.00000000000E+00  0.12742077241E+04  0.12742077241E+04  0.25500000920E-02 0.  1.
       -2   -1    0    0    0  501  0.00000000000E+00  0.00000000000E+00 -0.11950819185E+04  0.11950819185E+04  0.25500000920E-02 0. -1.
    10030    2    1    2    0    0  0.00000000000E+00  0.00000000000E+00  0.79125805528E+02  0.24692896426E+04  0.24680215651E+04 0.  0.
        4    1    3    3  502    0  0.77906092069E+03  0.80142523604E+03 -0.48373802259E+03  0.12178761901E+04  0.12699999809E+01 0. -1.
       -4    1    3    3    0  502 -0.77906092069E+03 -0.80142523604E+03  0.56286382812E+03  0.12514134525E+04  0.12699999809E+01 0.  1.
</event>
<event>
 5   0  0.6648328E-05  0.2466116E+04  0.7818609E-02  0.8415157E-01
        2   -1    0    0  501    0  0.00000000000E+00  0.00000000000E+00  0.13038065418E+04  0.13038065418E+04  0.25500000920E-02 0.  1.
       -2   -1    0    0    0  501  0.00000000000E+00  0.00000000000E+00 -0.11661487962E+04  0.11661487962E+04  0.25500000920E-02 0. -1.
    10030    2    1    2    0    0  0.00000000000E+00  0.00000000000E+00  0.13765774566E+03  0.24699553380E+04  0.24661163226E+04 0.  0.
        2    1    3    3  502    0 -0.77859391087E+03  0.76853754455E+03  0.63855002947E+03  0.12667298747E+04  0.25500000920E-02 0.  1.
       -2    1    3    3    0  502  0.77859391087E+03 -0.76853754455E+03 -0.50089228382E+03  0.12032254633E+04  0.25500000920E-02 0. -1.
</event>
<event>
 5   0  0.6909250E-05  0.2557928E+04  0.7818609E-02  0.8382634E-01
       -2   -1    0    0    0  501  0.00000000000E+00  0.00000000000E+00  0.19653059716E+04  0.19653059716E+04  0.25500000920E-02 0. -1.
        2   -1    0    0  501    0  0.00000000000E+00  0.00000000000E+00 -0.83231241977E+03  0.83231241978E+03  0.25500000920E-02 0.  1.
    10030    2    1    2    0    0  0.00000000000E+00  0.00000000000E+00  0.11329935518E+04  0.27976183914E+04  0.25579277307E+04 0.  0.
        4    1    3    3  502    0  0.69836762433E+03 -0.42585303732E+03 -0.50883208754E+03  0.96331710994E+03  0.12699999809E+01 0.  1.
       -4    1    3    3    0  502 -0.69836762433E+03  0.42585303732E+03  0.16418256394E+04  0.18343012814E+04  0.12699999809E+01 0. -1.
</event>
<event>
 5   0  0.2793920E-05  0.2442215E+04  0.7818609E-02  0.8423866E-01
       -1   -1    0    0    0  501  0.00000000000E+00  0.00000000000E+00  0.72328996493E+03  0.72328996494E+03  0.50400001928E-02 0.  1.
        1   -1    0    0  501    0  0.00000000000E+00  0.00000000000E+00 -0.20615575323E+04  0.20615575323E+04  0.50400001928E-02 0. -1.
    10030    2    1    2    0    0  0.00000000000E+00  0.00000000000E+00 -0.13382675674E+04  0.27848474973E+04  0.24422152856E+04 0.  0.
        2    1    3    3  502    0 -0.10606084478E+04  0.58720674109E+03 -0.50231574231E+03  0.13122587936E+04  0.25500000920E-02 0.  1.
       -2    1    3    3    0  502  0.10606084478E+04 -0.58720674109E+03 -0.83595182508E+03  0.14725887037E+04  0.25500000920E-02 0. -1.
</event>
<event>
 5   0  0.6445331E-05  0.2512243E+04  0.7818609E-02  0.8398637E-01
       -2   -1    0    0    0  501  0.00000000000E+00  0.00000000000E+00  0.87730066522E+03  0.87730066522E+03  0.25500000920E-02 0.  1.
        2   -1    0    0  501    0  0.00000000000E+00  0.00000000000E+00 -0.17985183348E+04  0.17985183348E+04  0.25500000920E-02 0. -1.
    10030    2    1    2    0    0  0.00000000000E+00  0.00000000000E+00 -0.92121766962E+03  0.26758190001E+04  0.25122430866E+04 0.  0.
        1    1    3    3  502    0  0.48874523684E+03  0.19847132029E+03  0.75360825834E+03  0.91988487246E+03  0.50400001928E-02 0.  1.
       -1    1    3    3    0  502 -0.48874523684E+03 -0.19847132029E+03 -0.16748259280E+04  0.17559341276E+04  0.50400001928E-02 0. -1.
</event>
<event>
 5   0  0.2896652E-05  0.2539291E+04  0.7818609E-02  0.8389120E-01
       -1   -1    0    0    0  501  0.00000000000E+00  0.00000000000E+00  0.71782838223E+03  0.71782838224E+03  0.50400001928E-02 0.  1.
        1   -1    0    0  501    0  0.00000000000E+00  0.00000000000E+00 -0.22456620126E+04  0.22456620126E+04  0.50400001928E-02 0. -1.
    10030    2    1    2    0    0  0.00000000000E+00  0.00000000000E+00 -0.15278336303E+04  0.29634903948E+04  0.25392911842E+04 0.  0.
        4    1    3    3  502    0 -0.30276168937E+03  0.67068744163E+02  0.67295177140E+03  0.74096461220E+03  0.12699999809E+01 0.  1.
       -4    1    3    3    0  502  0.30276168937E+03 -0.67068744163E+02 -0.22007854017E+04  0.22225257826E+04  0.12699999809E+01 0. -1.
</event>
<event>
 5   0  0.2793920E-05  0.2472140E+04  0.7818609E-02  0.8412978E-01
       -1   -1    0    0    0  501  0.00000000000E+00  0.00000000000E+00  0.13358267195E+04  0.13358267195E+04  0.50400001928E-02 0. -1.
        1   -1    0    0  501    0  0.00000000000E+00  0.00000000000E+00 -0.11437631016E+04  0.11437631016E+04  0.50400001928E-02 0.  1.
    10030    2    1    2    0    0  0.00000000000E+00  0.00000000000E+00  0.19206361787E+03  0.24795898211E+04  0.24721402160E+04 0.  0.
        2    1    3    3  502    0 -0.13519115337E+03  0.59447582521E+03 -0.98247171129E+03  0.11562563808E+04  0.25500000920E-02 0.  1.
       -2    1    3    3    0  502  0.13519115337E+03 -0.59447582521E+03  0.11745353292E+04  0.13233334403E+04  0.25500000920E-02 0. -1.
</event>
<event>
 5   0  0.2977854E-05  0.2464603E+04  0.7818609E-02  0.8415705E-01
        1   -1    0    0  501    0  0.00000000000E+00  0.00000000000E+00  0.12368133376E+04  0.12368133377E+04  0.50400001928E-02 0.  1.
       -1   -1    0    0    0  501  0.00000000000E+00  0.00000000000E+00 -0.12278062502E+04  0.12278062502E+04  0.50400001928E-02 0. -1.
    10030    2    1    2    0    0  0.00000000000E+00  0.00000000000E+00  0.90070874552E+01  0.24646195878E+04  0.24646031293E+04 0.  0.
        1    1    3    3  502    0  0.14683793109E+03  0.10900617642E+04 -0.55117193938E+03  0.12302790474E+04  0.50400001928E-02 0. -1.
       -1    1    3    3    0  502 -0.14683793109E+03 -0.10900617642E+04  0.56017902684E+03  0.12343405405E+04  0.50400001928E-02 0.  1.
</event>
<event>
 5   0  0.6445331E-05  0.2513417E+04  0.7818609E-02  0.8398221E-01
        2   -1    0    0  501    0  0.00000000000E+00  0.00000000000E+00  0.95293643228E+03  0.95293643228E+03  0.25500000920E-02 0.  1.
       -2   -1    0    0    0  501  0.00000000000E+00  0.00000000000E+00 -0.16573149445E+04  0.16573149445E+04  0.25500000920E-02 0. -1.
    10030    2    1    2    0    0  0.00000000000E+00  0.00000000000E+00 -0.70437851217E+03  0.26102513767E+04  0.25134166311E+04 0.  0.
        1    1    3    3  502    0  0.12040914378E+04  0.29480919591E+03 -0.56645614974E+03  0.13629457884E+04  0.50400001928E-02 0. -1.
       -1    1    3    3    0  502 -0.12040914378E+04 -0.29480919591E+03 -0.13792236243E+03  0.12473055883E+04  0.50400001928E-02 0.  1.
</event>
<event>
 5   0  0.2777539E-05  0.2524517E+04  0.7818609E-02  0.8394303E-01
       -1   -1    0    0    0  501  0.00000000000E+00  0.00000000000E+00  0.28379433174E+04  0.28379433174E+04  0.50400001928E-02 0. -1.
        1   -1    0    0  501    0  0.00000000000E+00  0.00000000000E+00 -0.56142634488E+03  0.56142634490E+03  0.50400001928E-02 0.  1.
    10030    2    1    2    0    0  0.00000000000E+00  0.00000000000E+00  0.22765169726E+04  0.33993696624E+04  0.25245167013E+04 0.  0.
        3    1    3    3  502    0 -0.74472623831E+03 -0.84074787912E+03  0.19139208386E+04  0.22191365782E+04  0.10100000352E+00 0. -1.
       -3    1    3    3    0  502  0.74472623831E+03  0.84074787912E+03  0.36259613396E+03  0.11802330841E+04  0.10100000352E+00 0.  1.
</event>
<event>
 5   0  0.2980790E-05  0.2472504E+04  0.7818609E-02  0.8412847E-01
        1   -1    0    0  501    0  0.00000000000E+00  0.00000000000E+00  0.23342413322E+04  0.23342413322E+04  0.50400001928E-02 0.  1.
       -1   -1    0    0    0  501  0.00000000000E+00  0.00000000000E+00 -0.65473882590E+03  0.65473882592E+03  0.50400001928E-02 0. -1.
    10030    2    1    2    0    0  0.00000000000E+00  0.00000000000E+00  0.16795025063E+04  0.29889801581E+04  0.24725035322E+04 0.  0.
        5    1    3    3  502    0 -0.10996331040E+03  0.11998996600E+04  0.50550906461E+03  0.13066800022E+04  0.46999998093E+01 0.  1.
       -5    1    3    3    0  502  0.10996331040E+03 -0.11998996600E+04  0.11739934417E+04  0.16823001560E+04  0.46999998093E+01 0. -1.
</event>
<event>
 5   0  0.2777539E-05  0.2183582E+04  0.7818609E-02  0.8525293E-01
        1   -1    0    0  501    0  0.00000000000E+00  0.00000000000E+00  0.10300959989E+04  0.10300959990E+04  0.50400001928E-02 0. -1.
       -1   -1    0    0    0  501  0.00000000000E+00  0.00000000000E+00 -0.11571811152E+04  0.11571811152E+04  0.50400001928E-02 0.  1.
    10030    2    1    2    0    0  0.00000000000E+00  0.00000000000E+00 -0.12708511627E+03  0.21872771142E+04  0.21835820451E+04 0.  0.
        3    1    3    3  502    0 -0.60170435189E+03 -0.60055921072E+03 -0.74974787842E+03  0.11335084402E+04  0.10100000352E+00 0.  1.
       -3    1    3    3    0  502  0.60170435189E+03  0.60055921072E+03  0.62266276215E+03  0.10537686740E+04  0.10100000352E+00 0. -1.
</event>
<event>
 5   0  0.6648328E-05  0.2479528E+04  0.7818609E-02  0.8410315E-01
        2   -1    0    0  501    0  0.00000000000E+00  0.00000000000E+00  0.11685418473E+04  0.11685418473E+04  0.25500000920E-02 0.  1.
       -2   -1    0    0    0  501  0.00000000000E+00  0.00000000000E+00 -0.13153272458E+04  0.13153272458E+04  0.25500000920E-02 0. -1.
    10030    2    1    2    0    0  0.00000000000E+00  0.00000000000E+00 -0.14678539844E+03  0.24838690931E+04  0.24795281242E+04 0.  0.
        2    1    3    3  502    0 -0.11354215877E+04  0.47119151434E+03  0.87547540019E+02  0.12324237083E+04  0.25500000920E-02 0. -1.
       -2    1    3    3    0  502  0.11354215877E+04 -0.47119151434E+03 -0.23433293846E+03  0.12514453848E+04  0.25500000920E-02 0.  1.
</event>
<event>
 5   0  0.6648328E-05  0.2493565E+04  0.7818609E-02  0.8405282E-01
        2   -1    0    0  501    0  0.00000000000E+00  0.00000000000E+00  0.16273402043E+04  0.16273402043E+04  0.25500000920E-02 0. -1.
       -2   -1    0    0    0  501  0.00000000000E+00  0.00000000000E+00 -0.95521899064E+03  0.95521899064E+03  0.25500000920E-02 0.  1.
    10030    2    1    2    0    0  0.00000000000E+00  0.00000000000E+00  0.67212121362E+03  0.25825591949E+04  0.24935647313E+04 0.  0.
        2    1    3    3  502    0 -0.10238623175E+04 -0.70207409587E+03  0.21677997217E+03  0.12602363420E+04  0.25500000920E-02 0.  1.
       -2    1    3    3    0  502  0.10238623175E+04  0.70207409587E+03  0.45534124145E+03  0.13223228529E+04  0.25500000920E-02 0. -1.
</event>
<event>
 5   0  0.6909250E-05  0.2295858E+04  0.7818609E-02  0.8479556E-01
       -2   -1    0    0    0  501  0.00000000000E+00  0.00000000000E+00  0.65817978689E+03  0.65817978689E+03  0.25500000920E-02 0.  1.
        2   -1    0    0  501    0  0.00000000000E+00  0.00000000000E+00 -0.20020985498E+04  0.20020985498E+04  0.25500000920E-02 0. -1.
    10030    2    1    2    0    0  0.00000000000E+00  0.00000000000E+00 -0.13439187629E+04  0.26602783366E+04  0.22958578325E+04 0.  0.
        4    1    3    3  502    0  0.82299821546E+03  0.78800672645E+03 -0.83359497129E+03  0.14117941963E+04  0.12699999809E+01 0.  1.
       -4    1    3    3    0  502 -0.82299821546E+03 -0.78800672645E+03 -0.51032379158E+03  0.12484841404E+04  0.12699999809E+01 0. -1.
</event>
<event>
 5   0  0.2331375E-05  0.2482933E+04  0.7818609E-02  0.8409091E-01
       -3   -1    0    0    0  501  0.00000000000E+00  0.00000000000E+00  0.85196076687E+03  0.85196077286E+03  0.10100000352E+00 0. -1.
        3   -1    0    0  501    0  0.00000000000E+00  0.00000000000E+00 -0.18090500502E+04  0.18090500530E+04  0.10100000352E+00 0.  1.
    10030    2    1    2    0    0  0.00000000000E+00  0.00000000000E+00 -0.95708928330E+03  0.26610108258E+04  0.24829334907E+04 0.  0.
        1    1    3    3  502    0 -0.89000104068E+03 -0.27503595600E+03 -0.13580694912E+04  0.16468452789E+04  0.50400001928E-02 0.  1.
       -1    1    3    3    0  502  0.89000104068E+03  0.27503595600E+03  0.40098020793E+03  0.10141655470E+04  0.50400001928E-02 0. -1.
</event>
<event>
 5   0  0.2777539E-05  0.2572174E+04  0.7818609E-02  0.8377715E-01
       -1   -1    0    0    0  501  0.00000000000E+00  0.00000000000E+00  0.10271848813E+04  0.10271848813E+04  0.50400001928E-02 0.  1.
        1   -1    0    0  501    0  0.00000000000E+00  0.00000000000E+00 -0.16102456146E+04  0.16102456146E+04  0.50400001928E-02 0. -1.
    10030    2    1    2    0    0  0.00000000000E+00  0.00000000000E+00 -0.58306073327E+03  0.26374304960E+04  0.25721741392E+04 0.  0.
        3    1    3    3  502    0 -0.34108195994E+03 -0.10242411645E+04 -0.10082729335E+04  0.14771666071E+04  0.10100000352E+00 0. -1.
       -3    1    3    3    0  502  0.34108195994E+03  0.10242411645E+04  0.42521220023E+03  0.11602638889E+04  0.10100000352E+00 0.  1.
</event>
<event>
 5   0  0.2896652E-05  0.2482487E+04  0.7818609E-02  0.8409251E-01
        1   -1    0    0  501    0  0.00000000000E+00  0.00000000000E+00  0.15550003259E+04  0.15550003259E+04  0.50400001928E-02 0. -1.
       -1   -1    0    0    0  501  0.00000000000E+00  0.00000000000E+00 -0.99079465123E+03  0.99079465125E+03  0.50400001928E-02 0.  1.
    10030    2    1    2    0    0  0.00000000000E+00  0.00000000000E+00  0.56420567464E+03  0.25457949771E+04  0.24824874667E+04 0.  0.
        4    1    3    3  502    0 -0.76955091491E+02  0.49605860549E+03  0.14462564253E+04  0.15309002211E+04  0.12699999809E+01 0. -1.
       -4    1    3    3    0  502  0.76955091491E+02 -0.49605860549E+03 -0.88205075068E+03  0.10148947561E+04  0.12699999809E+01 0.  1.
</event>
<event>
 5   0  0.7071821E-05  0.2487562E+04  0.7818609E-02  0.8407430E-01
        2   -1    0    0  501    0  0.00000000000E+00  0.00000000000E+00  0.15927913018E+04  0.15927913019E+04  0.25500000920E-02 0.  1.
       -2   -1    0    0    0  501  0.00000000000E+00  0.00000000000E+00 -0.97124574750E+03  0.97124574750E+03  0.25500000920E-02 0. -1.
    10030    2    1    2    0    0  0.00000000000E+00  0.00000000000E+00  0.62154555435E+03  0.25640370494E+04  0.24875624845E+04 0.  0.
        5    1    3    3  502    0 -0.80945713091E+03  0.71562650743E+02  0.12813295131E+04  0.15172901736E+04  0.46999998093E+01 0.  1.
       -5    1    3    3    0  502  0.80945713091E+03 -0.71562650743E+02 -0.65978395872E+03  0.10467468758E+04  0.46999998093E+01 0. -1.
</event>
<event>
 5   0  0.2980790E-05  0.2635491E+04  0.7818609E-02  0.8356245E-01
       -1   -1    0    0    0  501  0.00000000000E+00  0.00000000000E+00  0.14303542246E+04  0.14303542246E+04  0.50400001928E-02 0.  1.
        1   -1    0    0  501    0  0.00000000000E+00  0.00000000000E+00 -0.12140024660E+04  0.12140024660E+04  0.50400001928E-02 0. -1.
    10030    2    1    2    0    0  0.00000000000E+00  0.00000000000E+00  0.21635175863E+03  0.26443566906E+04  0.26354912680E+04 0.  0.
        5    1    3    3  502    0 -0.13101597856E+04  0.43142325823E+02  0.24298386069E+03  0.13332078497E+04  0.46999998093E+01 0.  1.
       -5    1    3    3    0  502  0.13101597856E+04 -0.43142325823E+02 -0.26632102062E+02  0.13111488409E+04  0.46999998093E+01 0. -1.
</event>
<event>
 5   0  0.2793920E-05  0.2519462E+04  0.7818609E-02  0.8396085E-01
        1   -1    0    0  501    0  0.00000000000E+00  0.00000000000E+00  0.15363408162E+04  0.15363408162E+04  0.50400001928E-02 0.  1.
       -1   -1    0    0    0  501  0.00000000000E+00  0.00000000000E+00 -0.10329234673E+04  0.10329234673E+04  0.50400001928E-02 0. -1.
    10030    2    1    2    0    0  0.00000000000E+00  0.00000000000E+00  0.50341734897E+03  0.25692642835E+04  0.25194622306E+04 0.  0.
        2    1    3    3  502    0  0.20799962999E+02  0.27910468485E+03  0.15042342428E+04  0.15300499079E+04  0.25500000920E-02 0.  1.
       -2    1    3    3    0  502 -0.20799962999E+02 -0.27910468485E+03 -0.10008168938E+04  0.10392143756E+04  0.25500000920E-02 0. -1.
</event>
<event>
 5   0  0.6827859E-05  0.2480873E+04  0.7818609E-02  0.8409831E-01
       -2   -1    0    0    0  501  0.00000000000E+00  0.00000000000E+00  0.99746670250E+03  0.99746670250E+03  0.25500000920E-02 0.  1.
        2   -1    0    0  501    0  0.00000000000E+00  0.00000000000E+00 -0.15425906564E+04  0.15425906564E+04  0.25500000920E-02 0. -1.
    10030    2    1    2    0    0  0.00000000000E+00  0.00000000000E+00 -0.54512395387E+03  0.25400573589E+04  0.24808730845E+04 0.  0.
        3    1    3    3  502    0 -0.41777411485E+03  0.43319223556E+03 -0.13831001226E+04  0.15083622520E+04  0.10100000352E+00 0. -1.
       -3    1    3    3    0  502  0.41777411485E+03 -0.43319223556E+03  0.83797616872E+03  0.10316951069E+04  0.10100000352E+00 0.  1.
</event>
<event>
 5   0  0.2777539E-05  0.2492142E+04  0.7818609E-02  0.8405790E-01
       -1   -1    0    0    0  501  0.00000000000E+00  0.00000000000E+00  0.13257714878E+04  0.13257714878E+04  0.50400001928E-02 0. -1.
        1   -1    0    0  501    0  0.00000000000E+00  0.00000000000E+00 -0.11711620440E+04  0.11711620440E+04  0.50400001928E-02 0.  1.
    10030    2    1    2    0    0  0.00000000000E+00  0.00000000000E+00  0.15460944381E+03  0.24969335318E+04  0.24921422476E+04 0.  0.
        3    1    3    3  502    0  0.85511041498E+03 -0.41175211259E+03  0.88628482210E+03  0.12985585933E+04  0.10100000352E+00 0. -1.
       -3    1    3    3    0  502 -0.85511041498E+03  0.41175211259E+03 -0.73167537829E+03  0.11983749386E+04  0.10100000352E+00 0.  1.
</event>
<event>
 5   0  0.2777539E-05  0.2599303E+04  0.7818609E-02  0.8368438E-01
        1   -1    0    0  501    0  0.00000000000E+00  0.00000000000E+00  0.11206582751E+04  0.11206582751E+04  0.50400001928E-02 0.  1.
       -1   -1    0    0    0  501  0.00000000000E+00  0.00000000000E+00 -0.15072342952E+04  0.15072342952E+04  0.50400001928E-02 0. -1.
    10030    2    1    2    0    0  0.00000000000E+00  0.00000000000E+00 -0.38657602015E+03  0.26278925704E+04  0.25993034340E+04 0.  0.
        3    1    3    3  502    0  0.74670308417E+03 -0.92026134536E+02  0.87811326365E+03  0.11563378483E+04  0.10100000352E+00 0.  1.
       -3    1    3    3    0  502 -0.74670308417E+03  0.92026134536E+02 -0.12646892838E+04  0.14715547221E+04  0.10100000352E+00 0. -1.
</event>
<event>
 5   0  0.2777539E-05  0.2383620E+04  0.7818609E-02  0.8445662E-01
       -1   -1    0    0    0  501  0.00000000000E+00  0.00000000000E+00  0.94118740770E+03  0.94118740772E+03  0.50400001928E-02 0.  1.
        1   -1    0    0  501    0  0.00000000000E+00  0.00000000000E+00 -0.15091686478E+04  0.15091686478E+04  0.50400001928E-02 0. -1.
    10030    2    1    2    0    0  0.00000000000E+00  0.00000000000E+00 -0.56798124011E+03  0.24503560555E+04  0.23836195396E+04 0.  0.
        3    1    3    3  502    0 -0.11890175183E+04 -0.45244584323E+02 -0.35371879084E+03  0.12413406964E+04  0.10100000352E+00 0.  1.
       -3    1    3    3    0  502  0.11890175183E+04  0.45244584323E+02 -0.21426244926E+03  0.12090153592E+04  0.10100000352E+00 0. -1.
</event>
<event>
 5   0  0.2331375E-05  0.2002238E+04  0.7818609E-02  0.8605575E-01
        4   -1    0    0  501    0  0.00000000000E+00  0.00000000000E+00  0.69550192330E+03  0.69550308282E+03  0.12699999809E+01 0. -1.
       -4   -1    0    0    0  501  0.00000000000E+00  0.00000000000E+00 -0.14410276002E+04  0.14410281598E+04  0.12699999809E+01 0.  1.
    10030    2    1    2    0    0  0.00000000000E+00  0.00000000000E+00 -0.74552567689E+03  0.21365312426E+04  0.20022380518E+04 0.  0.
        5    1    3    3  502    0 -0.31724537308E+03 -0.61313066585E+02 -0.13838452447E+04  0.14210748292E+04  0.46999998093E+01 0.  1.
       -5    1    3    3    0  502  0.31724537308E+03  0.61313066585E+02  0.63831956782E+03  0.71545641344E+03  0.46999998093E+01 0. -1.
</event>
<event>
 5   0  0.2896652E-05  0.2421316E+04  0.7818609E-02  0.8431566E-01
        1   -1    0    0  501    0  0.00000000000E+00  0.00000000000E+00  0.12902991253E+04  0.12902991253E+04  0.50400001928E-02 0.  1.
       -1   -1    0    0    0  501  0.00000000000E+00  0.00000000000E+00 -0.11359326207E+04  0.11359326207E+04  0.50400001928E-02 0. -1.
    10030    2    1    2    0    0  0.00000000000E+00  0.00000000000E+00  0.15436650464E+03  0.24262317460E+04  0.24213160611E+04 0.  0.
        4    1    3    3  502    0  0.22327303634E+03 -0.74114781417E+03  0.10099545769E+04  0.12724624912E+04  0.12699999809E+01 0.  1.
       -4    1    3    3    0  502 -0.22327303634E+03  0.74114781417E+03 -0.85558807221E+03  0.11537692548E+04  0.12699999809E+01 0. -1.
</event>
<event>
 5   0  0.2896652E-05  0.2563183E+04  0.7818609E-02  0.8380816E-01
        1   -1    0    0  501    0  0.00000000000E+00  0.00000000000E+00  0.14646452579E+04  0.14646452579E+04  0.50400001928E-02 0. -1.
       -1   -1    0    0    0  501  0.00000000000E+00  0.00000000000E+00 -0.11214159694E+04  0.11214159694E+04  0.50400001928E-02 0.  1.
    10030    2    1    2    0    0  0.00000000000E+00  0.00000000000E+00  0.34322928850E+03  0.25860612274E+04  0.25631828509E+04 0.  0.
        4    1    3    3  502    0 -0.66366099520E+03 -0.45485354720E+02 -0.93358980172E+03  0.11463447844E+04  0.12699999809E+01 0.  1.
       -4    1    3    3    0  502  0.66366099520E+03  0.45485354720E+02  0.12768190902E+04  0.14397164429E+04  0.12699999809E+01 0. -1.
</event>
<event>
 5   0  0.6827859E-05  0.2407362E+04  0.7818609E-02  0.8436752E-01
       -2   -1    0    0    0  501  0.00000000000E+00  0.00000000000E+00  0.83950562183E+03  0.83950562184E+03  0.25500000920E-02 0. -1.
        2   -1    0    0  501    0  0.00000000000E+00  0.00000000000E+00 -0.17258350389E+04  0.17258350389E+04  0.25500000920E-02 0.  1.
    10030    2    1    2    0    0  0.00000000000E+00  0.00000000000E+00 -0.88632941710E+03  0.25653406608E+04  0.24073622225E+04 0.  0.
        3    1    3    3  502    0 -0.75111299302E+03  0.64951545048E+03  0.28177791921E+03  0.10322014603E+04  0.10100000352E+00 0. -1.
       -3    1    3    3    0  502  0.75111299302E+03 -0.64951545048E+03 -0.11681073363E+04  0.15331392005E+04  0.10100000352E+00 0.  1.
</event>
<event>
 5   0  0.6909250E-05  0.2456459E+04  0.7818609E-02  0.8418664E-01
        2   -1    0    0  501    0  0.00000000000E+00  0.00000000000E+00  0.24822794146E+04  0.24822794146E+04  0.25500000920E-02 0.  1.
       -2   -1    0    0    0  501  0.00000000000E+00  0.00000000000E+00 -0.60772671739E+03  0.60772671740E+03  0.25500000920E-02 0. -1.
    10030    2    1    2    0    0  0.00000000000E+00  0.00000000000E+00  0.18745526972E+04  0.30900061320E+04  0.24564588499E+04 0.  0.
        4    1    3    3  502    0 -0.87735452352E+02  0.56197938446E+03  0.23066251155E+04  0.23757187069E+04  0.12699999809E+01 0.  1.
       -4    1    3    3    0  502  0.87735452352E+02 -0.56197938446E+03 -0.43207241824E+03  0.71428742510E+03  0.12699999809E+01 0. -1.
</event>
<event>
 5   0  0.6909250E-05  0.2370715E+04  0.7818609E-02  0.8450550E-01
        2   -1    0    0  501    0  0.00000000000E+00  0.00000000000E+00  0.26112631781E+04  0.26112631781E+04  0.25500000920E-02 0.  1.
       -2   -1    0    0    0  501  0.00000000000E+00  0.00000000000E+00 -0.53808146358E+03  0.53808146358E+03  0.25500000920E-02 0. -1.
    10030    2    1    2    0    0  0.00000000000E+00  0.00000000000E+00  0.20731817145E+04  0.31493446417E+04  0.23707149240E+04 0.  0.
        4    1    3    3  502    0  0.11792030893E+04 -0.90095304412E+02  0.11431444818E+04  0.16448154938E+04  0.12699999809E+01 0.  1.
       -4    1    3    3    0  502 -0.11792030893E+04  0.90095304412E+02  0.93003723277E+03  0.15045291479E+04  0.12699999809E+01 0. -1.
</event>
<event>
 5   0  0.2980790E-05  0.2206514E+04  0.7818609E-02  0.8515722E-01
       -1   -1    0    0    0  501  0.00000000000E+00  0.00000000000E+00  0.62492076744E+03  0.62492076746E+03  0.50400001928E-02 0.  1.
        1   -1    0    0  501    0  0.00000000000E+00  0.00000000000E+00 -0.19477284753E+04  0.19477284753E+04  0.50400001928E-02 0. -1.
    10030    2    1    2    0    0  0.00000000000E+00  0.00000000000E+00 -0.13228077079E+04  0.25726492428E+04  0.22065139687E+04 0.  0.
        5    1    3    3  502    0 -0.43530882349E+03 -0.80051628764E+03 -0.13865676196E+04  0.16591901496E+04  0.46999998093E+01 0. -1.
       -5    1    3    3    0  502  0.43530882349E+03  0.80051628764E+03  0.63759911788E+02  0.91345909319E+03  0.46999998093E+01 0.  1.
</event>
<event>
 5   0  0.2777539E-05  0.2488911E+04  0.7818609E-02  0.8406947E-01
        1   -1    0    0  501    0  0.00000000000E+00  0.00000000000E+00  0.25794749364E+04  0.25794749364E+04  0.50400001928E-02 0. -1.
       -1   -1    0    0    0  501  0.00000000000E+00  0.00000000000E+00 -0.60038185878E+03  0.60038185880E+03  0.50400001928E-02 0.  1.
    10030    2    1    2    0    0  0.00000000000E+00  0.00000000000E+00  0.19790930776E+04  0.31798567952E+04  0.24889113741E+04 0.  0.
        3    1    3    3  502    0  0.40268181080E+03 -0.11332140048E+04  0.13982684231E+04  0.18443104984E+04  0.10100000352E+00 0. -1.
       -3    1    3    3    0  502 -0.40268181080E+03  0.11332140048E+04  0.58082465453E+03  0.13355462968E+04  0.10100000352E+00 0.  1.
</event>
<event>
 5   0  0.6909250E-05  0.2470613E+04  0.7818609E-02  0.8413530E-01
       -2   -1    0    0    0  501  0.00000000000E+00  0.00000000000E+00  0.96996088171E+03  0.96996088172E+03  0.25500000920E-02 0. -1.
        2   -1    0    0  501    0  0.00000000000E+00  0.00000000000E+00 -0.15732406658E+04  0.15732406658E+04  0.25500000920E-02 0.  1.
    10030    2    1    2    0    0  0.00000000000E+00  0.00000000000E+00 -0.60327978411E+03  0.25432015475E+04  0.24706128012E+04 0.  0.
        4    1    3    3  502    0  0.49913870451E+03 -0.11046905736E+04 -0.54632002287E+03  0.13296420158E+04  0.12699999809E+01 0.  1.
       -4    1    3    3    0  502 -0.49913870451E+03  0.11046905736E+04 -0.56959761244E+02  0.12135595318E+04  0.12699999809E+01 0. -1.
</event>
<event>
 5   0  0.7071821E-05  0.2407752E+04  0.7818609E-02  0.8436607E-01
       -2   -1    0    0    0  501  0.00000000000E+00  0.00000000000E+00  0.10883522740E+04  0.10883522740E+04  0.25500000920E-02 0. -1.
        2   -1    0    0  501    0  0.00000000000E+00  0.00000000000E+00 -0.13316617362E+04  0.13316617362E+04  0.25500000920E-02 0.  1.
    10030    2    1    2    0    0  0.00000000000E+00  0.00000000000E+00 -0.24330946221E+03  0.24200140103E+04  0.24077517138E+04 0.  0.
        5    1    3    3  502    0 -0.25931854449E+03  0.11746459125E+04 -0.73916929547E+02  0.12052074218E+04  0.46999998093E+01 0. -1.
       -5    1    3    3    0  502  0.25931854449E+03 -0.11746459125E+04 -0.16939253266E+03  0.12148065884E+04  0.46999998093E+01 0.  1.
</event>
<event>
 5   0  0.2980790E-05  0.2609363E+04  0.7818609E-02  0.8365028E-01
        1   -1    0    0  501    0  0.00000000000E+00  0.00000000000E+00  0.90922245711E+03  0.90922245713E+03  0.50400001928E-02 0.  1.
       -1   -1    0    0    0  501  0.00000000000E+00  0.00000000000E+00 -0.18721418857E+04  0.18721418858E+04  0.50400001928E-02 0. -1.
    10030    2    1    2    0    0  0.00000000000E+00  0.00000000000E+00 -0.96291942863E+03  0.27813643429E+04  0.26093627156E+04 0.  0.
        5    1    3    3  502    0 -0.83589611542E+03  0.54002646805E+03 -0.13807681383E+04  0.17020263346E+04  0.46999998093E+01 0. -1.
       -5    1    3    3    0  502  0.83589611542E+03 -0.54002646805E+03  0.41784870966E+03  0.10793380083E+04  0.46999998093E+01 0.  1.
</event>
<event>
 5   0  0.2777539E-05  0.2509634E+04  0.7818609E-02  0.8399562E-01
       -1   -1    0    0    0  501  0.00000000000E+00  0.00000000000E+00  0.54854434509E+03  0.54854434512E+03  0.50400001928E-02 0. -1.
        1   -1    0    0  501    0  0.00000000000E+00  0.00000000000E+00 -0.28704430477E+04  0.28704430477E+04  0.50400001928E-02 0.  1.
    10030    2    1    2    0    0  0.00000000000E+00  0.00000000000E+00 -0.23218987026E+04  0.34189873928E+04  0.25096336799E+04 0.  0.
        3    1    3    3  502    0  0.45600484136E+03  0.10923995496E+04 -0.59383382737E+03  0.13243548679E+04  0.10100000352E+00 0. -1.
       -3    1    3    3    0  502 -0.45600484136E+03 -0.10923995496E+04 -0.17280648752E+04  0.20946325249E+04  0.10100000352E+00 0.  1.
</event>
<event>
 5   0  0.6648328E-05  0.2525133E+04  0.7818609E-02  0.8394086E-01
        2   -1    0    0  501    0  0.00000000000E+00  0.00000000000E+00  0.16419630073E+04  0.16419630073E+04  0.25500000920E-02 0.  1.
       -2   -1    0    0    0  501  0.00000000000E+00  0.00000000000E+00 -0.97083450478E+03  0.97083450478E+03  0.25500000920E-02 0. -1.
    10030    2    1    2    0    0  0.00000000000E+00  0.00000000000E+00  0.67112850247E+03  0.26127975120E+04  0.25251331395E+04 0.  0.
        2    1    3    3  502    0 -0.32418764044E+03 -0.10716471070E+02  0.15981145144E+04  0.16306999939E+04  0.25500000920E-02 0.  1.
       -2    1    3    3    0  502  0.32418764044E+03  0.10716471070E+02 -0.92698601189E+03  0.98209751818E+03  0.25500000920E-02 0. -1.
</event>
<event>
 5   0  0.7071821E-05  0.2511403E+04  0.7818609E-02  0.8398934E-01
       -2   -1    0    0    0  501  0.00000000000E+00  0.00000000000E+00  0.60425093271E+03  0.60425093271E+03  0.25500000920E-02 0.  1.
        2   -1    0    0  501    0  0.00000000000E+00  0.00000000000E+00 -0.26094885672E+04  0.26094885672E+04  0.25500000920E-02 0. -1.
    10030    2    1    2    0    0  0.00000000000E+00  0.00000000000E+00 -0.20052376345E+04  0.32137394999E+04  0.25114027161E+04 0.  0.
        5    1    3    3  502    0  0.47912731716E+03 -0.11303579915E+04 -0.13399531761E+04  0.18173521341E+04  0.46999998093E+01 0. -1.
       -5    1    3    3    0  502 -0.47912731716E+03  0.11303579915E+04 -0.66528445835E+03  0.13963873658E+04  0.46999998093E+01 0.  1.
</event>
<event>
 5   0  0.6445331E-05  0.2484718E+04  0.7818609E-02  0.8408450E-01
        2   -1    0    0  501    0  0.00000000000E+00  0.00000000000E+00  0.18158311133E+04  0.18158311133E+04  0.25500000920E-02 0.  1.
       -2   -1    0    0    0  501  0.00000000000E+00  0.00000000000E+00 -0.84999977414E+03  0.84999977415E+03  0.25500000920E-02 0. -1.
    10030    2    1    2    0    0  0.00000000000E+00  0.00000000000E+00  0.96583133911E+03  0.26658308874E+04  0.24847181218E+04 0.  0.
        1    1    3    3  502    0 -0.26844939717E+03  0.63868200245E+03 -0.62350267373E+03  0.93205974233E+03  0.50400001928E-02 0. -1.
       -1    1    3    3    0  502  0.26844939717E+03 -0.63868200245E+03  0.15893340128E+04  0.17337711451E+04  0.50400001928E-02 0.  1.
</event>
<event>
 5   0  0.6909250E-05  0.1363237E+04  0.7818609E-02  0.8980868E-01
        2   -1    0    0  501    0  0.00000000000E+00  0.00000000000E+00  0.75003170304E+03  0.75003170304E+03  0.25500000920E-02 0. -1.
       -2   -1    0    0    0  501  0.00000000000E+00  0.00000000000E+00 -0.61944578357E+03  0.61944578357E+03  0.25500000920E-02 0.  1.
    10030    2    1    2    0    0  0.00000000000E+00  0.00000000000E+00  0.13058591947E+03  0.13694774866E+04  0.13632372882E+04 0.  0.
        4    1    3    3  502    0  0.24723566850E+03  0.29881225154E+03 -0.49779770072E+03  0.63104548266E+03  0.12699999809E+01 0.  1.
       -4    1    3    3    0  502 -0.24723566850E+03 -0.29881225154E+03  0.62838362019E+03  0.73843200395E+03  0.12699999809E+01 0. -1.
</event>
<event>
 5   0  0.7071821E-05  0.2431602E+04  0.7818609E-02  0.8427766E-01
       -2   -1    0    0    0  501  0.00000000000E+00  0.00000000000E+00  0.60522787686E+03  0.60522787686E+03  0.25500000920E-02 0.  1.
        2   -1    0    0  501    0  0.00000000000E+00  0.00000000000E+00 -0.24423397489E+04  0.24423397489E+04  0.25500000920E-02 0. -1.
    10030    2    1    2    0    0  0.00000000000E+00  0.00000000000E+00 -0.18371118721E+04  0.30475676258E+04  0.24316020240E+04 0.  0.
        5    1    3    3  502    0 -0.54451781694E+03  0.94636199728E+03 -0.15888746144E+04  0.19278602940E+04  0.46999998093E+01 0.  1.
       -5    1    3    3    0  502  0.54451781694E+03 -0.94636199728E+03 -0.24823725771E+03  0.11197073318E+04  0.46999998093E+01 0. -1.
</event>
<event>
 5   0  0.6827859E-05  0.2443201E+04  0.7818609E-02  0.8423505E-01
        2   -1    0    0  501    0  0.00000000000E+00  0.00000000000E+00  0.17035699978E+04  0.17035699978E+04  0.25500000920E-02 0. -1.
       -2   -1    0    0    0  501  0.00000000000E+00  0.00000000000E+00 -0.87598824198E+03  0.87598824199E+03  0.25500000920E-02 0.  1.
    10030    2    1    2    0    0  0.00000000000E+00  0.00000000000E+00  0.82758175578E+03  0.25795582398E+04  0.24432005955E+04 0.  0.
        3    1    3    3  502    0  0.58526150696E+03  0.61761310477E+03  0.13392562890E+04  0.15866897606E+04  0.10100000352E+00 0. -1.
       -3    1    3    3    0  502 -0.58526150696E+03 -0.61761310477E+03 -0.51167453320E+03  0.99286847913E+03  0.10100000352E+00 0.  1.
</event>
<event>
 5   0  0.2896652E-05  0.2485207E+04  0.7818609E-02  0.8408275E-01
       -1   -1    0    0    0  501  0.00000000000E+00  0.00000000000E+00  0.10113428962E+04  0.10113428962E+04  0.50400001928E-02 0.  1.
        1   -1    0    0  501    0  0.00000000000E+00  0.00000000000E+00 -0.15267460914E+04  0.15267460914E+04  0.50400001928E-02 0. -1.
    10030    2    1    2    0    0  0.00000000000E+00  0.00000000000E+00 -0.51540319522E+03  0.25380889877E+04  0.24852072863E+04 0.  0.
        4    1    3    3  502    0  0.64483156520E+03  0.87908081817E+03  0.35119919548E+03  0.11453965777E+04  0.12699999809E+01 0.  1.
       -4    1    3    3    0  502 -0.64483156520E+03 -0.87908081817E+03 -0.86660239070E+03  0.13926924100E+04  0.12699999809E+01 0. -1.
</event>
<event>
 5   0  0.7071821E-05  0.3358918E+04  0.7818609E-02  0.8148063E-01
       -2   -1    0    0    0  501  0.00000000000E+00  0.00000000000E+00  0.11697213371E+04  0.11697213371E+04  0.25500000920E-02 0. -1.
        2   -1    0    0  501    0  0.00000000000E+00  0.00000000000E+00 -0.24113291385E+04  0.24113291385E+04  0.25500000920E-02 0.  1.
    10030    2    1    2    0    0  0.00000000000E+00  0.00000000000E+00 -0.12416078014E+04  0.35810504757E+04  0.33589183641E+04 0.  0.
        5    1    3    3  502    0 -0.82140206120E+03  0.24583198755E+03 -0.21604057400E+04  0.23243299601E+04  0.46999998093E+01 0.  1.
       -5    1    3    3    0  502  0.82140206120E+03 -0.24583198755E+03  0.91879793859E+03  0.12567205155E+04  0.46999998093E+01 0. -1.
</event>
<event>
 5   0  0.2980790E-05  0.1983219E+04  0.7818609E-02  0.8614507E-01
       -1   -1    0    0    0  501  0.00000000000E+00  0.00000000000E+00  0.69549274066E+03  0.69549274068E+03  0.50400001928E-02 0. -1.
        1   -1    0    0  501    0  0.00000000000E+00  0.00000000000E+00 -0.14138026736E+04  0.14138026736E+04  0.50400001928E-02 0.  1.
    10030    2    1    2    0    0  0.00000000000E+00  0.00000000000E+00 -0.71830993289E+03  0.21092954142E+04  0.19832190965E+04 0.  0.
        5    1    3    3  502    0  0.50002966446E+03  0.19382817295E+03  0.52793536311E+03  0.75255356194E+03  0.46999998093E+01 0. -1.
       -5    1    3    3    0  502 -0.50002966446E+03 -0.19382817295E+03 -0.12462452960E+04  0.13567418523E+04  0.46999998093E+01 0.  1.
</event>
<event>
 5   0  0.2980790E-05  0.2495186E+04  0.7818609E-02  0.8404702E-01
        1   -1    0    0  501    0  0.00000000000E+00  0.00000000000E+00  0.13199321992E+04  0.13199321993E+04  0.50400001928E-02 0. -1.
       -1   -1    0    0    0  501  0.00000000000E+00  0.00000000000E+00 -0.11792187287E+04  0.11792187287E+04  0.50400001928E-02 0.  1.
    10030    2    1    2    0    0  0.00000000000E+00  0.00000000000E+00  0.14071347051E+03  0.24991509280E+04  0.24951863818E+04 0.  0.
        5    1    3    3  502    0 -0.11777464094E+04  0.34621755399E+03 -0.15251306363E+03  0.12370268890E+04  0.46999998093E+01 0.  1.
       -5    1    3    3    0  502  0.11777464094E+04 -0.34621755399E+03  0.29322653414E+03  0.12621240390E+04  0.46999998093E+01 0. -1.
</event>
<event>
 5   0  0.2980790E-05  0.2493705E+04  0.7818609E-02  0.8405232E-01
       -1   -1    0    0    0  501  0.00000000000E+00  0.00000000000E+00  0.67331618528E+03  0.67331618530E+03  0.50400001928E-02 0.  1.
        1   -1    0    0  501    0  0.00000000000E+00  0.00000000000E+00 -0.23089310247E+04  0.23089310247E+04  0.50400001928E-02 0. -1.
    10030    2    1    2    0    0  0.00000000000E+00  0.00000000000E+00 -0.16356148394E+04  0.29822472100E+04  0.24937045773E+04 0.  0.
        5    1    3    3  502    0 -0.10109720158E+03  0.62505412877E+03  0.46672795720E+03  0.78661959300E+03  0.46999998093E+01 0.  1.
       -5    1    3    3    0  502  0.10109720158E+03 -0.62505412877E+03 -0.21023427966E+04  0.21956276170E+04  0.46999998093E+01 0. -1.
</event>
<event>
 5   0  0.2977854E-05  0.2503707E+04  0.7818609E-02  0.8401666E-01
       -1   -1    0    0    0  501  0.00000000000E+00  0.00000000000E+00  0.50934352909E+03  0.50934352911E+03  0.50400001928E-02 0. -1.
        1   -1    0    0  501    0  0.00000000000E+00  0.00000000000E+00 -0.30767795599E+04  0.30767795599E+04  0.50400001928E-02 0.  1.
    10030    2    1    2    0    0  0.00000000000E+00  0.00000000000E+00 -0.25674360308E+04  0.35861230890E+04  0.25037074584E+04 0.  0.
        1    1    3    3  502    0 -0.54050011064E+03  0.42036525323E+03 -0.27847854785E+04  0.28677303704E+04  0.50400001928E-02 0.  1.
       -1    1    3    3    0  502  0.54050011064E+03 -0.42036525323E+03  0.21734944773E+03  0.71839271863E+03  0.50400001928E-02 0. -1.
</event>
<event>
 5   0  0.6827859E-05  0.2623173E+04  0.7818609E-02  0.8360372E-01
       -2   -1    0    0    0  501  0.00000000000E+00  0.00000000000E+00  0.10693550650E+04  0.10693550650E+04  0.25500000920E-02 0. -1.
        2   -1    0    0  501    0  0.00000000000E+00  0.00000000000E+00 -0.16086887752E+04  0.16086887752E+04  0.25500000920E-02 0.  1.
    10030    2    1    2    0    0  0.00000000000E+00  0.00000000000E+00 -0.53933371022E+03  0.26780438401E+04  0.26231732613E+04 0.  0.
        3    1    3    3  502    0  0.28902482715E+03 -0.52433608710E+03 -0.14610369654E+04  0.15789530415E+04  0.10100000352E+00 0.  1.
       -3    1    3    3    0  502 -0.28902482715E+03  0.52433608710E+03  0.92170325513E+03  0.10990907986E+04  0.10100000352E+00 0. -1.
</event>
<event>
 5   0  0.2331375E-05  0.2590112E+04  0.7818609E-02  0.8371568E-01
       -4   -1    0    0    0  501  0.00000000000E+00  0.00000000000E+00  0.10603288913E+04  0.10603296518E+04  0.12699999809E+01 0.  1.
        4   -1    0    0  501    0  0.00000000000E+00  0.00000000000E+00 -0.15817439233E+04  0.15817444331E+04  0.12699999809E+01 0. -1.
    10030    2    1    2    0    0  0.00000000000E+00  0.00000000000E+00 -0.52141503203E+03  0.26420740850E+04  0.25901123209E+04 0.  0.
        1    1    3    3  502    0  0.64770720901E+03 -0.45325453994E+03 -0.13070571141E+04  0.15275348134E+04  0.50400001928E-02 0. -1.
       -1    1    3    3    0  502 -0.64770720901E+03  0.45325453994E+03  0.78564208212E+03  0.11145392715E+04  0.50400001928E-02 0.  1.
</event>
<event>
 5   0  0.2896652E-05  0.2802576E+04  0.7818609E-02  0.8302469E-01
        1   -1    0    0  501    0  0.00000000000E+00  0.00000000000E+00  0.15502537632E+04  0.15502537632E+04  0.50400001928E-02 0.  1.
       -1   -1    0    0    0  501  0.00000000000E+00  0.00000000000E+00 -0.12666368288E+04  0.12666368288E+04  0.50400001928E-02 0. -1.
    10030    2    1    2    0    0  0.00000000000E+00  0.00000000000E+00  0.28361693443E+03  0.28168905920E+04  0.28025763222E+04 0.  0.
        4    1    3    3  502    0 -0.11583432502E+04 -0.61544997885E+03  0.63734700975E+03  0.14583382960E+04  0.12699999809E+01 0.  1.
       -4    1    3    3    0  502  0.11583432502E+04  0.61544997885E+03 -0.35373007532E+03  0.13585522960E+04  0.12699999809E+01 0. -1.
</event>
<event>
 5   0  0.6648328E-05  0.1596143E+04  0.7818609E-02  0.8822921E-01
       -2   -1    0    0    0  501  0.00000000000E+00  0.00000000000E+00  0.62970036823E+03  0.62970036823E+03  0.25500000920E-02 0. -1.
        2   -1    0    0  501    0  0.00000000000E+00  0.00000000000E+00 -0.10114625456E+04  0.10114625456E+04  0.25500000920E-02 0.  1.
    10030    2    1    2    0    0  0.00000000000E+00  0.00000000000E+00 -0.38176217739E+03  0.16411629138E+04  0.15961432736E+04 0.  0.
        2    1    3    3  502    0  0.54021954730E+03  0.57038912813E+03 -0.33533357488E+03  0.85418354188E+03  0.25500000920E-02 0. -1.
       -2    1    3    3    0  502 -0.54021954730E+03 -0.57038912813E+03 -0.46428602508E+02  0.78697937197E+03  0.25500000920E-02 0.  1.
</event>
<event>
 5   0  0.6648328E-05  0.2446632E+04  0.7818609E-02  0.8422249E-01
       -2   -1    0    0    0  501  0.00000000000E+00  0.00000000000E+00  0.13172169379E+04  0.13172169379E+04  0.25500000920E-02 0. -1.
        2   -1    0    0  501    0  0.00000000000E+00  0.00000000000E+00 -0.11361092241E+04  0.11361092241E+04  0.25500000920E-02 0.  1.
    10030    2    1    2    0    0  0.00000000000E+00  0.00000000000E+00  0.18110771382E+03  0.24533261620E+04  0.24466322268E+04 0.  0.
        2    1    3    3  502    0 -0.87348105215E+03  0.52476639555E+03 -0.58816834028E+03  0.11765589296E+04  0.25500000920E-02 0.  1.
       -2    1    3    3    0  502  0.87348105215E+03 -0.52476639555E+03  0.76927605410E+03  0.12767672324E+04  0.25500000920E-02 0. -1.
</event>
<event>
 5   0  0.2977854E-05  0.2421748E+04  0.7818609E-02  0.8431406E-01
        1   -1    0    0  501    0  0.00000000000E+00  0.00000000000E+00  0.12835625204E+04  0.12835625204E+04  0.50400001928E-02 0. -1.
       -1   -1    0    0    0  501  0.00000000000E+00  0.00000000000E+00 -0.11423015152E+04  0.11423015152E+04  0.50400001928E-02 0.  1.
    10030    2    1    2    0    0  0.00000000000E+00  0.00000000000E+00  0.14126100526E+03  0.24258640356E+04  0.24217476433E+04 0.  0.
        1    1    3    3  502    0 -0.11841364829E+04 -0.21925725726E+03  0.19718787197E+03  0.12203016069E+04  0.50400001928E-02 0.  1.
       -1    1    3    3    0  502  0.11841364829E+04  0.21925725726E+03 -0.55926866711E+02  0.12055624287E+04  0.50400001928E-02 0. -1.
</event>
<event>
 5   0  0.7071821E-05  0.2451740E+04  0.7818609E-02  0.8420383E-01
        2   -1    0    0  501    0  0.00000000000E+00  0.00000000000E+00  0.15518640793E+04  0.15518640793E+04  0.25500000920E-02 0.  1.
       -2   -1    0    0    0  501  0.00000000000E+00  0.00000000000E+00 -0.96835653982E+03  0.96835653982E+03  0.25500000920E-02 0. -1.
    10030    2    1    2    0    0  0.00000000000E+00  0.00000000000E+00  0.58350753946E+03  0.25202206191E+04  0.24517403860E+04 0.  0.
        5    1    3    3  502    0  0.98512867377E+03 -0.30054164500E+03  0.97510146409E+03  0.14183260343E+04  0.46999998093E+01 0.  1.
       -5    1    3    3    0  502 -0.98512867377E+03  0.30054164500E+03 -0.39159392463E+03  0.11018945848E+04  0.46999998093E+01 0. -1.
</event>
<event>
 5   0  0.2777539E-05  0.1779576E+04  0.7818609E-02  0.8717237E-01
        1   -1    0    0  501    0  0.00000000000E+00  0.00000000000E+00  0.10553555358E+04  0.10553555358E+04  0.50400001928E-02 0. -1.
       -1   -1    0    0    0  501  0.00000000000E+00  0.00000000000E+00 -0.75019554254E+03  0.75019554256E+03  0.50400001928E-02 0.  1.
    10030    2    1    2    0    0  0.00000000000E+00  0.00000000000E+00  0.30515999327E+03  0.18055510784E+04  0.17795763752E+04 0.  0.
        3    1    3    3  502    0  0.57313127553E+03 -0.30334495486E+03 -0.46559577874E+03  0.79829634848E+03  0.10100000352E+00 0.  1.
       -3    1    3    3    0  502 -0.57313127553E+03  0.30334495486E+03  0.77075577200E+03  0.10072547299E+04  0.10100000352E+00 0. -1.
</event>
<event>
 5   0  0.6909250E-05  0.1419755E+04  0.7818609E-02  0.8939641E-01
       -2   -1    0    0    0  501  0.00000000000E+00  0.00000000000E+00  0.76309148806E+03  0.76309148806E+03  0.25500000920E-02 0.  1.
        2   -1    0    0  501    0  0.00000000000E+00  0.00000000000E+00 -0.66037476168E+03  0.66037476168E+03  0.25500000920E-02 0. -1.
    10030    2    1    2    0    0  0.00000000000E+00  0.00000000000E+00  0.10271672638E+03  0.14234662497E+04  0.14197554150E+04 0.  0.
        4    1    3    3  502    0  0.40088272869E+03 -0.73654608540E+02 -0.53136016091E+03  0.66968440106E+03  0.12699999809E+01 0. -1.
       -4    1    3    3    0  502 -0.40088272869E+03  0.73654608540E+02  0.63407688729E+03  0.75378184869E+03  0.12699999809E+01 0.  1.
</event>
<event>
 5   0  0.2331375E-05  0.1253369E+04  0.7818609E-02  0.9067383E-01
       -4   -1    0    0    0  501  0.00000000000E+00  0.00000000000E+00  0.82781522160E+03  0.82781619579E+03  0.12699999809E+01 0. -1.
        4   -1    0    0  501    0  0.00000000000E+00  0.00000000000E+00 -0.47441992174E+03  0.47442162161E+03  0.12699999809E+01 0.  1.
    10030    2    1    2    0    0  0.00000000000E+00  0.00000000000E+00  0.35339529985E+03  0.13022378174E+04  0.12533694966E+04 0.  0.
        1    1    3    3  502    0  0.31883078370E+03  0.23218648918E+03 -0.32929147945E+03  0.51380590971E+03  0.50400001928E-02 0.  1.
       -1    1    3    3    0  502 -0.31883078370E+03 -0.23218648918E+03  0.68268677930E+03  0.78843190768E+03  0.50400001928E-02 0. -1.
</event>
<event>
 5   0  0.2977854E-05  0.2365553E+04  0.7818609E-02  0.8452514E-01
       -1   -1    0    0    0  501  0.00000000000E+00  0.00000000000E+00  0.92207943991E+03  0.92207943993E+03  0.50400001928E-02 0. -1.
        1   -1    0    0  501    0  0.00000000000E+00  0.00000000000E+00 -0.15171798092E+04  0.15171798092E+04  0.50400001928E-02 0.  1.
    10030    2    1    2    0    0  0.00000000000E+00  0.00000000000E+00 -0.59510036925E+03  0.24392592491E+04  0.23655530505E+04 0.  0.
        1    1    3    3  502    0  0.23468376645E+03  0.77041224767E+03 -0.11907669510E+04  0.14375456282E+04  0.50400001928E-02 0.  1.
       -1    1    3    3    0  502 -0.23468376645E+03 -0.77041224767E+03  0.59566658176E+03  0.10017136209E+04  0.50400001928E-02 0. -1.
</event>
<event>
 5   0  0.2977854E-05  0.2264532E+04  0.7818609E-02  0.8492039E-01
       -1   -1    0    0    0  501  0.00000000000E+00  0.00000000000E+00  0.77041566877E+03  0.77041566878E+03  0.50400001928E-02 0. -1.
        1   -1    0    0  501    0  0.00000000000E+00  0.00000000000E+00 -0.16640702186E+04  0.16640702186E+04  0.50400001928E-02 0.  1.
    10030    2    1    2    0    0  0.00000000000E+00  0.00000000000E+00 -0.89365454979E+03  0.24344858873E+04  0.22645315368E+04 0.  0.
        1    1    3    3  502    0  0.52464342784E+03 -0.96117901653E+03 -0.13727628723E+03  0.11036125259E+04  0.50400001928E-02 0.  1.
       -1    1    3    3    0  502 -0.52464342784E+03  0.96117901653E+03 -0.75637826257E+03  0.13308733615E+04  0.50400001928E-02 0. -1.
</event>
<event>
 5   0  0.2777539E-05  0.2048386E+04  0.7818609E-02  0.8584327E-01
       -1   -1    0    0    0  501  0.00000000000E+00  0.00000000000E+00  0.82440596967E+03  0.82440596969E+03  0.50400001928E-02 0. -1.
        1   -1    0    0  501    0  0.00000000000E+00  0.00000000000E+00 -0.12723969689E+04  0.12723969690E+04  0.50400001928E-02 0.  1.
    10030    2    1    2    0    0  0.00000000000E+00  0.00000000000E+00 -0.44799099928E+03  0.20968029386E+04  0.20483863474E+04 0.  0.
        3    1    3    3  502    0  0.28806996852E+03  0.14275843865E+03 -0.12194035937E+04  0.12610747056E+04  0.10100000352E+00 0.  1.
       -3    1    3    3    0  502 -0.28806996852E+03 -0.14275843865E+03  0.77141259439E+03  0.83572823307E+03  0.10100000352E+00 0. -1.
</event>
<event>
 5   0  0.6909250E-05  0.2481272E+04  0.7818609E-02  0.8409688E-01
       -2   -1    0    0    0  501  0.00000000000E+00  0.00000000000E+00  0.69413792323E+03  0.69413792323E+03  0.25500000920E-02 0.  1.
        2   -1    0    0  501    0  0.00000000000E+00  0.00000000000E+00 -0.22173947466E+04  0.22173947466E+04  0.25500000920E-02 0. -1.
    10030    2    1    2    0    0  0.00000000000E+00  0.00000000000E+00 -0.15232568234E+04  0.29115326698E+04  0.24812720805E+04 0.  0.
        4    1    3    3  502    0  0.87344942814E+03 -0.38940048621E+03 -0.16890101391E+04  0.19409542769E+04  0.12699999809E+01 0. -1.
       -4    1    3    3    0  502 -0.87344942814E+03  0.38940048621E+03  0.16575331576E+03  0.97057839289E+03  0.12699999809E+01 0.  1.
</event>
<event>
 5   0  0.6445331E-05  0.2582346E+04  0.7818609E-02  0.8374223E-01
        2   -1    0    0  501    0  0.00000000000E+00  0.00000000000E+00  0.16669855211E+04  0.16669855211E+04  0.25500000920E-02 0.  1.
       -2   -1    0    0    0  501  0.00000000000E+00  0.00000000000E+00 -0.10000853124E+04  0.10000853124E+04  0.25500000920E-02 0. -1.
    10030    2    1    2    0    0  0.00000000000E+00  0.00000000000E+00  0.66690020875E+03  0.26670708335E+04  0.25823460152E+04 0.  0.
        1    1    3    3  502    0  0.19022553805E+03 -0.10921527360E+04  0.10170921098E+04  0.15044798815E+04  0.50400001928E-02 0.  1.
       -1    1    3    3    0  502 -0.19022553805E+03  0.10921527360E+04 -0.35019190106E+03  0.11625909520E+04  0.50400001928E-02 0. -1.
</event>
<event>
 5   0  0.2331375E-05  0.2527160E+04  0.7818609E-02  0.8393373E-01
       -4   -1    0    0    0  501  0.00000000000E+00  0.00000000000E+00  0.14924311729E+04  0.14924317133E+04  0.12699999809E+01 0.  1.
        4   -1    0    0  501    0  0.00000000000E+00  0.00000000000E+00 -0.10698204055E+04  0.10698211593E+04  0.12699999809E+01 0. -1.
    10030    2    1    2    0    0  0.00000000000E+00  0.00000000000E+00  0.42261076741E+03  0.25622528726E+04  0.25271604465E+04 0.  0.
        3    1    3    3  502    0 -0.14835417787E+03  0.12051653662E+04 -0.14312351642E+03  0.12226679324E+04  0.10100000352E+00 0.  1.
       -3    1    3    3    0  502  0.14835417787E+03 -0.12051653662E+04  0.56573428383E+03  0.13395849402E+04  0.10100000352E+00 0. -1.
</event>
<event>
 5   0  0.2793920E-05  0.2563413E+04  0.7818609E-02  0.8380736E-01
        1   -1    0    0  501    0  0.00000000000E+00  0.00000000000E+00  0.16169414426E+04  0.16169414426E+04  0.50400001928E-02 0.  1.
       -1   -1    0    0    0  501  0.00000000000E+00  0.00000000000E+00 -0.10159742909E+04  0.10159742909E+04  0.50400001928E-02 0. -1.
    10030    2    1    2    0    0  0.00000000000E+00  0.00000000000E+00  0.60096715169E+03  0.26329157336E+04  0.25634125190E+04 0.  0.
        2    1    3    3  502    0  0.42745606870E+03 -0.51948132421E+03 -0.82005512967E+03  0.10606931472E+04  0.25500000920E-02 0. -1.
       -2    1    3    3    0  502 -0.42745606870E+03  0.51948132421E+03  0.14210222814E+04  0.15722225863E+04  0.25500000920E-02 0.  1.
</event>
<event>
 5   0  0.2331375E-05  0.2426822E+04  0.7818609E-02  0.8429530E-01
        3   -1    0    0  501    0  0.00000000000E+00  0.00000000000E+00  0.98022906039E+03  0.98022906559E+03  0.10100000352E+00 0. -1.
       -3   -1    0    0    0  501  0.00000000000E+00  0.00000000000E+00 -0.15020634656E+04  0.15020634690E+04  0.10100000352E+00 0.  1.
    10030    2    1    2    0    0  0.00000000000E+00  0.00000000000E+00 -0.52183440522E+03  0.24822925346E+04  0.24268220126E+04 0.  0.
        2    1    3    3  502    0 -0.84954809186E+03 -0.62278230704E+03  0.35515925542E+03  0.11116329696E+04  0.25500000920E-02 0. -1.
       -2    1    3    3    0  502  0.84954809186E+03  0.62278230704E+03 -0.87699366063E+03  0.13706595650E+04  0.25500000920E-02 0.  1.
</event>
<event>
 5   0  0.6909250E-05  0.2472576E+04  0.7818609E-02  0.8412821E-01
       -2   -1    0    0    0  501  0.00000000000E+00  0.00000000000E+00  0.12968655835E+04  0.12968655835E+04  0.25500000920E-02 0.  1.
        2   -1    0    0  501    0  0.00000000000E+00  0.00000000000E+00 -0.11785403200E+04  0.11785403201E+04  0.25500000920E-02 0. -1.
    10030    2    1    2    0    0  0.00000000000E+00  0.00000000000E+00  0.11832526349E+03  0.24754059036E+04  0.24725762920E+04 0.  0.
        4    1    3    3  502    0 -0.34579021083E+03  0.87597121236E+03 -0.74269736774E+03  0.11993737648E+04  0.12699999809E+01 0. -1.
       -4    1    3    3    0  502  0.34579021083E+03 -0.87597121236E+03  0.86102263124E+03  0.12760321388E+04  0.12699999809E+01 0.  1.
</event>
<event>
 5   0  0.2777539E-05  0.1411599E+04  0.7818609E-02  0.8945465E-01
        1   -1    0    0  501    0  0.00000000000E+00  0.00000000000E+00  0.65062453694E+03  0.65062453696E+03  0.50400001928E-02 0. -1.
       -1   -1    0    0    0  501  0.00000000000E+00  0.00000000000E+00 -0.76565400153E+03  0.76565400154E+03  0.50400001928E-02 0.  1.
    10030    2    1    2    0    0  0.00000000000E+00  0.00000000000E+00 -0.11502946459E+03  0.14162785385E+04  0.14115994903E+04 0.  0.
        3    1    3    3  502    0  0.20563117484E+03 -0.65878781644E+03  0.90852762416E+02  0.69608893239E+03  0.10100000352E+00 0.  1.
       -3    1    3    3    0  502 -0.20563117484E+03  0.65878781644E+03 -0.20588222700E+03  0.72018960611E+03  0.10100000352E+00 0. -1.
</event>
<event>
 5   0  0.6909250E-05  0.2112467E+04  0.7818609E-02  0.8555771E-01
       -2   -1    0    0    0  501  0.00000000000E+00  0.00000000000E+00  0.98077097183E+03  0.98077097184E+03  0.25500000920E-02 0. -1.
        2   -1    0    0  501    0  0.00000000000E+00  0.00000000000E+00 -0.11375026994E+04  0.11375026994E+04  0.25500000920E-02 0.  1.
    10030    2    1    2    0    0  0.00000000000E+00  0.00000000000E+00 -0.15673172756E+03  0.21182736712E+04  0.21124673990E+04 0.  0.
        4    1    3    3  502    0  0.87056812820E+03  0.13744482526E+03 -0.66207240551E+03  0.11023254641E+04  0.12699999809E+01 0.  1.
       -4    1    3    3    0  502 -0.87056812820E+03 -0.13744482526E+03  0.50534067795E+03  0.10159482071E+04  0.12699999809E+01 0. -1.
</event>
<event>
 5   0  0.2777539E-05  0.2551521E+04  0.7818609E-02  0.8384857E-01
       -1   -1    0    0    0  501  0.00000000000E+00  0.00000000000E+00  0.13802820817E+04  0.13802820817E+04  0.50400001928E-02 0. -1.
        1   -1    0    0  501    0  0.00000000000E+00  0.00000000000E+00 -0.11791539611E+04  0.11791539611E+04  0.50400001928E-02 0.  1.
    10030    2    1    2    0    0  0.00000000000E+00  0.00000000000E+00  0.20112812061E+03  0.25594360429E+04  0.25515211809E+04 0.  0.
        3    1    3    3  502    0  0.61602096376E+03 -0.42584818160E+03 -0.93546919542E+03  0.11983034371E+04  0.10100000352E+00 0.  1.
       -3    1    3    3    0  502 -0.61602096376E+03  0.42584818160E+03  0.11365973160E+04  0.13611326058E+04  0.10100000352E+00 0. -1.
</event>
<event>
 5   0  0.2777539E-05  0.2459096E+04  0.7818609E-02  0.8417704E-01
       -1   -1    0    0    0  501  0.00000000000E+00  0.00000000000E+00  0.26068682637E+04  0.26068682637E+04  0.50400001928E-02 0.  1.
        1   -1    0    0  501    0  0.00000000000E+00  0.00000000000E+00 -0.57992528079E+03  0.57992528081E+03  0.50400001928E-02 0. -1.
    10030    2    1    2    0    0  0.00000000000E+00  0.00000000000E+00  0.20269429829E+04  0.31867935445E+04  0.24590964274E+04 0.  0.
        3    1    3    3  502    0 -0.61959700748E+03  0.95771525274E+03  0.41865971917E+03  0.12150699271E+04  0.10100000352E+00 0. -1.
       -3    1    3    3    0  502  0.61959700748E+03 -0.95771525274E+03  0.16082832638E+04  0.19717236175E+04  0.10100000352E+00 0.  1.
</event>
<event>
 5   0  0.6909250E-05  0.1951704E+04  0.7818609E-02  0.8629540E-01
       -2   -1    0    0    0  501  0.00000000000E+00  0.00000000000E+00  0.13431682293E+04  0.13431682293E+04  0.25500000920E-02 0. -1.
        2   -1    0    0  501    0  0.00000000000E+00  0.00000000000E+00 -0.70898554610E+03  0.70898554610E+03  0.25500000920E-02 0.  1.
    10030    2    1    2    0    0  0.00000000000E+00  0.00000000000E+00  0.63418268319E+03  0.20521537754E+04  0.19517037281E+04 0.  0.
        4    1    3    3  502    0 -0.30085812324E+03  0.14689152807E+03 -0.64670531120E+03  0.72823217711E+03  0.12699999809E+01 0.  1.
       -4    1    3    3    0  502  0.30085812324E+03 -0.14689152807E+03  0.12808879944E+04  0.13239215983E+04  0.12699999809E+01 0. -1.
</event>
<event>
 5   0  0.6445331E-05  0.2486736E+04  0.7818609E-02  0.8407726E-01
        2   -1    0    0  501    0  0.00000000000E+00  0.00000000000E+00  0.24599901280E+04  0.24599901280E+04  0.25500000920E-02 0. -1.
       -2   -1    0    0    0  501  0.00000000000E+00  0.00000000000E+00 -0.62844328574E+03  0.62844328574E+03  0.25500000920E-02 0.  1.
    10030    2    1    2    0    0  0.00000000000E+00  0.00000000000E+00  0.18315468423E+04  0.30884334138E+04  0.24867362377E+04 0.  0.
        1    1    3    3  502    0  0.39975209693E+03  0.16308227251E+03  0.23639075228E+04  0.24030098508E+04  0.50400001928E-02 0. -1.
       -1    1    3    3    0  502 -0.39975209693E+03 -0.16308227251E+03 -0.53236068047E+03  0.68542356302E+03  0.50400001928E-02 0.  1.
</event>
<event>
 5   0  0.6648328E-05  0.2556907E+04  0.7818609E-02  0.8382988E-01
        2   -1    0    0  501    0  0.00000000000E+00  0.00000000000E+00  0.12016992719E+04  0.12016992719E+04  0.25500000920E-02 0.  1.
       -2   -1    0    0    0  501  0.00000000000E+00  0.00000000000E+00 -0.13601104579E+04  0.13601104579E+04  0.25500000920E-02 0. -1.
    10030    2    1    2    0    0  0.00000000000E+00  0.00000000000E+00 -0.15841118594E+03  0.25618097298E+04  0.25569073092E+04 0.  0.
        2    1    3    3  502    0 -0.11618244666E+03  0.62600111234E+03  0.10315534068E+04  0.12122203532E+04  0.25500000920E-02 0.  1.
       -2    1    3    3    0  502  0.11618244666E+03 -0.62600111234E+03 -0.11899645927E+04  0.13495893766E+04  0.25500000920E-02 0. -1.
</event>
<event>
 5   0  0.6909250E-05  0.2391281E+04  0.7818609E-02  0.8442775E-01
       -2   -1    0    0    0  501  0.00000000000E+00  0.00000000000E+00  0.58072427640E+03  0.58072427640E+03  0.25500000920E-02 0. -1.
        2   -1    0    0  501    0  0.00000000000E+00  0.00000000000E+00 -0.24616787767E+04  0.24616787767E+04  0.25500000920E-02 0.  1.
    10030    2    1    2    0    0  0.00000000000E+00  0.00000000000E+00 -0.18809545003E+04  0.30424030531E+04  0.23912813522E+04 0.  0.
        4    1    3    3  502    0  0.78967937923E+03 -0.86587067213E+03 -0.12421722193E+04  0.17077233319E+04  0.12699999809E+01 0.  1.
       -4    1    3    3    0  502 -0.78967937923E+03  0.86587067213E+03 -0.63878228093E+03  0.13346797212E+04  0.12699999809E+01 0. -1.
</event>
<event>
 5   0  0.2977854E-05  0.2318912E+04  0.7818609E-02  0.8470501E-01
        1   -1    0    0  501    0  0.00000000000E+00  0.00000000000E+00  0.18326186148E+04  0.18326186149E+04  0.50400001928E-02 0.  1.
       -1   -1    0    0    0  501  0.00000000000E+00  0.00000000000E+00 -0.73356156789E+03  0.73356156790E+03  0.50400001928E-02 0. -1.
    10030    2    1    2    0    0  0.00000000000E+00  0.00000000000E+00  0.10990570470E+04  0.25661801828E+04  0.23189123179E+04 0.  0.
        1    1    3    3  502    0  0.78984413837E+03 -0.18217067843E+03 -0.36790703686E+03  0.89016599957E+03  0.50400001928E-02 0. -1.
       -1    1    3    3    0  502 -0.78984413837E+03  0.18217067843E+03  0.14669640838E+04  0.16760141832E+04  0.50400001928E-02 0.  1.
</event>
<event>
 5   0  0.2777539E-05  0.2473824E+04  0.7818609E-02  0.8412371E-01
       -1   -1    0    0    0  501  0.00000000000E+00  0.00000000000E+00  0.90797719195E+03  0.90797719196E+03  0.50400001928E-02 0. -1.
        1   -1    0    0  501    0  0.00000000000E+00  0.00000000000E+00 -0.16850106360E+04  0.16850106360E+04  0.50400001928E-02 0.  1.
    10030    2    1    2    0    0  0.00000000000E+00  0.00000000000E+00 -0.77703344409E+03  0.25929878280E+04  0.24738239434E+04 0.  0.
        3    1    3    3  502    0  0.45798533361E+03 -0.98590899892E+02 -0.15884220131E+04  0.16560661923E+04  0.10100000352E+00 0.  1.
       -3    1    3    3    0  502 -0.45798533361E+03  0.98590899892E+02  0.81138856901E+03  0.93692163571E+03  0.10100000352E+00 0. -1.
</event>
<event>
 5   0  0.6648328E-05  0.2450565E+04  0.7818609E-02  0.8420812E-01
        2   -1    0    0  501    0  0.00000000000E+00  0.00000000000E+00  0.28020804703E+04  0.28020804703E+04  0.25500000920E-02 0. -1.
       -2   -1    0    0    0  501  0.00000000000E+00  0.00000000000E+00 -0.53578681117E+03  0.53578681117E+03  0.25500000920E-02 0.  1.
    10030    2    1    2    0    0  0.00000000000E+00  0.00000000000E+00  0.22662936591E+04  0.33378672815E+04  0.24505654530E+04 0.  0.
        2    1    3    3  502    0  0.48319950077E+03  0.53629596523E+03  0.24816908334E+04  0.25845472548E+04  0.25500000920E-02 0. -1.
       -2    1    3    3    0  502 -0.48319950077E+03 -0.53629596523E+03 -0.21539717426E+03  0.75332002665E+03  0.25500000920E-02 0.  1.
</event>
<event>
 5   0  0.2793920E-05  0.2143036E+04  0.7818609E-02  0.8542519E-01
        1   -1    0    0  501    0  0.00000000000E+00  0.00000000000E+00  0.18968161400E+04  0.18968161400E+04  0.50400001928E-02 0. -1.
       -1   -1    0    0    0  501  0.00000000000E+00  0.00000000000E+00 -0.60530399847E+03  0.60530399849E+03  0.50400001928E-02 0.  1.
    10030    2    1    2    0    0  0.00000000000E+00  0.00000000000E+00  0.12915121415E+04  0.25021201385E+04  0.21430355983E+04 0.  0.
        2    1    3    3  502    0  0.29844848572E+03 -0.39410618863E+03 -0.46419833798E+03  0.67813810064E+03  0.25500000920E-02 0.  1.
       -2    1    3    3    0  502 -0.29844848572E+03  0.39410618863E+03  0.17557104795E+04  0.18239820378E+04  0.25500000920E-02 0. -1.
</event>
<event>
 5   0  0.2896652E-05  0.2052516E+04  0.7818609E-02  0.8582454E-01
        1   -1    0    0  501    0  0.00000000000E+00  0.00000000000E+00  0.15476853934E+04  0.15476853934E+04  0.50400001928E-02 0. -1.
       -1   -1    0    0    0  501  0.00000000000E+00  0.00000000000E+00 -0.68050385595E+03  0.68050385597E+03  0.50400001928E-02 0.  1.
    10030    2    1    2    0    0  0.00000000000E+00  0.00000000000E+00  0.86718153747E+03  0.22281892494E+04  0.20525163854E+04 0.  0.
        4    1    3    3  502    0 -0.82618604857E+03  0.57887560388E+03  0.22898124531E+03  0.10344633272E+04  0.12699999809E+01 0.  1.
       -4    1    3    3    0  502  0.82618604857E+03 -0.57887560388E+03  0.63820029216E+03  0.11937259222E+04  0.12699999809E+01 0. -1.
</event>
<event>
 5   0  0.2896652E-05  0.1534153E+04  0.7818609E-02  0.8862054E-01
        1   -1    0    0  501    0  0.00000000000E+00  0.00000000000E+00  0.14217470339E+04  0.14217470339E+04  0.50400001928E-02 0.  1.
       -1   -1    0    0    0  501  0.00000000000E+00  0.00000000000E+00 -0.41386156995E+03  0.41386156998E+03  0.50400001928E-02 0. -1.
    10030    2    1    2    0    0  0.00000000000E+00  0.00000000000E+00  0.10078854640E+04  0.18356086039E+04  0.15341531339E+04 0.  0.
        4    1    3    3  502    0 -0.42498288026E+03  0.63722740894E+03  0.45409566281E+03  0.89043455857E+03  0.12699999809E+01 0. -1.
       -4    1    3    3    0  502  0.42498288026E+03 -0.63722740894E+03  0.55378980117E+03  0.94517404535E+03  0.12699999809E+01 0.  1.
</event>
<event>
 5   0  0.6648328E-05  0.2640210E+04  0.7818609E-02  0.8354670E-01
        2   -1    0    0  501    0  0.00000000000E+00  0.00000000000E+00  0.95811657139E+03  0.95811657139E+03  0.25500000920E-02 0.  1.
       -2   -1    0    0    0  501  0.00000000000E+00  0.00000000000E+00 -0.18188575295E+04  0.18188575295E+04  0.25500000920E-02 0. -1.
    10030    2    1    2    0    0  0.00000000000E+00  0.00000000000E+00 -0.86074095814E+03  0.27769741009E+04  0.26402102492E+04 0.  0.
        2    1    3    3  502    0  0.68858806032E+03 -0.10541118073E+03  0.74905961378E+03  0.10229151181E+04  0.25500000920E-02 0.  1.
       -2    1    3    3    0  502 -0.68858806032E+03  0.10541118073E+03 -0.16098005719E+04  0.17540589828E+04  0.25500000920E-02 0. -1.
</event>
<event>
 5   0  0.2977854E-05  0.2522647E+04  0.7818609E-02  0.8394962E-01
        1   -1    0    0  501    0  0.00000000000E+00  0.00000000000E+00  0.66263341489E+03  0.66263341491E+03  0.50400001928E-02 0.  1.
       -1   -1    0    0    0  501  0.00000000000E+00  0.00000000000E+00 -0.24009307245E+04  0.24009307245E+04  0.50400001928E-02 0. -1.
    10030    2    1    2    0    0  0.00000000000E+00  0.00000000000E+00 -0.17382973096E+04  0.30635641394E+04  0.25226469630E+04 0.  0.
        1    1    3    3  502    0  0.11821301309E+04 -0.35385601521E+03 -0.55178815638E+03  0.13517085098E+04  0.50400001928E-02 0.  1.
       -1    1    3    3    0  502 -0.11821301309E+04  0.35385601521E+03 -0.11865091533E+04  0.17118556296E+04  0.50400001928E-02 0. -1.
</event>
<event>
 5   0  0.6648328E-05  0.2494240E+04  0.7818609E-02  0.8405040E-01
       -2   -1    0    0    0  501  0.00000000000E+00  0.00000000000E+00  0.92762670004E+03  0.92762670004E+03  0.25500000920E-02 0.  1.
        2   -1    0    0  501    0  0.00000000000E+00  0.00000000000E+00 -0.16766533838E+04  0.16766533838E+04  0.25500000920E-02 0. -1.
    10030    2    1    2    0    0  0.00000000000E+00  0.00000000000E+00 -0.74902668376E+03  0.26042800838E+04  0.24942401212E+04 0.  0.
        2    1    3    3  502    0 -0.80882805242E+03 -0.91687428905E+03 -0.11780652699E+03  0.12283076398E+04  0.25500000920E-02 0.  1.
       -2    1    3    3    0  502  0.80882805242E+03  0.91687428905E+03 -0.63122015678E+03  0.13759724440E+04  0.25500000920E-02 0. -1.
</event>
<event>
 5   0  0.6648328E-05  0.1884036E+04  0.7818609E-02  0.8662844E-01
        2   -1    0    0  501    0  0.00000000000E+00  0.00000000000E+00  0.11247703271E+04  0.11247703271E+04  0.25500000920E-02 0.  1.
       -2   -1    0    0    0  501  0.00000000000E+00  0.00000000000E+00 -0.78895926286E+03  0.78895926286E+03  0.25500000920E-02 0. -1.
    10030    2    1    2    0    0  0.00000000000E+00  0.00000000000E+00  0.33581106424E+03  0.19137295900E+04  0.18840360593E+04 0.  0.
        2    1    3    3  502    0  0.56569895730E+02 -0.27009463074E+03  0.10827933280E+04  0.11174044271E+04  0.25500000920E-02 0.  1.
       -2    1    3    3    0  502 -0.56569895730E+02  0.27009463074E+03 -0.74698226372E+03  0.79632516284E+03  0.25500000920E-02 0. -1.
</event>
<event>
 5   0  0.6648328E-05  0.2565607E+04  0.7818609E-02  0.8379978E-01
       -2   -1    0    0    0  501  0.00000000000E+00  0.00000000000E+00  0.18312757040E+04  0.18312757040E+04  0.25500000920E-02 0.  1.
        2   -1    0    0  501    0  0.00000000000E+00  0.00000000000E+00 -0.89860040727E+03  0.89860040728E+03  0.25500000920E-02 0. -1.
    10030    2    1    2    0    0  0.00000000000E+00  0.00000000000E+00  0.93267529675E+03  0.27298761113E+04  0.25656072135E+04 0.  0.
        2    1    3    3  502    0 -0.10724799664E+04  0.40345842016E+03  0.10799716269E+04  0.15745890543E+04  0.25500000920E-02 0.  1.
       -2    1    3    3    0  502  0.10724799664E+04 -0.40345842016E+03 -0.14729633011E+03  0.11552870570E+04  0.25500000920E-02 0. -1.
</event>
<event>
 5   0  0.6445331E-05  0.2479783E+04  0.7818609E-02  0.8410223E-01
        2   -1    0    0  501    0  0.00000000000E+00  0.00000000000E+00  0.21415063686E+04  0.21415063686E+04  0.25500000920E-02 0.  1.
       -2   -1    0    0    0  501  0.00000000000E+00  0.00000000000E+00 -0.71787383033E+03  0.71787383033E+03  0.25500000920E-02 0. -1.
    10030    2    1    2    0    0  0.00000000000E+00  0.00000000000E+00  0.14236325382E+04  0.28593801989E+04  0.24797833611E+04 0.  0.
        1    1    3    3  502    0 -0.21551048855E+03 -0.10882050132E+04  0.13503921982E+04  0.17476252489E+04  0.50400001928E-02 0.  1.
       -1    1    3    3    0  502  0.21551048855E+03  0.10882050132E+04  0.73240340064E+02  0.11117549500E+04  0.50400001928E-02 0. -1.
</event>
<event>
 5   0  0.2793920E-05  0.1962791E+04  0.7818609E-02  0.8624217E-01
        1   -1    0    0  501    0  0.00000000000E+00  0.00000000000E+00  0.95607737999E+03  0.95607738001E+03  0.50400001928E-02 0.  1.
       -1   -1    0    0    0  501  0.00000000000E+00  0.00000000000E+00 -0.10073844462E+04  0.10073844462E+04  0.50400001928E-02 0. -1.
    10030    2    1    2    0    0  0.00000000000E+00  0.00000000000E+00 -0.51307066157E+02  0.19634618262E+04  0.19627913613E+04 0.  0.
        2    1    3    3  502    0  0.59881979110E+03 -0.68024566084E+03 -0.40236971778E+03  0.99157485400E+03  0.25500000920E-02 0. -1.
       -2    1    3    3    0  502 -0.59881979110E+03  0.68024566084E+03  0.35106265162E+03  0.97188697217E+03  0.25500000920E-02 0.  1.
</event>
<event>
 5   0  0.6909250E-05  0.1690811E+04  0.7818609E-02  0.8766623E-01
       -2   -1    0    0    0  501  0.00000000000E+00  0.00000000000E+00  0.97188205262E+03  0.97188205262E+03  0.25500000920E-02 0.  1.
        2   -1    0    0  501    0  0.00000000000E+00  0.00000000000E+00 -0.73538793620E+03  0.73538793620E+03  0.25500000920E-02 0. -1.
    10030    2    1    2    0    0  0.00000000000E+00  0.00000000000E+00  0.23649411642E+03  0.17072699888E+04  0.16908108551E+04 0.  0.
        4    1    3    3  502    0  0.52198060113E+02  0.77949353226E+03 -0.20796737744E+03  0.80844718274E+03  0.12699999809E+01 0. -1.
       -4    1    3    3    0  502 -0.52198060113E+02 -0.77949353226E+03  0.44446149386E+03  0.89882280608E+03  0.12699999809E+01 0.  1.
</event>
<event>
 5   0  0.7071821E-05  0.2501101E+04  0.7818609E-02  0.8402594E-01
       -2   -1    0    0    0  501  0.00000000000E+00  0.00000000000E+00  0.12721194029E+04  0.12721194029E+04  0.25500000920E-02 0. -1.
        2   -1    0    0  501    0  0.00000000000E+00  0.00000000000E+00 -0.12293469220E+04  0.12293469220E+04  0.25500000920E-02 0.  1.
    10030    2    1    2    0    0  0.00000000000E+00  0.00000000000E+00  0.42772480913E+02  0.25014663249E+04  0.25011006157E+04 0.  0.
        5    1    3    3  502    0 -0.12041710000E+04  0.32096732475E+03 -0.82581648608E+02  0.12489554193E+04  0.46999998093E+01 0.  1.
       -5    1    3    3    0  502  0.12041710000E+04 -0.32096732475E+03  0.12535412952E+03  0.12525109056E+04  0.46999998093E+01 0. -1.
</event>
<event>
 5   0  0.2777539E-05  0.1786110E+04  0.7818609E-02  0.8713721E-01
       -1   -1    0    0    0  501  0.00000000000E+00  0.00000000000E+00  0.71249132019E+03  0.71249132021E+03  0.50400001928E-02 0.  1.
        1   -1    0    0  501    0  0.00000000000E+00  0.00000000000E+00 -0.11193776371E+04  0.11193776371E+04  0.50400001928E-02 0. -1.
    10030    2    1    2    0    0  0.00000000000E+00  0.00000000000E+00 -0.40688631692E+03  0.18318689573E+04  0.17861095717E+04 0.  0.
        3    1    3    3  502    0  0.87926269810E+03  0.15634555902E+03 -0.20332097102E+03  0.91590733896E+03  0.10100000352E+00 0.  1.
       -3    1    3    3    0  502 -0.87926269810E+03 -0.15634555902E+03 -0.20356534590E+03  0.91596161838E+03  0.10100000352E+00 0. -1.
</event>
<event>
 5   0  0.7071821E-05  0.2311110E+04  0.7818609E-02  0.8473554E-01
        2   -1    0    0  501    0  0.00000000000E+00  0.00000000000E+00  0.12306991778E+04  0.12306991778E+04  0.25500000920E-02 0. -1.
       -2   -1    0    0    0  501  0.00000000000E+00  0.00000000000E+00 -0.10849987896E+04  0.10849987896E+04  0.25500000920E-02 0.  1.
    10030    2    1    2    0    0  0.00000000000E+00  0.00000000000E+00  0.14570038817E+03  0.23156979674E+04  0.23111097926E+04 0.  0.
        5    1    3    3  502    0 -0.34632035530E+03 -0.38304401189E+03 -0.96294503233E+03  0.10926782366E+04  0.46999998093E+01 0.  1.
       -5    1    3    3    0  502  0.34632035530E+03  0.38304401189E+03  0.11086454205E+04  0.12230197308E+04  0.46999998093E+01 0. -1.
</event>
<event>
 5   0  0.2980790E-05  0.2464723E+04  0.7818609E-02  0.8415662E-01
       -1   -1    0    0    0  501  0.00000000000E+00  0.00000000000E+00  0.16765242373E+04  0.16765242373E+04  0.50400001928E-02 0.  1.
        1   -1    0    0  501    0  0.00000000000E+00  0.00000000000E+00 -0.90587136697E+03  0.90587136698E+03  0.50400001928E-02 0. -1.
    10030    2    1    2    0    0  0.00000000000E+00  0.00000000000E+00  0.77065287030E+03  0.25823956043E+04  0.24647233537E+04 0.  0.
        5    1    3    3  502    0  0.10924860299E+04  0.55955710510E+03  0.50040336230E+03  0.13255396993E+04  0.46999998093E+01 0.  1.
       -5    1    3    3    0  502 -0.10924860299E+04 -0.55955710510E+03  0.27024950800E+03  0.12568559050E+04  0.46999998093E+01 0. -1.
</event>
<event>
 5   0  0.7071821E-05  0.2409406E+04  0.7818609E-02  0.8435990E-01
       -2   -1    0    0    0  501  0.00000000000E+00  0.00000000000E+00  0.10699151619E+04  0.10699151619E+04  0.25500000920E-02 0.  1.
        2   -1    0    0  501    0  0.00000000000E+00  0.00000000000E+00 -0.13564715330E+04  0.13564715330E+04  0.25500000920E-02 0. -1.
    10030    2    1    2    0    0  0.00000000000E+00  0.00000000000E+00 -0.28655637104E+03  0.24263866949E+04  0.24094061176E+04 0.  0.
        5    1    3    3  502    0 -0.16585330834E+03 -0.35734952651E+03 -0.12897572814E+04  0.13485925770E+04  0.46999998093E+01 0. -1.
       -5    1    3    3    0  502  0.16585330834E+03  0.35734952651E+03  0.10032009103E+04  0.10777941179E+04  0.46999998093E+01 0.  1.
</event>
<event>
 5   0  0.6648328E-05  0.2492421E+04  0.7818609E-02  0.8405691E-01
       -2   -1    0    0    0  501  0.00000000000E+00  0.00000000000E+00  0.85273297101E+03  0.85273297101E+03  0.25500000920E-02 0. -1.
        2   -1    0    0  501    0  0.00000000000E+00  0.00000000000E+00 -0.18212508253E+04  0.18212508253E+04  0.25500000920E-02 0.  1.
    10030    2    1    2    0    0  0.00000000000E+00  0.00000000000E+00 -0.96851785430E+03  0.26739837963E+04  0.24924210136E+04 0.  0.
        2    1    3    3  502    0 -0.44624571075E+01  0.49034984187E+03 -0.17133947762E+04  0.17821853271E+04  0.25500000920E-02 0.  1.
       -2    1    3    3    0  502  0.44624571075E+01 -0.49034984187E+03  0.74487692190E+03  0.89179846924E+03  0.25500000920E-02 0. -1.
</event>
<event>
 5   0  0.2977854E-05  0.2489073E+04  0.7818609E-02  0.8406889E-01
        1   -1    0    0  501    0  0.00000000000E+00  0.00000000000E+00  0.23659681466E+04  0.23659681466E+04  0.50400001928E-02 0. -1.
       -1   -1    0    0    0  501  0.00000000000E+00  0.00000000000E+00 -0.65464572571E+03  0.65464572573E+03  0.50400001928E-02 0.  1.
    10030    2    1    2    0    0  0.00000000000E+00  0.00000000000E+00  0.17113224209E+04  0.30206138723E+04  0.24890728671E+04 0.  0.
        1    1    3    3  502    0 -0.61288061377E+03  0.99585469949E+03  0.13726985201E+04  0.18032333339E+04  0.50400001928E-02 0. -1.
       -1    1    3    3    0  502  0.61288061377E+03 -0.99585469949E+03  0.33862390077E+03  0.12173805385E+04  0.50400001928E-02 0.  1.
</event>
<event>
 5   0  0.2777539E-05  0.2492404E+04  0.7818609E-02  0.8405697E-01
        1   -1    0    0  501    0  0.00000000000E+00  0.00000000000E+00  0.12427249257E+04  0.12427249257E+04  0.50400001928E-02 0. -1.
       -1   -1    0    0    0  501  0.00000000000E+00  0.00000000000E+00 -0.12496887200E+04  0.12496887200E+04  0.50400001928E-02 0.  1.
    10030    2    1    2    0    0  0.00000000000E+00  0.00000000000E+00 -0.69637943427E+01  0.24924136457E+04  0.24924039173E+04 0.  0.
        3    1    3    3  502    0  0.36248085498E+03  0.70190395407E+03  0.96034642387E+03  0.12435138902E+04  0.10100000352E+00 0. -1.
       -3    1    3    3    0  502 -0.36248085498E+03 -0.70190395407E+03 -0.96731021821E+03  0.12488997556E+04  0.10100000352E+00 0.  1.
</event>
<event>
 5   0  0.6909250E-05  0.2538082E+04  0.7818609E-02  0.8389543E-01
        2   -1    0    0  501    0  0.00000000000E+00  0.00000000000E+00  0.17167423511E+04  0.17167423511E+04  0.25500000920E-02 0.  1.
       -2   -1    0    0    0  501  0.00000000000E+00  0.00000000000E+00 -0.93809371562E+03  0.93809371562E+03  0.25500000920E-02 0. -1.
    10030    2    1    2    0    0  0.00000000000E+00  0.00000000000E+00  0.77864863547E+03  0.26548360667E+04  0.25380821192E+04 0.  0.
        4    1    3    3  502    0  0.71461758880E+03 -0.37559432174E+03 -0.63485646036E+03  0.10270315141E+04  0.12699999809E+01 0. -1.
       -4    1    3    3    0  502 -0.71461758880E+03  0.37559432174E+03  0.14135050958E+04  0.16278045526E+04  0.12699999809E+01 0.  1.
</event>
<event>
 5   0  0.6909250E-05  0.2482555E+04  0.7818609E-02  0.8409227E-01
       -2   -1    0    0    0  501  0.00000000000E+00  0.00000000000E+00  0.54790741249E+03  0.54790741250E+03  0.25500000920E-02 0. -1.
        2   -1    0    0  501    0  0.00000000000E+00  0.00000000000E+00 -0.28120978028E+04  0.28120978028E+04  0.25500000920E-02 0.  1.
    10030    2    1    2    0    0  0.00000000000E+00  0.00000000000E+00 -0.22641903903E+04  0.33600052153E+04  0.24825545157E+04 0.  0.
        4    1    3    3  502    0 -0.33964950539E+03 -0.11327386256E+04 -0.16426676697E+04  0.20240596005E+04  0.12699999809E+01 0.  1.
       -4    1    3    3    0  502  0.33964950539E+03  0.11327386256E+04 -0.62152272057E+03  0.13359456147E+04  0.12699999809E+01 0. -1.
</event>
<event>
 5   0  0.6445331E-05  0.2523920E+04  0.7818609E-02  0.8394513E-01
       -2   -1    0    0    0  501  0.00000000000E+00  0.00000000000E+00  0.69067059416E+03  0.69067059417E+03  0.25500000920E-02 0.  1.
        2   -1    0    0  501    0  0.00000000000E+00  0.00000000000E+00 -0.23057933613E+04  0.23057933613E+04  0.25500000920E-02 0. -1.
    10030    2    1    2    0    0  0.00000000000E+00  0.00000000000E+00 -0.16151227671E+04  0.29964639555E+04  0.25239204987E+04 0.  0.
        1    1    3    3  502    0  0.20801284979E+03 -0.44478799844E+03  0.57260499641E+03  0.75430908199E+03  0.50400001928E-02 0.  1.
       -1    1    3    3    0  502 -0.20801284979E+03  0.44478799844E+03 -0.21877277636E+04  0.22421548735E+04  0.50400001928E-02 0. -1.
</event>
<event>
 5   0  0.7071821E-05  0.2457933E+04  0.7818609E-02  0.8418127E-01
        2   -1    0    0  501    0  0.00000000000E+00  0.00000000000E+00  0.16311890529E+04  0.16311890529E+04  0.25500000920E-02 0.  1.
       -2   -1    0    0    0  501  0.00000000000E+00  0.00000000000E+00 -0.92592512780E+03  0.92592512781E+03  0.25500000920E-02 0. -1.
    10030    2    1    2    0    0  0.00000000000E+00  0.00000000000E+00  0.70526392511E+03  0.25571141807E+04  0.24579332231E+04 0.  0.
        5    1    3    3  502    0 -0.85000322857E+03 -0.75453805609E+03  0.83893772340E+03  0.14126824698E+04  0.46999998093E+01 0.  1.
       -5    1    3    3    0  502  0.85000322857E+03  0.75453805609E+03 -0.13367379829E+03  0.11444317109E+04  0.46999998093E+01 0. -1.
</event>
<event>
 5   0  0.2777539E-05  0.2381685E+04  0.7818609E-02  0.8446393E-01
        1   -1    0    0  501    0  0.00000000000E+00  0.00000000000E+00  0.69657317797E+03  0.69657317799E+03  0.50400001928E-02 0. -1.
       -1   -1    0    0    0  501  0.00000000000E+00  0.00000000000E+00 -0.20358311505E+04  0.20358311505E+04  0.50400001928E-02 0.  1.
    10030    2    1    2    0    0  0.00000000000E+00  0.00000000000E+00 -0.13392579725E+04  0.27324043285E+04  0.23816845923E+04 0.  0.
        3    1    3    3  502    0  0.12601601514E+03 -0.98756342870E+03 -0.14192574599E+04  0.17336243277E+04  0.10100000352E+00 0.  1.
       -3    1    3    3    0  502 -0.12601601514E+03  0.98756342870E+03  0.79999487428E+02  0.99878000078E+03  0.10100000352E+00 0. -1.
</event>
<event>
 5   0  0.2977854E-05  0.2463206E+04  0.7818609E-02  0.8416212E-01
        1   -1    0    0  501    0  0.00000000000E+00  0.00000000000E+00  0.24642594555E+04  0.24642594555E+04  0.50400001928E-02 0.  1.
       -1   -1    0    0    0  501  0.00000000000E+00  0.00000000000E+00 -0.61553825934E+03  0.61553825936E+03  0.50400001928E-02 0. -1.
    10030    2    1    2    0    0  0.00000000000E+00  0.00000000000E+00  0.18487211961E+04  0.30797977148E+04  0.24632060213E+04 0.  0.
        1    1    3    3  502    0  0.76345160760E+03  0.90360548263E+02  0.21274152078E+04  0.22620607534E+04  0.50400001928E-02 0.  1.
       -1    1    3    3    0  502 -0.76345160760E+03 -0.90360548263E+02 -0.27869401169E+03  0.81773696138E+03  0.50400001928E-02 0. -1.
</event>
<event>
 5   0  0.6648328E-05  0.2493171E+04  0.7818609E-02  0.8405422E-01
        2   -1    0    0  501    0  0.00000000000E+00  0.00000000000E+00  0.11166474248E+04  0.11166474248E+04  0.25500000920E-02 0.  1.
       -2   -1    0    0    0  501  0.00000000000E+00  0.00000000000E+00 -0.13916442013E+04  0.13916442013E+04  0.25500000920E-02 0. -1.
    10030    2    1    2    0    0  0.00000000000E+00  0.00000000000E+00 -0.27499677651E+03  0.25082916261E+04  0.24931714049E+04 0.  0.
        2    1    3    3  502    0  0.63958933578E+03 -0.77023222543E+03  0.60973320883E+03  0.11722230101E+04  0.25500000920E-02 0.  1.
       -2    1    3    3    0  502 -0.63958933578E+03  0.77023222543E+03 -0.88472998533E+03  0.13360686159E+04  0.25500000920E-02 0. -1.
</event>
<event>
 5   0  0.2980790E-05  0.2462752E+04  0.7818609E-02  0.8416377E-01
        1   -1    0    0  501    0  0.00000000000E+00  0.00000000000E+00  0.15739518877E+04  0.15739518877E+04  0.50400001928E-02 0.  1.
       -1   -1    0    0    0  501  0.00000000000E+00  0.00000000000E+00 -0.96336258205E+03  0.96336258206E+03  0.50400001928E-02 0. -1.
    10030    2    1    2    0    0  0.00000000000E+00  0.00000000000E+00  0.61058930563E+03  0.25373144697E+04  0.24627515949E+04 0.  0.
        5    1    3    3  502    0 -0.97557949315E+03  0.46174380621E+03  0.91594658460E+03  0.14156069108E+04  0.46999998093E+01 0.  1.
       -5    1    3    3    0  502  0.97557949315E+03 -0.46174380621E+03 -0.30535727897E+03  0.11217075590E+04  0.46999998093E+01 0. -1.
</event>
<event>
 5   0  0.2777539E-05  0.2408795E+04  0.7818609E-02  0.8436218E-01
       -1   -1    0    0    0  501  0.00000000000E+00  0.00000000000E+00  0.85482839898E+03  0.85482839899E+03  0.50400001928E-02 0. -1.
        1   -1    0    0  501    0  0.00000000000E+00  0.00000000000E+00 -0.16969180585E+04  0.16969180585E+04  0.50400001928E-02 0.  1.
    10030    2    1    2    0    0  0.00000000000E+00  0.00000000000E+00 -0.84208965952E+03  0.25517464575E+04  0.24087953397E+04 0.  0.
        3    1    3    3  502    0  0.36961462664E+02 -0.89435955962E+03 -0.12746752290E+04  0.15575757193E+04  0.10100000352E+00 0.  1.
       -3    1    3    3    0  502 -0.36961462664E+02  0.89435955962E+03  0.43258556950E+03  0.99417073822E+03  0.10100000352E+00 0. -1.
</event>
<event>
 5   0  0.2793920E-05  0.2367115E+04  0.7818609E-02  0.8451919E-01
        1   -1    0    0  501    0  0.00000000000E+00  0.00000000000E+00  0.19682324381E+04  0.19682324381E+04  0.50400001928E-02 0.  1.
       -1   -1    0    0    0  501  0.00000000000E+00  0.00000000000E+00 -0.71170859446E+03  0.71170859447E+03  0.50400001928E-02 0. -1.
    10030    2    1    2    0    0  0.00000000000E+00  0.00000000000E+00  0.12565238437E+04  0.26799410326E+04  0.23671146505E+04 0.  0.
        2    1    3    3  502    0 -0.11685745236E+04 -0.17084131703E+03  0.71635762879E+03  0.13812752894E+04  0.25500000920E-02 0. -1.
       -2    1    3    3    0  502  0.11685745236E+04  0.17084131703E+03  0.54016621486E+03  0.12986657432E+04  0.25500000920E-02 0.  1.
</event>
<event>
 5   0  0.6648328E-05  0.2555249E+04  0.7818609E-02  0.8383563E-01
       -2   -1    0    0    0  501  0.00000000000E+00  0.00000000000E+00  0.97781749529E+03  0.97781749529E+03  0.25500000920E-02 0. -1.
        2   -1    0    0  501    0  0.00000000000E+00  0.00000000000E+00 -0.16693548644E+04  0.16693548644E+04  0.25500000920E-02 0.  1.
    10030    2    1    2    0    0  0.00000000000E+00  0.00000000000E+00 -0.69153736914E+03  0.26471723597E+04  0.25552490229E+04 0.  0.
        2    1    3    3  502    0 -0.24651223952E+03 -0.52959251040E+03  0.83136799060E+03  0.10160754141E+04  0.25500000920E-02 0. -1.
       -2    1    3    3    0  502  0.24651223952E+03  0.52959251040E+03 -0.15229053597E+04  0.16310969456E+04  0.25500000920E-02 0.  1.
</event>
<event>
 5   0  0.6827859E-05  0.2481301E+04  0.7818609E-02  0.8409677E-01
        2   -1    0    0  501    0  0.00000000000E+00  0.00000000000E+00  0.13792276979E+04  0.13792276979E+04  0.25500000920E-02 0. -1.
       -2   -1    0    0    0  501  0.00000000000E+00  0.00000000000E+00 -0.11159970546E+04  0.11159970546E+04  0.25500000920E-02 0.  1.
    10030    2    1    2    0    0  0.00000000000E+00  0.00000000000E+00  0.26323064330E+03  0.24952247525E+04  0.24813013106E+04 0.  0.
        3    1    3    3  502    0  0.49616102536E+03  0.88103363072E+03  0.85454988300E+03  0.13238774620E+04  0.10100000352E+00 0. -1.
       -3    1    3    3    0  502 -0.49616102536E+03 -0.88103363072E+03 -0.59131923971E+03  0.11713472905E+04  0.10100000352E+00 0.  1.
</event>
<event>
 5   0  0.2980790E-05  0.2593489E+04  0.7818609E-02  0.8370416E-01
        1   -1    0    0  501    0  0.00000000000E+00  0.00000000000E+00  0.21835409463E+04  0.21835409463E+04  0.50400001928E-02 0. -1.
       -1   -1    0    0    0  501  0.00000000000E+00  0.00000000000E+00 -0.77010086484E+03  0.77010086485E+03  0.50400001928E-02 0.  1.
    10030    2    1    2    0    0  0.00000000000E+00  0.00000000000E+00  0.14134400814E+04  0.29536418111E+04  0.25934893647E+04 0.  0.
        5    1    3    3  502    0 -0.88102339840E+03  0.13923537810E+03  0.17786700227E+04  0.19897934211E+04  0.46999998093E+01 0. -1.
       -5    1    3    3    0  502  0.88102339840E+03 -0.13923537810E+03 -0.36522994123E+03  0.96384839006E+03  0.46999998093E+01 0.  1.
</event>
<event>
 5   0  0.2977854E-05  0.1817037E+04  0.7818609E-02  0.8697292E-01
        1   -1    0    0  501    0  0.00000000000E+00  0.00000000000E+00  0.81441037983E+03  0.81441037985E+03  0.50400001928E-02 0. -1.
       -1   -1    0    0    0  501  0.00000000000E+00  0.00000000000E+00 -0.10135010009E+04  0.10135010010E+04  0.50400001928E-02 0.  1.
    10030    2    1    2    0    0  0.00000000000E+00  0.00000000000E+00 -0.19909062111E+03  0.18279113808E+04  0.18170368573E+04 0.  0.
        1    1    3    3  502    0 -0.25650552049E+03 -0.66673635571E+03 -0.66421852939E+03  0.97545820253E+03  0.50400001928E-02 0.  1.
       -1    1    3    3    0  502  0.25650552049E+03  0.66673635571E+03  0.46512790828E+03  0.85245317828E+03  0.50400001928E-02 0. -1.
</event>
<event>
 5   0  0.2777539E-05  0.2466630E+04  0.7818609E-02  0.8414971E-01
       -1   -1    0    0    0  501  0.00000000000E+00  0.00000000000E+00  0.74158625963E+03  0.74158625965E+03  0.50400001928E-02 0. -1.
        1   -1    0    0  501    0  0.00000000000E+00  0.00000000000E+00 -0.20510980201E+04  0.20510980201E+04  0.50400001928E-02 0.  1.
    10030    2    1    2    0    0  0.00000000000E+00  0.00000000000E+00 -0.13095117605E+04  0.27926842798E+04  0.24666301781E+04 0.  0.
        3    1    3    3  502    0 -0.28352860543E+03  0.91782547519E+03 -0.15304811340E+04  0.18069766420E+04  0.10100000352E+00 0.  1.
       -3    1    3    3    0  502  0.28352860543E+03 -0.91782547519E+03  0.22096937348E+03  0.98570763780E+03  0.10100000352E+00 0. -1.
</event>
<event>
 5   0  0.7071821E-05  0.2424535E+04  0.7818609E-02  0.8430375E-01
       -2   -1    0    0    0  501  0.00000000000E+00  0.00000000000E+00  0.75318760044E+03  0.75318760045E+03  0.25500000920E-02 0. -1.
        2   -1    0    0  501    0  0.00000000000E+00  0.00000000000E+00 -0.19511644072E+04  0.19511644072E+04  0.25500000920E-02 0.  1.
    10030    2    1    2    0    0  0.00000000000E+00  0.00000000000E+00 -0.11979768067E+04  0.27043520076E+04  0.24245352857E+04 0.  0.
        5    1    3    3  502    0 -0.50692190860E+03 -0.97713489686E+03 -0.11653361481E+04  0.16030573465E+04  0.46999998093E+01 0.  1.
       -5    1    3    3    0  502  0.50692190860E+03  0.97713489686E+03 -0.32640658659E+02  0.11012946612E+04  0.46999998093E+01 0. -1.
</event>
<event>
 5   0  0.2331375E-05  0.2548258E+04  0.7818609E-02  0.8385992E-01
       -3   -1    0    0    0  501  0.00000000000E+00  0.00000000000E+00  0.15243298847E+04  0.15243298880E+04  0.10100000352E+00 0.  1.
        3   -1    0    0  501    0  0.00000000000E+00  0.00000000000E+00 -0.10649953620E+04  0.10649953668E+04  0.10100000352E+00 0. -1.
    10030    2    1    2    0    0  0.00000000000E+00  0.00000000000E+00  0.45933452265E+03  0.25893252548E+04  0.25482576541E+04 0.  0.
        3    1    3    3  502    0 -0.10726511922E+04 -0.22326627077E+03  0.89051446360E+03  0.14118939152E+04  0.10100000352E+00 0.  1.
       -3    1    3    3    0  502  0.10726511922E+04  0.22326627077E+03 -0.43117994095E+03  0.11774313396E+04  0.10100000352E+00 0. -1.
</event>
<event>
 5   0  0.6648328E-05  0.2552662E+04  0.7818609E-02  0.8384461E-01
       -2   -1    0    0    0  501  0.00000000000E+00  0.00000000000E+00  0.11067738749E+04  0.11067738749E+04  0.25500000920E-02 0. -1.
        2   -1    0    0  501    0  0.00000000000E+00  0.00000000000E+00 -0.14718644487E+04  0.14718644487E+04  0.25500000920E-02 0.  1.
    10030    2    1    2    0    0  0.00000000000E+00  0.00000000000E+00 -0.36509057374E+03  0.25786383236E+04  0.25526622332E+04 0.  0.
        2    1    3    3  502    0  0.66138338594E+03  0.23331459837E+03  0.89468207799E+03  0.11368024040E+04  0.25500000920E-02 0. -1.
       -2    1    3    3    0  502 -0.66138338594E+03 -0.23331459837E+03 -0.12597726517E+04  0.14418359196E+04  0.25500000920E-02 0.  1.
</event>
<event>
 5   0  0.6648328E-05  0.1826005E+04  0.7818609E-02  0.8692591E-01
       -2   -1    0    0    0  501  0.00000000000E+00  0.00000000000E+00  0.54781750943E+03  0.54781750944E+03  0.25500000920E-02 0. -1.
        2   -1    0    0  501    0  0.00000000000E+00  0.00000000000E+00 -0.15216258881E+04  0.15216258882E+04  0.25500000920E-02 0.  1.
    10030    2    1    2    0    0  0.00000000000E+00  0.00000000000E+00 -0.97380837872E+03  0.20694433976E+04  0.18260047145E+04 0.  0.
        2    1    3    3  502    0  0.73076380560E+03 -0.12913138646E+03 -0.10896786089E+04  0.13183664609E+04  0.25500000920E-02 0.  1.
       -2    1    3    3    0  502 -0.73076380560E+03  0.12913138646E+03  0.11587023020E+03  0.75107693667E+03  0.25500000920E-02 0. -1.
</event>
<event>
 5   0  0.7071821E-05  0.2454119E+04  0.7818609E-02  0.8419516E-01
       -2   -1    0    0    0  501  0.00000000000E+00  0.00000000000E+00  0.11377761768E+04  0.11377761768E+04  0.25500000920E-02 0. -1.
        2   -1    0    0  501    0  0.00000000000E+00  0.00000000000E+00 -0.13233493341E+04  0.13233493341E+04  0.25500000920E-02 0.  1.
    10030    2    1    2    0    0  0.00000000000E+00  0.00000000000E+00 -0.18557315734E+03  0.24611255109E+04  0.24541192684E+04 0.  0.
        5    1    3    3  502    0 -0.16338528393E+03 -0.78011733043E+03  0.84281600964E+03  0.11600166880E+04  0.46999998093E+01 0. -1.
       -5    1    3    3    0  502  0.16338528393E+03  0.78011733043E+03 -0.10283891670E+04  0.13011088229E+04  0.46999998093E+01 0.  1.
</event>
<event>
 5   0  0.6445331E-05  0.2238725E+04  0.7818609E-02  0.8502481E-01
       -2   -1    0    0    0  501  0.00000000000E+00  0.00000000000E+00  0.97605240136E+03  0.97605240136E+03  0.25500000920E-02 0. -1.
        2   -1    0    0  501    0  0.00000000000E+00  0.00000000000E+00 -0.12837143131E+04  0.12837143131E+04  0.25500000920E-02 0.  1.
    10030    2    1    2    0    0  0.00000000000E+00  0.00000000000E+00 -0.30766191179E+03  0.22597667145E+04  0.22387250282E+04 0.  0.
        1    1    3    3  502    0 -0.83761305431E+02  0.39747723926E+03  0.89902989837E+03  0.98653883360E+03  0.50400001928E-02 0. -1.
       -1    1    3    3    0  502  0.83761305431E+02 -0.39747723926E+03 -0.12066918102E+04  0.12732278809E+04  0.50400001928E-02 0.  1.
</event>
<event>
 5   0  0.6648328E-05  0.2318788E+04  0.7818609E-02  0.8470550E-01
       -2   -1    0    0    0  501  0.00000000000E+00  0.00000000000E+00  0.79603018311E+03  0.79603018311E+03  0.25500000920E-02 0.  1.
        2   -1    0    0  501    0  0.00000000000E+00  0.00000000000E+00 -0.16886223370E+04  0.16886223370E+04  0.25500000920E-02 0. -1.
    10030    2    1    2    0    0  0.00000000000E+00  0.00000000000E+00 -0.89259215387E+03  0.24846525201E+04  0.23187879145E+04 0.  0.
        2    1    3    3  502    0  0.38017507395E+03  0.30984555336E+03  0.67940140032E+03  0.83792816908E+03  0.25500000920E-02 0.  1.
       -2    1    3    3    0  502 -0.38017507395E+03 -0.30984555336E+03 -0.15719935542E+04  0.16467243510E+04  0.25500000920E-02 0. -1.
</event>
<event>
 5   0  0.6445331E-05  0.1760359E+04  0.7818609E-02  0.8727669E-01
       -2   -1    0    0    0  501  0.00000000000E+00  0.00000000000E+00  0.38010147786E+03  0.38010147787E+03  0.25500000920E-02 0.  1.
        2   -1    0    0  501    0  0.00000000000E+00  0.00000000000E+00 -0.20381814768E+04  0.20381814768E+04  0.25500000920E-02 0. -1.
    10030    2    1    2    0    0  0.00000000000E+00  0.00000000000E+00 -0.16580799990E+04  0.24182829547E+04  0.17603588174E+04 0.  0.
        1    1    3    3  502    0  0.26570810773E+02 -0.59166553962E+02  0.37681420398E+03  0.38235537585E+03  0.50400001928E-02 0.  1.
       -1    1    3    3    0  502 -0.26570810773E+02  0.59166553962E+02 -0.20348942029E+04  0.20359275788E+04  0.50400001928E-02 0. -1.
</event>
<event>
 5   0  0.2896652E-05  0.2483576E+04  0.7818609E-02  0.8408860E-01
       -1   -1    0    0    0  501  0.00000000000E+00  0.00000000000E+00  0.50167319725E+03  0.50167319728E+03  0.50400001928E-02 0. -1.
        1   -1    0    0  501    0  0.00000000000E+00  0.00000000000E+00 -0.30737890845E+04  0.30737890845E+04  0.50400001928E-02 0.  1.
    10030    2    1    2    0    0  0.00000000000E+00  0.00000000000E+00 -0.25721158872E+04  0.35754622818E+04  0.24835761295E+04 0.  0.
        4    1    3    3  502    0 -0.23337897456E+03  0.72864213870E+03  0.12203544687E+03  0.77477698420E+03  0.12699999809E+01 0. -1.
       -4    1    3    3    0  502  0.23337897456E+03 -0.72864213870E+03 -0.26941513341E+04  0.28006852976E+04  0.12699999809E+01 0.  1.
</event>
<event>
 5   0  0.2896652E-05  0.2493081E+04  0.7818609E-02  0.8405454E-01
       -1   -1    0    0    0  501  0.00000000000E+00  0.00000000000E+00  0.90869188834E+03  0.90869188835E+03  0.50400001928E-02 0.  1.
        1   -1    0    0  501    0  0.00000000000E+00  0.00000000000E+00 -0.17100006527E+04  0.17100006527E+04  0.50400001928E-02 0. -1.
    10030    2    1    2    0    0  0.00000000000E+00  0.00000000000E+00 -0.80130876433E+03  0.26186925410E+04  0.24930814043E+04 0.  0.
        4    1    3    3  502    0 -0.41777791927E+03 -0.60660652977E+03  0.65567478505E+03  0.98611404434E+03  0.12699999809E+01 0.  1.
       -4    1    3    3    0  502  0.41777791927E+03  0.60660652977E+03 -0.14569835494E+04  0.16325784967E+04  0.12699999809E+01 0. -1.
</event>
<event>
 5   0  0.2896652E-05  0.2220783E+04  0.7818609E-02  0.8509827E-01
       -1   -1    0    0    0  501  0.00000000000E+00  0.00000000000E+00  0.57397488630E+03  0.57397488632E+03  0.50400001928E-02 0.  1.
        1   -1    0    0  501    0  0.00000000000E+00  0.00000000000E+00 -0.21481231995E+04  0.21481231996E+04  0.50400001928E-02 0. -1.
    10030    2    1    2    0    0  0.00000000000E+00  0.00000000000E+00 -0.15741483132E+04  0.27220980859E+04  0.22207825371E+04 0.  0.
        4    1    3    3  502    0 -0.10255270480E+04  0.36620867754E+03 -0.10532390170E+04  0.15149681718E+04  0.12699999809E+01 0. -1.
       -4    1    3    3    0  502  0.10255270480E+04 -0.36620867754E+03 -0.52090929626E+03  0.12071299141E+04  0.12699999809E+01 0.  1.
</event>
<event>
 5   0  0.6909250E-05  0.2941976E+04  0.7818609E-02  0.8260497E-01
       -2   -1    0    0    0  501  0.00000000000E+00  0.00000000000E+00  0.96411300534E+03  0.96411300535E+03  0.25500000920E-02 0. -1.
        2   -1    0    0  501    0  0.00000000000E+00  0.00000000000E+00 -0.22443479523E+04  0.22443479523E+04  0.25500000920E-02 0.  1.
    10030    2    1    2    0    0  0.00000000000E+00  0.00000000000E+00 -0.12802349469E+04  0.32084609576E+04  0.29419755603E+04 0.  0.
        4    1    3    3  502    0 -0.47028867644E+03 -0.83453735925E+03  0.57732368792E+03  0.11184490586E+04  0.12699999809E+01 0. -1.
       -4    1    3    3    0  502  0.47028867644E+03  0.83453735925E+03 -0.18575586348E+04  0.20900118990E+04  0.12699999809E+01 0.  1.
</event>
<event>
 5   0  0.2980790E-05  0.2475401E+04  0.7818609E-02  0.8411802E-01
        1   -1    0    0  501    0  0.00000000000E+00  0.00000000000E+00  0.19449672437E+04  0.19449672437E+04  0.50400001928E-02 0. -1.
       -1   -1    0    0    0  501  0.00000000000E+00  0.00000000000E+00 -0.78762406072E+03  0.78762406074E+03  0.50400001928E-02 0.  1.
    10030    2    1    2    0    0  0.00000000000E+00  0.00000000000E+00  0.11573431830E+04  0.27325913045E+04  0.24754013804E+04 0.  0.
        5    1    3    3  502    0  0.11849043546E+04 -0.19886043161E+03  0.90676736873E+03  0.15052551119E+04  0.46999998093E+01 0. -1.
       -5    1    3    3    0  502 -0.11849043546E+04  0.19886043161E+03  0.25057581429E+03  0.12273361926E+04  0.46999998093E+01 0.  1.
</event>
<event>
 5   0  0.2793920E-05  0.2325580E+04  0.7818609E-02  0.8467903E-01
       -1   -1    0    0    0  501  0.00000000000E+00  0.00000000000E+00  0.93593040712E+03  0.93593040714E+03  0.50400001928E-02 0.  1.
        1   -1    0    0  501    0  0.00000000000E+00  0.00000000000E+00 -0.14446381398E+04  0.14446381398E+04  0.50400001928E-02 0. -1.
    10030    2    1    2    0    0  0.00000000000E+00  0.00000000000E+00 -0.50870773265E+03  0.23805685469E+04  0.23255801533E+04 0.  0.
        2    1    3    3  502    0 -0.34179759957E+03  0.14770628233E+03  0.87325420916E+03  0.94932379024E+03  0.25500000920E-02 0.  1.
       -2    1    3    3    0  502  0.34179759957E+03 -0.14770628233E+03 -0.13819619418E+04  0.14312447567E+04  0.25500000920E-02 0. -1.
</event>
<event>
 5   0  0.2896652E-05  0.2545988E+04  0.7818609E-02  0.8386783E-01
       -1   -1    0    0    0  501  0.00000000000E+00  0.00000000000E+00  0.90283661960E+03  0.90283661961E+03  0.50400001928E-02 0.  1.
        1   -1    0    0  501    0  0.00000000000E+00  0.00000000000E+00 -0.17949133275E+04  0.17949133275E+04  0.50400001928E-02 0. -1.
    10030    2    1    2    0    0  0.00000000000E+00  0.00000000000E+00 -0.89207670786E+03  0.26977499471E+04  0.25459878091E+04 0.  0.
        4    1    3    3  502    0 -0.11761766640E+03  0.21391754617E+03 -0.17698777803E+04  0.17866347142E+04  0.12699999809E+01 0. -1.
       -4    1    3    3    0  502  0.11761766640E+03 -0.21391754617E+03  0.87780107239E+03  0.91111523289E+03  0.12699999809E+01 0.  1.
</event>
<event>
 5   0  0.2896652E-05  0.1925518E+04  0.7818609E-02  0.8642258E-01
       -1   -1    0    0    0  501  0.00000000000E+00  0.00000000000E+00  0.52585212240E+03  0.52585212243E+03  0.50400001928E-02 0.  1.
        1   -1    0    0  501    0  0.00000000000E+00  0.00000000000E+00 -0.17626717531E+04  0.17626717531E+04  0.50400001928E-02 0. -1.
    10030    2    1    2    0    0  0.00000000000E+00  0.00000000000E+00 -0.12368196307E+04  0.22885238756E+04  0.19255177823E+04 0.  0.
        4    1    3    3  502    0 -0.14404479653E+03 -0.85107024939E+03 -0.11252195857E+04  0.14181643776E+04  0.12699999809E+01 0. -1.
       -4    1    3    3    0  502  0.14404479653E+03  0.85107024939E+03 -0.11160004500E+03  0.87035949799E+03  0.12699999809E+01 0.  1.
</event>
<event>
 5   0  0.6827859E-05  0.2409464E+04  0.7818609E-02  0.8435969E-01
       -2   -1    0    0    0  501  0.00000000000E+00  0.00000000000E+00  0.95019019635E+03  0.95019019636E+03  0.25500000920E-02 0.  1.
        2   -1    0    0  501    0  0.00000000000E+00  0.00000000000E+00 -0.15274614439E+04  0.15274614439E+04  0.25500000920E-02 0. -1.
    10030    2    1    2    0    0  0.00000000000E+00  0.00000000000E+00 -0.57727124751E+03  0.24776516402E+04  0.24094637489E+04 0.  0.
        3    1    3    3  502    0  0.52011579892E+03 -0.97314026315E+03  0.20863698313E+03  0.11229656348E+04  0.10100000352E+00 0.  1.
       -3    1    3    3    0  502 -0.52011579892E+03  0.97314026315E+03 -0.78590823064E+03  0.13546860054E+04  0.10100000352E+00 0. -1.
</event>
<event>
 5   0  0.2793920E-05  0.2029636E+04  0.7818609E-02  0.8592889E-01
        1   -1    0    0  501    0  0.00000000000E+00  0.00000000000E+00  0.11265772107E+04  0.11265772107E+04  0.50400001928E-02 0.  1.
       -1   -1    0    0    0  501  0.00000000000E+00  0.00000000000E+00 -0.91414599339E+03  0.91414599340E+03  0.50400001928E-02 0. -1.
    10030    2    1    2    0    0  0.00000000000E+00  0.00000000000E+00  0.21243121735E+03  0.20407232042E+04  0.20296364635E+04 0.  0.
        2    1    3    3  502    0 -0.95979712407E+03  0.27445609606E+03 -0.77317437134E+02  0.10012565376E+04  0.25500000920E-02 0.  1.
       -2    1    3    3    0  502  0.95979712407E+03 -0.27445609606E+03  0.28974865448E+03  0.10394666665E+04  0.25500000920E-02 0. -1.
</event>
<event>
 5   0  0.6827859E-05  0.2488624E+04  0.7818609E-02  0.8407049E-01
        2   -1    0    0  501    0  0.00000000000E+00  0.00000000000E+00  0.84169276680E+03  0.84169276680E+03  0.25500000920E-02 0.  1.
       -2   -1    0    0    0  501  0.00000000000E+00  0.00000000000E+00 -0.18395225057E+04  0.18395225057E+04  0.25500000920E-02 0. -1.
    10030    2    1    2    0    0  0.00000000000E+00  0.00000000000E+00 -0.99782973890E+03  0.26812152725E+04  0.24886243488E+04 0.  0.
        3    1    3    3  502    0  0.10428948341E+04  0.39477249684E+03 -0.10937639035E+04  0.15619841376E+04  0.10100000352E+00 0.  1.
       -3    1    3    3    0  502 -0.10428948341E+04 -0.39477249684E+03  0.95934164644E+02  0.11192311349E+04  0.10100000352E+00 0. -1.
</event>
<event>
 5   0  0.2980790E-05  0.2546067E+04  0.7818609E-02  0.8386755E-01
       -1   -1    0    0    0  501  0.00000000000E+00  0.00000000000E+00  0.10186526454E+04  0.10186526454E+04  0.50400001928E-02 0.  1.
        1   -1    0    0  501    0  0.00000000000E+00  0.00000000000E+00 -0.15909392073E+04  0.15909392073E+04  0.50400001928E-02 0. -1.
    10030    2    1    2    0    0  0.00000000000E+00  0.00000000000E+00 -0.57228656195E+03  0.26095918527E+04  0.25460671100E+04 0.  0.
        5    1    3    3  502    0 -0.12310320369E+04 -0.70657299873E+02 -0.61052018582E+03  0.13759321630E+04  0.46999998093E+01 0. -1.
       -5    1    3    3    0  502  0.12310320369E+04  0.70657299873E+02  0.38233623870E+02  0.12336596897E+04  0.46999998093E+01 0.  1.
</event>
<event>
 5   0  0.6827859E-05  0.2520740E+04  0.7818609E-02  0.8395634E-01
       -2   -1    0    0    0  501  0.00000000000E+00  0.00000000000E+00  0.59625946995E+03  0.59625946995E+03  0.25500000920E-02 0.  1.
        2   -1    0    0  501    0  0.00000000000E+00  0.00000000000E+00 -0.26641639705E+04  0.26641639705E+04  0.25500000920E-02 0. -1.
    10030    2    1    2    0    0  0.00000000000E+00  0.00000000000E+00 -0.20679045006E+04  0.32604234405E+04  0.25207403650E+04 0.  0.
        3    1    3    3  502    0 -0.21380553062E+03 -0.73042986869E+03  0.26548224045E+03  0.80605299341E+03  0.10100000352E+00 0.  1.
       -3    1    3    3    0  502  0.21380553062E+03  0.73042986869E+03 -0.23333867410E+04  0.24543704470E+04  0.10100000352E+00 0. -1.
</event>
<event>
 5   0  0.2777539E-05  0.2141821E+04  0.7818609E-02  0.8543041E-01
        1   -1    0    0  501    0  0.00000000000E+00  0.00000000000E+00  0.71900028763E+03  0.71900028764E+03  0.50400001928E-02 0.  1.
       -1   -1    0    0    0  501  0.00000000000E+00  0.00000000000E+00 -0.15950606499E+04  0.15950606499E+04  0.50400001928E-02 0. -1.
    10030    2    1    2    0    0  0.00000000000E+00  0.00000000000E+00 -0.87606036223E+03  0.23140609375E+04  0.21418207825E+04 0.  0.
        3    1    3    3  502    0 -0.11591188829E+03  0.10642587436E+04 -0.46794851572E+03  0.11683569929E+04  0.10100000352E+00 0.  1.
       -3    1    3    3    0  502  0.11591188829E+03 -0.10642587436E+04 -0.40811184651E+03  0.11457039446E+04  0.10100000352E+00 0. -1.
</event>
<event>
 5   0  0.2980790E-05  0.2004636E+04  0.7818609E-02  0.8604456E-01
        1   -1    0    0  501    0  0.00000000000E+00  0.00000000000E+00  0.12654960173E+04  0.12654960173E+04  0.50400001928E-02 0. -1.
       -1   -1    0    0    0  501  0.00000000000E+00  0.00000000000E+00 -0.79387148898E+03  0.79387148899E+03  0.50400001928E-02 0.  1.
    10030    2    1    2    0    0  0.00000000000E+00  0.00000000000E+00  0.47162452833E+03  0.20593675063E+04  0.20046358348E+04 0.  0.
        5    1    3    3  502    0  0.90966847358E+03  0.38836490077E+03  0.40239718777E+03  0.10678340764E+04  0.46999998093E+01 0. -1.
       -5    1    3    3    0  502 -0.90966847358E+03 -0.38836490077E+03  0.69227340562E+02  0.99153342992E+03  0.46999998093E+01 0.  1.
</event>
<event>
 5   0  0.7071821E-05  0.2464912E+04  0.7818609E-02  0.8415593E-01
        2   -1    0    0  501    0  0.00000000000E+00  0.00000000000E+00  0.20967317754E+04  0.20967317754E+04  0.25500000920E-02 0. -1.
       -2   -1    0    0    0  501  0.00000000000E+00  0.00000000000E+00 -0.72443612237E+03  0.72443612238E+03  0.25500000920E-02 0.  1.
    10030    2    1    2    0    0  0.00000000000E+00  0.00000000000E+00  0.13722956530E+04  0.28211678977E+04  0.24649123611E+04 0.  0.
        5    1    3    3  502    0 -0.75291515116E+03  0.59687041671E+03  0.15695821817E+04  0.18403113417E+04  0.46999998093E+01 0. -1.
       -5    1    3    3    0  502  0.75291515116E+03 -0.59687041671E+03 -0.19728652870E+03  0.98085655607E+03  0.46999998093E+01 0.  1.
</event>
<event>
 5   0  0.2777539E-05  0.2439892E+04  0.7818609E-02  0.8424718E-01
       -1   -1    0    0    0  501  0.00000000000E+00  0.00000000000E+00  0.58442540506E+03  0.58442540509E+03  0.50400001928E-02 0.  1.
        1   -1    0    0  501    0  0.00000000000E+00  0.00000000000E+00 -0.25465487937E+04  0.25465487938E+04  0.50400001928E-02 0. -1.
    10030    2    1    2    0    0  0.00000000000E+00  0.00000000000E+00 -0.19621233887E+04  0.31309741988E+04  0.24398916454E+04 0.  0.
        3    1    3    3  502    0  0.11758079239E+04 -0.28938431296E+02 -0.56542937933E+03  0.13050180458E+04  0.10100000352E+00 0.  1.
       -3    1    3    3    0  502 -0.11758079239E+04  0.28938431296E+02 -0.13966940094E+04  0.18259561530E+04  0.10100000352E+00 0. -1.
</event>
<event>
 5   0  0.2793920E-05  0.2485549E+04  0.7818609E-02  0.8408152E-01
       -1   -1    0    0    0  501  0.00000000000E+00  0.00000000000E+00  0.78681229512E+03  0.78681229514E+03  0.50400001928E-02 0. -1.
        1   -1    0    0  501    0  0.00000000000E+00  0.00000000000E+00 -0.19629688080E+04  0.19629688080E+04  0.50400001928E-02 0.  1.
    10030    2    1    2    0    0  0.00000000000E+00  0.00000000000E+00 -0.11761565129E+04  0.27497811032E+04  0.24855486260E+04 0.  0.
        2    1    3    3  502    0  0.22887043642E+03  0.72900128229E+03 -0.16724083034E+04  0.18386881409E+04  0.25500000920E-02 0.  1.
       -2    1    3    3    0  502 -0.22887043642E+03 -0.72900128229E+03  0.49625179052E+03  0.91109296224E+03  0.25500000920E-02 0. -1.
</event>
<event>
 5   0  0.6648328E-05  0.1350447E+04  0.7818609E-02  0.8990489E-01
       -2   -1    0    0    0  501  0.00000000000E+00  0.00000000000E+00  0.34026975463E+03  0.34026975464E+03  0.25500000920E-02 0.  1.
        2   -1    0    0  501    0  0.00000000000E+00  0.00000000000E+00 -0.13398988205E+04  0.13398988205E+04  0.25500000920E-02 0. -1.
    10030    2    1    2    0    0  0.00000000000E+00  0.00000000000E+00 -0.99962906590E+03  0.16801685752E+04  0.13504473968E+04 0.  0.
        2    1    3    3  502    0  0.16355274870E+03  0.53103833899E+03 -0.22512346990E+02  0.55610972376E+03  0.25500000920E-02 0.  1.
       -2    1    3    3    0  502 -0.16355274870E+03 -0.53103833899E+03 -0.97711671891E+03  0.11240588514E+04  0.25500000920E-02 0. -1.
</event>
<event>
 5   0  0.6648328E-05  0.2552090E+04  0.7818609E-02  0.8384660E-01
       -2   -1    0    0    0  501  0.00000000000E+00  0.00000000000E+00  0.25705905135E+04  0.25705905135E+04  0.25500000920E-02 0.  1.
        2   -1    0    0  501    0  0.00000000000E+00  0.00000000000E+00 -0.63343056252E+03  0.63343056253E+03  0.25500000920E-02 0. -1.
    10030    2    1    2    0    0  0.00000000000E+00  0.00000000000E+00  0.19371599510E+04  0.32040210761E+04  0.25520898064E+04 0.  0.
        2    1    3    3  502    0 -0.87081973119E+02 -0.94371402475E+03 -0.10415861981E+03  0.95342983415E+03  0.25500000920E-02 0. -1.
       -2    1    3    3    0  502  0.87081973119E+02  0.94371402475E+03  0.20413185708E+04  0.22505912419E+04  0.25500000920E-02 0.  1.
</event>
<event>
 5   0  0.6909250E-05  0.2497861E+04  0.7818609E-02  0.8403748E-01
        2   -1    0    0  501    0  0.00000000000E+00  0.00000000000E+00  0.92668339686E+03  0.92668339686E+03  0.25500000920E-02 0.  1.
       -2   -1    0    0    0  501  0.00000000000E+00  0.00000000000E+00 -0.16832364454E+04  0.16832364454E+04  0.25500000920E-02 0. -1.
    10030    2    1    2    0    0  0.00000000000E+00  0.00000000000E+00 -0.75655304851E+03  0.26099198422E+04  0.24978608984E+04 0.  0.
        4    1    3    3  502    0 -0.31251134439E+03  0.13912838245E+03 -0.16333317324E+04  0.16687702682E+04  0.12699999809E+01 0. -1.
       -4    1    3    3    0  502  0.31251134439E+03 -0.13912838245E+03  0.87677868390E+03  0.94114957399E+03  0.12699999809E+01 0.  1.
</event>
<event>
 5   0  0.6445331E-05  0.2323606E+04  0.7818609E-02  0.8468671E-01
       -2   -1    0    0    0  501  0.00000000000E+00  0.00000000000E+00  0.10028843507E+04  0.10028843507E+04  0.25500000920E-02 0.  1.
        2   -1    0    0  501    0  0.00000000000E+00  0.00000000000E+00 -0.13459044462E+04  0.13459044462E+04  0.25500000920E-02 0. -1.
    10030    2    1    2    0    0  0.00000000000E+00  0.00000000000E+00 -0.34302009557E+03  0.23487887969E+04  0.23236062546E+04 0.  0.
        1    1    3    3  502    0  0.62322341565E+03 -0.53590337512E+03  0.65847736342E+03  0.10531819840E+04  0.50400001928E-02 0.  1.
       -1    1    3    3    0  502 -0.62322341565E+03  0.53590337512E+03 -0.10014974590E+04  0.12956068129E+04  0.50400001928E-02 0. -1.
</event>
<event>
 5   0  0.2331375E-05  0.1662750E+04  0.7818609E-02  0.8782900E-01
        4   -1    0    0  501    0  0.00000000000E+00  0.00000000000E+00  0.79416548682E+03  0.79416650228E+03  0.12699999809E+01 0.  1.
       -4   -1    0    0    0  501  0.00000000000E+00  0.00000000000E+00 -0.87032535782E+03  0.87032628443E+03  0.12699999809E+01 0. -1.
    10030    2    1    2    0    0  0.00000000000E+00  0.00000000000E+00 -0.76159871007E+02  0.16644927867E+04  0.16627495034E+04 0.  0.
        3    1    3    3  502    0 -0.72841038321E+03  0.30727442606E+03 -0.29561354818E+03  0.84402999908E+03  0.10100000352E+00 0. -1.
       -3    1    3    3    0  502  0.72841038321E+03 -0.30727442606E+03  0.21945367718E+03  0.82046278764E+03  0.10100000352E+00 0.  1.
</event>
<event>
 5   0  0.6648328E-05  0.1388036E+04  0.7818609E-02  0.8962524E-01
        2   -1    0    0  501    0  0.00000000000E+00  0.00000000000E+00  0.87521653664E+03  0.87521653664E+03  0.25500000920E-02 0. -1.
       -2   -1    0    0    0  501  0.00000000000E+00  0.00000000000E+00 -0.55033351448E+03  0.55033351449E+03  0.25500000920E-02 0.  1.
    10030    2    1    2    0    0  0.00000000000E+00  0.00000000000E+00  0.32488302216E+03  0.14255500511E+04  0.13880360118E+04 0.  0.
        2    1    3    3  502    0  0.13015807152E+03 -0.63196531786E+03 -0.10008328159E+03  0.65294559484E+03  0.25500000920E-02 0.  1.
       -2    1    3    3    0  502 -0.13015807152E+03  0.63196531786E+03  0.42496630375E+03  0.77260445629E+03  0.25500000920E-02 0. -1.
</event>
<event>
 5   0  0.6445331E-05  0.2546341E+04  0.7818609E-02  0.8386660E-01
        2   -1    0    0  501    0  0.00000000000E+00  0.00000000000E+00  0.97898465644E+03  0.97898465644E+03  0.25500000920E-02 0. -1.
       -2   -1    0    0    0  501  0.00000000000E+00  0.00000000000E+00 -0.16557591381E+04  0.16557591381E+04  0.25500000920E-02 0.  1.
    10030    2    1    2    0    0  0.00000000000E+00  0.00000000000E+00 -0.67677448164E+03  0.26347437945E+04  0.25463407399E+04 0.  0.
        1    1    3    3  502    0 -0.85418880383E+03  0.36995622208E+03 -0.12371374895E+04  0.15482297268E+04  0.50400001928E-02 0.  1.
       -1    1    3    3    0  502  0.85418880383E+03 -0.36995622208E+03  0.56036300787E+03  0.10865140678E+04  0.50400001928E-02 0. -1.
</event>
<event>
 5   0  0.2331375E-05  0.2513242E+04  0.7818609E-02  0.8398283E-01
       -3   -1    0    0    0  501  0.00000000000E+00  0.00000000000E+00  0.77200207642E+03  0.77200208302E+03  0.10100000352E+00 0.  1.
        3   -1    0    0  501    0  0.00000000000E+00  0.00000000000E+00 -0.20454565075E+04  0.20454565100E+04  0.10100000352E+00 0. -1.
    10030    2    1    2    0    0  0.00000000000E+00  0.00000000000E+00 -0.12734544311E+04  0.28174585931E+04  0.25132422755E+04 0.  0.
        5    1    3    3  502    0 -0.58527709472E+03  0.11113740542E+04 -0.59518756185E+03  0.13899539164E+04  0.46999998093E+01 0. -1.
       -5    1    3    3    0  502  0.58527709472E+03 -0.11113740542E+04 -0.67826686927E+03  0.14275046767E+04  0.46999998093E+01 0.  1.
</event>
<event>
 5   0  0.2331375E-05  0.1898029E+04  0.7818609E-02  0.8655838E-01
        3   -1    0    0  501    0  0.00000000000E+00  0.00000000000E+00  0.84671976998E+03  0.84671977601E+03  0.10100000352E+00 0. -1.
       -3   -1    0    0    0  501  0.00000000000E+00  0.00000000000E+00 -0.10636679503E+04  0.10636679551E+04  0.10100000352E+00 0.  1.
    10030    2    1    2    0    0  0.00000000000E+00  0.00000000000E+00 -0.21694818031E+03  0.19103877311E+04  0.18980291805E+04 0.  0.
        5    1    3    3  502    0 -0.22923951322E+03 -0.46425763289E+03 -0.90896426574E+03  0.10460994362E+04  0.46999998093E+01 0.  1.
       -5    1    3    3    0  502  0.22923951322E+03  0.46425763289E+03  0.69201608543E+03  0.86428829485E+03  0.46999998093E+01 0. -1.
</event>
<event>
 5   0  0.2777539E-05  0.2580857E+04  0.7818609E-02  0.8374733E-01
       -1   -1    0    0    0  501  0.00000000000E+00  0.00000000000E+00  0.12941936042E+04  0.12941936042E+04  0.50400001928E-02 0. -1.
        1   -1    0    0  501    0  0.00000000000E+00  0.00000000000E+00 -0.12866743295E+04  0.12866743295E+04  0.50400001928E-02 0.  1.
    10030    2    1    2    0    0  0.00000000000E+00  0.00000000000E+00  0.75192747160E+01  0.25808679337E+04  0.25808569801E+04 0.  0.
        3    1    3    3  502    0  0.75695502115E+03 -0.98954108104E+03 -0.33244592778E+03  0.12894544429E+04  0.10100000352E+00 0.  1.
       -3    1    3    3    0  502 -0.75695502115E+03  0.98954108104E+03  0.33996520250E+03  0.12914134908E+04  0.10100000352E+00 0. -1.
</event>
<event>
 5   0  0.7071821E-05  0.2509749E+04  0.7818609E-02  0.8399520E-01
       -2   -1    0    0    0  501  0.00000000000E+00  0.00000000000E+00  0.13159910335E+04  0.13159910335E+04  0.25500000920E-02 0.  1.
        2   -1    0    0  501    0  0.00000000000E+00  0.00000000000E+00 -0.11965967113E+04  0.11965967113E+04  0.25500000920E-02 0. -1.
    10030    2    1    2    0    0  0.00000000000E+00  0.00000000000E+00  0.11939432220E+03  0.25125877448E+04  0.25097494240E+04 0.  0.
        5    1    3    3  502    0 -0.45337004587E+03 -0.68323419154E+03 -0.89129031617E+03  0.12111044037E+04  0.46999998093E+01 0. -1.
       -5    1    3    3    0  502  0.45337004587E+03  0.68323419154E+03  0.10106846384E+04  0.13014833411E+04  0.46999998093E+01 0.  1.
</event>
<event>
 5   0  0.2896652E-05  0.2484011E+04  0.7818609E-02  0.8408704E-01
        1   -1    0    0  501    0  0.00000000000E+00  0.00000000000E+00  0.15145301226E+04  0.15145301226E+04  0.50400001928E-02 0.  1.
       -1   -1    0    0    0  501  0.00000000000E+00  0.00000000000E+00 -0.10185188327E+04  0.10185188327E+04  0.50400001928E-02 0. -1.
    10030    2    1    2    0    0  0.00000000000E+00  0.00000000000E+00  0.49601128992E+03  0.25330489553E+04  0.24840108314E+04 0.  0.
        4    1    3    3  502    0  0.98111978265E+03 -0.56607152500E+03 -0.27150520795E+03  0.11647959865E+04  0.12699999809E+01 0.  1.
       -4    1    3    3    0  502 -0.98111978265E+03  0.56607152500E+03  0.76751649787E+03  0.13682529688E+04  0.12699999809E+01 0. -1.
</event>
<event>
 5   0  0.6445331E-05  0.2320798E+04  0.7818609E-02  0.8469766E-01
       -2   -1    0    0    0  501  0.00000000000E+00  0.00000000000E+00  0.75170641505E+03  0.75170641505E+03  0.25500000920E-02 0.  1.
        2   -1    0    0  501    0  0.00000000000E+00  0.00000000000E+00 -0.17912918176E+04  0.17912918176E+04  0.25500000920E-02 0. -1.
    10030    2    1    2    0    0  0.00000000000E+00  0.00000000000E+00 -0.10395854025E+04  0.25429982326E+04  0.23207977512E+04 0.  0.
        1    1    3    3  502    0 -0.75053129726E+03 -0.61293072568E+03  0.17972087420E+03  0.98553584171E+03  0.50400001928E-02 0.  1.
       -1    1    3    3    0  502  0.75053129726E+03  0.61293072568E+03 -0.12193062767E+04  0.15574623909E+04  0.50400001928E-02 0. -1.
</event>
<event>
 5   0  0.6648328E-05  0.2479189E+04  0.7818609E-02  0.8410437E-01
        2   -1    0    0  501    0  0.00000000000E+00  0.00000000000E+00  0.11954100838E+04  0.11954100838E+04  0.25500000920E-02 0.  1.
       -2   -1    0    0    0  501  0.00000000000E+00  0.00000000000E+00 -0.12854118966E+04  0.12854118966E+04  0.25500000920E-02 0. -1.
    10030    2    1    2    0    0  0.00000000000E+00  0.00000000000E+00 -0.90001812801E+02  0.24808219805E+04  0.24791888537E+04 0.  0.
        2    1    3    3  502    0  0.12181046326E+04  0.70023081662E+01 -0.27486163793E+03  0.12487501144E+04  0.25500000920E-02 0. -1.
       -2    1    3    3    0  502 -0.12181046326E+04 -0.70023081662E+01  0.18485982513E+03  0.12320718661E+04  0.25500000920E-02 0.  1.
</event>
<event>
 5   0  0.2980790E-05  0.2478919E+04  0.7818609E-02  0.8410534E-01
       -1   -1    0    0    0  501  0.00000000000E+00  0.00000000000E+00  0.11635160597E+04  0.11635160597E+04  0.50400001928E-02 0. -1.
        1   -1    0    0  501    0  0.00000000000E+00  0.00000000000E+00 -0.13203598526E+04  0.13203598526E+04  0.50400001928E-02 0.  1.
    10030    2    1    2    0    0  0.00000000000E+00  0.00000000000E+00 -0.15684379291E+03  0.24838759123E+04  0.24789190331E+04 0.  0.
        5    1    3    3  502    0  0.69446676912E+03  0.69230834041E+03 -0.83800294956E+03  0.12899015331E+04  0.46999998093E+01 0.  1.
       -5    1    3    3    0  502 -0.69446676912E+03 -0.69230834041E+03  0.68115915665E+03  0.11939743792E+04  0.46999998093E+01 0. -1.
</event>
<event>
 5   0  0.6909250E-05  0.2480925E+04  0.7818609E-02  0.8409813E-01
       -2   -1    0    0    0  501  0.00000000000E+00  0.00000000000E+00  0.90869727279E+03  0.90869727280E+03  0.25500000920E-02 0. -1.
        2   -1    0    0  501    0  0.00000000000E+00  0.00000000000E+00 -0.16933555467E+04  0.16933555467E+04  0.25500000920E-02 0.  1.
    10030    2    1    2    0    0  0.00000000000E+00  0.00000000000E+00 -0.78465827388E+03  0.26020528195E+04  0.24809252848E+04 0.  0.
        4    1    3    3  502    0  0.33990615712E+03 -0.79875525347E+03 -0.13217074070E+04  0.15812837296E+04  0.12699999809E+01 0.  1.
       -4    1    3    3    0  502 -0.33990615712E+03  0.79875525347E+03  0.53704913317E+03  0.10207690899E+04  0.12699999809E+01 0. -1.
</event>
<event>
 5   0  0.7071821E-05  0.2462640E+04  0.7818609E-02  0.8416417E-01
       -2   -1    0    0    0  501  0.00000000000E+00  0.00000000000E+00  0.92930383800E+03  0.92930383800E+03  0.25500000920E-02 0.  1.
        2   -1    0    0  501    0  0.00000000000E+00  0.00000000000E+00 -0.16314886484E+04  0.16314886484E+04  0.25500000920E-02 0. -1.
    10030    2    1    2    0    0  0.00000000000E+00  0.00000000000E+00 -0.70218481043E+03  0.25607924864E+04  0.24626397728E+04 0.  0.
        5    1    3    3  502    0 -0.83975689380E+03 -0.89109379219E+03 -0.48622091615E+03  0.13174492994E+04  0.46999998093E+01 0. -1.
       -5    1    3    3    0  502  0.83975689380E+03  0.89109379219E+03 -0.21596389429E+03  0.12433431871E+04  0.46999998093E+01 0.  1.
</event>
<event>
 5   0  0.2896652E-05  0.2176071E+04  0.7818609E-02  0.8528455E-01
        1   -1    0    0  501    0  0.00000000000E+00  0.00000000000E+00  0.21185682651E+04  0.21185682651E+04  0.50400001928E-02 0.  1.
       -1   -1    0    0    0  501  0.00000000000E+00  0.00000000000E+00 -0.55878346596E+03  0.55878346598E+03  0.50400001928E-02 0. -1.
    10030    2    1    2    0    0  0.00000000000E+00  0.00000000000E+00  0.15597847991E+04  0.26773517311E+04  0.21760706956E+04 0.  0.
        4    1    3    3  502    0 -0.10073237144E+04  0.41032979601E+03  0.81353546744E+03  0.13582758102E+04  0.12699999809E+01 0. -1.
       -4    1    3    3    0  502  0.10073237144E+04 -0.41032979601E+03  0.74624933167E+03  0.13190759208E+04  0.12699999809E+01 0.  1.
</event>
<event>
 5   0  0.6445331E-05  0.2605326E+04  0.7818609E-02  0.8366394E-01
        2   -1    0    0  501    0  0.00000000000E+00  0.00000000000E+00  0.14099895504E+04  0.14099895504E+04  0.25500000920E-02 0. -1.
       -2   -1    0    0    0  501  0.00000000000E+00  0.00000000000E+00 -0.12035061422E+04  0.12035061422E+04  0.25500000920E-02 0.  1.
    10030    2    1    2    0    0  0.00000000000E+00  0.00000000000E+00  0.20648340819E+03  0.26134956926E+04  0.26053261480E+04 0.  0.
        1    1    3    3  502    0 -0.27157446316E+03 -0.12735335054E+04  0.67201257374E+02  0.13039004131E+04  0.50400001928E-02 0.  1.
       -1    1    3    3    0  502  0.27157446316E+03  0.12735335054E+04  0.13928215082E+03  0.13095952794E+04  0.50400001928E-02 0. -1.
</event>
<event>
 5   0  0.2980790E-05  0.2505244E+04  0.7818609E-02  0.8401120E-01
       -1   -1    0    0    0  501  0.00000000000E+00  0.00000000000E+00  0.11358111560E+04  0.11358111560E+04  0.50400001928E-02 0. -1.
        1   -1    0    0  501    0  0.00000000000E+00  0.00000000000E+00 -0.13814458709E+04  0.13814458709E+04  0.50400001928E-02 0.  1.
    10030    2    1    2    0    0  0.00000000000E+00  0.00000000000E+00 -0.24563471492E+03  0.25172570269E+04  0.25052438058E+04 0.  0.
        5    1    3    3  502    0 -0.42959293910E+03 -0.11495830971E+03  0.10538120304E+04  0.11438126559E+04  0.46999998093E+01 0. -1.
       -5    1    3    3    0  502  0.42959293910E+03  0.11495830971E+03 -0.12994467454E+04  0.13734443710E+04  0.46999998093E+01 0.  1.
</event>
<event>
 5   0  0.2777539E-05  0.2512347E+04  0.7818609E-02  0.8398600E-01
       -1   -1    0    0    0  501  0.00000000000E+00  0.00000000000E+00  0.14793520074E+04  0.14793520074E+04  0.50400001928E-02 0.  1.
        1   -1    0    0  501    0  0.00000000000E+00  0.00000000000E+00 -0.10666644936E+04  0.10666644936E+04  0.50400001928E-02 0. -1.
    10030    2    1    2    0    0  0.00000000000E+00  0.00000000000E+00  0.41268751375E+03  0.25460165010E+04  0.25123473166E+04 0.  0.
        3    1    3    3  502    0 -0.10137769376E+04 -0.43681984037E+03 -0.40120458809E+03  0.11745298566E+04  0.10100000352E+00 0. -1.
       -3    1    3    3    0  502  0.10137769376E+04  0.43681984037E+03  0.81389210184E+03  0.13714866444E+04  0.10100000352E+00 0.  1.
</event>
<event>
 5   0  0.2777539E-05  0.1643881E+04  0.7818609E-02  0.8794035E-01
        1   -1    0    0  501    0  0.00000000000E+00  0.00000000000E+00  0.84205574265E+03  0.84205574267E+03  0.50400001928E-02 0. -1.
       -1   -1    0    0    0  501  0.00000000000E+00  0.00000000000E+00 -0.80230532636E+03  0.80230532637E+03  0.50400001928E-02 0.  1.
    10030    2    1    2    0    0  0.00000000000E+00  0.00000000000E+00  0.39750416295E+02  0.16443610690E+04  0.16438805400E+04 0.  0.
        3    1    3    3  502    0 -0.24641201071E+03 -0.94068601461E+02 -0.75882393988E+03  0.80335643568E+03  0.10100000352E+00 0.  1.
       -3    1    3    3    0  502  0.24641201071E+03  0.94068601461E+02  0.79857435618E+03  0.84100463337E+03  0.10100000352E+00 0. -1.
</event>
<event>
 5   0  0.2977854E-05  0.2421375E+04  0.7818609E-02  0.8431544E-01
        1   -1    0    0  501    0  0.00000000000E+00  0.00000000000E+00  0.22201143832E+04  0.22201143832E+04  0.50400001928E-02 0.  1.
       -1   -1    0    0    0  501  0.00000000000E+00  0.00000000000E+00 -0.66022000850E+03  0.66022000852E+03  0.50400001928E-02 0. -1.
    10030    2    1    2    0    0  0.00000000000E+00  0.00000000000E+00  0.15598943747E+04  0.28803343917E+04  0.24213747640E+04 0.  0.
        1    1    3    3  502    0 -0.38392352721E+02 -0.12076291943E+04  0.68840867528E+03  0.13905929484E+04  0.50400001928E-02 0.  1.
       -1    1    3    3    0  502  0.38392352721E+02  0.12076291943E+04  0.87148569940E+03  0.14897414434E+04  0.50400001928E-02 0. -1.
</event>
<event>
 5   0  0.6827859E-05  0.2460189E+04  0.7818609E-02  0.8417307E-01
        2   -1    0    0  501    0  0.00000000000E+00  0.00000000000E+00  0.10901663399E+04  0.10901663399E+04  0.25500000920E-02 0.  1.
       -2   -1    0    0    0  501  0.00000000000E+00  0.00000000000E+00 -0.13879834858E+04  0.13879834858E+04  0.25500000920E-02 0. -1.
    10030    2    1    2    0    0  0.00000000000E+00  0.00000000000E+00 -0.29781714591E+03  0.24781498258E+04  0.24601893233E+04 0.  0.
        3    1    3    3  502    0  0.46385244890E+03  0.25820800844E+03  0.96883297017E+03  0.11047478465E+04  0.10100000352E+00 0.  1.
       -3    1    3    3    0  502 -0.46385244890E+03 -0.25820800844E+03 -0.12666501161E+04  0.13734019793E+04  0.10100000352E+00 0. -1.
</event>
<event>
 5   0  0.2331375E-05  0.2510830E+04  0.7818609E-02  0.8399137E-01
        3   -1    0    0  501    0  0.00000000000E+00  0.00000000000E+00  0.82698076844E+03  0.82698077461E+03  0.10100000352E+00 0.  1.
       -3   -1    0    0    0  501  0.00000000000E+00  0.00000000000E+00 -0.19058089297E+04  0.19058089324E+04  0.10100000352E+00 0. -1.
    10030    2    1    2    0    0  0.00000000000E+00  0.00000000000E+00 -0.10788281613E+04  0.27327897070E+04  0.25108304166E+04 0.  0.
        1    1    3    3  502    0 -0.11686772386E+04 -0.25204628551E+03 -0.12249333020E+03  0.12018063213E+04  0.50400001928E-02 0.  1.
       -1    1    3    3    0  502  0.11686772386E+04  0.25204628551E+03 -0.95633483107E+03  0.15309833857E+04  0.50400001928E-02 0. -1.
</event>
<event>
 5   0  0.6827859E-05  0.2505679E+04  0.7818609E-02  0.8400965E-01
       -2   -1    0    0    0  501  0.00000000000E+00  0.00000000000E+00  0.12375165959E+04  0.12375165959E+04  0.25500000920E-02 0.  1.
        2   -1    0    0  501    0  0.00000000000E+00  0.00000000000E+00 -0.12683523069E+04  0.12683523069E+04  0.25500000920E-02 0. -1.
    10030    2    1    2    0    0  0.00000000000E+00  0.00000000000E+00 -0.30835710993E+02  0.25058689029E+04  0.25056791729E+04 0.  0.
        3    1    3    3  502    0  0.56976264390E+03  0.22892417007E+03  0.10767139511E+04  0.12394953363E+04  0.10100000352E+00 0.  1.
       -3    1    3    3    0  502 -0.56976264390E+03 -0.22892417007E+03 -0.11075496621E+04  0.12663735666E+04  0.10100000352E+00 0. -1.
</event>
<event>
 5   0  0.7071821E-05  0.2291496E+04  0.7818609E-02  0.8481282E-01
       -2   -1    0    0    0  501  0.00000000000E+00  0.00000000000E+00  0.11161316775E+04  0.11161316775E+04  0.25500000920E-02 0. -1.
        2   -1    0    0  501    0  0.00000000000E+00  0.00000000000E+00 -0.11761503507E+04  0.11761503507E+04  0.25500000920E-02 0.  1.
    10030    2    1    2    0    0  0.00000000000E+00  0.00000000000E+00 -0.60018673229E+02  0.22922820281E+04  0.22914961609E+04 0.  0.
        5    1    3    3  502    0 -0.47550384723E+03  0.10067554325E+04 -0.30039107057E+03  0.11532204017E+04  0.46999998093E+01 0.  1.
       -5    1    3    3    0  502  0.47550384723E+03 -0.10067554325E+04  0.24037239735E+03  0.11390616265E+04  0.46999998093E+01 0. -1.
</event>
<event>
 5   0  0.2793920E-05  0.2501418E+04  0.7818609E-02  0.8402481E-01
        1   -1    0    0  501    0  0.00000000000E+00  0.00000000000E+00  0.11714684129E+04  0.11714684129E+04  0.50400001928E-02 0. -1.
       -1   -1    0    0    0  501  0.00000000000E+00  0.00000000000E+00 -0.13353092473E+04  0.13353092473E+04  0.50400001928E-02 0.  1.
    10030    2    1    2    0    0  0.00000000000E+00  0.00000000000E+00 -0.16384083440E+03  0.25067776602E+04  0.25014176818E+04 0.  0.
        2    1    3    3  502    0  0.67641126039E+03  0.41622941938E+03  0.88632454324E+03  0.11901051713E+04  0.25500000920E-02 0. -1.
       -2    1    3    3    0  502 -0.67641126039E+03 -0.41622941938E+03 -0.10501653776E+04  0.13166724889E+04  0.25500000920E-02 0.  1.
</event>
<event>
 5   0  0.2896652E-05  0.2397135E+04  0.7818609E-02  0.8440577E-01
        1   -1    0    0  501    0  0.00000000000E+00  0.00000000000E+00  0.11543206845E+04  0.11543206845E+04  0.50400001928E-02 0.  1.
       -1   -1    0    0    0  501  0.00000000000E+00  0.00000000000E+00 -0.12445103454E+04  0.12445103454E+04  0.50400001928E-02 0. -1.
    10030    2    1    2    0    0  0.00000000000E+00  0.00000000000E+00 -0.90189660914E+02  0.23988310299E+04  0.23971349848E+04 0.  0.
        4    1    3    3  502    0  0.24778858975E+03 -0.52800455895E+03 -0.10929146652E+04  0.12388107514E+04  0.12699999809E+01 0. -1.
       -4    1    3    3    0  502 -0.24778858975E+03  0.52800455895E+03  0.10027250043E+04  0.11600202785E+04  0.12699999809E+01 0.  1.
</event>
<event>
 5   0  0.6648328E-05  0.2500231E+04  0.7818609E-02  0.8402903E-01
        2   -1    0    0  501    0  0.00000000000E+00  0.00000000000E+00  0.14554991729E+04  0.14554991730E+04  0.25500000920E-02 0. -1.
       -2   -1    0    0    0  501  0.00000000000E+00  0.00000000000E+00 -0.10737131550E+04  0.10737131550E+04  0.25500000920E-02 0.  1.
    10030    2    1    2    0    0  0.00000000000E+00  0.00000000000E+00  0.38178601794E+03  0.25292123280E+04  0.25002308766E+04 0.  0.
        2    1    3    3  502    0  0.37110581094E+03  0.23697812531E+03  0.13744595952E+04  0.14432662033E+04  0.25500000920E-02 0. -1.
       -2    1    3    3    0  502 -0.37110581094E+03 -0.23697812531E+03 -0.99267357722E+03  0.10859461247E+04  0.25500000920E-02 0.  1.
</event>
<event>
 5   0  0.6827859E-05  0.2570180E+04  0.7818609E-02  0.8378401E-01
        2   -1    0    0  501    0  0.00000000000E+00  0.00000000000E+00  0.24505559326E+04  0.24505559326E+04  0.25500000920E-02 0. -1.
       -2   -1    0    0    0  501  0.00000000000E+00  0.00000000000E+00 -0.67391111900E+03  0.67391111900E+03  0.25500000920E-02 0.  1.
    10030    2    1    2    0    0  0.00000000000E+00  0.00000000000E+00  0.17766448136E+04  0.31244670516E+04  0.25701804533E+04 0.  0.
        3    1    3    3  502    0  0.15843780805E+03  0.83446058356E+03 -0.28403702795E+03  0.89560261722E+03  0.10100000352E+00 0.  1.
       -3    1    3    3    0  502 -0.15843780805E+03 -0.83446058356E+03  0.20606818415E+04  0.22288644344E+04  0.10100000352E+00 0. -1.
</event>
<event>
 5   0  0.2977854E-05  0.2491533E+04  0.7818609E-02  0.8406008E-01
        1   -1    0    0  501    0  0.00000000000E+00  0.00000000000E+00  0.13192749971E+04  0.13192749971E+04  0.50400001928E-02 0. -1.
       -1   -1    0    0    0  501  0.00000000000E+00  0.00000000000E+00 -0.11763538247E+04  0.11763538247E+04  0.50400001928E-02 0.  1.
    10030    2    1    2    0    0  0.00000000000E+00  0.00000000000E+00  0.14292117241E+03  0.24956288218E+04  0.24915330130E+04 0.  0.
        1    1    3    3  502    0  0.42083123872E+03  0.99798091123E+03 -0.54507491298E+03  0.12125062851E+04  0.50400001928E-02 0.  1.
       -1    1    3    3    0  502 -0.42083123872E+03 -0.99798091123E+03  0.68799608539E+03  0.12831225367E+04  0.50400001928E-02 0. -1.
</event>
<event>
 5   0  0.7071821E-05  0.2521462E+04  0.7818609E-02  0.8395379E-01
       -2   -1    0    0    0  501  0.00000000000E+00  0.00000000000E+00  0.11197709063E+04  0.11197709063E+04  0.25500000920E-02 0. -1.
        2   -1    0    0  501    0  0.00000000000E+00  0.00000000000E+00 -0.14194351510E+04  0.14194351510E+04  0.25500000920E-02 0.  1.
    10030    2    1    2    0    0  0.00000000000E+00  0.00000000000E+00 -0.29966424471E+03  0.25392060572E+04  0.25214616280E+04 0.  0.
        5    1    3    3  502    0 -0.42758946224E+03  0.48035339386E+03  0.94216418006E+03  0.11407311530E+04  0.46999998093E+01 0. -1.
       -5    1    3    3    0  502  0.42758946224E+03 -0.48035339386E+03 -0.12418284248E+04  0.13984749042E+04  0.46999998093E+01 0.  1.
</event>
<event>
 5   0  0.2896652E-05  0.2415398E+04  0.7818609E-02  0.8433761E-01
        1   -1    0    0  501    0  0.00000000000E+00  0.00000000000E+00  0.96443936743E+03  0.96443936744E+03  0.50400001928E-02 0.  1.
       -1   -1    0    0    0  501  0.00000000000E+00  0.00000000000E+00 -0.15123153026E+04  0.15123153026E+04  0.50400001928E-02 0. -1.
    10030    2    1    2    0    0  0.00000000000E+00  0.00000000000E+00 -0.54787593514E+03  0.24767546700E+04  0.24153976184E+04 0.  0.
        4    1    3    3  502    0  0.32023386895E+03 -0.10173345378E+04 -0.85491285916E+03  0.13668931569E+04  0.12699999809E+01 0. -1.
       -4    1    3    3    0  502 -0.32023386895E+03  0.10173345378E+04  0.30703692402E+03  0.11098615131E+04  0.12699999809E+01 0.  1.
</event>
<event>
 5   0  0.2980790E-05  0.2480860E+04  0.7818609E-02  0.8409836E-01
        1   -1    0    0  501    0  0.00000000000E+00  0.00000000000E+00  0.17614658574E+04  0.17614658574E+04  0.50400001928E-02 0. -1.
       -1   -1    0    0    0  501  0.00000000000E+00  0.00000000000E+00 -0.87351505879E+03  0.87351505881E+03  0.50400001928E-02 0.  1.
    10030    2    1    2    0    0  0.00000000000E+00  0.00000000000E+00  0.88795079865E+03  0.26349809163E+04  0.24808602960E+04 0.  0.
        5    1    3    3  502    0 -0.41935419621E+03  0.11481243286E+04  0.21967494096E+03  0.12419044188E+04  0.46999998093E+01 0. -1.
       -5    1    3    3    0  502  0.41935419621E+03 -0.11481243286E+04  0.66827585769E+03  0.13930764974E+04  0.46999998093E+01 0.  1.
</event>
<event>
 5   0  0.6648328E-05  0.2475023E+04  0.7818609E-02  0.8411938E-01
        2   -1    0    0  501    0  0.00000000000E+00  0.00000000000E+00  0.55515732640E+03  0.55515732641E+03  0.25500000920E-02 0. -1.
       -2   -1    0    0    0  501  0.00000000000E+00  0.00000000000E+00 -0.27585597650E+04  0.27585597650E+04  0.25500000920E-02 0.  1.
    10030    2    1    2    0    0  0.00000000000E+00  0.00000000000E+00 -0.22034024386E+04  0.33137170914E+04  0.24750229606E+04 0.  0.
        2    1    3    3  502    0 -0.81789511258E+03 -0.47186829597E+03 -0.21726432665E+04  0.23689640916E+04  0.25500000920E-02 0.  1.
       -2    1    3    3    0  502  0.81789511258E+03  0.47186829597E+03 -0.30759172101E+02  0.94475299979E+03  0.25500000920E-02 0. -1.
</event>
<event>
 5   0  0.2977854E-05  0.2475109E+04  0.7818609E-02  0.8411907E-01
       -1   -1    0    0    0  501  0.00000000000E+00  0.00000000000E+00  0.21501703280E+04  0.21501703280E+04  0.50400001928E-02 0.  1.
        1   -1    0    0  501    0  0.00000000000E+00  0.00000000000E+00 -0.71228813019E+03  0.71228813021E+03  0.50400001928E-02 0. -1.
    10030    2    1    2    0    0  0.00000000000E+00  0.00000000000E+00  0.14378821978E+04  0.28624584582E+04  0.24751087270E+04 0.  0.
        1    1    3    3  502    0 -0.63398778110E+03  0.89011984756E+03  0.13905936709E+04  0.17686165801E+04  0.50400001928E-02 0. -1.
       -1    1    3    3    0  502  0.63398778110E+03 -0.89011984756E+03  0.47288526872E+02  0.10938418782E+04  0.50400001928E-02 0.  1.
</event>
<event>
 5   0  0.2793920E-05  0.2513553E+04  0.7818609E-02  0.8398173E-01
        1   -1    0    0  501    0  0.00000000000E+00  0.00000000000E+00  0.19344214895E+04  0.19344214895E+04  0.50400001928E-02 0. -1.
       -1   -1    0    0    0  501  0.00000000000E+00  0.00000000000E+00 -0.81651680344E+03  0.81651680345E+03  0.50400001928E-02 0.  1.
    10030    2    1    2    0    0  0.00000000000E+00  0.00000000000E+00  0.11179046860E+04  0.27509382929E+04  0.25135533821E+04 0.  0.
        2    1    3    3  502    0 -0.58819829509E+03 -0.54466595139E+03  0.16182734638E+04  0.18059477392E+04  0.25500000920E-02 0. -1.
       -2    1    3    3    0  502  0.58819829509E+03  0.54466595139E+03 -0.50036877776E+03  0.94499055377E+03  0.25500000920E-02 0.  1.
</event>
<event>
 5   0  0.7071821E-05  0.2516684E+04  0.7818609E-02  0.8397066E-01
       -2   -1    0    0    0  501  0.00000000000E+00  0.00000000000E+00  0.13445294320E+04  0.13445294320E+04  0.25500000920E-02 0.  1.
        2   -1    0    0  501    0  0.00000000000E+00  0.00000000000E+00 -0.11776790950E+04  0.11776790950E+04  0.25500000920E-02 0. -1.
    10030    2    1    2    0    0  0.00000000000E+00  0.00000000000E+00  0.16685033696E+03  0.25222085270E+04  0.25166836946E+04 0.  0.
        5    1    3    3  502    0  0.99604796813E+03  0.18721549124E+03 -0.66402771470E+03  0.12116584052E+04  0.46999998093E+01 0. -1.
       -5    1    3    3    0  502 -0.99604796813E+03 -0.18721549124E+03  0.83087805166E+03  0.13105501218E+04  0.46999998093E+01 0.  1.
</event>
<event>
 5   0  0.6909250E-05  0.2518891E+04  0.7818609E-02  0.8396286E-01
        2   -1    0    0  501    0  0.00000000000E+00  0.00000000000E+00  0.10433182719E+04  0.10433182719E+04  0.25500000920E-02 0. -1.
       -2   -1    0    0    0  501  0.00000000000E+00  0.00000000000E+00 -0.15203443570E+04  0.15203443571E+04  0.25500000920E-02 0.  1.
    10030    2    1    2    0    0  0.00000000000E+00  0.00000000000E+00 -0.47702608518E+03  0.25636626289E+04  0.25188910634E+04 0.  0.
        4    1    3    3  502    0 -0.18814713508E+03 -0.83989838184E+02  0.10260476043E+04  0.10465318612E+04  0.12699999809E+01 0. -1.
       -4    1    3    3    0  502  0.18814713508E+03  0.83989838184E+02 -0.15030736895E+04  0.15171307677E+04  0.12699999809E+01 0.  1.
</event>
<event>
 5   0  0.2793920E-05  0.2244008E+04  0.7818609E-02  0.8500331E-01
        1   -1    0    0  501    0  0.00000000000E+00  0.00000000000E+00  0.80509757670E+03  0.80509757671E+03  0.50400001928E-02 0. -1.
       -1   -1    0    0    0  501  0.00000000000E+00  0.00000000000E+00 -0.15636533042E+04  0.15636533042E+04  0.50400001928E-02 0.  1.
    10030    2    1    2    0    0  0.00000000000E+00  0.00000000000E+00 -0.75855572750E+03  0.23687508809E+04  0.22440084546E+04 0.  0.
        2    1    3    3  502    0 -0.55595022271E+03  0.53275707888E+03 -0.12407205416E+04  0.14602390961E+04  0.25500000920E-02 0.  1.
       -2    1    3    3    0  502  0.55595022271E+03 -0.53275707888E+03  0.48216481413E+03  0.90851178486E+03  0.25500000920E-02 0. -1.
</event>
<event>
 5   0  0.2777539E-05  0.1586152E+04  0.7818609E-02  0.8829101E-01
        1   -1    0    0  501    0  0.00000000000E+00  0.00000000000E+00  0.10139233186E+04  0.10139233186E+04  0.50400001928E-02 0. -1.
       -1   -1    0    0    0  501  0.00000000000E+00  0.00000000000E+00 -0.62033262208E+03  0.62033262210E+03  0.50400001928E-02 0.  1.
    10030    2    1    2    0    0  0.00000000000E+00  0.00000000000E+00  0.39359069649E+03  0.16342559407E+04  0.15861522132E+04 0.  0.
        3    1    3    3  502    0 -0.10840452855E+03 -0.28284722065E+03 -0.55838298652E+03  0.63525243949E+03  0.10100000352E+00 0.  1.
       -3    1    3    3    0  502  0.10840452855E+03  0.28284722065E+03  0.95197368301E+03  0.99900350119E+03  0.10100000352E+00 0. -1.
</event>
<event>
 5   0  0.2793920E-05  0.2510567E+04  0.7818609E-02  0.8399230E-01
       -1   -1    0    0    0  501  0.00000000000E+00  0.00000000000E+00  0.76222351549E+03  0.76222351551E+03  0.50400001928E-02 0. -1.
        1   -1    0    0  501    0  0.00000000000E+00  0.00000000000E+00 -0.20672902218E+04  0.20672902218E+04  0.50400001928E-02 0.  1.
    10030    2    1    2    0    0  0.00000000000E+00  0.00000000000E+00 -0.13050667063E+04  0.28295137373E+04  0.25105674422E+04 0.  0.
        2    1    3    3  502    0 -0.36941470314E+03 -0.10344546933E+04 -0.13373198137E+04  0.17306033686E+04  0.25500000920E-02 0.  1.
       -2    1    3    3    0  502  0.36941470314E+03  0.10344546933E+04  0.32253107385E+02  0.10989103687E+04  0.25500000920E-02 0. -1.
</event>
<event>
 5   0  0.6827859E-05  0.2338704E+04  0.7818609E-02  0.8462815E-01
        2   -1    0    0  501    0  0.00000000000E+00  0.00000000000E+00  0.25272917501E+04  0.25272917501E+04  0.25500000920E-02 0. -1.
       -2   -1    0    0    0  501  0.00000000000E+00  0.00000000000E+00 -0.54104701788E+03  0.54104701789E+03  0.25500000920E-02 0.  1.
    10030    2    1    2    0    0  0.00000000000E+00  0.00000000000E+00  0.19862447322E+04  0.30683387680E+04  0.23387036279E+04 0.  0.
        3    1    3    3  502    0 -0.75902039489E+03 -0.94859401019E+02 -0.16727676880E+03  0.78300178378E+03  0.10100000352E+00 0.  1.
       -3    1    3    3    0  502  0.75902039489E+03  0.94859401019E+02  0.21535215010E+04  0.22853369842E+04  0.10100000352E+00 0. -1.
</event>
<event>
 5   0  0.2331375E-05  0.2406368E+04  0.7818609E-02  0.8437123E-01
       -3   -1    0    0    0  501  0.00000000000E+00  0.00000000000E+00  0.10248339790E+04  0.10248339839E+04  0.10100000352E+00 0. -1.
        3   -1    0    0  501    0  0.00000000000E+00  0.00000000000E+00 -0.14125715985E+04  0.14125716021E+04  0.10100000352E+00 0.  1.
    10030    2    1    2    0    0  0.00000000000E+00  0.00000000000E+00 -0.38773761949E+03  0.24374055860E+04  0.24063677045E+04 0.  0.
        2    1    3    3  502    0  0.63226469102E+02  0.34123218675E+03  0.97303847955E+03  0.10330735087E+04  0.25500000920E-02 0. -1.
       -2    1    3    3    0  502 -0.63226469102E+02 -0.34123218675E+03 -0.13607760990E+04  0.14043320773E+04  0.25500000920E-02 0.  1.
</event>
<event>
 5   0  0.2896652E-05  0.2479710E+04  0.7818609E-02  0.8410250E-01
       -1   -1    0    0    0  501  0.00000000000E+00  0.00000000000E+00  0.11571630447E+04  0.11571630447E+04  0.50400001928E-02 0. -1.
        1   -1    0    0  501    0  0.00000000000E+00  0.00000000000E+00 -0.13284563797E+04  0.13284563797E+04  0.50400001928E-02 0.  1.
    10030    2    1    2    0    0  0.00000000000E+00  0.00000000000E+00 -0.17129333493E+03  0.24856194244E+04  0.24797101678E+04 0.  0.
        4    1    3    3  502    0 -0.12142236826E+04  0.10010659362E+03  0.14485465287E+03  0.12269250038E+04  0.12699999809E+01 0. -1.
       -4    1    3    3    0  502  0.12142236826E+04 -0.10010659362E+03 -0.31614798780E+03  0.12586944207E+04  0.12699999809E+01 0.  1.
</event>
<event>
 5   0  0.2777539E-05  0.2500202E+04  0.7818609E-02  0.8402914E-01
       -1   -1    0    0    0  501  0.00000000000E+00  0.00000000000E+00  0.87573313169E+03  0.87573313170E+03  0.50400001928E-02 0.  1.
        1   -1    0    0  501    0  0.00000000000E+00  0.00000000000E+00 -0.17845075990E+04  0.17845075990E+04  0.50400001928E-02 0. -1.
    10030    2    1    2    0    0  0.00000000000E+00  0.00000000000E+00 -0.90877446733E+03  0.26602407307E+04  0.25002019344E+04 0.  0.
        3    1    3    3  502    0 -0.83658138186E+03 -0.35209391897E+03  0.46023712722E+03  0.10176722261E+04  0.10100000352E+00 0.  1.
       -3    1    3    3    0  502  0.83658138186E+03  0.35209391897E+03 -0.13690115945E+04  0.16425685047E+04  0.10100000352E+00 0. -1.
</event>
<event>
 5   0  0.6445331E-05  0.1442861E+04  0.7818609E-02  0.8923365E-01
        2   -1    0    0  501    0  0.00000000000E+00  0.00000000000E+00  0.97929274451E+03  0.97929274452E+03  0.25500000920E-02 0.  1.
       -2   -1    0    0    0  501  0.00000000000E+00  0.00000000000E+00 -0.53146728013E+03  0.53146728013E+03  0.25500000920E-02 0. -1.
    10030    2    1    2    0    0  0.00000000000E+00  0.00000000000E+00  0.44782546439E+03  0.15107600246E+04  0.14428611179E+04 0.  0.
        1    1    3    3  502    0  0.18726381237E+03 -0.28568956749E+03  0.88924883590E+03  0.95260157283E+03  0.50400001928E-02 0.  1.
       -1    1    3    3    0  502 -0.18726381237E+03  0.28568956749E+03 -0.44142337151E+03  0.55815845182E+03  0.50400001928E-02 0. -1.
</event>
<event>
 5   0  0.2977854E-05  0.1674527E+04  0.7818609E-02  0.8776027E-01
       -1   -1    0    0    0  501  0.00000000000E+00  0.00000000000E+00  0.34195489396E+03  0.34195489400E+03  0.50400001928E-02 0.  1.
        1   -1    0    0  501    0  0.00000000000E+00  0.00000000000E+00 -0.20500081420E+04  0.20500081420E+04  0.50400001928E-02 0. -1.
    10030    2    1    2    0    0  0.00000000000E+00  0.00000000000E+00 -0.17080532480E+04  0.23919630360E+04  0.16745271773E+04 0.  0.
        1    1    3    3  502    0 -0.64957539183E+03  0.39510637611E+03 -0.35314861149E+03  0.83831448749E+03  0.50400001928E-02 0. -1.
       -1    1    3    3    0  502  0.64957539183E+03 -0.39510637611E+03 -0.13549046365E+04  0.15536485485E+04  0.50400001928E-02 0.  1.
</event>
<event>
 5   0  0.6827859E-05  0.2521673E+04  0.7818609E-02  0.8395305E-01
       -2   -1    0    0    0  501  0.00000000000E+00  0.00000000000E+00  0.90095577284E+03  0.90095577285E+03  0.25500000920E-02 0. -1.
        2   -1    0    0  501    0  0.00000000000E+00  0.00000000000E+00 -0.17644691327E+04  0.17644691327E+04  0.25500000920E-02 0.  1.
    10030    2    1    2    0    0  0.00000000000E+00  0.00000000000E+00 -0.86351335985E+03  0.26654249055E+04  0.25216729773E+04 0.  0.
        3    1    3    3  502    0  0.28949468695E+03 -0.46025785812E+03  0.77066166479E+03  0.94316694255E+03  0.10100000352E+00 0. -1.
       -3    1    3    3    0  502 -0.28949468695E+03  0.46025785812E+03 -0.16341750246E+04  0.17222579630E+04  0.10100000352E+00 0.  1.
</event>
<event>
 5   0  0.6827859E-05  0.2396642E+04  0.7818609E-02  0.8440762E-01
        2   -1    0    0  501    0  0.00000000000E+00  0.00000000000E+00  0.95556774452E+03  0.95556774452E+03  0.25500000920E-02 0.  1.
       -2   -1    0    0    0  501  0.00000000000E+00  0.00000000000E+00 -0.15027440624E+04  0.15027440624E+04  0.25500000920E-02 0. -1.
    10030    2    1    2    0    0  0.00000000000E+00  0.00000000000E+00 -0.54717631792E+03  0.24583118070E+04  0.23966424467E+04 0.  0.
        3    1    3    3  502    0  0.27087359708E+03 -0.34122887681E+02  0.92324186007E+03  0.96276290926E+03  0.10100000352E+00 0.  1.
       -3    1    3    3    0  502 -0.27087359708E+03  0.34122887681E+02 -0.14704181780E+04  0.14955488977E+04  0.10100000352E+00 0. -1.
</event>
<event>
 5   0  0.6909250E-05  0.2381789E+04  0.7818609E-02  0.8446353E-01
        2   -1    0    0  501    0  0.00000000000E+00  0.00000000000E+00  0.15436733267E+04  0.15436733267E+04  0.25500000920E-02 0.  1.
       -2   -1    0    0    0  501  0.00000000000E+00  0.00000000000E+00 -0.91873667344E+03  0.91873667345E+03  0.25500000920E-02 0. -1.
    10030    2    1    2    0    0  0.00000000000E+00  0.00000000000E+00  0.62493665322E+03  0.24624100001E+04  0.23817886531E+04 0.  0.
        4    1    3    3  502    0  0.67580784281E+03  0.31070900545E+03 -0.64905097690E+03  0.98718038372E+03  0.12699999809E+01 0. -1.
       -4    1    3    3    0  502 -0.67580784281E+03 -0.31070900545E+03  0.12739876301E+04  0.14752296164E+04  0.12699999809E+01 0.  1.
</event>
<event>
 5   0  0.2777539E-05  0.2490337E+04  0.7818609E-02  0.8406436E-01
        1   -1    0    0  501    0  0.00000000000E+00  0.00000000000E+00  0.92281432212E+03  0.92281432214E+03  0.50400001928E-02 0. -1.
       -1   -1    0    0    0  501  0.00000000000E+00  0.00000000000E+00 -0.16801265051E+04  0.16801265051E+04  0.50400001928E-02 0.  1.
    10030    2    1    2    0    0  0.00000000000E+00  0.00000000000E+00 -0.75731218294E+03  0.26029408272E+04  0.24903371674E+04 0.  0.
        3    1    3    3  502    0  0.11302101823E+04  0.33225345008E+03 -0.80022612309E+03  0.14241240358E+04  0.10100000352E+00 0.  1.
       -3    1    3    3    0  502 -0.11302101823E+04 -0.33225345008E+03  0.42913940153E+02  0.11788167914E+04  0.10100000352E+00 0. -1.
</event>
<event>
 5   0  0.6909250E-05  0.2475085E+04  0.7818609E-02  0.8411916E-01
        2   -1    0    0  501    0  0.00000000000E+00  0.00000000000E+00  0.12155220721E+04  0.12155220721E+04  0.25500000920E-02 0. -1.
       -2   -1    0    0    0  501  0.00000000000E+00  0.00000000000E+00 -0.12599619393E+04  0.12599619393E+04  0.25500000920E-02 0.  1.
    10030    2    1    2    0    0  0.00000000000E+00  0.00000000000E+00 -0.44439867159E+02  0.24754840114E+04  0.24750850872E+04 0.  0.
        4    1    3    3  502    0 -0.11841962447E+04  0.15303953802E+03 -0.34749241237E+03  0.12435812944E+04  0.12699999809E+01 0.  1.
       -4    1    3    3    0  502  0.11841962447E+04 -0.15303953802E+03  0.30305254521E+03  0.12319027170E+04  0.12699999809E+01 0. -1.
</event>
<event>
 5   0  0.2980790E-05  0.2567930E+04  0.7818609E-02  0.8379177E-01
       -1   -1    0    0    0  501  0.00000000000E+00  0.00000000000E+00  0.82814896302E+03  0.82814896304E+03  0.50400001928E-02 0. -1.
        1   -1    0    0  501    0  0.00000000000E+00  0.00000000000E+00 -0.19906631027E+04  0.19906631027E+04  0.50400001928E-02 0.  1.
    10030    2    1    2    0    0  0.00000000000E+00  0.00000000000E+00 -0.11625141396E+04  0.28188120657E+04  0.25679295818E+04 0.  0.
        5    1    3    3  502    0 -0.87416890056E+03  0.92751452039E+03 -0.75162693348E+03  0.14796687431E+04  0.46999998093E+01 0.  1.
       -5    1    3    3    0  502  0.87416890056E+03 -0.92751452039E+03 -0.41088720616E+03  0.13391433226E+04  0.46999998093E+01 0. -1.
</event>
<event>
 5   0  0.6445331E-05  0.2485816E+04  0.7818609E-02  0.8408056E-01
       -2   -1    0    0    0  501  0.00000000000E+00  0.00000000000E+00  0.12067167155E+04  0.12067167155E+04  0.25500000920E-02 0.  1.
        2   -1    0    0  501    0  0.00000000000E+00  0.00000000000E+00 -0.12801843631E+04  0.12801843631E+04  0.25500000920E-02 0. -1.
    10030    2    1    2    0    0  0.00000000000E+00  0.00000000000E+00 -0.73467647574E+02  0.24869010786E+04  0.24858156567E+04 0.  0.
        1    1    3    3  502    0  0.29384490924E+03  0.10842873865E+04 -0.56875160535E+03  0.12591673264E+04  0.50400001928E-02 0.  1.
       -1    1    3    3    0  502 -0.29384490924E+03 -0.10842873865E+04  0.49528395778E+03  0.12277337521E+04  0.50400001928E-02 0. -1.
</event>
<event>
 5   0  0.2793920E-05  0.2446273E+04  0.7818609E-02  0.8422380E-01
       -1   -1    0    0    0  501  0.00000000000E+00  0.00000000000E+00  0.91751308797E+03  0.91751308799E+03  0.50400001928E-02 0.  1.
        1   -1    0    0  501    0  0.00000000000E+00  0.00000000000E+00 -0.16305629697E+04  0.16305629697E+04  0.50400001928E-02 0. -1.
    10030    2    1    2    0    0  0.00000000000E+00  0.00000000000E+00 -0.71304988171E+03  0.25480760577E+04  0.24462729737E+04 0.  0.
        2    1    3    3  502    0  0.11736524806E+04 -0.28896133903E+03 -0.55168285786E+03  0.13286507352E+04  0.25500000920E-02 0.  1.
       -2    1    3    3    0  502 -0.11736524806E+04  0.28896133903E+03 -0.16136702385E+03  0.12194253224E+04  0.25500000920E-02 0. -1.
</event>
<event>
 5   0  0.7071821E-05  0.1285165E+04  0.7818609E-02  0.9041413E-01
        2   -1    0    0  501    0  0.00000000000E+00  0.00000000000E+00  0.20191343907E+04  0.20191343907E+04  0.25500000920E-02 0. -1.
       -2   -1    0    0    0  501  0.00000000000E+00  0.00000000000E+00 -0.20449955987E+03  0.20449955988E+03  0.25500000920E-02 0.  1.
    10030    2    1    2    0    0  0.00000000000E+00  0.00000000000E+00  0.18146348309E+04  0.22236339506E+04  0.12851647275E+04 0.  0.
        5    1    3    3  502    0  0.31144484413E+03 -0.21281340860E+03  0.72595025089E+01  0.37730919441E+03  0.46999998093E+01 0.  1.
       -5    1    3    3    0  502 -0.31144484413E+03  0.21281340860E+03  0.18073753283E+04  0.18463247562E+04  0.46999998093E+01 0. -1.
</event>
<event>
 5   0  0.2777539E-05  0.2307571E+04  0.7818609E-02  0.8474942E-01
        1   -1    0    0  501    0  0.00000000000E+00  0.00000000000E+00  0.12656857222E+04  0.12656857222E+04  0.50400001928E-02 0. -1.
       -1   -1    0    0    0  501  0.00000000000E+00  0.00000000000E+00 -0.10517781182E+04  0.10517781182E+04  0.50400001928E-02 0.  1.
    10030    2    1    2    0    0  0.00000000000E+00  0.00000000000E+00  0.21390760400E+03  0.23174638403E+04  0.23075706248E+04 0.  0.
        3    1    3    3  502    0 -0.16214711997E+03 -0.40082859039E+02  0.12534796846E+04  0.12645590749E+04  0.10100000352E+00 0. -1.
       -3    1    3    3    0  502  0.16214711997E+03  0.40082859039E+02 -0.10395720806E+04  0.10529047654E+04  0.10100000352E+00 0.  1.
</event>
<event>
 5   0  0.2777539E-05  0.1506936E+04  0.7818609E-02  0.8879853E-01
       -1   -1    0    0    0  501  0.00000000000E+00  0.00000000000E+00  0.29719291888E+03  0.29719291892E+03  0.50400001928E-02 0.  1.
        1   -1    0    0  501    0  0.00000000000E+00  0.00000000000E+00 -0.19102549269E+04  0.19102549269E+04  0.50400001928E-02 0. -1.
    10030    2    1    2    0    0  0.00000000000E+00  0.00000000000E+00 -0.16130620080E+04  0.22074478458E+04  0.15069362795E+04 0.  0.
        3    1    3    3  502    0 -0.26391918436E+03 -0.21587094107E+03  0.17771917790E+03  0.38449670411E+03  0.10100000352E+00 0.  1.
       -3    1    3    3    0  502  0.26391918436E+03  0.21587094107E+03 -0.17907811859E+04  0.18229511417E+04  0.10100000352E+00 0. -1.
</event>
<event>
 5   0  0.2331375E-05  0.2176392E+04  0.7818609E-02  0.8528319E-01
       -3   -1    0    0    0  501  0.00000000000E+00  0.00000000000E+00  0.10414244136E+04  0.10414244185E+04  0.10100000352E+00 0.  1.
        3   -1    0    0  501    0  0.00000000000E+00  0.00000000000E+00 -0.11370676664E+04  0.11370676709E+04  0.10100000352E+00 0. -1.
    10030    2    1    2    0    0  0.00000000000E+00  0.00000000000E+00 -0.95643252790E+02  0.21784920893E+04  0.21763915437E+04 0.  0.
        3    1    3    3  502    0 -0.28740753474E+03  0.97746104621E+02 -0.10938242871E+04  0.11351691386E+04  0.10100000352E+00 0. -1.
       -3    1    3    3    0  502  0.28740753474E+03 -0.97746104621E+02  0.99818103433E+03  0.10433229507E+04  0.10100000352E+00 0.  1.
</event>
<event>
 5   0  0.2777539E-05  0.2484674E+04  0.7818609E-02  0.8408466E-01
       -1   -1    0    0    0  501  0.00000000000E+00  0.00000000000E+00  0.83534010682E+03  0.83534010683E+03  0.50400001928E-02 0. -1.
        1   -1    0    0  501    0  0.00000000000E+00  0.00000000000E+00 -0.18476326868E+04  0.18476326868E+04  0.50400001928E-02 0.  1.
    10030    2    1    2    0    0  0.00000000000E+00  0.00000000000E+00 -0.10122925800E+04  0.26829727936E+04  0.24846743738E+04 0.  0.
        3    1    3    3  502    0 -0.47819479264E+03  0.58964562868E+03  0.55572316603E+03  0.94084030239E+03  0.10100000352E+00 0. -1.
       -3    1    3    3    0  502  0.47819479264E+03 -0.58964562868E+03 -0.15680157460E+04  0.17421324912E+04  0.10100000352E+00 0.  1.
</event>
<event>
 5   0  0.2793920E-05  0.1918331E+04  0.7818609E-02  0.8645785E-01
        1   -1    0    0  501    0  0.00000000000E+00  0.00000000000E+00  0.93792938440E+03  0.93792938441E+03  0.50400001928E-02 0.  1.
       -1   -1    0    0    0  501  0.00000000000E+00  0.00000000000E+00 -0.98088282336E+03  0.98088282337E+03  0.50400001928E-02 0. -1.
    10030    2    1    2    0    0  0.00000000000E+00  0.00000000000E+00 -0.42953438962E+02  0.19188122078E+04  0.19183313819E+04 0.  0.
        2    1    3    3  502    0 -0.80974196131E+03 -0.46430114113E+02 -0.53362167945E+03  0.97087068974E+03  0.25500000920E-02 0. -1.
       -2    1    3    3    0  502  0.80974196131E+03  0.46430114113E+02  0.49066824048E+03  0.94794151805E+03  0.25500000920E-02 0.  1.
</event>
<event>
 5   0  0.2980790E-05  0.2481896E+04  0.7818609E-02  0.8409464E-01
       -1   -1    0    0    0  501  0.00000000000E+00  0.00000000000E+00  0.70790675000E+03  0.70790675001E+03  0.50400001928E-02 0. -1.
        1   -1    0    0  501    0  0.00000000000E+00  0.00000000000E+00 -0.21753603256E+04  0.21753603256E+04  0.50400001928E-02 0.  1.
    10030    2    1    2    0    0  0.00000000000E+00  0.00000000000E+00 -0.14674535756E+04  0.28832670756E+04  0.24818962575E+04 0.  0.
        5    1    3    3  502    0  0.49361237702E+03 -0.11308147139E+04 -0.57989183319E+03  0.13633384482E+04  0.46999998093E+01 0. -1.
       -5    1    3    3    0  502 -0.49361237702E+03  0.11308147139E+04 -0.88756174242E+03  0.15199286275E+04  0.46999998093E+01 0.  1.
</event>
<event>
 5   0  0.7071821E-05  0.2476803E+04  0.7818609E-02  0.8411296E-01
       -2   -1    0    0    0  501  0.00000000000E+00  0.00000000000E+00  0.11302212725E+04  0.11302212725E+04  0.25500000920E-02 0.  1.
        2   -1    0    0  501    0  0.00000000000E+00  0.00000000000E+00 -0.13569365309E+04  0.13569365309E+04  0.25500000920E-02 0. -1.
    10030    2    1    2    0    0  0.00000000000E+00  0.00000000000E+00 -0.22671525842E+03  0.24871578034E+04  0.24768032079E+04 0.  0.
        5    1    3    3  502    0 -0.29619056609E+03 -0.82963011198E+03 -0.98739951099E+03  0.13232516232E+04  0.46999998093E+01 0. -1.
       -5    1    3    3    0  502  0.29619056609E+03  0.82963011198E+03  0.76068425256E+03  0.11639061802E+04  0.46999998093E+01 0.  1.
</event>
<event>
 5   0  0.2980790E-05  0.2404071E+04  0.7818609E-02  0.8437981E-01
        1   -1    0    0  501    0  0.00000000000E+00  0.00000000000E+00  0.12972301579E+04  0.12972301579E+04  0.50400001928E-02 0. -1.
       -1   -1    0    0    0  501  0.00000000000E+00  0.00000000000E+00 -0.11138265604E+04  0.11138265604E+04  0.50400001928E-02 0.  1.
    10030    2    1    2    0    0  0.00000000000E+00  0.00000000000E+00  0.18340359747E+03  0.24110567183E+04  0.24040710512E+04 0.  0.
        5    1    3    3  502    0  0.14237434030E+03  0.71479592152E+02  0.12865862750E+04  0.12964205019E+04  0.46999998093E+01 0. -1.
       -5    1    3    3    0  502 -0.14237434030E+03 -0.71479592152E+02 -0.11031826775E+04  0.11146362164E+04  0.46999998093E+01 0.  1.
</event>
<event>
 5   0  0.6445331E-05  0.2519160E+04  0.7818609E-02  0.8396191E-01
       -2   -1    0    0    0  501  0.00000000000E+00  0.00000000000E+00  0.98186859772E+03  0.98186859773E+03  0.25500000920E-02 0.  1.
        2   -1    0    0  501    0  0.00000000000E+00  0.00000000000E+00 -0.16158396550E+04  0.16158396550E+04  0.25500000920E-02 0. -1.
    10030    2    1    2    0    0  0.00000000000E+00  0.00000000000E+00 -0.63397105728E+03  0.25977082527E+04  0.25191603492E+04 0.  0.
        1    1    3    3  502    0 -0.76632446888E+03  0.80012929843E+03  0.30093334239E+03  0.11480509407E+04  0.50400001928E-02 0.  1.
       -1    1    3    3    0  502  0.76632446888E+03 -0.80012929843E+03 -0.93490439967E+03  0.14496573120E+04  0.50400001928E-02 0. -1.
</event>
<event>
 5   0  0.2977854E-05  0.2545511E+04  0.7818609E-02  0.8386949E-01
        1   -1    0    0  501    0  0.00000000000E+00  0.00000000000E+00  0.11576831160E+04  0.11576831160E+04  0.50400001928E-02 0. -1.
       -1   -1    0    0    0  501  0.00000000000E+00  0.00000000000E+00 -0.13992654055E+04  0.13992654055E+04  0.50400001928E-02 0.  1.
    10030    2    1    2    0    0  0.00000000000E+00  0.00000000000E+00 -0.24158228957E+03  0.25569485215E+04  0.25455105066E+04 0.  0.
        1    1    3    3  502    0  0.53858418190E+03  0.89739107393E+03  0.60670225644E+03  0.12097401740E+04  0.50400001928E-02 0. -1.
       -1    1    3    3    0  502 -0.53858418190E+03 -0.89739107393E+03 -0.84828454602E+03  0.13472083475E+04  0.50400001928E-02 0.  1.
</event>
<event>
 5   0  0.6909250E-05  0.2500994E+04  0.7818609E-02  0.8402631E-01
        2   -1    0    0  501    0  0.00000000000E+00  0.00000000000E+00  0.78189637015E+03  0.78189637016E+03  0.25500000920E-02 0.  1.
       -2   -1    0    0    0  501  0.00000000000E+00  0.00000000000E+00 -0.19999362873E+04  0.19999362873E+04  0.25500000920E-02 0. -1.
    10030    2    1    2    0    0  0.00000000000E+00  0.00000000000E+00 -0.12180399171E+04  0.27818326575E+04  0.25009941412E+04 0.  0.
        4    1    3    3  502    0 -0.39444837760E+03  0.94505124293E+03  0.18922202088E+03  0.10414019207E+04  0.12699999809E+01 0.  1.
       -4    1    3    3    0  502  0.39444837760E+03 -0.94505124293E+03 -0.14072619380E+04  0.17404307368E+04  0.12699999809E+01 0. -1.
</event>
<event>
 5   0  0.6827859E-05  0.2499485E+04  0.7818609E-02  0.8403169E-01
        2   -1    0    0  501    0  0.00000000000E+00  0.00000000000E+00  0.26873182912E+04  0.26873182912E+04  0.25500000920E-02 0.  1.
       -2   -1    0    0    0  501  0.00000000000E+00  0.00000000000E+00 -0.58119497479E+03  0.58119497480E+03  0.25500000920E-02 0. -1.
    10030    2    1    2    0    0  0.00000000000E+00  0.00000000000E+00  0.21061233164E+04  0.32685132660E+04  0.24994846561E+04 0.  0.
        3    1    3    3  502    0 -0.11071387426E+04 -0.18764077969E+03  0.33575625751E+03  0.11720484342E+04  0.10100000352E+00 0.  1.
       -3    1    3    3    0  502  0.11071387426E+04  0.18764077969E+03  0.17703670589E+04  0.20964648318E+04  0.10100000352E+00 0. -1.
</event>
<event>
 5   0  0.2777539E-05  0.2326159E+04  0.7818609E-02  0.8467678E-01
       -1   -1    0    0    0  501  0.00000000000E+00  0.00000000000E+00  0.93431181274E+03  0.93431181275E+03  0.50400001928E-02 0.  1.
        1   -1    0    0  501    0  0.00000000000E+00  0.00000000000E+00 -0.14478610907E+04  0.14478610907E+04  0.50400001928E-02 0. -1.
    10030    2    1    2    0    0  0.00000000000E+00  0.00000000000E+00 -0.51354927795E+03  0.23821729034E+04  0.23261588254E+04 0.  0.
        3    1    3    3  502    0 -0.34283134270E+03 -0.87209757772E+03  0.44877580248E+03  0.10389837562E+04  0.10100000352E+00 0.  1.
       -3    1    3    3    0  502  0.34283134270E+03  0.87209757772E+03 -0.96232508044E+03  0.13431891472E+04  0.10100000352E+00 0. -1.
</event>
<event>
 5   0  0.2980790E-05  0.1670940E+04  0.7818609E-02  0.8778114E-01
        1   -1    0    0  501    0  0.00000000000E+00  0.00000000000E+00  0.99290394935E+03  0.99290394936E+03  0.50400001928E-02 0. -1.
       -1   -1    0    0    0  501  0.00000000000E+00  0.00000000000E+00 -0.70299880679E+03  0.70299880681E+03  0.50400001928E-02 0.  1.
    10030    2    1    2    0    0  0.00000000000E+00  0.00000000000E+00  0.28990514256E+03  0.16959027562E+04  0.16709402044E+04 0.  0.
        5    1    3    3  502    0  0.49926560676E+03  0.65459796973E+01 -0.53488945554E+03  0.73173616528E+03  0.46999998093E+01 0.  1.
       -5    1    3    3    0  502 -0.49926560676E+03 -0.65459796973E+01  0.82479459809E+03  0.96416659089E+03  0.46999998093E+01 0. -1.
</event>
<event>
 5   0  0.2896652E-05  0.2429792E+04  0.7818609E-02  0.8428434E-01
        1   -1    0    0  501    0  0.00000000000E+00  0.00000000000E+00  0.14865808941E+04  0.14865808941E+04  0.50400001928E-02 0. -1.
       -1   -1    0    0    0  501  0.00000000000E+00  0.00000000000E+00 -0.99286335110E+03  0.99286335112E+03  0.50400001928E-02 0.  1.
    10030    2    1    2    0    0  0.00000000000E+00  0.00000000000E+00  0.49371754296E+03  0.24794442452E+04  0.24297915040E+04 0.  0.
        4    1    3    3  502    0 -0.53990835032E+02 -0.89788754026E+03 -0.58643934868E+03  0.10737922368E+04  0.12699999809E+01 0.  1.
       -4    1    3    3    0  502  0.53990835032E+02  0.89788754026E+03  0.10801568916E+04  0.14056520084E+04  0.12699999809E+01 0. -1.
</event>
<event>
 5   0  0.6827859E-05  0.2461444E+04  0.7818609E-02  0.8416851E-01
       -2   -1    0    0    0  501  0.00000000000E+00  0.00000000000E+00  0.71895773909E+03  0.71895773909E+03  0.25500000920E-02 0.  1.
        2   -1    0    0  501    0  0.00000000000E+00  0.00000000000E+00 -0.21067672176E+04  0.21067672176E+04  0.25500000920E-02 0. -1.
    10030    2    1    2    0    0  0.00000000000E+00  0.00000000000E+00 -0.13878094785E+04  0.28257249567E+04  0.24614439629E+04 0.  0.
        3    1    3    3  502    0 -0.59155570202E+03  0.10575979668E+04 -0.94072356841E+03  0.15340835865E+04  0.10100000352E+00 0. -1.
       -3    1    3    3    0  502  0.59155570202E+03 -0.10575979668E+04 -0.44708591013E+03  0.12916413702E+04  0.10100000352E+00 0.  1.
</event>
<event>
 5   0  0.6648328E-05  0.2481453E+04  0.7818609E-02  0.8409623E-01
        2   -1    0    0  501    0  0.00000000000E+00  0.00000000000E+00  0.13022579331E+04  0.13022579331E+04  0.25500000920E-02 0.  1.
       -2   -1    0    0    0  501  0.00000000000E+00  0.00000000000E+00 -0.11821028563E+04  0.11821028564E+04  0.25500000920E-02 0. -1.
    10030    2    1    2    0    0  0.00000000000E+00  0.00000000000E+00  0.12015507676E+03  0.24843607895E+04  0.24814534631E+04 0.  0.
        2    1    3    3  502    0 -0.46959051704E+03 -0.34618962569E+03  0.11563674647E+04  0.12952020013E+04  0.25500000920E-02 0.  1.
       -2    1    3    3    0  502  0.46959051704E+03  0.34618962569E+03 -0.10362123879E+04  0.11891587882E+04  0.25500000920E-02 0. -1.
</event>
<event>
 5   0  0.6827859E-05  0.2482085E+04  0.7818609E-02  0.8409396E-01
       -2   -1    0    0    0  501  0.00000000000E+00  0.00000000000E+00  0.98864469188E+03  0.98864469188E+03  0.25500000920E-02 0. -1.
        2   -1    0    0  501    0  0.00000000000E+00  0.00000000000E+00 -0.15578771428E+04  0.15578771428E+04  0.25500000920E-02 0.  1.
    10030    2    1    2    0    0  0.00000000000E+00  0.00000000000E+00 -0.56923245090E+03  0.25465218347E+04  0.24820853876E+04 0.  0.
        3    1    3    3  502    0  0.80426202523E+03 -0.54052167214E+03  0.51087440790E+03  0.10954422642E+04  0.10100000352E+00 0. -1.
       -3    1    3    3    0  502 -0.80426202523E+03  0.54052167214E+03 -0.10801068588E+04  0.14510795705E+04  0.10100000352E+00 0.  1.
</event>
<event>
 5   0  0.6648328E-05  0.2591791E+04  0.7818609E-02  0.8370995E-01
       -2   -1    0    0    0  501  0.00000000000E+00  0.00000000000E+00  0.10234485000E+04  0.10234485000E+04  0.25500000920E-02 0. -1.
        2   -1    0    0  501    0  0.00000000000E+00  0.00000000000E+00 -0.16408696970E+04  0.16408696970E+04  0.25500000920E-02 0.  1.
    10030    2    1    2    0    0  0.00000000000E+00  0.00000000000E+00 -0.61742119703E+03  0.26643181970E+04  0.25917913729E+04 0.  0.
        2    1    3    3  502    0 -0.60506376756E+03  0.11260139505E+04 -0.52759151209E+03  0.13828819123E+04  0.25500000920E-02 0. -1.
       -2    1    3    3    0  502  0.60506376756E+03 -0.11260139505E+04 -0.89829684937E+02  0.12814362848E+04  0.25500000920E-02 0.  1.
</event>
<event>
 5   0  0.6827859E-05  0.2409571E+04  0.7818609E-02  0.8435929E-01
        2   -1    0    0  501    0  0.00000000000E+00  0.00000000000E+00  0.16563634090E+04  0.16563634090E+04  0.25500000920E-02 0.  1.
       -2   -1    0    0    0  501  0.00000000000E+00  0.00000000000E+00 -0.87632193463E+03  0.87632193463E+03  0.25500000920E-02 0. -1.
    10030    2    1    2    0    0  0.00000000000E+00  0.00000000000E+00  0.78004147438E+03  0.25326853436E+04  0.24095705734E+04 0.  0.
        3    1    3    3  502    0  0.33479635974E+03  0.77165787204E+03  0.12966240150E+04  0.15455673135E+04  0.10100000352E+00 0.  1.
       -3    1    3    3    0  502 -0.33479635974E+03 -0.77165787204E+03 -0.51658254064E+03  0.98711803016E+03  0.10100000352E+00 0. -1.
</event>
<event>
 5   0  0.7071821E-05  0.2219382E+04  0.7818609E-02  0.8510404E-01
        2   -1    0    0  501    0  0.00000000000E+00  0.00000000000E+00  0.13128308218E+04  0.13128308218E+04  0.25500000920E-02 0.  1.
       -2   -1    0    0    0  501  0.00000000000E+00  0.00000000000E+00 -0.93798400736E+03  0.93798400737E+03  0.25500000920E-02 0. -1.
    10030    2    1    2    0    0  0.00000000000E+00  0.00000000000E+00  0.37484681442E+03  0.22508148292E+04  0.22193821800E+04 0.  0.
        5    1    3    3  502    0 -0.24903293977E+03  0.10811844139E+04  0.16676126725E+03  0.11219663775E+04  0.46999998093E+01 0.  1.
       -5    1    3    3    0  502  0.24903293977E+03 -0.10811844139E+04  0.20808554717E+03  0.11288484517E+04  0.46999998093E+01 0. -1.
</event>
<event>
 5   0  0.6909250E-05  0.2505837E+04  0.7818609E-02  0.8400909E-01
       -2   -1    0    0    0  501  0.00000000000E+00  0.00000000000E+00  0.92422379928E+03  0.92422379928E+03  0.25500000920E-02 0. -1.
        2   -1    0    0  501    0  0.00000000000E+00  0.00000000000E+00 -0.16985121479E+04  0.16985121479E+04  0.25500000920E-02 0.  1.
    10030    2    1    2    0    0  0.00000000000E+00  0.00000000000E+00 -0.77428834858E+03  0.26227359471E+04  0.25058374651E+04 0.  0.
        4    1    3    3  502    0 -0.24036640731E+03 -0.11766435394E+04 -0.13359942871E+02  0.12010187882E+04  0.12699999809E+01 0. -1.
       -4    1    3    3    0  502  0.24036640731E+03  0.11766435394E+04 -0.76092840571E+03  0.14217171590E+04  0.12699999809E+01 0.  1.
</event>
<event>
 5   0  0.6909250E-05  0.2360044E+04  0.7818609E-02  0.8454616E-01
        2   -1    0    0  501    0  0.00000000000E+00  0.00000000000E+00  0.16192704564E+04  0.16192704564E+04  0.25500000920E-02 0. -1.
       -2   -1    0    0    0  501  0.00000000000E+00  0.00000000000E+00 -0.85992513738E+03  0.85992513738E+03  0.25500000920E-02 0.  1.
    10030    2    1    2    0    0  0.00000000000E+00  0.00000000000E+00  0.75934531905E+03  0.24791955938E+04  0.23600435332E+04 0.  0.
        4    1    3    3  502    0 -0.10727110606E+04  0.20775437418E+03 -0.88447431666E+02  0.10962187102E+04  0.12699999809E+01 0.  1.
       -4    1    3    3    0  502  0.10727110606E+04 -0.20775437418E+03  0.84779275072E+03  0.13829768836E+04  0.12699999809E+01 0. -1.
</event>
<event>
 5   0  0.2977854E-05  0.1882571E+04  0.7818609E-02  0.8663581E-01
       -1   -1    0    0    0  501  0.00000000000E+00  0.00000000000E+00  0.60139491690E+03  0.60139491692E+03  0.50400001928E-02 0. -1.
        1   -1    0    0  501    0  0.00000000000E+00  0.00000000000E+00 -0.14732720980E+04  0.14732720980E+04  0.50400001928E-02 0.  1.
    10030    2    1    2    0    0  0.00000000000E+00  0.00000000000E+00 -0.87187718112E+03  0.20746670150E+04  0.18825709559E+04 0.  0.
        1    1    3    3  502    0  0.66243009035E+03  0.12518454737E+02  0.30090300325E+03  0.72767640727E+03  0.50400001928E-02 0. -1.
       -1    1    3    3    0  502 -0.66243009035E+03 -0.12518454737E+02 -0.11727801844E+04  0.13469906077E+04  0.50400001928E-02 0.  1.
</event>
<event>
 5   0  0.6648328E-05  0.2524364E+04  0.7818609E-02  0.8394357E-01
       -2   -1    0    0    0  501  0.00000000000E+00  0.00000000000E+00  0.10799317906E+04  0.10799317906E+04  0.25500000920E-02 0. -1.
        2   -1    0    0  501    0  0.00000000000E+00  0.00000000000E+00 -0.14751894175E+04  0.14751894175E+04  0.25500000920E-02 0.  1.
    10030    2    1    2    0    0  0.00000000000E+00  0.00000000000E+00 -0.39525762691E+03  0.25551212080E+04  0.25243644341E+04 0.  0.
        2    1    3    3  502    0  0.51301708989E+03  0.61321713865E+03  0.79093979641E+03  0.11246366325E+04  0.25500000920E-02 0. -1.
       -2    1    3    3    0  502 -0.51301708989E+03 -0.61321713865E+03 -0.11861974233E+04  0.14304845755E+04  0.25500000920E-02 0.  1.
</event>
<event>
 5   0  0.2980790E-05  0.2484101E+04  0.7818609E-02  0.8408672E-01
       -1   -1    0    0    0  501  0.00000000000E+00  0.00000000000E+00  0.10434296740E+04  0.10434296740E+04  0.50400001928E-02 0.  1.
        1   -1    0    0  501    0  0.00000000000E+00  0.00000000000E+00 -0.14784794855E+04  0.14784794855E+04  0.50400001928E-02 0. -1.
    10030    2    1    2    0    0  0.00000000000E+00  0.00000000000E+00 -0.43504981152E+03  0.25219091596E+04  0.24841009381E+04 0.  0.
        5    1    3    3  502    0  0.12382825463E+04 -0.86223258767E+02 -0.26165093864E+03  0.12685666788E+04  0.46999998093E+01 0.  1.
       -5    1    3    3    0  502 -0.12382825463E+04  0.86223258767E+02 -0.17339887288E+03  0.12533424807E+04  0.46999998093E+01 0. -1.
</event>
<event>
 5   0  0.2896652E-05  0.2452033E+04  0.7818609E-02  0.8420276E-01
        1   -1    0    0  501    0  0.00000000000E+00  0.00000000000E+00  0.23703299277E+04  0.23703299277E+04  0.50400001928E-02 0. -1.
       -1   -1    0    0    0  501  0.00000000000E+00  0.00000000000E+00 -0.63413800982E+03  0.63413800984E+03  0.50400001928E-02 0.  1.
    10030    2    1    2    0    0  0.00000000000E+00  0.00000000000E+00  0.17361919179E+04  0.30044679375E+04  0.24520328733E+04 0.  0.
        4    1    3    3  502    0  0.11898650236E+04  0.28782736755E+03  0.95021207385E+03  0.15496864089E+04  0.12699999809E+01 0.  1.
       -4    1    3    3    0  502 -0.11898650236E+04 -0.28782736755E+03  0.78597984403E+03  0.14547815286E+04  0.12699999809E+01 0. -1.
</event>
<event>
 5   0  0.2980790E-05  0.2511316E+04  0.7818609E-02  0.8398965E-01
        1   -1    0    0  501    0  0.00000000000E+00  0.00000000000E+00  0.98333808698E+03  0.98333808699E+03  0.50400001928E-02 0. -1.
       -1   -1    0    0    0  501  0.00000000000E+00  0.00000000000E+00 -0.16033923536E+04  0.16033923536E+04  0.50400001928E-02 0.  1.
    10030    2    1    2    0    0  0.00000000000E+00  0.00000000000E+00 -0.62005426664E+03  0.25867304406E+04  0.25113158063E+04 0.  0.
        5    1    3    3  502    0  0.98083983192E+03  0.78111417240E+03 -0.37888179133E+03  0.13098700806E+04  0.46999998093E+01 0. -1.
       -5    1    3    3    0  502 -0.98083983192E+03 -0.78111417240E+03 -0.24117247531E+03  0.12768603600E+04  0.46999998093E+01 0.  1.
</event>
<event>
 5   0  0.6445331E-05  0.2502148E+04  0.7818609E-02  0.8402221E-01
        2   -1    0    0  501    0  0.00000000000E+00  0.00000000000E+00  0.13845428019E+04  0.13845428019E+04  0.25500000920E-02 0. -1.
       -2   -1    0    0    0  501  0.00000000000E+00  0.00000000000E+00 -0.11304718622E+04  0.11304718622E+04  0.25500000920E-02 0.  1.
    10030    2    1    2    0    0  0.00000000000E+00  0.00000000000E+00  0.25407093973E+03  0.25150146641E+04  0.25021484205E+04 0.  0.
        1    1    3    3  502    0 -0.80753674319E+03 -0.52701567572E+03 -0.67413626699E+03  0.11765716385E+04  0.50400001928E-02 0.  1.
       -1    1    3    3    0  502  0.80753674319E+03  0.52701567572E+03  0.92820720672E+03  0.13384430256E+04  0.50400001928E-02 0. -1.
</event>
<event>
 5   0  0.6827859E-05  0.2533132E+04  0.7818609E-02  0.8391276E-01
        2   -1    0    0  501    0  0.00000000000E+00  0.00000000000E+00  0.15237132351E+04  0.15237132351E+04  0.25500000920E-02 0. -1.
       -2   -1    0    0    0  501  0.00000000000E+00  0.00000000000E+00 -0.10528162374E+04  0.10528162374E+04  0.25500000920E-02 0.  1.
    10030    2    1    2    0    0  0.00000000000E+00  0.00000000000E+00  0.47089699776E+03  0.25765294725E+04  0.25331324758E+04 0.  0.
        3    1    3    3  502    0  0.88752085935E+03  0.70460611866E+03  0.81084934921E+03  0.13934273341E+04  0.10100000352E+00 0. -1.
       -3    1    3    3    0  502 -0.88752085935E+03 -0.70460611866E+03 -0.33995235145E+03  0.11831021383E+04  0.10100000352E+00 0.  1.
</event>
<event>
 5   0  0.7071821E-05  0.2703883E+04  0.7818609E-02  0.8333746E-01
       -2   -1    0    0    0  501  0.00000000000E+00  0.00000000000E+00  0.93873588304E+03  0.93873588305E+03  0.25500000920E-02 0. -1.
        2   -1    0    0  501    0  0.00000000000E+00  0.00000000000E+00 -0.19470292147E+04  0.19470292147E+04  0.25500000920E-02 0.  1.
    10030    2    1    2    0    0  0.00000000000E+00  0.00000000000E+00 -0.10082933317E+04  0.28857650978E+04  0.27038832735E+04 0.  0.
        5    1    3    3  502    0 -0.47115976015E+03  0.90697301582E+03 -0.14486221054E+04  0.17728845606E+04  0.46999998093E+01 0.  1.
       -5    1    3    3    0  502  0.47115976015E+03 -0.90697301582E+03  0.44032877373E+03  0.11128805372E+04  0.46999998093E+01 0. -1.
</event>
<event>
 5   0  0.2980790E-05  0.2479035E+04  0.7818609E-02  0.8410493E-01
        1   -1    0    0  501    0  0.00000000000E+00  0.00000000000E+00  0.12251416674E+04  0.12251416674E+04  0.50400001928E-02 0.  1.
       -1   -1    0    0    0  501  0.00000000000E+00  0.00000000000E+00 -0.12540616731E+04  0.12540616731E+04  0.50400001928E-02 0. -1.
    10030    2    1    2    0    0  0.00000000000E+00  0.00000000000E+00 -0.28920005703E+02  0.24792033404E+04  0.24790346582E+04 0.  0.
        5    1    3    3  502    0 -0.41733601842E+01 -0.91026276894E+03 -0.85581707173E+03  0.12494161339E+04  0.46999998093E+01 0. -1.
       -5    1    3    3    0  502  0.41733601842E+01  0.91026276894E+03  0.82689706603E+03  0.12297872065E+04  0.46999998093E+01 0.  1.
</event>
<event>
 5   0  0.6827859E-05  0.2535257E+04  0.7818609E-02  0.8390532E-01
       -2   -1    0    0    0  501  0.00000000000E+00  0.00000000000E+00  0.99503577079E+03  0.99503577079E+03  0.25500000920E-02 0.  1.
        2   -1    0    0  501    0  0.00000000000E+00  0.00000000000E+00 -0.16148987134E+04  0.16148987134E+04  0.25500000920E-02 0. -1.
    10030    2    1    2    0    0  0.00000000000E+00  0.00000000000E+00 -0.61986294263E+03  0.26099344842E+04  0.25352569779E+04 0.  0.
        3    1    3    3  502    0  0.96994505062E+02 -0.11443717029E+04  0.24242441109E+03  0.11737819787E+04  0.10100000352E+00 0.  1.
       -3    1    3    3    0  502 -0.96994505062E+02  0.11443717029E+04 -0.86228735372E+03  0.14361525055E+04  0.10100000352E+00 0. -1.
</event>
<event>
 5   0  0.6909250E-05  0.1574465E+04  0.7818609E-02  0.8836391E-01
        2   -1    0    0  501    0  0.00000000000E+00  0.00000000000E+00  0.14363939655E+04  0.14363939655E+04  0.25500000920E-02 0. -1.
       -2   -1    0    0    0  501  0.00000000000E+00  0.00000000000E+00 -0.43145194094E+03  0.43145194095E+03  0.25500000920E-02 0.  1.
    10030    2    1    2    0    0  0.00000000000E+00  0.00000000000E+00  0.10049420246E+04  0.18678459065E+04  0.15744649432E+04 0.  0.
        4    1    3    3  502    0  0.52005040833E+03 -0.33908244520E+03  0.10767169338E+04  0.12428798415E+04  0.12699999809E+01 0. -1.
       -4    1    3    3    0  502 -0.52005040833E+03  0.33908244520E+03 -0.71774909280E+02  0.62496606496E+03  0.12699999809E+01 0.  1.
</event>
<event>
 5   0  0.7071821E-05  0.1375415E+04  0.7818609E-02  0.8971809E-01
       -2   -1    0    0    0  501  0.00000000000E+00  0.00000000000E+00  0.30326344149E+03  0.30326344150E+03  0.25500000920E-02 0.  1.
        2   -1    0    0  501    0  0.00000000000E+00  0.00000000000E+00 -0.15595078725E+04  0.15595078725E+04  0.25500000920E-02 0. -1.
    10030    2    1    2    0    0  0.00000000000E+00  0.00000000000E+00 -0.12562444310E+04  0.18627713140E+04  0.13754151729E+04 0.  0.
        5    1    3    3  502    0 -0.26997234026E+03  0.61029254080E+03 -0.40321476464E+03  0.77970910362E+03  0.46999998093E+01 0.  1.
       -5    1    3    3    0  502  0.26997234026E+03 -0.61029254080E+03 -0.85302966641E+03  0.10830622104E+04  0.46999998093E+01 0. -1.
</event>
<event>
 5   0  0.2980790E-05  0.2484628E+04  0.7818609E-02  0.8408483E-01
        1   -1    0    0  501    0  0.00000000000E+00  0.00000000000E+00  0.12726097856E+04  0.12726097856E+04  0.50400001928E-02 0.  1.
       -1   -1    0    0    0  501  0.00000000000E+00  0.00000000000E+00 -0.12127390645E+04  0.12127390645E+04  0.50400001928E-02 0. -1.
    10030    2    1    2    0    0  0.00000000000E+00  0.00000000000E+00  0.59870721078E+02  0.24853488501E+04  0.24846276186E+04 0.  0.
        5    1    3    3  502    0 -0.12184761313E+04 -0.22434551191E+03  0.12110192603E+03  0.12448705787E+04  0.46999998093E+01 0. -1.
       -5    1    3    3    0  502  0.12184761313E+04  0.22434551191E+03 -0.61231204949E+02  0.12404782714E+04  0.46999998093E+01 0.  1.
</event>
<event>
 5   0  0.6827859E-05  0.2558601E+04  0.7818609E-02  0.8382401E-01
        2   -1    0    0  501    0  0.00000000000E+00  0.00000000000E+00  0.11718919494E+04  0.11718919494E+04  0.25500000920E-02 0.  1.
       -2   -1    0    0    0  501  0.00000000000E+00  0.00000000000E+00 -0.13965538031E+04  0.13965538031E+04  0.25500000920E-02 0. -1.
    10030    2    1    2    0    0  0.00000000000E+00  0.00000000000E+00 -0.22466185371E+03  0.25684457526E+04  0.25586013045E+04 0.  0.
        3    1    3    3  502    0  0.56897422960E+03  0.54386722159E+03  0.90005666850E+03  0.11956693713E+04  0.10100000352E+00 0.  1.
       -3    1    3    3    0  502 -0.56897422960E+03 -0.54386722159E+03 -0.11247185222E+04  0.13727763813E+04  0.10100000352E+00 0. -1.
</event>
<event>
 5   0  0.6445331E-05  0.2458814E+04  0.7818609E-02  0.8417807E-01
       -2   -1    0    0    0  501  0.00000000000E+00  0.00000000000E+00  0.81066099991E+03  0.81066099991E+03  0.25500000920E-02 0.  1.
        2   -1    0    0  501    0  0.00000000000E+00  0.00000000000E+00 -0.18644555994E+04  0.18644555994E+04  0.25500000920E-02 0. -1.
    10030    2    1    2    0    0  0.00000000000E+00  0.00000000000E+00 -0.10537945995E+04  0.26751165993E+04  0.24588138933E+04 0.  0.
        1    1    3    3  502    0 -0.78979501427E+03  0.24643312999E+02  0.49779403145E+03  0.93390703778E+03  0.50400001928E-02 0.  1.
       -1    1    3    3    0  502  0.78979501427E+03 -0.24643312999E+02 -0.15515886310E+04  0.17412095615E+04  0.50400001928E-02 0. -1.
</event>
<event>
 5   0  0.6909250E-05  0.2477296E+04  0.7818609E-02  0.8411119E-01
       -2   -1    0    0    0  501  0.00000000000E+00  0.00000000000E+00  0.87876825529E+03  0.87876825530E+03  0.25500000920E-02 0.  1.
        2   -1    0    0  501    0  0.00000000000E+00  0.00000000000E+00 -0.17459082432E+04  0.17459082432E+04  0.25500000920E-02 0. -1.
    10030    2    1    2    0    0  0.00000000000E+00  0.00000000000E+00 -0.86713998792E+03  0.26246764985E+04  0.24772958974E+04 0.  0.
        4    1    3    3  502    0 -0.66594679095E+03 -0.68604518863E+03  0.40074522375E+03  0.10366973891E+04  0.12699999809E+01 0. -1.
       -4    1    3    3    0  502  0.66594679095E+03  0.68604518863E+03 -0.12678852117E+04  0.15879791095E+04  0.12699999809E+01 0.  1.
</event>
<event>
 5   0  0.6445331E-05  0.2616412E+04  0.7818609E-02  0.8362648E-01
        2   -1    0    0  501    0  0.00000000000E+00  0.00000000000E+00  0.21145074528E+04  0.21145074528E+04  0.25500000920E-02 0.  1.
       -2   -1    0    0    0  501  0.00000000000E+00  0.00000000000E+00 -0.80936247086E+03  0.80936247087E+03  0.25500000920E-02 0. -1.
    10030    2    1    2    0    0  0.00000000000E+00  0.00000000000E+00  0.13051449819E+04  0.29238699237E+04  0.26164120292E+04 0.  0.
        1    1    3    3  502    0 -0.82262029968E+03  0.10011502821E+04  0.85371499487E+03  0.15517201221E+04  0.50400001928E-02 0.  1.
       -1    1    3    3    0  502  0.82262029968E+03 -0.10011502821E+04  0.45142998704E+03  0.13721498016E+04  0.50400001928E-02 0. -1.
</event>
<event>
 5   0  0.6827859E-05  0.2537530E+04  0.7818609E-02  0.8389736E-01
       -2   -1    0    0    0  501  0.00000000000E+00  0.00000000000E+00  0.99065353058E+03  0.99065353059E+03  0.25500000920E-02 0. -1.
        2   -1    0    0  501    0  0.00000000000E+00  0.00000000000E+00 -0.16249516891E+04  0.16249516891E+04  0.25500000920E-02 0.  1.
    10030    2    1    2    0    0  0.00000000000E+00  0.00000000000E+00 -0.63429815849E+03  0.26156052197E+04  0.25375296080E+04 0.  0.
        3    1    3    3  502    0  0.28710243911E+03 -0.97248139419E+03  0.46895371712E+03  0.11171685063E+04  0.10100000352E+00 0. -1.
       -3    1    3    3    0  502 -0.28710243911E+03  0.97248139419E+03 -0.11032518756E+04  0.14984367133E+04  0.10100000352E+00 0.  1.
</event>
<event>
 5   0  0.6648328E-05  0.1301048E+04  0.7818609E-02  0.9028734E-01
        2   -1    0    0  501    0  0.00000000000E+00  0.00000000000E+00  0.12074890091E+04  0.12074890091E+04  0.25500000920E-02 0. -1.
       -2   -1    0    0    0  501  0.00000000000E+00  0.00000000000E+00 -0.35046424790E+03  0.35046424791E+03  0.25500000920E-02 0.  1.
    10030    2    1    2    0    0  0.00000000000E+00  0.00000000000E+00  0.85702476117E+03  0.15579532570E+04  0.13010483887E+04 0.  0.
        2    1    3    3  502    0 -0.38076758457E+02 -0.45827550012E+03 -0.12246942036E+03  0.47588342320E+03  0.25500000920E-02 0.  1.
       -2    1    3    3    0  502  0.38076758457E+02  0.45827550012E+03  0.97949418153E+03  0.10820698338E+04  0.25500000920E-02 0. -1.
</event>
<event>
 5   0  0.6445331E-05  0.2448371E+04  0.7818609E-02  0.8421613E-01
        2   -1    0    0  501    0  0.00000000000E+00  0.00000000000E+00  0.21754665766E+04  0.21754665766E+04  0.25500000920E-02 0.  1.
       -2   -1    0    0    0  501  0.00000000000E+00  0.00000000000E+00 -0.68887783080E+03  0.68887783080E+03  0.25500000920E-02 0. -1.
    10030    2    1    2    0    0  0.00000000000E+00  0.00000000000E+00  0.14865887458E+04  0.28643444074E+04  0.24483714557E+04 0.  0.
        1    1    3    3  502    0  0.10266376009E+04 -0.63180903216E+03  0.49384735916E+03  0.13027097262E+04  0.50400001928E-02 0. -1.
       -1    1    3    3    0  502 -0.10266376009E+04  0.63180903216E+03  0.99274138667E+03  0.15616346812E+04  0.50400001928E-02 0.  1.
</event>
<event>
 5   0  0.6648328E-05  0.2545556E+04  0.7818609E-02  0.8386933E-01
        2   -1    0    0  501    0  0.00000000000E+00  0.00000000000E+00  0.17384752390E+04  0.17384752390E+04  0.25500000920E-02 0.  1.
       -2   -1    0    0    0  501  0.00000000000E+00  0.00000000000E+00 -0.93183054101E+03  0.93183054101E+03  0.25500000920E-02 0. -1.
    10030    2    1    2    0    0  0.00000000000E+00  0.00000000000E+00  0.80664469796E+03  0.26703057800E+04  0.25455563812E+04 0.  0.
        2    1    3    3  502    0  0.80213532234E+03 -0.21691678175E+03 -0.60802588269E+03  0.10296452979E+04  0.25500000920E-02 0. -1.
       -2    1    3    3    0  502 -0.80213532234E+03  0.21691678175E+03  0.14146705807E+04  0.16406604820E+04  0.25500000920E-02 0.  1.
</event>
<event>
 5   0  0.2977854E-05  0.2566824E+04  0.7818609E-02  0.8379559E-01
        1   -1    0    0  501    0  0.00000000000E+00  0.00000000000E+00  0.20188068097E+04  0.20188068097E+04  0.50400001928E-02 0. -1.
       -1   -1    0    0    0  501  0.00000000000E+00  0.00000000000E+00 -0.81590076156E+03  0.81590076158E+03  0.50400001928E-02 0.  1.
    10030    2    1    2    0    0  0.00000000000E+00  0.00000000000E+00  0.12029060481E+04  0.28347075713E+04  0.25668237287E+04 0.  0.
        1    1    3    3  502    0  0.14657402699E+03  0.11710650279E+04  0.44576733314E+02  0.11810437461E+04  0.50400001928E-02 0.  1.
       -1    1    3    3    0  502 -0.14657402699E+03 -0.11710650279E+04  0.11583293148E+04  0.16536638252E+04  0.50400001928E-02 0. -1.
</event>
<event>
 5   0  0.2793920E-05  0.2493519E+04  0.7818609E-02  0.8405298E-01
        1   -1    0    0  501    0  0.00000000000E+00  0.00000000000E+00  0.95948739372E+03  0.95948739373E+03  0.50400001928E-02 0. -1.
       -1   -1    0    0    0  501  0.00000000000E+00  0.00000000000E+00 -0.16200409710E+04  0.16200409710E+04  0.50400001928E-02 0.  1.
    10030    2    1    2    0    0  0.00000000000E+00  0.00000000000E+00 -0.66055357725E+03  0.25795283647E+04  0.24935187098E+04 0.  0.
        2    1    3    3  502    0 -0.10622603430E+03 -0.51697005296E+03  0.83822762989E+03  0.99053902777E+03  0.25500000920E-02 0. -1.
       -2    1    3    3    0  502  0.10622603430E+03  0.51697005296E+03 -0.14987812071E+04  0.15889893369E+04  0.25500000920E-02 0.  1.
</event>
<event>
 5   0  0.2896652E-05  0.2521200E+04  0.7818609E-02  0.8395472E-01
        1   -1    0    0  501    0  0.00000000000E+00  0.00000000000E+00  0.17317070406E+04  0.17317070406E+04  0.50400001928E-02 0. -1.
       -1   -1    0    0    0  501  0.00000000000E+00  0.00000000000E+00 -0.91765624783E+03  0.91765624785E+03  0.50400001928E-02 0.  1.
    10030    2    1    2    0    0  0.00000000000E+00  0.00000000000E+00  0.81405079279E+03  0.26493632885E+04  0.25211995441E+04 0.  0.
        4    1    3    3  502    0 -0.40440751913E+03  0.72592681165E+03  0.14031560205E+04  0.16307555329E+04  0.12699999809E+01 0. -1.
       -4    1    3    3    0  502  0.40440751913E+03 -0.72592681165E+03 -0.58910522773E+03  0.10186077555E+04  0.12699999809E+01 0.  1.
</event>
<event>
 5   0  0.2980790E-05  0.2513442E+04  0.7818609E-02  0.8398212E-01
       -1   -1    0    0    0  501  0.00000000000E+00  0.00000000000E+00  0.15751982570E+04  0.15751982570E+04  0.50400001928E-02 0. -1.
        1   -1    0    0  501    0  0.00000000000E+00  0.00000000000E+00 -0.10026340676E+04  0.10026340676E+04  0.50400001928E-02 0.  1.
    10030    2    1    2    0    0  0.00000000000E+00  0.00000000000E+00  0.57256418936E+03  0.25778323246E+04  0.25134418121E+04 0.  0.
        5    1    3    3  502    0 -0.80554800907E+03  0.56053860252E+03 -0.51882135932E+03  0.11100940558E+04  0.46999998093E+01 0.  1.
       -5    1    3    3    0  502  0.80554800907E+03 -0.56053860252E+03  0.10913855487E+04  0.14677382688E+04  0.46999998093E+01 0. -1.
</event>
<event>
 5   0  0.6827859E-05  0.2536438E+04  0.7818609E-02  0.8390118E-01
       -2   -1    0    0    0  501  0.00000000000E+00  0.00000000000E+00  0.13356104422E+04  0.13356104422E+04  0.25500000920E-02 0.  1.
        2   -1    0    0  501    0  0.00000000000E+00  0.00000000000E+00 -0.12042282673E+04  0.12042282673E+04  0.25500000920E-02 0. -1.
    10030    2    1    2    0    0  0.00000000000E+00  0.00000000000E+00  0.13138217493E+03  0.25398387095E+04  0.25364383285E+04 0.  0.
        3    1    3    3  502    0  0.73869962200E+03 -0.96388868261E+03  0.43172363156E+03  0.12888536877E+04  0.10100000352E+00 0. -1.
       -3    1    3    3    0  502 -0.73869962200E+03  0.96388868261E+03 -0.30034145663E+03  0.12509850218E+04  0.10100000352E+00 0.  1.
</event>
<event>
 5   0  0.6827859E-05  0.2579936E+04  0.7818609E-02  0.8375049E-01
        2   -1    0    0  501    0  0.00000000000E+00  0.00000000000E+00  0.31879865728E+04  0.31879865728E+04  0.25500000920E-02 0.  1.
       -2   -1    0    0    0  501  0.00000000000E+00  0.00000000000E+00 -0.52196498588E+03  0.52196498588E+03  0.25500000920E-02 0. -1.
    10030    2    1    2    0    0  0.00000000000E+00  0.00000000000E+00  0.26660215869E+04  0.37099515586E+04  0.25799359422E+04 0.  0.
        3    1    3    3  502    0  0.12461842880E+03 -0.13253631772E+03  0.31694471220E+04  0.31746638716E+04  0.10100000352E+00 0.  1.
       -3    1    3    3    0  502 -0.12461842880E+03  0.13253631772E+03 -0.50342553511E+03  0.53528768705E+03  0.10100000352E+00 0. -1.
</event>
<event>
 5   0  0.2777539E-05  0.2493889E+04  0.7818609E-02  0.8405166E-01
       -1   -1    0    0    0  501  0.00000000000E+00  0.00000000000E+00  0.57423729299E+03  0.57423729302E+03  0.50400001928E-02 0.  1.
        1   -1    0    0  501    0  0.00000000000E+00  0.00000000000E+00 -0.27077154351E+04  0.27077154351E+04  0.50400001928E-02 0. -1.
    10030    2    1    2    0    0  0.00000000000E+00  0.00000000000E+00 -0.21334781421E+04  0.32819527282E+04  0.24938894777E+04 0.  0.
        3    1    3    3  502    0 -0.16383621689E+03 -0.93244583599E+03  0.12265845985E+01  0.94673072081E+03  0.10100000352E+00 0.  1.
       -3    1    3    3    0  502  0.16383621689E+03  0.93244583599E+03 -0.21347047267E+04  0.23352220073E+04  0.10100000352E+00 0. -1.
</event>
<event>
 5   0  0.2896652E-05  0.2285634E+04  0.7818609E-02  0.8483607E-01
        1   -1    0    0  501    0  0.00000000000E+00  0.00000000000E+00  0.11967533986E+04  0.11967533986E+04  0.50400001928E-02 0. -1.
       -1   -1    0    0    0  501  0.00000000000E+00  0.00000000000E+00 -0.10913114675E+04  0.10913114675E+04  0.50400001928E-02 0.  1.
    10030    2    1    2    0    0  0.00000000000E+00  0.00000000000E+00  0.10544193107E+03  0.22880648661E+04  0.22856340107E+04 0.  0.
        4    1    3    3  502    0  0.44155261158E+03  0.57632951487E+03 -0.83077342866E+03  0.11033179601E+04  0.12699999809E+01 0.  1.
       -4    1    3    3    0  502 -0.44155261158E+03 -0.57632951487E+03  0.93621535973E+03  0.11847469060E+04  0.12699999809E+01 0. -1.
</event>
<event>
 5   0  0.2980790E-05  0.1630549E+04  0.7818609E-02  0.8801998E-01
        1   -1    0    0  501    0  0.00000000000E+00  0.00000000000E+00  0.11416153885E+04  0.11416153885E+04  0.50400001928E-02 0. -1.
       -1   -1    0    0    0  501  0.00000000000E+00  0.00000000000E+00 -0.58222077947E+03  0.58222077950E+03  0.50400001928E-02 0.  1.
    10030    2    1    2    0    0  0.00000000000E+00  0.00000000000E+00  0.55939460905E+03  0.17238361680E+04  0.16305486210E+04 0.  0.
        5    1    3    3  502    0  0.15731503119E+03  0.25748741647E+03  0.10803933537E+04  0.11217484912E+04  0.46999998093E+01 0. -1.
       -5    1    3    3    0  502 -0.15731503119E+03 -0.25748741647E+03 -0.52099874467E+03  0.60208767686E+03  0.46999998093E+01 0.  1.
</event>
<event>
 5   0  0.6909250E-05  0.2449734E+04  0.7818609E-02  0.8421115E-01
        2   -1    0    0  501    0  0.00000000000E+00  0.00000000000E+00  0.25493618469E+04  0.25493618469E+04  0.25500000920E-02 0.  1.
       -2   -1    0    0    0  501  0.00000000000E+00  0.00000000000E+00 -0.58849969843E+03  0.58849969843E+03  0.25500000920E-02 0. -1.
    10030    2    1    2    0    0  0.00000000000E+00  0.00000000000E+00  0.19608621484E+04  0.31378615453E+04  0.24497336003E+04 0.  0.
        4    1    3    3  502    0  0.88598123177E+02 -0.12087487150E+04  0.12073129153E+04  0.17107101367E+04  0.12699999809E+01 0.  1.
       -4    1    3    3    0  502 -0.88598123177E+02  0.12087487150E+04  0.75354923313E+03  0.14271514086E+04  0.12699999809E+01 0. -1.
</event>
<event>
 5   0  0.6909250E-05  0.2480507E+04  0.7818609E-02  0.8409963E-01
        2   -1    0    0  501    0  0.00000000000E+00  0.00000000000E+00  0.13151684540E+04  0.13151684540E+04  0.25500000920E-02 0. -1.
       -2   -1    0    0    0  501  0.00000000000E+00  0.00000000000E+00 -0.11696057695E+04  0.11696057695E+04  0.25500000920E-02 0.  1.
    10030    2    1    2    0    0  0.00000000000E+00  0.00000000000E+00  0.14556268450E+03  0.24847742234E+04  0.24805068930E+04 0.  0.
        4    1    3    3  502    0  0.62293552150E+03  0.10300123468E+04  0.37204753826E+03  0.12599186808E+04  0.12699999809E+01 0. -1.
       -4    1    3    3    0  502 -0.62293552150E+03 -0.10300123468E+04 -0.22648485376E+03  0.12248555427E+04  0.12699999809E+01 0.  1.
</event>
<event>
 5   0  0.6827859E-05  0.2493022E+04  0.7818609E-02  0.8405476E-01
       -2   -1    0    0    0  501  0.00000000000E+00  0.00000000000E+00  0.95977843151E+03  0.95977843152E+03  0.25500000920E-02 0. -1.
        2   -1    0    0  501    0  0.00000000000E+00  0.00000000000E+00 -0.16189042603E+04  0.16189042603E+04  0.25500000920E-02 0.  1.
    10030    2    1    2    0    0  0.00000000000E+00  0.00000000000E+00 -0.65912582882E+03  0.25786826919E+04  0.24930217743E+04 0.  0.
        3    1    3    3  502    0  0.78242377936E+03  0.84473512725E+03  0.16436439918E+03  0.11630907409E+04  0.10100000352E+00 0. -1.
       -3    1    3    3    0  502 -0.78242377936E+03 -0.84473512725E+03 -0.82349022801E+03  0.14155919509E+04  0.10100000352E+00 0.  1.
</event>
<event>
 5   0  0.2977854E-05  0.2367678E+04  0.7818609E-02  0.8451705E-01
        1   -1    0    0  501    0  0.00000000000E+00  0.00000000000E+00  0.17975148739E+04  0.17975148739E+04  0.50400001928E-02 0. -1.
       -1   -1    0    0    0  501  0.00000000000E+00  0.00000000000E+00 -0.77967334825E+03  0.77967334826E+03  0.50400001928E-02 0.  1.
    10030    2    1    2    0    0  0.00000000000E+00  0.00000000000E+00  0.10178415256E+04  0.25771882221E+04  0.23676777148E+04 0.  0.
        1    1    3    3  502    0 -0.72116128256E+03 -0.47786527786E+03  0.13885412021E+04  0.16359937314E+04  0.50400001928E-02 0. -1.
       -1    1    3    3    0  502  0.72116128256E+03  0.47786527786E+03 -0.37069967646E+03  0.94119449074E+03  0.50400001928E-02 0.  1.
</event>
<event>
 5   0  0.6909250E-05  0.2468464E+04  0.7818609E-02  0.8414307E-01
       -2   -1    0    0    0  501  0.00000000000E+00  0.00000000000E+00  0.13857440080E+04  0.13857440080E+04  0.25500000920E-02 0.  1.
        2   -1    0    0  501    0  0.00000000000E+00  0.00000000000E+00 -0.10992858339E+04  0.10992858339E+04  0.25500000920E-02 0. -1.
    10030    2    1    2    0    0  0.00000000000E+00  0.00000000000E+00  0.28645817414E+03  0.24850298419E+04  0.24684641033E+04 0.  0.
        4    1    3    3  502    0 -0.14482525594E+03 -0.11564395192E+04 -0.26569936438E+03  0.11953762928E+04  0.12699999809E+01 0.  1.
       -4    1    3    3    0  502  0.14482525594E+03  0.11564395192E+04  0.55215753852E+03  0.12896535490E+04  0.12699999809E+01 0. -1.
</event>
<event>
 5   0  0.2896652E-05  0.2422714E+04  0.7818609E-02  0.8431048E-01
        1   -1    0    0  501    0  0.00000000000E+00  0.00000000000E+00  0.82152114043E+03  0.82152114044E+03  0.50400001928E-02 0. -1.
       -1   -1    0    0    0  501  0.00000000000E+00  0.00000000000E+00 -0.17861819107E+04  0.17861819107E+04  0.50400001928E-02 0.  1.
    10030    2    1    2    0    0  0.00000000000E+00  0.00000000000E+00 -0.96466077028E+03  0.26077030512E+04  0.24227143458E+04 0.  0.
        4    1    3    3  502    0  0.73544330845E+03 -0.77641290539E+03 -0.10947104632E+04  0.15303876864E+04  0.12699999809E+01 0.  1.
       -4    1    3    3    0  502 -0.73544330845E+03  0.77641290539E+03  0.13004969290E+03  0.10773153648E+04  0.12699999809E+01 0. -1.
</event>
<event>
 5   0  0.6445331E-05  0.2485129E+04  0.7818609E-02  0.8408302E-01
       -2   -1    0    0    0  501  0.00000000000E+00  0.00000000000E+00  0.12053876994E+04  0.12053876994E+04  0.25500000920E-02 0. -1.
        2   -1    0    0  501    0  0.00000000000E+00  0.00000000000E+00 -0.12808883269E+04  0.12808883269E+04  0.25500000920E-02 0.  1.
    10030    2    1    2    0    0  0.00000000000E+00  0.00000000000E+00 -0.75500627575E+02  0.24862760263E+04  0.24851293999E+04 0.  0.
        1    1    3    3  502    0  0.59820441700E+03  0.10890356643E+04 -0.48702098323E+02  0.12434705855E+04  0.50400001928E-02 0. -1.
       -1    1    3    3    0  502 -0.59820441700E+03 -0.10890356643E+04 -0.26798529253E+02  0.12428054408E+04  0.50400001928E-02 0.  1.
</event>
<event>
 5   0  0.7071821E-05  0.2494127E+04  0.7818609E-02  0.8405081E-01
       -2   -1    0    0    0  501  0.00000000000E+00  0.00000000000E+00  0.99181492596E+03  0.99181492596E+03  0.25500000920E-02 0. -1.
        2   -1    0    0  501    0  0.00000000000E+00  0.00000000000E+00 -0.15680019322E+04  0.15680019322E+04  0.25500000920E-02 0.  1.
    10030    2    1    2    0    0  0.00000000000E+00  0.00000000000E+00 -0.57618700626E+03  0.25598168582E+04  0.24941272785E+04 0.  0.
        5    1    3    3  502    0 -0.12180652544E+04 -0.12537906866E+00 -0.56245921958E+03  0.13416651756E+04  0.46999998093E+01 0. -1.
       -5    1    3    3    0  502  0.12180652544E+04  0.12537906866E+00 -0.13727786685E+02  0.12181516826E+04  0.46999998093E+01 0.  1.
</event>
<event>
 5   0  0.2977854E-05  0.2524805E+04  0.7818609E-02  0.8394202E-01
       -1   -1    0    0    0  501  0.00000000000E+00  0.00000000000E+00  0.12409529563E+04  0.12409529563E+04  0.50400001928E-02 0. -1.
        1   -1    0    0  501    0  0.00000000000E+00  0.00000000000E+00 -0.12842225301E+04  0.12842225301E+04  0.50400001928E-02 0.  1.
    10030    2    1    2    0    0  0.00000000000E+00  0.00000000000E+00 -0.43269573804E+02  0.25251754863E+04  0.25248047411E+04 0.  0.
        1    1    3    3  502    0 -0.66619014443E+03  0.10532745558E+04 -0.22281885936E+03  0.12660350874E+04  0.50400001928E-02 0. -1.
       -1    1    3    3    0  502  0.66619014443E+03 -0.10532745558E+04  0.17954928556E+03  0.12591403990E+04  0.50400001928E-02 0.  1.
</event>
<event>
 5   0  0.2977854E-05  0.2494757E+04  0.7818609E-02  0.8404856E-01
        1   -1    0    0  501    0  0.00000000000E+00  0.00000000000E+00  0.17374074018E+04  0.17374074018E+04  0.50400001928E-02 0. -1.
       -1   -1    0    0    0  501  0.00000000000E+00  0.00000000000E+00 -0.89556012990E+03  0.89556012992E+03  0.50400001928E-02 0.  1.
    10030    2    1    2    0    0  0.00000000000E+00  0.00000000000E+00  0.84184727192E+03  0.26329675317E+04  0.24947567404E+04 0.  0.
        1    1    3    3  502    0  0.28779659635E+03  0.33318645678E+03 -0.81082990802E+03  0.92265119932E+03  0.50400001928E-02 0.  1.
       -1    1    3    3    0  502 -0.28779659635E+03 -0.33318645678E+03  0.16526771799E+04  0.17103163324E+04  0.50400001928E-02 0. -1.
</event>
<event>
 5   0  0.2896652E-05  0.2420045E+04  0.7818609E-02  0.8432037E-01
       -1   -1    0    0    0  501  0.00000000000E+00  0.00000000000E+00  0.12776720490E+04  0.12776720490E+04  0.50400001928E-02 0. -1.
        1   -1    0    0  501    0  0.00000000000E+00  0.00000000000E+00 -0.11459544201E+04  0.11459544201E+04  0.50400001928E-02 0.  1.
    10030    2    1    2    0    0  0.00000000000E+00  0.00000000000E+00  0.13171762890E+03  0.24236264691E+04  0.24200445715E+04 0.  0.
        4    1    3    3  502    0  0.56433945051E+03 -0.55668657543E+03  0.98141833764E+03  0.12615714506E+04  0.12699999809E+01 0. -1.
       -4    1    3    3    0  502 -0.56433945051E+03  0.55668657543E+03 -0.84970070874E+03  0.11620550185E+04  0.12699999809E+01 0.  1.
</event>
<event>
 5   0  0.6909250E-05  0.2523546E+04  0.7818609E-02  0.8394645E-01
        2   -1    0    0  501    0  0.00000000000E+00  0.00000000000E+00  0.93678184532E+03  0.93678184533E+03  0.25500000920E-02 0.  1.
       -2   -1    0    0    0  501  0.00000000000E+00  0.00000000000E+00 -0.16995113882E+04  0.16995113882E+04  0.25500000920E-02 0. -1.
    10030    2    1    2    0    0  0.00000000000E+00  0.00000000000E+00 -0.76272954288E+03  0.26362932335E+04  0.25235462464E+04 0.  0.
        4    1    3    3  502    0 -0.31596257033E+03 -0.82216123354E+03 -0.13252175295E+04  0.15912210887E+04  0.12699999809E+01 0. -1.
       -4    1    3    3    0  502  0.31596257033E+03  0.82216123354E+03  0.56248798666E+03  0.10450721448E+04  0.12699999809E+01 0.  1.
</event>
<event>
 5   0  0.2977854E-05  0.2498714E+04  0.7818609E-02  0.8403444E-01
       -1   -1    0    0    0  501  0.00000000000E+00  0.00000000000E+00  0.10020797679E+04  0.10020797679E+04  0.50400001928E-02 0. -1.
        1   -1    0    0  501    0  0.00000000000E+00  0.00000000000E+00 -0.15576539707E+04  0.15576539707E+04  0.50400001928E-02 0.  1.
    10030    2    1    2    0    0  0.00000000000E+00  0.00000000000E+00 -0.55557420281E+03  0.25597337386E+04  0.24987144930E+04 0.  0.
        1    1    3    3  502    0  0.64384419661E+03  0.81669058615E+03 -0.98706380643E+03  0.14338109433E+04  0.50400001928E-02 0. -1.
       -1    1    3    3    0  502 -0.64384419661E+03 -0.81669058615E+03  0.43148960362E+03  0.11259227953E+04  0.50400001928E-02 0.  1.
</event>
<event>
 5   0  0.6445331E-05  0.2505242E+04  0.7818609E-02  0.8401120E-01
        2   -1    0    0  501    0  0.00000000000E+00  0.00000000000E+00  0.24965612996E+04  0.24965612996E+04  0.25500000920E-02 0. -1.
       -2   -1    0    0    0  501  0.00000000000E+00  0.00000000000E+00 -0.62848840880E+03  0.62848840881E+03  0.25500000920E-02 0.  1.
    10030    2    1    2    0    0  0.00000000000E+00  0.00000000000E+00  0.18680728908E+04  0.31250497084E+04  0.25052423744E+04 0.  0.
        1    1    3    3  502    0  0.20460483983E+03  0.11706225536E+04  0.14280455512E+04  0.18578305627E+04  0.50400001928E-02 0. -1.
       -1    1    3    3    0  502 -0.20460483983E+03 -0.11706225536E+04  0.44002733964E+03  0.12672191457E+04  0.50400001928E-02 0.  1.
</event>
<event>
 5   0  0.2331375E-05  0.2506118E+04  0.7818609E-02  0.8400809E-01
        3   -1    0    0  501    0  0.00000000000E+00  0.00000000000E+00  0.76318184207E+03  0.76318184875E+03  0.10100000352E+00 0.  1.
       -3   -1    0    0    0  501  0.00000000000E+00  0.00000000000E+00 -0.20573822154E+04  0.20573822179E+04  0.10100000352E+00 0. -1.
    10030    2    1    2    0    0  0.00000000000E+00  0.00000000000E+00 -0.12942003733E+04  0.28205640666E+04  0.25061179237E+04 0.  0.
        5    1    3    3  502    0 -0.98670027425E+03  0.37180571155E+03  0.11483460780E+03  0.10606724261E+04  0.46999998093E+01 0.  1.
       -5    1    3    3    0  502  0.98670027425E+03 -0.37180571155E+03 -0.14090349811E+04  0.17598916405E+04  0.46999998093E+01 0. -1.
</event>
<event>
 5   0  0.2980790E-05  0.2430687E+04  0.7818609E-02  0.8428103E-01
       -1   -1    0    0    0  501  0.00000000000E+00  0.00000000000E+00  0.65910416830E+03  0.65910416832E+03  0.50400001928E-02 0.  1.
        1   -1    0    0  501    0  0.00000000000E+00  0.00000000000E+00 -0.22410118488E+04  0.22410118488E+04  0.50400001928E-02 0. -1.
    10030    2    1    2    0    0  0.00000000000E+00  0.00000000000E+00 -0.15819076805E+04  0.29001160171E+04  0.24306873520E+04 0.  0.
        5    1    3    3  502    0  0.88340090869E+03  0.83029540795E+03 -0.89254856861E+03  0.15054742333E+04  0.46999998093E+01 0. -1.
       -5    1    3    3    0  502 -0.88340090869E+03 -0.83029540795E+03 -0.68935911189E+03  0.13946417838E+04  0.46999998093E+01 0.  1.
</event>
<event>
 5   0  0.6827859E-05  0.2599555E+04  0.7818609E-02  0.8368353E-01
       -2   -1    0    0    0  501  0.00000000000E+00  0.00000000000E+00  0.10604428071E+04  0.10604428072E+04  0.25500000920E-02 0. -1.
        2   -1    0    0  501    0  0.00000000000E+00  0.00000000000E+00 -0.15931278230E+04  0.15931278230E+04  0.25500000920E-02 0.  1.
    10030    2    1    2    0    0  0.00000000000E+00  0.00000000000E+00 -0.53268501589E+03  0.26535706302E+04  0.25995545317E+04 0.  0.
        3    1    3    3  502    0 -0.31387275406E+03 -0.12118860724E+04  0.90546368444E+02  0.12551424673E+04  0.10100000352E+00 0. -1.
       -3    1    3    3    0  502  0.31387275406E+03  0.12118860724E+04 -0.62323138434E+03  0.13984281629E+04  0.10100000352E+00 0.  1.
</event>
<event>
 5   0  0.2977854E-05  0.2424713E+04  0.7818609E-02  0.8430309E-01
        1   -1    0    0  501    0  0.00000000000E+00  0.00000000000E+00  0.22257275802E+04  0.22257275802E+04  0.50400001928E-02 0.  1.
       -1   -1    0    0    0  501  0.00000000000E+00  0.00000000000E+00 -0.66037189398E+03  0.66037189400E+03  0.50400001928E-02 0. -1.
    10030    2    1    2    0    0  0.00000000000E+00  0.00000000000E+00  0.15653556862E+04  0.28860994742E+04  0.24247127151E+04 0.  0.
        1    1    3    3  502    0  0.49757146735E+03  0.17393951430E+03  0.20822030016E+04  0.21478830647E+04  0.50400001928E-02 0.  1.
       -1    1    3    3    0  502 -0.49757146735E+03 -0.17393951430E+03 -0.51684731540E+03  0.73821640948E+03  0.50400001928E-02 0. -1.
</event>
<event>
 5   0  0.2980790E-05  0.2506333E+04  0.7818609E-02  0.8400733E-01
        1   -1    0    0  501    0  0.00000000000E+00  0.00000000000E+00  0.16304697248E+04  0.16304697248E+04  0.50400001928E-02 0.  1.
       -1   -1    0    0    0  501  0.00000000000E+00  0.00000000000E+00 -0.96317414470E+03  0.96317414472E+03  0.50400001928E-02 0. -1.
    10030    2    1    2    0    0  0.00000000000E+00  0.00000000000E+00  0.66729558007E+03  0.25936438695E+04  0.25063330047E+04 0.  0.
        5    1    3    3  502    0  0.61048152829E+01  0.11472226847E+03  0.16249995715E+04  0.16290623577E+04  0.46999998093E+01 0.  1.
       -5    1    3    3    0  502 -0.61048152829E+01 -0.11472226847E+03 -0.95770399148E+03  0.96458151182E+03  0.46999998093E+01 0. -1.
</event>
<event>
 5   0  0.7071821E-05  0.2534225E+04  0.7818609E-02  0.8390893E-01
       -2   -1    0    0    0  501  0.00000000000E+00  0.00000000000E+00  0.13820550430E+04  0.13820550430E+04  0.25500000920E-02 0.  1.
        2   -1    0    0  501    0  0.00000000000E+00  0.00000000000E+00 -0.11617297778E+04  0.11617297778E+04  0.25500000920E-02 0. -1.
    10030    2    1    2    0    0  0.00000000000E+00  0.00000000000E+00  0.22032526519E+03  0.25437848207E+04  0.25342253238E+04 0.  0.
        5    1    3    3  502    0 -0.61626679762E+02 -0.11880869744E+04 -0.32760621745E+03  0.12339758629E+04  0.46999998093E+01 0. -1.
       -5    1    3    3    0  502  0.61626679762E+02  0.11880869744E+04  0.54793148264E+03  0.13098089579E+04  0.46999998093E+01 0.  1.
</event>
<event>
 5   0  0.2977854E-05  0.2409154E+04  0.7818609E-02  0.8436084E-01
       -1   -1    0    0    0  501  0.00000000000E+00  0.00000000000E+00  0.84184266541E+03  0.84184266542E+03  0.50400001928E-02 0. -1.
        1   -1    0    0  501    0  0.00000000000E+00  0.00000000000E+00 -0.17236066708E+04  0.17236066708E+04  0.50400001928E-02 0.  1.
    10030    2    1    2    0    0  0.00000000000E+00  0.00000000000E+00 -0.88176400542E+03  0.25654493363E+04  0.24091539045E+04 0.  0.
        1    1    3    3  502    0 -0.21600922136E+03 -0.63022918468E+03  0.62779742060E+03  0.91541160702E+03  0.50400001928E-02 0. -1.
       -1    1    3    3    0  502  0.21600922136E+03  0.63022918468E+03 -0.15095614260E+04  0.16500377292E+04  0.50400001928E-02 0.  1.
</event>
<event>
 5   0  0.2980790E-05  0.2436866E+04  0.7818609E-02  0.8425829E-01
        1   -1    0    0  501    0  0.00000000000E+00  0.00000000000E+00  0.12397066958E+04  0.12397066958E+04  0.50400001928E-02 0.  1.
       -1   -1    0    0    0  501  0.00000000000E+00  0.00000000000E+00 -0.11975245069E+04  0.11975245069E+04  0.50400001928E-02 0. -1.
    10030    2    1    2    0    0  0.00000000000E+00  0.00000000000E+00  0.42182188914E+02  0.24372312028E+04  0.24368661429E+04 0.  0.
        5    1    3    3  502    0 -0.76707090118E+03 -0.12969389200E+03  0.95896223097E+03  0.12348477329E+04  0.46999998093E+01 0.  1.
       -5    1    3    3    0  502  0.76707090118E+03  0.12969389200E+03 -0.91678004205E+03  0.12023834698E+04  0.46999998093E+01 0. -1.
</event>
<event>
 5   0  0.2777539E-05  0.1340715E+04  0.7818609E-02  0.8997886E-01
        1   -1    0    0  501    0  0.00000000000E+00  0.00000000000E+00  0.57461250324E+03  0.57461250326E+03  0.50400001928E-02 0. -1.
       -1   -1    0    0    0  501  0.00000000000E+00  0.00000000000E+00 -0.78205656324E+03  0.78205656326E+03  0.50400001928E-02 0.  1.
    10030    2    1    2    0    0  0.00000000000E+00  0.00000000000E+00 -0.20744406000E+03  0.13566690665E+04  0.13407154501E+04 0.  0.
        3    1    3    3  502    0 -0.21011746779E+03 -0.88298560267E+02 -0.74164690205E+03  0.77587764727E+03  0.10100000352E+00 0.  1.
       -3    1    3    3    0  502  0.21011746779E+03  0.88298560267E+02  0.53420284205E+03  0.58079141925E+03  0.10100000352E+00 0. -1.
</event>
<event>
 5   0  0.6909250E-05  0.2511379E+04  0.7818609E-02  0.8398943E-01
        2   -1    0    0  501    0  0.00000000000E+00  0.00000000000E+00  0.14886406497E+04  0.14886406497E+04  0.25500000920E-02 0. -1.
       -2   -1    0    0    0  501  0.00000000000E+00  0.00000000000E+00 -0.10591920400E+04  0.10591920400E+04  0.25500000920E-02 0.  1.
    10030    2    1    2    0    0  0.00000000000E+00  0.00000000000E+00  0.42944860969E+03  0.25478326898E+04  0.25113791643E+04 0.  0.
        4    1    3    3  502    0 -0.45836819887E+03  0.84632362117E+03  0.10328978349E+04  0.14118231574E+04  0.12699999809E+01 0. -1.
       -4    1    3    3    0  502  0.45836819887E+03 -0.84632362117E+03 -0.60344922517E+03  0.11360095324E+04  0.12699999809E+01 0.  1.
</event>
<event>
 5   0  0.2793920E-05  0.2405074E+04  0.7818609E-02  0.8437606E-01
        1   -1    0    0  501    0  0.00000000000E+00  0.00000000000E+00  0.21566709188E+04  0.21566709188E+04  0.50400001928E-02 0.  1.
       -1   -1    0    0    0  501  0.00000000000E+00  0.00000000000E+00 -0.67052192168E+03  0.67052192169E+03  0.50400001928E-02 0. -1.
    10030    2    1    2    0    0  0.00000000000E+00  0.00000000000E+00  0.14861489971E+04  0.28271928405E+04  0.24050739106E+04 0.  0.
        2    1    3    3  502    0  0.70478931744E+03  0.51663100183E+03 -0.22802887842E+03  0.90312388044E+03  0.25500000920E-02 0. -1.
       -2    1    3    3    0  502 -0.70478931744E+03 -0.51663100183E+03  0.17141778755E+04  0.19240689600E+04  0.25500000920E-02 0.  1.
</event>
<event>
 5   0  0.2331375E-05  0.2141738E+04  0.7818609E-02  0.8543077E-01
       -3   -1    0    0    0  501  0.00000000000E+00  0.00000000000E+00  0.13702672520E+04  0.13702672557E+04  0.10100000352E+00 0.  1.
        3   -1    0    0  501    0  0.00000000000E+00  0.00000000000E+00 -0.83688781734E+03  0.83688782343E+03  0.10100000352E+00 0. -1.
    10030    2    1    2    0    0  0.00000000000E+00  0.00000000000E+00  0.53337943469E+03  0.22071550792E+04  0.21417375941E+04 0.  0.
        3    1    3    3  502    0  0.67829783077E+03 -0.58644525755E+03 -0.33664434347E+03  0.95777628470E+03  0.10100000352E+00 0. -1.
       -3    1    3    3    0  502 -0.67829783077E+03  0.58644525755E+03  0.87002377816E+03  0.12493787945E+04  0.10100000352E+00 0.  1.
</event>
<event>
 5   0  0.6445331E-05  0.2338879E+04  0.7818609E-02  0.8462747E-01
       -2   -1    0    0    0  501  0.00000000000E+00  0.00000000000E+00  0.74380971704E+03  0.74380971704E+03  0.25500000920E-02 0. -1.
        2   -1    0    0  501    0  0.00000000000E+00  0.00000000000E+00 -0.18386275723E+04  0.18386275723E+04  0.25500000920E-02 0.  1.
    10030    2    1    2    0    0  0.00000000000E+00  0.00000000000E+00 -0.10948178553E+04  0.25824372894E+04  0.23388792652E+04 0.  0.
        1    1    3    3  502    0 -0.12573848387E+03 -0.58884212170E+03  0.55950661146E+03  0.82194455951E+03  0.50400001928E-02 0. -1.
       -1    1    3    3    0  502  0.12573848387E+03  0.58884212170E+03 -0.16543244668E+04  0.17604927299E+04  0.50400001928E-02 0.  1.
</event>
<event>
 5   0  0.6909250E-05  0.2301344E+04  0.7818609E-02  0.8477391E-01
       -2   -1    0    0    0  501  0.00000000000E+00  0.00000000000E+00  0.16132325344E+04  0.16132325344E+04  0.25500000920E-02 0. -1.
        2   -1    0    0  501    0  0.00000000000E+00  0.00000000000E+00 -0.82074110615E+03  0.82074110615E+03  0.25500000920E-02 0.  1.
    10030    2    1    2    0    0  0.00000000000E+00  0.00000000000E+00  0.79249142824E+03  0.24339736405E+04  0.23013441766E+04 0.  0.
        4    1    3    3  502    0 -0.36715248060E+02  0.49733405553E+03 -0.70051104748E+03  0.85988750007E+03  0.12699999809E+01 0.  1.
       -4    1    3    3    0  502  0.36715248060E+02 -0.49733405553E+03  0.14930024757E+04  0.15740861405E+04  0.12699999809E+01 0. -1.
</event>
<event>
 5   0  0.6909250E-05  0.2466752E+04  0.7818609E-02  0.8414927E-01
       -2   -1    0    0    0  501  0.00000000000E+00  0.00000000000E+00  0.13279236771E+04  0.13279236771E+04  0.25500000920E-02 0. -1.
        2   -1    0    0  501    0  0.00000000000E+00  0.00000000000E+00 -0.11455603961E+04  0.11455603961E+04  0.25500000920E-02 0.  1.
    10030    2    1    2    0    0  0.00000000000E+00  0.00000000000E+00  0.18236328104E+03  0.24734840731E+04  0.24667523374E+04 0.  0.
        4    1    3    3  502    0  0.16188309674E+03 -0.11725353502E+04  0.43878292811E+03  0.12623697380E+04  0.12699999809E+01 0. -1.
       -4    1    3    3    0  502 -0.16188309674E+03  0.11725353502E+04 -0.25641964707E+03  0.12111143352E+04  0.12699999809E+01 0.  1.
</event>
<event>
 5   0  0.6648328E-05  0.2501518E+04  0.7818609E-02  0.8402445E-01
       -2   -1    0    0    0  501  0.00000000000E+00  0.00000000000E+00  0.16399148703E+04  0.16399148703E+04  0.25500000920E-02 0. -1.
        2   -1    0    0  501    0  0.00000000000E+00  0.00000000000E+00 -0.95395107263E+03  0.95395107264E+03  0.25500000920E-02 0.  1.
    10030    2    1    2    0    0  0.00000000000E+00  0.00000000000E+00  0.68596379764E+03  0.25938659429E+04  0.25015183785E+04 0.  0.
        2    1    3    3  502    0 -0.39216741264E+02  0.78635778431E+03 -0.66475062947E+03  0.10304319081E+04  0.25500000920E-02 0.  1.
       -2    1    3    3    0  502  0.39216741264E+02 -0.78635778431E+03  0.13507144271E+04  0.15634340349E+04  0.25500000920E-02 0. -1.
</event>
<event>
 5   0  0.6827859E-05  0.2519282E+04  0.7818609E-02  0.8396148E-01
        2   -1    0    0  501    0  0.00000000000E+00  0.00000000000E+00  0.11417831329E+04  0.11417831329E+04  0.25500000920E-02 0. -1.
       -2   -1    0    0    0  501  0.00000000000E+00  0.00000000000E+00 -0.13896643916E+04  0.13896643916E+04  0.25500000920E-02 0.  1.
    10030    2    1    2    0    0  0.00000000000E+00  0.00000000000E+00 -0.24788125872E+03  0.25314475245E+04  0.25192819316E+04 0.  0.
        3    1    3    3  502    0  0.87418315560E+03  0.82112380147E+03 -0.51083876327E+03  0.13036091205E+04  0.10100000352E+00 0.  1.
       -3    1    3    3    0  502 -0.87418315560E+03 -0.82112380147E+03  0.26295750456E+03  0.12278384040E+04  0.10100000352E+00 0. -1.
</event>
<event>
 5   0  0.2777539E-05  0.1849614E+04  0.7818609E-02  0.8680351E-01
       -1   -1    0    0    0  501  0.00000000000E+00  0.00000000000E+00  0.90240216093E+03  0.90240216094E+03  0.50400001928E-02 0. -1.
        1   -1    0    0  501    0  0.00000000000E+00  0.00000000000E+00 -0.94776813988E+03  0.94776813989E+03  0.50400001928E-02 0.  1.
    10030    2    1    2    0    0  0.00000000000E+00  0.00000000000E+00 -0.45365978948E+02  0.18501703008E+04  0.18496140327E+04 0.  0.
        3    1    3    3  502    0  0.38718932804E+03 -0.80187149643E+03 -0.27246698906E+03  0.93120982751E+03  0.10100000352E+00 0.  1.
       -3    1    3    3    0  502 -0.38718932804E+03  0.80187149643E+03  0.22710101012E+03  0.91896047332E+03  0.10100000352E+00 0. -1.
</event>
<event>
 5   0  0.2896652E-05  0.2466045E+04  0.7818609E-02  0.8415183E-01
       -1   -1    0    0    0  501  0.00000000000E+00  0.00000000000E+00  0.92102379743E+03  0.92102379745E+03  0.50400001928E-02 0.  1.
        1   -1    0    0  501    0  0.00000000000E+00  0.00000000000E+00 -0.16507118938E+04  0.16507118938E+04  0.50400001928E-02 0. -1.
    10030    2    1    2    0    0  0.00000000000E+00  0.00000000000E+00 -0.72968809633E+03  0.25717356912E+04  0.24660453661E+04 0.  0.
        4    1    3    3  502    0 -0.77187527588E+03 -0.85537764189E+03 -0.82284877869E+03  0.14158192248E+04  0.12699999809E+01 0. -1.
       -4    1    3    3    0  502  0.77187527588E+03  0.85537764189E+03  0.93160682363E+02  0.11559164664E+04  0.12699999809E+01 0.  1.
</event>
<event>
 5   0  0.6827859E-05  0.2620049E+04  0.7818609E-02  0.8361423E-01
        2   -1    0    0  501    0  0.00000000000E+00  0.00000000000E+00  0.11573998445E+04  0.11573998445E+04  0.25500000920E-02 0.  1.
       -2   -1    0    0    0  501  0.00000000000E+00  0.00000000000E+00 -0.14827754334E+04  0.14827754334E+04  0.25500000920E-02 0. -1.
    10030    2    1    2    0    0  0.00000000000E+00  0.00000000000E+00 -0.32537558887E+03  0.26401752779E+04  0.26200488973E+04 0.  0.
        3    1    3    3  502    0 -0.39328987538E+03  0.12018671968E+04 -0.50737143899E+03  0.13625665019E+04  0.10100000352E+00 0. -1.
       -3    1    3    3    0  502  0.39328987538E+03 -0.12018671968E+04  0.18199585012E+03  0.12776087760E+04  0.10100000352E+00 0.  1.
</event>
<event>
 5   0  0.6648328E-05  0.2550109E+04  0.7818609E-02  0.8385348E-01
        2   -1    0    0  501    0  0.00000000000E+00  0.00000000000E+00  0.15351580444E+04  0.15351580444E+04  0.25500000920E-02 0. -1.
       -2   -1    0    0    0  501  0.00000000000E+00  0.00000000000E+00 -0.10590202422E+04  0.10590202422E+04  0.25500000920E-02 0.  1.
    10030    2    1    2    0    0  0.00000000000E+00  0.00000000000E+00  0.47613780218E+03  0.25941782867E+04  0.25501085813E+04 0.  0.
        2    1    3    3  502    0 -0.26847061904E+03  0.11551144726E+04 -0.23842463138E+03  0.12096330944E+04  0.25500000920E-02 0.  1.
       -2    1    3    3    0  502  0.26847061904E+03 -0.11551144726E+04  0.71456243355E+03  0.13845451923E+04  0.25500000920E-02 0. -1.
</event>
<event>
 5   0  0.2977854E-05  0.2493746E+04  0.7818609E-02  0.8405217E-01
       -1   -1    0    0    0  501  0.00000000000E+00  0.00000000000E+00  0.79719331325E+03  0.79719331326E+03  0.50400001928E-02 0.  1.
        1   -1    0    0  501    0  0.00000000000E+00  0.00000000000E+00 -0.19502075068E+04  0.19502075068E+04  0.50400001928E-02 0. -1.
    10030    2    1    2    0    0  0.00000000000E+00  0.00000000000E+00 -0.11530141935E+04  0.27474008201E+04  0.24937460848E+04 0.  0.
        1    1    3    3  502    0 -0.96385711698E+03 -0.95461842129E+02  0.28857449442E+03  0.10106476855E+04  0.50400001928E-02 0.  1.
       -1    1    3    3    0  502  0.96385711698E+03  0.95461842129E+02 -0.14415886880E+04  0.17367531346E+04  0.50400001928E-02 0. -1.
</event>
<event>
 5   0  0.6445331E-05  0.2477536E+04  0.7818609E-02  0.8411032E-01
        2   -1    0    0  501    0  0.00000000000E+00  0.00000000000E+00  0.25603176267E+04  0.25603176267E+04  0.25500000920E-02 0.  1.
       -2   -1    0    0    0  501  0.00000000000E+00  0.00000000000E+00 -0.59935787359E+03  0.59935787360E+03  0.25500000920E-02 0. -1.
    10030    2    1    2    0    0  0.00000000000E+00  0.00000000000E+00  0.19609597531E+04  0.31596755003E+04  0.24775362992E+04 0.  0.
        1    1    3    3  502    0 -0.42630930988E+03 -0.20102753260E+03 -0.48053524957E+03  0.67310164363E+03  0.50400001928E-02 0. -1.
       -1    1    3    3    0  502  0.42630930988E+03  0.20102753260E+03  0.24414950027E+04  0.24865738567E+04  0.50400001928E-02 0.  1.
</event>
<event>
 5   0  0.2793920E-05  0.1314287E+04  0.7818609E-02  0.9018312E-01
       -1   -1    0    0    0  501  0.00000000000E+00  0.00000000000E+00  0.20062192255E+03  0.20062192262E+03  0.50400001928E-02 0.  1.
        1   -1    0    0  501    0  0.00000000000E+00  0.00000000000E+00 -0.21524943310E+04  0.21524943310E+04  0.50400001928E-02 0. -1.
    10030    2    1    2    0    0  0.00000000000E+00  0.00000000000E+00 -0.19518724085E+04  0.23531162536E+04  0.13142869566E+04 0.  0.
        2    1    3    3  502    0  0.43123460701E+03  0.39512125219E+03 -0.15123238761E+04  0.16214831472E+04  0.25500000920E-02 0. -1.
       -2    1    3    3    0  502 -0.43123460701E+03 -0.39512125219E+03 -0.43954853233E+03  0.73163310648E+03  0.25500000920E-02 0.  1.
</event>
<event>
 5   0  0.7071821E-05  0.2631399E+04  0.7818609E-02  0.8357613E-01
       -2   -1    0    0    0  501  0.00000000000E+00  0.00000000000E+00  0.99332900296E+03  0.99332900297E+03  0.25500000920E-02 0. -1.
        2   -1    0    0  501    0  0.00000000000E+00  0.00000000000E+00 -0.17426904867E+04  0.17426904867E+04  0.25500000920E-02 0.  1.
    10030    2    1    2    0    0  0.00000000000E+00  0.00000000000E+00 -0.74936148372E+03  0.27360194897E+04  0.26313988703E+04 0.  0.
        5    1    3    3  502    0 -0.48440916966E+03  0.92139509468E+03 -0.12112967019E+04  0.15971483820E+04  0.46999998093E+01 0. -1.
       -5    1    3    3    0  502  0.48440916966E+03 -0.92139509468E+03  0.46193521813E+03  0.11388711077E+04  0.46999998093E+01 0.  1.
</event>
<event>
 5   0  0.2793920E-05  0.2475296E+04  0.7818609E-02  0.8411840E-01
        1   -1    0    0  501    0  0.00000000000E+00  0.00000000000E+00  0.14880451019E+04  0.14880451019E+04  0.50400001928E-02 0.  1.
       -1   -1    0    0    0  501  0.00000000000E+00  0.00000000000E+00 -0.10293859294E+04  0.10293859294E+04  0.50400001928E-02 0. -1.
    10030    2    1    2    0    0  0.00000000000E+00  0.00000000000E+00  0.45865917250E+03  0.25174310312E+04  0.24752960955E+04 0.  0.
        2    1    3    3  502    0  0.50029017619E+03 -0.63212788404E+03 -0.72574942235E+03  0.10847064793E+04  0.25500000920E-02 0. -1.
       -2    1    3    3    0  502 -0.50029017619E+03  0.63212788404E+03  0.11844085948E+04  0.14327245519E+04  0.25500000920E-02 0.  1.
</event>
<event>
 5   0  0.2777539E-05  0.2395733E+04  0.7818609E-02  0.8441103E-01
       -1   -1    0    0    0  501  0.00000000000E+00  0.00000000000E+00  0.12354595499E+04  0.12354595499E+04  0.50400001928E-02 0. -1.
        1   -1    0    0  501    0  0.00000000000E+00  0.00000000000E+00 -0.11614171031E+04  0.11614171031E+04  0.50400001928E-02 0.  1.
    10030    2    1    2    0    0  0.00000000000E+00  0.00000000000E+00  0.74042446834E+02  0.23968766530E+04  0.23957327493E+04 0.  0.
        3    1    3    3  502    0 -0.67320560680E+03 -0.50002942208E+03  0.89279425686E+03  0.12248742006E+04  0.10100000352E+00 0. -1.
       -3    1    3    3    0  502  0.67320560680E+03  0.50002942208E+03 -0.81875181002E+03  0.11720024525E+04  0.10100000352E+00 0.  1.
</event>
<event>
 5   0  0.2980790E-05  0.2449254E+04  0.7818609E-02  0.8421291E-01
       -1   -1    0    0    0  501  0.00000000000E+00  0.00000000000E+00  0.18718567045E+04  0.18718567045E+04  0.50400001928E-02 0.  1.
        1   -1    0    0  501    0  0.00000000000E+00  0.00000000000E+00 -0.80118895095E+03  0.80118895096E+03  0.50400001928E-02 0. -1.
    10030    2    1    2    0    0  0.00000000000E+00  0.00000000000E+00  0.10706677536E+04  0.26730456555E+04  0.24492536900E+04 0.  0.
        5    1    3    3  502    0 -0.90108409346E+03 -0.24492288000E+03  0.14000342385E+04  0.16828718667E+04  0.46999998093E+01 0.  1.
       -5    1    3    3    0  502  0.90108409346E+03  0.24492288000E+03 -0.32936648494E+03  0.99017378881E+03  0.46999998093E+01 0. -1.
</event>
<event>
 5   0  0.6445331E-05  0.2475873E+04  0.7818609E-02  0.8411632E-01
        2   -1    0    0  501    0  0.00000000000E+00  0.00000000000E+00  0.16595824861E+04  0.16595824861E+04  0.25500000920E-02 0. -1.
       -2   -1    0    0    0  501  0.00000000000E+00  0.00000000000E+00 -0.92341699624E+03  0.92341699625E+03  0.25500000920E-02 0.  1.
    10030    2    1    2    0    0  0.00000000000E+00  0.00000000000E+00  0.73616548982E+03  0.25829994823E+04  0.24758729162E+04 0.  0.
        1    1    3    3  502    0  0.26394052708E+03 -0.95377658854E+03  0.11439911861E+04  0.15126368422E+04  0.50400001928E-02 0. -1.
       -1    1    3    3    0  502 -0.26394052708E+03  0.95377658854E+03 -0.40782569625E+03  0.10703626401E+04  0.50400001928E-02 0.  1.
</event>
<event>
 5   0  0.2777539E-05  0.2498833E+04  0.7818609E-02  0.8403402E-01
       -1   -1    0    0    0  501  0.00000000000E+00  0.00000000000E+00  0.10640691594E+04  0.10640691594E+04  0.50400001928E-02 0.  1.
        1   -1    0    0  501    0  0.00000000000E+00  0.00000000000E+00 -0.14670484296E+04  0.14670484296E+04  0.50400001928E-02 0. -1.
    10030    2    1    2    0    0  0.00000000000E+00  0.00000000000E+00 -0.40297927015E+03  0.25311175890E+04  0.24988325189E+04 0.  0.
        3    1    3    3  502    0 -0.18026949446E+03 -0.74543269396E+03 -0.12005770041E+04  0.14246235099E+04  0.10100000352E+00 0. -1.
       -3    1    3    3    0  502  0.18026949446E+03  0.74543269396E+03  0.79759773396E+03  0.11064940792E+04  0.10100000352E+00 0.  1.
</event>
<event>
 5   0  0.6648328E-05  0.1379604E+04  0.7818609E-02  0.8968716E-01
        2   -1    0    0  501    0  0.00000000000E+00  0.00000000000E+00  0.92015163551E+03  0.92015163552E+03  0.25500000920E-02 0. -1.
       -2   -1    0    0    0  501  0.00000000000E+00  0.00000000000E+00 -0.51711768965E+03  0.51711768965E+03  0.25500000920E-02 0.  1.
    10030    2    1    2    0    0  0.00000000000E+00  0.00000000000E+00  0.40303394587E+03  0.14372693252E+04  0.13796038386E+04 0.  0.
        2    1    3    3  502    0 -0.37340898566E+03  0.15749448417E+03  0.78304956271E+03  0.88170596050E+03  0.25500000920E-02 0. -1.
       -2    1    3    3    0  502  0.37340898566E+03 -0.15749448417E+03 -0.38001561684E+03  0.55556336467E+03  0.25500000920E-02 0.  1.
</event>
<event>
 5   0  0.2896652E-05  0.2498970E+04  0.7818609E-02  0.8403353E-01
        1   -1    0    0  501    0  0.00000000000E+00  0.00000000000E+00  0.99289053995E+03  0.99289053997E+03  0.50400001928E-02 0.  1.
       -1   -1    0    0    0  501  0.00000000000E+00  0.00000000000E+00 -0.15723911479E+04  0.15723911479E+04  0.50400001928E-02 0. -1.
    10030    2    1    2    0    0  0.00000000000E+00  0.00000000000E+00 -0.57950060792E+03  0.25652816878E+04  0.24989696243E+04 0.  0.
        4    1    3    3  502    0 -0.11201953487E+04  0.27948000015E+03 -0.78019810196E+03  0.13934336658E+04  0.12699999809E+01 0. -1.
       -4    1    3    3    0  502  0.11201953487E+04 -0.27948000015E+03  0.20069749404E+03  0.11718480221E+04  0.12699999809E+01 0.  1.
</event>
<event>
 5   0  0.2980790E-05  0.1830522E+04  0.7818609E-02  0.8690235E-01
       -1   -1    0    0    0  501  0.00000000000E+00  0.00000000000E+00  0.99620650606E+03  0.99620650607E+03  0.50400001928E-02 0.  1.
        1   -1    0    0  501    0  0.00000000000E+00  0.00000000000E+00 -0.84089248922E+03  0.84089248924E+03  0.50400001928E-02 0. -1.
    10030    2    1    2    0    0  0.00000000000E+00  0.00000000000E+00  0.15531401683E+03  0.18370989953E+04  0.18305218586E+04 0.  0.
        5    1    3    3  502    0  0.37980431562E+02  0.90569250139E+03  0.20444008106E+03  0.92926812976E+03  0.46999998093E+01 0.  1.
       -5    1    3    3    0  502 -0.37980431562E+02 -0.90569250139E+03 -0.49126064231E+02  0.90783086554E+03  0.46999998093E+01 0. -1.
</event>
<event>
 5   0  0.7071821E-05  0.2523696E+04  0.7818609E-02  0.8394592E-01
       -2   -1    0    0    0  501  0.00000000000E+00  0.00000000000E+00  0.13226081997E+04  0.13226081998E+04  0.25500000920E-02 0. -1.
        2   -1    0    0  501    0  0.00000000000E+00  0.00000000000E+00 -0.12038787226E+04  0.12038787226E+04  0.25500000920E-02 0.  1.
    10030    2    1    2    0    0  0.00000000000E+00  0.00000000000E+00  0.11872947716E+03  0.25264869223E+04  0.25236955997E+04 0.  0.
        5    1    3    3  502    0 -0.76442965580E+03  0.78175891799E+03 -0.57120340342E+03  0.12336106041E+04  0.46999998093E+01 0.  1.
       -5    1    3    3    0  502  0.76442965580E+03 -0.78175891799E+03  0.68993288058E+03  0.12928763182E+04  0.46999998093E+01 0. -1.
</event>
<event>
 5   0  0.2980790E-05  0.2475667E+04  0.7818609E-02  0.8411706E-01
       -1   -1    0    0    0  501  0.00000000000E+00  0.00000000000E+00  0.82841365713E+03  0.82841365715E+03  0.50400001928E-02 0. -1.
        1   -1    0    0  501    0  0.00000000000E+00  0.00000000000E+00 -0.18495981619E+04  0.18495981619E+04  0.50400001928E-02 0.  1.
    10030    2    1    2    0    0  0.00000000000E+00  0.00000000000E+00 -0.10211845048E+04  0.26780118191E+04  0.24756674878E+04 0.  0.
        5    1    3    3  502    0  0.80738576073E+03  0.40266220332E+03  0.40614183817E+03  0.98943514154E+03  0.46999998093E+01 0. -1.
       -5    1    3    3    0  502 -0.80738576073E+03 -0.40266220332E+03 -0.14273263430E+04  0.16885766775E+04  0.46999998093E+01 0.  1.
</event>
<event>
 5   0  0.2793920E-05  0.2521248E+04  0.7818609E-02  0.8395455E-01
        1   -1    0    0  501    0  0.00000000000E+00  0.00000000000E+00  0.26041766499E+04  0.26041766499E+04  0.50400001928E-02 0.  1.
       -1   -1    0    0    0  501  0.00000000000E+00  0.00000000000E+00 -0.61023980088E+03  0.61023980090E+03  0.50400001928E-02 0. -1.
    10030    2    1    2    0    0  0.00000000000E+00  0.00000000000E+00  0.19939368490E+04  0.32144164508E+04  0.25212475010E+04 0.  0.
        2    1    3    3  502    0  0.12440421615E+04  0.12952791137E+03  0.11975578966E+04  0.17316360169E+04  0.25500000920E-02 0. -1.
       -2    1    3    3    0  502 -0.12440421615E+04 -0.12952791137E+03  0.79637895243E+03  0.14827804339E+04  0.25500000920E-02 0.  1.
</event>
<event>
 5   0  0.6445331E-05  0.2507404E+04  0.7818609E-02  0.8400352E-01
       -2   -1    0    0    0  501  0.00000000000E+00  0.00000000000E+00  0.12989623656E+04  0.12989623656E+04  0.25500000920E-02 0. -1.
        2   -1    0    0  501    0  0.00000000000E+00  0.00000000000E+00 -0.12100190130E+04  0.12100190130E+04  0.25500000920E-02 0.  1.
    10030    2    1    2    0    0  0.00000000000E+00  0.00000000000E+00  0.88943352561E+02  0.25089813786E+04  0.25074043627E+04 0.  0.
        1    1    3    3  502    0 -0.11814456558E+04 -0.36588688381E+03 -0.16079659035E+03  0.12472139323E+04  0.50400001928E-02 0.  1.
       -1    1    3    3    0  502  0.11814456558E+04  0.36588688381E+03  0.24973994291E+03  0.12617674463E+04  0.50400001928E-02 0. -1.
</event>
<event>
 5   0  0.2896652E-05  0.2469125E+04  0.7818609E-02  0.8414068E-01
       -1   -1    0    0    0  501  0.00000000000E+00  0.00000000000E+00  0.97312935562E+03  0.97312935563E+03  0.50400001928E-02 0.  1.
        1   -1    0    0  501    0  0.00000000000E+00  0.00000000000E+00 -0.15662308048E+04  0.15662308048E+04  0.50400001928E-02 0. -1.
    10030    2    1    2    0    0  0.00000000000E+00  0.00000000000E+00 -0.59310144920E+03  0.25393601605E+04  0.24691254920E+04 0.  0.
        4    1    3    3  502    0  0.57408371426E+03 -0.62445232860E+02  0.82566724006E+03  0.10075711004E+04  0.12699999809E+01 0.  1.
       -4    1    3    3    0  502 -0.57408371426E+03  0.62445232860E+02 -0.14187686893E+04  0.15317890601E+04  0.12699999809E+01 0. -1.
</event>
<event>
 5   0  0.6445331E-05  0.2463079E+04  0.7818609E-02  0.8416258E-01
       -2   -1    0    0    0  501  0.00000000000E+00  0.00000000000E+00  0.11158543341E+04  0.11158543341E+04  0.25500000920E-02 0.  1.
        2   -1    0    0  501    0  0.00000000000E+00  0.00000000000E+00 -0.13592180709E+04  0.13592180709E+04  0.25500000920E-02 0. -1.
    10030    2    1    2    0    0  0.00000000000E+00  0.00000000000E+00 -0.24336373681E+03  0.24750724049E+04  0.24630788662E+04 0.  0.
        1    1    3    3  502    0  0.58584718843E+03  0.37116660829E+03  0.90097093424E+03  0.11369829390E+04  0.50400001928E-02 0.  1.
       -1    1    3    3    0  502 -0.58584718843E+03 -0.37116660829E+03 -0.11443346710E+04  0.13380894659E+04  0.50400001928E-02 0. -1.
</event>
<event>
 5   0  0.6445331E-05  0.1826436E+04  0.7818609E-02  0.8692366E-01
        2   -1    0    0  501    0  0.00000000000E+00  0.00000000000E+00  0.13516460609E+04  0.13516460609E+04  0.25500000920E-02 0.  1.
       -2   -1    0    0    0  501  0.00000000000E+00  0.00000000000E+00 -0.61700097369E+03  0.61700097369E+03  0.25500000920E-02 0. -1.
    10030    2    1    2    0    0  0.00000000000E+00  0.00000000000E+00  0.73464508723E+03  0.19686470346E+04  0.18264358031E+04 0.  0.
        1    1    3    3  502    0 -0.38333066281E+03  0.90161528465E+02 -0.52078363207E+03  0.65290664702E+03  0.50400001928E-02 0. -1.
       -1    1    3    3    0  502  0.38333066281E+03 -0.90161528465E+02  0.12554287193E+04  0.13157403876E+04  0.50400001928E-02 0.  1.
</event>
<event>
 5   0  0.2896652E-05  0.2494000E+04  0.7818609E-02  0.8405126E-01
       -1   -1    0    0    0  501  0.00000000000E+00  0.00000000000E+00  0.10912767816E+04  0.10912767816E+04  0.50400001928E-02 0.  1.
        1   -1    0    0  501    0  0.00000000000E+00  0.00000000000E+00 -0.14249451846E+04  0.14249451846E+04  0.50400001928E-02 0. -1.
    10030    2    1    2    0    0  0.00000000000E+00  0.00000000000E+00 -0.33366840301E+03  0.25162219661E+04  0.24940004771E+04 0.  0.
        4    1    3    3  502    0 -0.11279219924E+04 -0.21561403203E+03  0.32361493356E+03  0.11930740420E+04  0.12699999809E+01 0.  1.
       -4    1    3    3    0  502  0.11279219924E+04  0.21561403203E+03 -0.65728333657E+03  0.13231479241E+04  0.12699999809E+01 0. -1.
</event>
<event>
 5   0  0.2777539E-05  0.2398735E+04  0.7818609E-02  0.8439977E-01
       -1   -1    0    0    0  501  0.00000000000E+00  0.00000000000E+00  0.85353200636E+03  0.85353200637E+03  0.50400001928E-02 0. -1.
        1   -1    0    0  501    0  0.00000000000E+00  0.00000000000E+00 -0.16853290095E+04  0.16853290095E+04  0.50400001928E-02 0.  1.
    10030    2    1    2    0    0  0.00000000000E+00  0.00000000000E+00 -0.83179700311E+03  0.25388610158E+04  0.23987348756E+04 0.  0.
        3    1    3    3  502    0  0.14491892252E+03 -0.11604210308E+04 -0.69773119102E+03  0.13617662384E+04  0.10100000352E+00 0.  1.
       -3    1    3    3    0  502 -0.14491892252E+03  0.11604210308E+04 -0.13406581209E+03  0.11770947774E+04  0.10100000352E+00 0. -1.
</event>
<event>
 5   0  0.6909250E-05  0.1644505E+04  0.7818609E-02  0.8793664E-01
       -2   -1    0    0    0  501  0.00000000000E+00  0.00000000000E+00  0.24602135226E+03  0.24602135227E+03  0.25500000920E-02 0. -1.
        2   -1    0    0  501    0  0.00000000000E+00  0.00000000000E+00 -0.27481319218E+04  0.27481319218E+04  0.25500000920E-02 0.  1.
    10030    2    1    2    0    0  0.00000000000E+00  0.00000000000E+00 -0.25021105696E+04  0.29941532741E+04  0.16445049488E+04 0.  0.
        4    1    3    3  502    0  0.66393997053E+03  0.37018062029E+03 -0.68036603446E+03  0.10201713238E+04  0.12699999809E+01 0. -1.
       -4    1    3    3    0  502 -0.66393997053E+03 -0.37018062029E+03 -0.18217445351E+04  0.19739819503E+04  0.12699999809E+01 0.  1.
</event>
<event>
 5   0  0.2896652E-05  0.2511025E+04  0.7818609E-02  0.8399068E-01
        1   -1    0    0  501    0  0.00000000000E+00  0.00000000000E+00  0.11662570917E+04  0.11662570917E+04  0.50400001928E-02 0.  1.
       -1   -1    0    0    0  501  0.00000000000E+00  0.00000000000E+00 -0.13515987103E+04  0.13515987103E+04  0.50400001928E-02 0. -1.
    10030    2    1    2    0    0  0.00000000000E+00  0.00000000000E+00 -0.18534161859E+03  0.25178558020E+04  0.25110249549E+04 0.  0.
        4    1    3    3  502    0  0.18508737357E+03 -0.12031028211E+04  0.21573088075E+03  0.12362261766E+04  0.12699999809E+01 0. -1.
       -4    1    3    3    0  502 -0.18508737357E+03  0.12031028211E+04 -0.40107249933E+03  0.12816296254E+04  0.12699999809E+01 0.  1.
</event>
<event>
 5   0  0.2977854E-05  0.2165600E+04  0.7818609E-02  0.8532884E-01
        1   -1    0    0  501    0  0.00000000000E+00  0.00000000000E+00  0.81324409644E+03  0.81324409646E+03  0.50400001928E-02 0.  1.
       -1   -1    0    0    0  501  0.00000000000E+00  0.00000000000E+00 -0.14417021441E+04  0.14417021441E+04  0.50400001928E-02 0. -1.
    10030    2    1    2    0    0  0.00000000000E+00  0.00000000000E+00 -0.62845804764E+03  0.22549462406E+04  0.21655999238E+04 0.  0.
        1    1    3    3  502    0  0.95748109465E+03 -0.17270146577E+02 -0.84043738359E+03  0.12741284473E+04  0.50400001928E-02 0. -1.
       -1    1    3    3    0  502 -0.95748109465E+03  0.17270146577E+02  0.21197933594E+03  0.98081779321E+03  0.50400001928E-02 0.  1.
</event>
<event>
 5   0  0.2980790E-05  0.2527337E+04  0.7818609E-02  0.8393311E-01
       -1   -1    0    0    0  501  0.00000000000E+00  0.00000000000E+00  0.79044061860E+03  0.79044061862E+03  0.50400001928E-02 0. -1.
        1   -1    0    0  501    0  0.00000000000E+00  0.00000000000E+00 -0.20202119715E+04  0.20202119715E+04  0.50400001928E-02 0.  1.
    10030    2    1    2    0    0  0.00000000000E+00  0.00000000000E+00 -0.12297713529E+04  0.28106525901E+04  0.25273366222E+04 0.  0.
        5    1    3    3  502    0 -0.12068267570E+04  0.15254627436E+02 -0.10312511314E+04  0.15875026019E+04  0.46999998093E+01 0.  1.
       -5    1    3    3    0  502  0.12068267570E+04 -0.15254627436E+02 -0.19852022146E+03  0.12231499881E+04  0.46999998093E+01 0. -1.
</event>
<event>
 5   0  0.6909250E-05  0.1405434E+04  0.7818609E-02  0.8949895E-01
        2   -1    0    0  501    0  0.00000000000E+00  0.00000000000E+00  0.29322201450E+04  0.29322201450E+04  0.25500000920E-02 0. -1.
       -2   -1    0    0    0  501  0.00000000000E+00  0.00000000000E+00 -0.16840853278E+03  0.16840853280E+03  0.25500000920E-02 0.  1.
    10030    2    1    2    0    0  0.00000000000E+00  0.00000000000E+00  0.27638116122E+04  0.31006286778E+04  0.14054335878E+04 0.  0.
        4    1    3    3  502    0 -0.40198386305E+03 -0.42406078784E+03  0.22431348460E+04  0.23179892425E+04  0.12699999809E+01 0. -1.
       -4    1    3    3    0  502  0.40198386305E+03  0.42406078784E+03  0.52067676616E+03  0.78263943528E+03  0.12699999809E+01 0.  1.
</event>
<event>
 5   0  0.6648328E-05  0.2610319E+04  0.7818609E-02  0.8364705E-01
       -2   -1    0    0    0  501  0.00000000000E+00  0.00000000000E+00  0.84306842451E+03  0.84306842451E+03  0.25500000920E-02 0. -1.
        2   -1    0    0  501    0  0.00000000000E+00  0.00000000000E+00 -0.20205249173E+04  0.20205249173E+04  0.25500000920E-02 0.  1.
    10030    2    1    2    0    0  0.00000000000E+00  0.00000000000E+00 -0.11774564928E+04  0.28635933418E+04  0.26103185696E+04 0.  0.
        2    1    3    3  502    0 -0.98480975395E+03  0.28832623709E+03 -0.14734926138E+04  0.17955953758E+04  0.25500000920E-02 0.  1.
       -2    1    3    3    0  502  0.98480975395E+03 -0.28832623709E+03  0.29603612105E+03  0.10679979660E+04  0.25500000920E-02 0. -1.
</event>
<event>
 5   0  0.2980790E-05  0.2490560E+04  0.7818609E-02  0.8406356E-01
        1   -1    0    0  501    0  0.00000000000E+00  0.00000000000E+00  0.16932342051E+04  0.16932342051E+04  0.50400001928E-02 0.  1.
       -1   -1    0    0    0  501  0.00000000000E+00  0.00000000000E+00 -0.91583473045E+03  0.91583473047E+03  0.50400001928E-02 0. -1.
    10030    2    1    2    0    0  0.00000000000E+00  0.00000000000E+00  0.77739947467E+03  0.26090689356E+04  0.24905603320E+04 0.  0.
        5    1    3    3  502    0 -0.11402612832E+04  0.49367365840E+03  0.30237020035E+03  0.12788116761E+04  0.46999998093E+01 0.  1.
       -5    1    3    3    0  502  0.11402612832E+04 -0.49367365840E+03  0.47502927432E+03  0.13302572595E+04  0.46999998093E+01 0. -1.
</event>
<event>
 5   0  0.2977854E-05  0.1793513E+04  0.7818609E-02  0.8709757E-01
        1   -1    0    0  501    0  0.00000000000E+00  0.00000000000E+00  0.10574145316E+04  0.10574145317E+04  0.50400001928E-02 0. -1.
       -1   -1    0    0    0  501  0.00000000000E+00  0.00000000000E+00 -0.76050809063E+03  0.76050809064E+03  0.50400001928E-02 0.  1.
    10030    2    1    2    0    0  0.00000000000E+00  0.00000000000E+00  0.29690644102E+03  0.18179226223E+04  0.17935130961E+04 0.  0.
        1    1    3    3  502    0  0.26393189307E+03 -0.83343615439E+03 -0.54006162010E+02  0.87589527524E+03  0.50400001928E-02 0. -1.
       -1    1    3    3    0  502 -0.26393189307E+03  0.83343615439E+03  0.35091260303E+03  0.94202734706E+03  0.50400001928E-02 0.  1.
</event>
<event>
 5   0  0.6827859E-05  0.2571299E+04  0.7818609E-02  0.8378016E-01
        2   -1    0    0  501    0  0.00000000000E+00  0.00000000000E+00  0.13847321458E+04  0.13847321458E+04  0.25500000920E-02 0.  1.
       -2   -1    0    0    0  501  0.00000000000E+00  0.00000000000E+00 -0.11936569525E+04  0.11936569525E+04  0.25500000920E-02 0. -1.
    10030    2    1    2    0    0  0.00000000000E+00  0.00000000000E+00  0.19107519335E+03  0.25783890983E+04  0.25712994017E+04 0.  0.
        3    1    3    3  502    0  0.11346772013E+04 -0.14532465875E+03 -0.49283702846E+03  0.12455922103E+04  0.10100000352E+00 0. -1.
       -3    1    3    3    0  502 -0.11346772013E+04  0.14532465875E+03  0.68391222180E+03  0.13327968881E+04  0.10100000352E+00 0.  1.
</event>
<event>
 5   0  0.6909250E-05  0.2067357E+04  0.7818609E-02  0.8575761E-01
       -2   -1    0    0    0  501  0.00000000000E+00  0.00000000000E+00  0.72804203821E+03  0.72804203821E+03  0.25500000920E-02 0. -1.
        2   -1    0    0  501    0  0.00000000000E+00  0.00000000000E+00 -0.14676230889E+04  0.14676230889E+04  0.25500000920E-02 0.  1.
    10030    2    1    2    0    0  0.00000000000E+00  0.00000000000E+00 -0.73958105066E+03  0.21956651271E+04  0.20673570615E+04 0.  0.
        4    1    3    3  502    0 -0.99769090284E+03 -0.16729642203E+03 -0.59537463369E+03  0.11738176169E+04  0.12699999809E+01 0. -1.
       -4    1    3    3    0  502  0.99769090284E+03  0.16729642203E+03 -0.14420641697E+03  0.10218475102E+04  0.12699999809E+01 0.  1.
</event>
<event>
 5   0  0.6909250E-05  0.1286450E+04  0.7818609E-02  0.9040380E-01
        2   -1    0    0  501    0  0.00000000000E+00  0.00000000000E+00  0.24158239599E+03  0.24158239600E+03  0.25500000920E-02 0.  1.
       -2   -1    0    0    0  501  0.00000000000E+00  0.00000000000E+00 -0.17126187564E+04  0.17126187564E+04  0.25500000920E-02 0. -1.
    10030    2    1    2    0    0  0.00000000000E+00  0.00000000000E+00 -0.14710363604E+04  0.19542011524E+04  0.12864502207E+04 0.  0.
        4    1    3    3  502    0  0.51346961119E+03 -0.24244142576E+03 -0.27649903809E+03  0.63157122916E+03  0.12699999809E+01 0.  1.
       -4    1    3    3    0  502 -0.51346961119E+03  0.24244142576E+03 -0.11945373223E+04  0.13226299233E+04  0.12699999809E+01 0. -1.
</event>
<event>
 5   0  0.2777539E-05  0.2463618E+04  0.7818609E-02  0.8416063E-01
       -1   -1    0    0    0  501  0.00000000000E+00  0.00000000000E+00  0.66223811927E+03  0.66223811929E+03  0.50400001928E-02 0. -1.
        1   -1    0    0  501    0  0.00000000000E+00  0.00000000000E+00 -0.22912510114E+04  0.22912510114E+04  0.50400001928E-02 0.  1.
    10030    2    1    2    0    0  0.00000000000E+00  0.00000000000E+00 -0.16290128921E+04  0.29534891307E+04  0.24636182826E+04 0.  0.
        3    1    3    3  502    0 -0.58062265767E+02 -0.33682436888E+03  0.60425198793E+03  0.69422068342E+03  0.10100000352E+00 0. -1.
       -3    1    3    3    0  502  0.58062265767E+02  0.33682436888E+03 -0.22332648801E+04  0.22592684473E+04  0.10100000352E+00 0.  1.
</event>
<event>
 5   0  0.2777539E-05  0.2491244E+04  0.7818609E-02  0.8406112E-01
        1   -1    0    0  501    0  0.00000000000E+00  0.00000000000E+00  0.68884838601E+03  0.68884838603E+03  0.50400001928E-02 0.  1.
       -1   -1    0    0    0  501  0.00000000000E+00  0.00000000000E+00 -0.22524174632E+04  0.22524174632E+04  0.50400001928E-02 0. -1.
    10030    2    1    2    0    0  0.00000000000E+00  0.00000000000E+00 -0.15635690772E+04  0.29412658492E+04  0.24912439737E+04 0.  0.
        3    1    3    3  502    0  0.50181540541E+03 -0.72132694825E+02 -0.21250993989E+04  0.21847355199E+04  0.10100000352E+00 0. -1.
       -3    1    3    3    0  502 -0.50181540541E+03  0.72132694825E+02  0.56153032168E+03  0.75653032929E+03  0.10100000352E+00 0.  1.
</event>
<event>
 5   0  0.2977854E-05  0.2482937E+04  0.7818609E-02  0.8409090E-01
        1   -1    0    0  501    0  0.00000000000E+00  0.00000000000E+00  0.15860129027E+04  0.15860129027E+04  0.50400001928E-02 0. -1.
       -1   -1    0    0    0  501  0.00000000000E+00  0.00000000000E+00 -0.97177250092E+03  0.97177250093E+03  0.50400001928E-02 0.  1.
    10030    2    1    2    0    0  0.00000000000E+00  0.00000000000E+00  0.61424040176E+03  0.25577854036E+04  0.24829367491E+04 0.  0.
        1    1    3    3  502    0  0.45954611267E+03  0.84533958016E+03 -0.50104305673E+03  0.10848160121E+04  0.50400001928E-02 0.  1.
       -1    1    3    3    0  502 -0.45954611267E+03 -0.84533958016E+03  0.11152834585E+04  0.14729693915E+04  0.50400001928E-02 0. -1.
</event>
<event>
 5   0  0.2793920E-05  0.2117163E+04  0.7818609E-02  0.8553720E-01
       -1   -1    0    0    0  501  0.00000000000E+00  0.00000000000E+00  0.10125733105E+04  0.10125733105E+04  0.50400001928E-02 0.  1.
        1   -1    0    0  501    0  0.00000000000E+00  0.00000000000E+00 -0.11066804791E+04  0.11066804791E+04  0.50400001928E-02 0. -1.
    10030    2    1    2    0    0  0.00000000000E+00  0.00000000000E+00 -0.94107168573E+02  0.21192537896E+04  0.21171633063E+04 0.  0.
        2    1    3    3  502    0  0.35040714422E+03  0.60905171386E+03  0.74547685891E+03  0.10244339432E+04  0.25500000920E-02 0.  1.
       -2    1    3    3    0  502 -0.35040714422E+03 -0.60905171386E+03 -0.83958402748E+03  0.10948198464E+04  0.25500000920E-02 0. -1.
</event>
<event>
 5   0  0.6827859E-05  0.1689528E+04  0.7818609E-02  0.8767359E-01
        2   -1    0    0  501    0  0.00000000000E+00  0.00000000000E+00  0.10829765791E+04  0.10829765791E+04  0.25500000920E-02 0.  1.
       -2   -1    0    0    0  501  0.00000000000E+00  0.00000000000E+00 -0.65894913236E+03  0.65894913236E+03  0.25500000920E-02 0. -1.
    10030    2    1    2    0    0  0.00000000000E+00  0.00000000000E+00  0.42402744673E+03  0.17419257115E+04  0.16895283095E+04 0.  0.
        3    1    3    3  502    0  0.65838667600E+03 -0.47638357873E+03  0.44984529714E+03  0.92885689467E+03  0.10100000352E+00 0. -1.
       -3    1    3    3    0  502 -0.65838667600E+03  0.47638357873E+03 -0.25817850408E+02  0.81306881678E+03  0.10100000352E+00 0.  1.
</event>
<event>
 5   0  0.6827859E-05  0.2519168E+04  0.7818609E-02  0.8396188E-01
        2   -1    0    0  501    0  0.00000000000E+00  0.00000000000E+00  0.17384894551E+04  0.17384894551E+04  0.25500000920E-02 0. -1.
       -2   -1    0    0    0  501  0.00000000000E+00  0.00000000000E+00 -0.91260371438E+03  0.91260371438E+03  0.25500000920E-02 0.  1.
    10030    2    1    2    0    0  0.00000000000E+00  0.00000000000E+00  0.82588574067E+03  0.26510931694E+04  0.25191680643E+04 0.  0.
        3    1    3    3  502    0 -0.90684657096E+03  0.69305218798E+03 -0.14774332078E+03  0.11508779855E+04  0.10100000352E+00 0. -1.
       -3    1    3    3    0  502  0.90684657096E+03 -0.69305218798E+03  0.97362906146E+03  0.15002151839E+04  0.10100000352E+00 0.  1.
</event>
<event>
 5   0  0.2777539E-05  0.2570624E+04  0.7818609E-02  0.8378249E-01
        1   -1    0    0  501    0  0.00000000000E+00  0.00000000000E+00  0.16110189146E+04  0.16110189146E+04  0.50400001928E-02 0.  1.
       -1   -1    0    0    0  501  0.00000000000E+00  0.00000000000E+00 -0.10254547994E+04  0.10254547994E+04  0.50400001928E-02 0. -1.
    10030    2    1    2    0    0  0.00000000000E+00  0.00000000000E+00  0.58556411516E+03  0.26364737140E+04  0.25706241094E+04 0.  0.
        3    1    3    3  502    0 -0.11152343165E+04 -0.60546940943E+03  0.50218435716E+03  0.13647453701E+04  0.10100000352E+00 0. -1.
       -3    1    3    3    0  502  0.11152343165E+04  0.60546940943E+03  0.83379758001E+02  0.12717283439E+04  0.10100000352E+00 0.  1.
</event>
<event>
 5   0  0.6648328E-05  0.2479655E+04  0.7818609E-02  0.8410269E-01
       -2   -1    0    0    0  501  0.00000000000E+00  0.00000000000E+00  0.51864299768E+03  0.51864299769E+03  0.25500000920E-02 0. -1.
        2   -1    0    0  501    0  0.00000000000E+00  0.00000000000E+00 -0.29638355151E+04  0.29638355151E+04  0.25500000920E-02 0.  1.
    10030    2    1    2    0    0  0.00000000000E+00  0.00000000000E+00 -0.24451925174E+04  0.34824785128E+04  0.24796552472E+04 0.  0.
        2    1    3    3  502    0 -0.10173235109E+04 -0.48966093659E+03 -0.50310304909E+03  0.12360532499E+04  0.25500000920E-02 0.  1.
       -2    1    3    3    0  502  0.10173235109E+04  0.48966093659E+03 -0.19420894684E+04  0.22464252629E+04  0.25500000920E-02 0. -1.
</event>
<event>
 5   0  0.6445331E-05  0.1332267E+04  0.7818609E-02  0.9004361E-01
       -2   -1    0    0    0  501  0.00000000000E+00  0.00000000000E+00  0.40568397194E+03  0.40568397195E+03  0.25500000920E-02 0.  1.
        2   -1    0    0  501    0  0.00000000000E+00  0.00000000000E+00 -0.10937919599E+04  0.10937919599E+04  0.25500000920E-02 0. -1.
    10030    2    1    2    0    0  0.00000000000E+00  0.00000000000E+00 -0.68810798797E+03  0.14994759319E+04  0.13322670405E+04 0.  0.
        1    1    3    3  502    0  0.21621917916E+03 -0.48975593024E+03 -0.79018979663E+03  0.95446923437E+03  0.50400001928E-02 0. -1.
       -1    1    3    3    0  502 -0.21621917916E+03  0.48975593024E+03  0.10208180866E+03  0.54500669750E+03  0.50400001928E-02 0.  1.
</event>
<event>
 5   0  0.6909250E-05  0.2426341E+04  0.7818609E-02  0.8429707E-01
        2   -1    0    0  501    0  0.00000000000E+00  0.00000000000E+00  0.13370786889E+04  0.13370786889E+04  0.25500000920E-02 0. -1.
       -2   -1    0    0    0  501  0.00000000000E+00  0.00000000000E+00 -0.11007450291E+04  0.11007450291E+04  0.25500000920E-02 0.  1.
    10030    2    1    2    0    0  0.00000000000E+00  0.00000000000E+00  0.23633365973E+03  0.24378237180E+04  0.24263410480E+04 0.  0.
        4    1    3    3  502    0  0.33874983993E+03 -0.37743645248E+02  0.12879814501E+04  0.13323189804E+04  0.12699999809E+01 0. -1.
       -4    1    3    3    0  502 -0.33874983993E+03  0.37743645248E+02 -0.10516477904E+04  0.11055047376E+04  0.12699999809E+01 0.  1.
</event>
<event>
 5   0  0.2980790E-05  0.2490964E+04  0.7818609E-02  0.8406212E-01
        1   -1    0    0  501    0  0.00000000000E+00  0.00000000000E+00  0.26873194000E+04  0.26873194000E+04  0.50400001928E-02 0.  1.
       -1   -1    0    0    0  501  0.00000000000E+00  0.00000000000E+00 -0.57723874754E+03  0.57723874756E+03  0.50400001928E-02 0. -1.
    10030    2    1    2    0    0  0.00000000000E+00  0.00000000000E+00  0.21100806524E+04  0.32645581476E+04  0.24909635764E+04 0.  0.
        5    1    3    3  502    0 -0.95753191968E+03  0.23089165479E+03  0.56066200673E+02  0.98658189843E+03  0.46999998093E+01 0.  1.
       -5    1    3    3    0  502  0.95753191968E+03 -0.23089165479E+03  0.20540144518E+04  0.22779762491E+04  0.46999998093E+01 0. -1.
</event>
<event>
 5   0  0.6445331E-05  0.1944747E+04  0.7818609E-02  0.8632898E-01
       -2   -1    0    0    0  501  0.00000000000E+00  0.00000000000E+00  0.94006541953E+03  0.94006541953E+03  0.25500000920E-02 0.  1.
        2   -1    0    0  501    0  0.00000000000E+00  0.00000000000E+00 -0.10057923293E+04  0.10057923293E+04  0.25500000920E-02 0. -1.
    10030    2    1    2    0    0  0.00000000000E+00  0.00000000000E+00 -0.65726909808E+02  0.19458577489E+04  0.19447473749E+04 0.  0.
        1    1    3    3  502    0 -0.96182251087E+03 -0.10042618788E+03 -0.13452179141E+03  0.97636267545E+03  0.50400001928E-02 0. -1.
       -1    1    3    3    0  502  0.96182251087E+03  0.10042618788E+03  0.68794881603E+02  0.96949507342E+03  0.50400001928E-02 0.  1.
</event>
<event>
 5   0  0.6827859E-05  0.2477936E+04  0.7818609E-02  0.8410888E-01
        2   -1    0    0  501    0  0.00000000000E+00  0.00000000000E+00  0.17303230604E+04  0.17303230604E+04  0.25500000920E-02 0. -1.
       -2   -1    0    0    0  501  0.00000000000E+00  0.00000000000E+00 -0.88714201768E+03  0.88714201769E+03  0.25500000920E-02 0.  1.
    10030    2    1    2    0    0  0.00000000000E+00  0.00000000000E+00  0.84318104268E+03  0.26174650781E+04  0.24779364730E+04 0.  0.
        3    1    3    3  502    0 -0.85533527046E+03  0.63392283728E+03 -0.24780043963E+03  0.10930972768E+04  0.10100000352E+00 0.  1.
       -3    1    3    3    0  502  0.85533527046E+03 -0.63392283728E+03  0.10909814823E+04  0.15243678012E+04  0.10100000352E+00 0. -1.
</event>
<event>
 5   0  0.2896652E-05  0.2376163E+04  0.7818609E-02  0.8448482E-01
       -1   -1    0    0    0  501  0.00000000000E+00  0.00000000000E+00  0.94768198275E+03  0.94768198277E+03  0.50400001928E-02 0.  1.
        1   -1    0    0  501    0  0.00000000000E+00  0.00000000000E+00 -0.14894639180E+04  0.14894639180E+04  0.50400001928E-02 0. -1.
    10030    2    1    2    0    0  0.00000000000E+00  0.00000000000E+00 -0.54178193520E+03  0.24371459007E+04  0.23761633942E+04 0.  0.
        4    1    3    3  502    0 -0.69972427380E+03  0.55837910602E+03 -0.10720491563E+04  0.13966718626E+04  0.12699999809E+01 0. -1.
       -4    1    3    3    0  502  0.69972427380E+03 -0.55837910602E+03  0.53026722108E+03  0.10404740381E+04  0.12699999809E+01 0.  1.
</event>
<event>
 5   0  0.7071821E-05  0.2388029E+04  0.7818609E-02  0.8443999E-01
        2   -1    0    0  501    0  0.00000000000E+00  0.00000000000E+00  0.19890974193E+04  0.19890974193E+04  0.25500000920E-02 0. -1.
       -2   -1    0    0    0  501  0.00000000000E+00  0.00000000000E+00 -0.71674243823E+03  0.71674243823E+03  0.25500000920E-02 0.  1.
    10030    2    1    2    0    0  0.00000000000E+00  0.00000000000E+00  0.12723549810E+04  0.27058398575E+04  0.23880289229E+04 0.  0.
        5    1    3    3  502    0 -0.82327854281E+03 -0.50609178188E+03 -0.15838258659E+03  0.97929749539E+03  0.46999998093E+01 0.  1.
       -5    1    3    3    0  502  0.82327854281E+03  0.50609178188E+03  0.14307375676E+04  0.17265423621E+04  0.46999998093E+01 0. -1.
</event>
<event>
 5   0  0.6648328E-05  0.2549283E+04  0.7818609E-02  0.8385635E-01
       -2   -1    0    0    0  501  0.00000000000E+00  0.00000000000E+00  0.17325896355E+04  0.17325896355E+04  0.25500000920E-02 0.  1.
        2   -1    0    0  501    0  0.00000000000E+00  0.00000000000E+00 -0.93773591970E+03  0.93773591970E+03  0.25500000920E-02 0. -1.
    10030    2    1    2    0    0  0.00000000000E+00  0.00000000000E+00  0.79485371581E+03  0.26703255552E+04  0.25492834564E+04 0.  0.
        2    1    3    3  502    0 -0.61048856439E+03  0.79855524433E+03  0.12184305264E+04  0.15795441472E+04  0.25500000920E-02 0.  1.
       -2    1    3    3    0  502  0.61048856439E+03 -0.79855524433E+03 -0.42357681056E+03  0.10907814080E+04  0.25500000920E-02 0. -1.
</event>
<event>
 5   0  0.6648328E-05  0.2514173E+04  0.7818609E-02  0.8397954E-01
       -2   -1    0    0    0  501  0.00000000000E+00  0.00000000000E+00  0.26198091256E+04  0.26198091256E+04  0.25500000920E-02 0.  1.
        2   -1    0    0  501    0  0.00000000000E+00  0.00000000000E+00 -0.60319932072E+03  0.60319932073E+03  0.25500000920E-02 0. -1.
    10030    2    1    2    0    0  0.00000000000E+00  0.00000000000E+00  0.20166098049E+04  0.32230084463E+04  0.25141734904E+04 0.  0.
        2    1    3    3  502    0  0.20622201336E+03  0.65996886088E+03 -0.33753250595E+03  0.76942485579E+03  0.25500000920E-02 0. -1.
       -2    1    3    3    0  502 -0.20622201336E+03 -0.65996886088E+03  0.23541423108E+04  0.24535835905E+04  0.25500000920E-02 0.  1.
</event>
<event>
 5   0  0.2777539E-05  0.2683162E+04  0.7818609E-02  0.8340489E-01
       -1   -1    0    0    0  501  0.00000000000E+00  0.00000000000E+00  0.12444683150E+04  0.12444683150E+04  0.50400001928E-02 0.  1.
        1   -1    0    0  501    0  0.00000000000E+00  0.00000000000E+00 -0.14462718680E+04  0.14462718680E+04  0.50400001928E-02 0. -1.
    10030    2    1    2    0    0  0.00000000000E+00  0.00000000000E+00 -0.20180355295E+03  0.26907401830E+04  0.26831619516E+04 0.  0.
        3    1    3    3  502    0 -0.13381579923E+04 -0.90073366443E+02 -0.68260180062E+02  0.13429219956E+04  0.10100000352E+00 0.  1.
       -3    1    3    3    0  502  0.13381579923E+04  0.90073366443E+02 -0.13354337289E+03  0.13478181875E+04  0.10100000352E+00 0. -1.
</event>
<event>
 5   0  0.2793920E-05  0.2637573E+04  0.7818609E-02  0.8355549E-01
        1   -1    0    0  501    0  0.00000000000E+00  0.00000000000E+00  0.10856862845E+04  0.10856862845E+04  0.50400001928E-02 0. -1.
       -1   -1    0    0    0  501  0.00000000000E+00  0.00000000000E+00 -0.16019339199E+04  0.16019339199E+04  0.50400001928E-02 0.  1.
    10030    2    1    2    0    0  0.00000000000E+00  0.00000000000E+00 -0.51624763540E+03  0.26876202043E+04  0.26375728884E+04 0.  0.
        2    1    3    3  502    0 -0.10675932266E+04  0.14760031817E+03 -0.10325825346E+04  0.14925708834E+04  0.25500000920E-02 0.  1.
       -2    1    3    3    0  502  0.10675932266E+04 -0.14760031817E+03  0.51633489916E+03  0.11950493209E+04  0.25500000920E-02 0. -1.
</event>
<event>
 5   0  0.6445331E-05  0.2461022E+04  0.7818609E-02  0.8417005E-01
       -2   -1    0    0    0  501  0.00000000000E+00  0.00000000000E+00  0.62355905741E+03  0.62355905741E+03  0.25500000920E-02 0. -1.
        2   -1    0    0  501    0  0.00000000000E+00  0.00000000000E+00 -0.24282500573E+04  0.24282500573E+04  0.25500000920E-02 0.  1.
    10030    2    1    2    0    0  0.00000000000E+00  0.00000000000E+00 -0.18046909999E+04  0.30518091147E+04  0.24610219965E+04 0.  0.
        1    1    3    3  502    0 -0.83971285797E+02  0.66965577296E+03 -0.21782601289E+04  0.22804182117E+04  0.50400001928E-02 0.  1.
       -1    1    3    3    0  502  0.83971285797E+02 -0.66965577296E+03  0.37356912900E+03  0.77139090302E+03  0.50400001928E-02 0. -1.
</event>
<event>
 5   0  0.2793920E-05  0.2586804E+04  0.7818609E-02  0.8372697E-01
        1   -1    0    0  501    0  0.00000000000E+00  0.00000000000E+00  0.87435041932E+03  0.87435041933E+03  0.50400001928E-02 0.  1.
       -1   -1    0    0    0  501  0.00000000000E+00  0.00000000000E+00 -0.19132929965E+04  0.19132929965E+04  0.50400001928E-02 0. -1.
    10030    2    1    2    0    0  0.00000000000E+00  0.00000000000E+00 -0.10389425772E+04  0.27876434158E+04  0.25868038455E+04 0.  0.
        2    1    3    3  502    0  0.91958950217E+03  0.14116778481E+03  0.44879614159E+03  0.10329526478E+04  0.25500000920E-02 0.  1.
       -2    1    3    3    0  502 -0.91958950217E+03 -0.14116778481E+03 -0.14877387188E+04  0.17546907680E+04  0.25500000920E-02 0. -1.
</event>
<event>
 5   0  0.2980790E-05  0.1934968E+04  0.7818609E-02  0.8637644E-01
        1   -1    0    0  501    0  0.00000000000E+00  0.00000000000E+00  0.40701746971E+03  0.40701746974E+03  0.50400001928E-02 0. -1.
       -1   -1    0    0    0  501  0.00000000000E+00  0.00000000000E+00 -0.22997185985E+04  0.22997185985E+04  0.50400001928E-02 0.  1.
    10030    2    1    2    0    0  0.00000000000E+00  0.00000000000E+00 -0.18927011287E+04  0.27067360682E+04  0.19349683667E+04 0.  0.
        5    1    3    3  502    0  0.72421187631E+03  0.12289020754E+03 -0.18270933870E+04  0.19692326373E+04  0.46999998093E+01 0.  1.
       -5    1    3    3    0  502 -0.72421187631E+03 -0.12289020754E+03 -0.65607741771E+02  0.73750343096E+03  0.46999998093E+01 0. -1.
</event>
<event>
 5   0  0.7071821E-05  0.1340832E+04  0.7818609E-02  0.8997797E-01
        2   -1    0    0  501    0  0.00000000000E+00  0.00000000000E+00  0.20961300367E+04  0.20961300367E+04  0.25500000920E-02 0.  1.
       -2   -1    0    0    0  501  0.00000000000E+00  0.00000000000E+00 -0.21442251474E+03  0.21442251475E+03  0.25500000920E-02 0. -1.
    10030    2    1    2    0    0  0.00000000000E+00  0.00000000000E+00  0.18817075219E+04  0.23105525514E+04  0.13408317921E+04 0.  0.
        5    1    3    3  502    0  0.54941259131E+03 -0.24674070800E+02  0.16014854666E+04  0.16932928852E+04  0.46999998093E+01 0.  1.
       -5    1    3    3    0  502 -0.54941259131E+03  0.24674070800E+02  0.28022205530E+03  0.61725966621E+03  0.46999998093E+01 0. -1.
</event>
<event>
 5   0  0.2793920E-05  0.2629429E+04  0.7818609E-02  0.8358273E-01
       -1   -1    0    0    0  501  0.00000000000E+00  0.00000000000E+00  0.10533154588E+04  0.10533154588E+04  0.50400001928E-02 0. -1.
        1   -1    0    0  501    0  0.00000000000E+00  0.00000000000E+00 -0.16409843241E+04  0.16409843241E+04  0.50400001928E-02 0.  1.
    10030    2    1    2    0    0  0.00000000000E+00  0.00000000000E+00 -0.58766886526E+03  0.26942997829E+04  0.26294289541E+04 0.  0.
        2    1    3    3  502    0  0.34539630987E+02  0.45684697183E+03  0.96887135554E+03  0.10717340367E+04  0.25500000920E-02 0. -1.
       -2    1    3    3    0  502 -0.34539630987E+02 -0.45684697183E+03 -0.15565402208E+04  0.16225657462E+04  0.25500000920E-02 0.  1.
</event>
<event>
 5   0  0.2777539E-05  0.2563134E+04  0.7818609E-02  0.8380832E-01
       -1   -1    0    0    0  501  0.00000000000E+00  0.00000000000E+00  0.81774033211E+03  0.81774033213E+03  0.50400001928E-02 0.  1.
        1   -1    0    0  501    0  0.00000000000E+00  0.00000000000E+00 -0.20084793913E+04  0.20084793913E+04  0.50400001928E-02 0. -1.
    10030    2    1    2    0    0  0.00000000000E+00  0.00000000000E+00 -0.11907390592E+04  0.28262197234E+04  0.25631344908E+04 0.  0.
        3    1    3    3  502    0 -0.31521223148E+03 -0.11958843726E+04 -0.96589072843E+03  0.15692173505E+04  0.10100000352E+00 0. -1.
       -3    1    3    3    0  502  0.31521223148E+03  0.11958843726E+04 -0.22484833077E+03  0.12570023730E+04  0.10100000352E+00 0.  1.
</event>
<event>
 5   0  0.2980790E-05  0.2310703E+04  0.7818609E-02  0.8473713E-01
        1   -1    0    0  501    0  0.00000000000E+00  0.00000000000E+00  0.24790049051E+04  0.24790049051E+04  0.50400001928E-02 0.  1.
       -1   -1    0    0    0  501  0.00000000000E+00  0.00000000000E+00 -0.53845691621E+03  0.53845691623E+03  0.50400001928E-02 0. -1.
    10030    2    1    2    0    0  0.00000000000E+00  0.00000000000E+00  0.19405479889E+04  0.30174618214E+04  0.23107032146E+04 0.  0.
        5    1    3    3  502    0 -0.58983252838E+03 -0.14561256424E+03 -0.31300456494E+03  0.68344669000E+03  0.46999998093E+01 0. -1.
       -5    1    3    3    0  502  0.58983252838E+03  0.14561256424E+03  0.22535525539E+04  0.23340151314E+04  0.46999998093E+01 0.  1.
</event>
<event>
 5   0  0.6648328E-05  0.2420749E+04  0.7818609E-02  0.8431776E-01
       -2   -1    0    0    0  501  0.00000000000E+00  0.00000000000E+00  0.72597263736E+03  0.72597263736E+03  0.25500000920E-02 0.  1.
        2   -1    0    0  501    0  0.00000000000E+00  0.00000000000E+00 -0.20179906736E+04  0.20179906736E+04  0.25500000920E-02 0. -1.
    10030    2    1    2    0    0  0.00000000000E+00  0.00000000000E+00 -0.12920180363E+04  0.27439633110E+04  0.24207486540E+04 0.  0.
        2    1    3    3  502    0 -0.86039117872E+03 -0.75287368536E+03 -0.10964514093E+04  0.15840762164E+04  0.25500000920E-02 0. -1.
       -2    1    3    3    0  502  0.86039117872E+03  0.75287368536E+03 -0.19556662699E+03  0.11598870946E+04  0.25500000920E-02 0.  1.
</event>
<event>
 5   0  0.6445331E-05  0.2801872E+04  0.7818609E-02  0.8302688E-01
       -2   -1    0    0    0  501  0.00000000000E+00  0.00000000000E+00  0.12025468529E+04  0.12025468529E+04  0.25500000920E-02 0.  1.
        2   -1    0    0  501    0  0.00000000000E+00  0.00000000000E+00 -0.16320538495E+04  0.16320538495E+04  0.25500000920E-02 0. -1.
    10030    2    1    2    0    0  0.00000000000E+00  0.00000000000E+00 -0.42950699662E+03  0.28346007023E+04  0.28018716747E+04 0.  0.
        1    1    3    3  502    0  0.94809479041E+03 -0.57299716457E+03 -0.10823322928E+04  0.15487584299E+04  0.50400001928E-02 0. -1.
       -1    1    3    3    0  502 -0.94809479041E+03  0.57299716457E+03  0.65282529616E+03  0.12858422724E+04  0.50400001928E-02 0.  1.
</event>
<event>
 5   0  0.2777539E-05  0.1431640E+04  0.7818609E-02  0.8931229E-01
       -1   -1    0    0    0  501  0.00000000000E+00  0.00000000000E+00  0.45852570083E+03  0.45852570086E+03  0.50400001928E-02 0.  1.
        1   -1    0    0  501    0  0.00000000000E+00  0.00000000000E+00 -0.11174902173E+04  0.11174902173E+04  0.50400001928E-02 0. -1.
    10030    2    1    2    0    0  0.00000000000E+00  0.00000000000E+00 -0.65896451647E+03  0.15760159182E+04  0.14316395986E+04 0.  0.
        3    1    3    3  502    0 -0.12974906583E+03  0.26361389985E+03 -0.10480501660E+04  0.10884559104E+04  0.10100000352E+00 0. -1.
       -3    1    3    3    0  502  0.12974906583E+03 -0.26361389985E+03  0.38908564953E+03  0.48756000774E+03  0.10100000352E+00 0.  1.
</event>
<event>
 5   0  0.6445331E-05  0.2449288E+04  0.7818609E-02  0.8421278E-01
        2   -1    0    0  501    0  0.00000000000E+00  0.00000000000E+00  0.13427670349E+04  0.13427670349E+04  0.25500000920E-02 0.  1.
       -2   -1    0    0    0  501  0.00000000000E+00  0.00000000000E+00 -0.11169119825E+04  0.11169119825E+04  0.25500000920E-02 0. -1.
    10030    2    1    2    0    0  0.00000000000E+00  0.00000000000E+00  0.22585505236E+03  0.24596790174E+04  0.24492877259E+04 0.  0.
        1    1    3    3  502    0  0.37511719044E+03  0.50066188946E+03 -0.94433405898E+03  0.11327586014E+04  0.50400001928E-02 0. -1.
       -1    1    3    3    0  502 -0.37511719044E+03 -0.50066188946E+03  0.11701891113E+04  0.13269204160E+04  0.50400001928E-02 0.  1.
</event>
<event>
 5   0  0.6445331E-05  0.2473203E+04  0.7818609E-02  0.8412595E-01
        2   -1    0    0  501    0  0.00000000000E+00  0.00000000000E+00  0.19467045125E+04  0.19467045125E+04  0.25500000920E-02 0. -1.
       -2   -1    0    0    0  501  0.00000000000E+00  0.00000000000E+00 -0.78552381974E+03  0.78552381974E+03  0.25500000920E-02 0.  1.
    10030    2    1    2    0    0  0.00000000000E+00  0.00000000000E+00  0.11611806928E+04  0.27322283322E+04  0.24732025914E+04 0.  0.
        1    1    3    3  502    0 -0.62245445605E+03  0.39049180639E+03  0.16793689338E+04  0.18330884912E+04  0.50400001928E-02 0. -1.
       -1    1    3    3    0  502  0.62245445605E+03 -0.39049180639E+03 -0.51818824099E+03  0.89913984109E+03  0.50400001928E-02 0.  1.
</event>
<event>
 5   0  0.7071821E-05  0.2554225E+04  0.7818609E-02  0.8383918E-01
       -2   -1    0    0    0  501  0.00000000000E+00  0.00000000000E+00  0.17229696575E+04  0.17229696575E+04  0.25500000920E-02 0.  1.
        2   -1    0    0  501    0  0.00000000000E+00  0.00000000000E+00 -0.94663093580E+03  0.94663093580E+03  0.25500000920E-02 0. -1.
    10030    2    1    2    0    0  0.00000000000E+00  0.00000000000E+00  0.77633872170E+03  0.26696005933E+04  0.25542250326E+04 0.  0.
        5    1    3    3  502    0  0.81191325468E+03  0.52505675096E+03 -0.48384773216E+03  0.10812115624E+04  0.46999998093E+01 0. -1.
       -5    1    3    3    0  502 -0.81191325468E+03 -0.52505675096E+03  0.12601864539E+04  0.15883890309E+04  0.46999998093E+01 0.  1.
</event>
<event>
 5   0  0.6827859E-05  0.2470401E+04  0.7818609E-02  0.8413607E-01
        2   -1    0    0  501    0  0.00000000000E+00  0.00000000000E+00  0.13681275811E+04  0.13681275811E+04  0.25500000920E-02 0. -1.
       -2   -1    0    0    0  501  0.00000000000E+00  0.00000000000E+00 -0.11151884062E+04  0.11151884062E+04  0.25500000920E-02 0.  1.
    10030    2    1    2    0    0  0.00000000000E+00  0.00000000000E+00  0.25293917491E+03  0.24833159873E+04  0.24704007906E+04 0.  0.
        3    1    3    3  502    0 -0.91138366143E+03 -0.73003627551E+03  0.53124939943E+03  0.12828870085E+04  0.10100000352E+00 0. -1.
       -3    1    3    3    0  502  0.91138366143E+03  0.73003627551E+03 -0.27831022452E+03  0.12004289788E+04  0.10100000352E+00 0.  1.
</event>
<event>
 5   0  0.2977854E-05  0.2382041E+04  0.7818609E-02  0.8446258E-01
        1   -1    0    0  501    0  0.00000000000E+00  0.00000000000E+00  0.14408345892E+04  0.14408345892E+04  0.50400001928E-02 0. -1.
       -1   -1    0    0    0  501  0.00000000000E+00  0.00000000000E+00 -0.98451982766E+03  0.98451982767E+03  0.50400001928E-02 0.  1.
    10030    2    1    2    0    0  0.00000000000E+00  0.00000000000E+00  0.45631476155E+03  0.24253544169E+04  0.23820413275E+04 0.  0.
        1    1    3    3  502    0 -0.85918200803E+03 -0.59938231395E+03 -0.34878274821E+03  0.11041296512E+04  0.50400001928E-02 0.  1.
       -1    1    3    3    0  502  0.85918200803E+03  0.59938231395E+03  0.80509750977E+03  0.13212247657E+04  0.50400001928E-02 0. -1.
</event>
<event>
 5   0  0.2977854E-05  0.2438055E+04  0.7818609E-02  0.8425392E-01
        1   -1    0    0  501    0  0.00000000000E+00  0.00000000000E+00  0.13691982493E+04  0.13691982493E+04  0.50400001928E-02 0. -1.
       -1   -1    0    0    0  501  0.00000000000E+00  0.00000000000E+00 -0.10853270856E+04  0.10853270856E+04  0.50400001928E-02 0.  1.
    10030    2    1    2    0    0  0.00000000000E+00  0.00000000000E+00  0.28387116370E+03  0.24545253350E+04  0.24380549178E+04 0.  0.
        1    1    3    3  502    0 -0.32302793022E+03 -0.69156473455E+03 -0.81496908790E+03  0.11165945728E+04  0.50400001928E-02 0.  1.
       -1    1    3    3    0  502  0.32302793022E+03  0.69156473455E+03  0.10988402516E+04  0.13379307622E+04  0.50400001928E-02 0. -1.
</event>
<event>
 5   0  0.2977854E-05  0.2323813E+04  0.7818609E-02  0.8468591E-01
       -1   -1    0    0    0  501  0.00000000000E+00  0.00000000000E+00  0.11324249934E+04  0.11324249935E+04  0.50400001928E-02 0. -1.
        1   -1    0    0  501    0  0.00000000000E+00  0.00000000000E+00 -0.11921553097E+04  0.11921553097E+04  0.50400001928E-02 0.  1.
    10030    2    1    2    0    0  0.00000000000E+00  0.00000000000E+00 -0.59730316207E+02  0.23245803031E+04  0.23238127883E+04 0.  0.
        1    1    3    3  502    0  0.74626840921E+03 -0.71675184437E+03  0.49887040976E+03  0.11487042399E+04  0.50400001928E-02 0. -1.
       -1    1    3    3    0  502 -0.74626840921E+03  0.71675184437E+03 -0.55860072597E+03  0.11758760632E+04  0.50400001928E-02 0.  1.
</event>
<event>
 5   0  0.7071821E-05  0.1314775E+04  0.7818609E-02  0.9017930E-01
        2   -1    0    0  501    0  0.00000000000E+00  0.00000000000E+00  0.93476071502E+03  0.93476071502E+03  0.25500000920E-02 0. -1.
       -2   -1    0    0    0  501  0.00000000000E+00  0.00000000000E+00 -0.46231975944E+03  0.46231975945E+03  0.25500000920E-02 0.  1.
    10030    2    1    2    0    0  0.00000000000E+00  0.00000000000E+00  0.47244095558E+03  0.13970804745E+04  0.13147750361E+04 0.  0.
        5    1    3    3  502    0 -0.50702880518E+03 -0.30018234279E+03 -0.73484448767E+02  0.59380948327E+03  0.46999998093E+01 0. -1.
       -5    1    3    3    0  502  0.50702880518E+03  0.30018234279E+03  0.54592540434E+03  0.80327099121E+03  0.46999998093E+01 0.  1.
</event>
<event>
 5   0  0.6445331E-05  0.2066534E+04  0.7818609E-02  0.8576131E-01
       -2   -1    0    0    0  501  0.00000000000E+00  0.00000000000E+00  0.75769828153E+03  0.75769828153E+03  0.25500000920E-02 0. -1.
        2   -1    0    0  501    0  0.00000000000E+00  0.00000000000E+00 -0.14090571526E+04  0.14090571526E+04  0.25500000920E-02 0.  1.
    10030    2    1    2    0    0  0.00000000000E+00  0.00000000000E+00 -0.65135887107E+03  0.21667554341E+04  0.20665335062E+04 0.  0.
        1    1    3    3  502    0 -0.70255289858E+03 -0.52538241785E+03 -0.89807935525E+03  0.12554496360E+04  0.50400001928E-02 0.  1.
       -1    1    3    3    0  502  0.70255289858E+03  0.52538241785E+03  0.24672048418E+03  0.91130579809E+03  0.50400001928E-02 0. -1.
</event>
<event>
 5   0  0.2980790E-05  0.1333404E+04  0.7818609E-02  0.9003487E-01
       -1   -1    0    0    0  501  0.00000000000E+00  0.00000000000E+00  0.42722269045E+03  0.42722269048E+03  0.50400001928E-02 0. -1.
        1   -1    0    0  501    0  0.00000000000E+00  0.00000000000E+00 -0.10404210141E+04  0.10404210141E+04  0.50400001928E-02 0.  1.
    10030    2    1    2    0    0  0.00000000000E+00  0.00000000000E+00 -0.61319832367E+03  0.14676437046E+04  0.13334038621E+04 0.  0.
        5    1    3    3  502    0  0.49878921649E+03  0.20696213807E+03 -0.73691275494E+03  0.91361179254E+03  0.46999998093E+01 0.  1.
       -5    1    3    3    0  502 -0.49878921649E+03 -0.20696213807E+03  0.12371443127E+03  0.55403191207E+03  0.46999998093E+01 0. -1.
</event>
<event>
 5   0  0.2777539E-05  0.2477379E+04  0.7818609E-02  0.8411089E-01
        1   -1    0    0  501    0  0.00000000000E+00  0.00000000000E+00  0.10725532758E+04  0.10725532758E+04  0.50400001928E-02 0.  1.
       -1   -1    0    0    0  501  0.00000000000E+00  0.00000000000E+00 -0.14305604424E+04  0.14305604424E+04  0.50400001928E-02 0. -1.
    10030    2    1    2    0    0  0.00000000000E+00  0.00000000000E+00 -0.35800716659E+03  0.25031137182E+04  0.24773794935E+04 0.  0.
        3    1    3    3  502    0  0.44539455017E+03 -0.27835804825E+03 -0.13124823904E+04  0.14136723607E+04  0.10100000352E+00 0. -1.
       -3    1    3    3    0  502 -0.44539455017E+03  0.27835804825E+03  0.95447522377E+03  0.10894413575E+04  0.10100000352E+00 0.  1.
</event>
<event>
 5   0  0.6445331E-05  0.2585679E+04  0.7818609E-02  0.8373082E-01
       -2   -1    0    0    0  501  0.00000000000E+00  0.00000000000E+00  0.10114394323E+04  0.10114394323E+04  0.25500000920E-02 0.  1.
        2   -1    0    0  501    0  0.00000000000E+00  0.00000000000E+00 -0.16525303516E+04  0.16525303516E+04  0.25500000920E-02 0. -1.
    10030    2    1    2    0    0  0.00000000000E+00  0.00000000000E+00 -0.64109091930E+03  0.26639697839E+04  0.25856793001E+04 0.  0.
        1    1    3    3  502    0 -0.43026655323E+03  0.10316826606E+04  0.34868838579E+03  0.11709321113E+04  0.50400001928E-02 0.  1.
       -1    1    3    3    0  502  0.43026655323E+03 -0.10316826606E+04 -0.98977930509E+03  0.14930376726E+04  0.50400001928E-02 0. -1.
</event>
<event>
 5   0  0.2777539E-05  0.2515969E+04  0.7818609E-02  0.8397319E-01
        1   -1    0    0  501    0  0.00000000000E+00  0.00000000000E+00  0.15710292111E+04  0.15710292111E+04  0.50400001928E-02 0.  1.
       -1   -1    0    0    0  501  0.00000000000E+00  0.00000000000E+00 -0.10073173035E+04  0.10073173035E+04  0.50400001928E-02 0. -1.
    10030    2    1    2    0    0  0.00000000000E+00  0.00000000000E+00  0.56371190758E+03  0.25783465146E+04  0.25159689256E+04 0.  0.
        3    1    3    3  502    0  0.11035441637E+04  0.24238191640E+03 -0.28500001703E+03  0.11652397756E+04  0.10100000352E+00 0. -1.
       -3    1    3    3    0  502 -0.11035441637E+04 -0.24238191640E+03  0.84871192462E+03  0.14131067390E+04  0.10100000352E+00 0.  1.
</event>
<event>
 5   0  0.2793920E-05  0.2485326E+04  0.7818609E-02  0.8408232E-01
       -1   -1    0    0    0  501  0.00000000000E+00  0.00000000000E+00  0.14110089971E+04  0.14110089971E+04  0.50400001928E-02 0.  1.
        1   -1    0    0  501    0  0.00000000000E+00  0.00000000000E+00 -0.10944025214E+04  0.10944025214E+04  0.50400001928E-02 0. -1.
    10030    2    1    2    0    0  0.00000000000E+00  0.00000000000E+00  0.31660647568E+03  0.25054115186E+04  0.24853263803E+04 0.  0.
        2    1    3    3  502    0  0.29052802729E+03 -0.63788086674E+03 -0.87610492629E+03  0.11219885813E+04  0.25500000920E-02 0. -1.
       -2    1    3    3    0  502 -0.29052802729E+03  0.63788086674E+03  0.11927114020E+04  0.13834229372E+04  0.25500000920E-02 0.  1.
</event>
<event>
 5   0  0.2896652E-05  0.2556746E+04  0.7818609E-02  0.8383044E-01
       -1   -1    0    0    0  501  0.00000000000E+00  0.00000000000E+00  0.97015312749E+03  0.97015312750E+03  0.50400001928E-02 0. -1.
        1   -1    0    0  501    0  0.00000000000E+00  0.00000000000E+00 -0.16845149149E+04  0.16845149149E+04  0.50400001928E-02 0.  1.
    10030    2    1    2    0    0  0.00000000000E+00  0.00000000000E+00 -0.71436178739E+03  0.26546680424E+04  0.25567459107E+04 0.  0.
        4    1    3    3  502    0 -0.84224978717E+03  0.35179938753E+03  0.57213388267E+03  0.10772586995E+04  0.12699999809E+01 0. -1.
       -4    1    3    3    0  502  0.84224978717E+03 -0.35179938753E+03 -0.12864956701E+04  0.15774093429E+04  0.12699999809E+01 0.  1.
</event>
<event>
 5   0  0.2896652E-05  0.2544245E+04  0.7818609E-02  0.8387391E-01
        1   -1    0    0  501    0  0.00000000000E+00  0.00000000000E+00  0.18174012443E+04  0.18174012444E+04  0.50400001928E-02 0. -1.
       -1   -1    0    0    0  501  0.00000000000E+00  0.00000000000E+00 -0.89044459752E+03  0.89044459753E+03  0.50400001928E-02 0.  1.
    10030    2    1    2    0    0  0.00000000000E+00  0.00000000000E+00  0.92695664683E+03  0.27078458419E+04  0.25442445791E+04 0.  0.
        4    1    3    3  502    0  0.12516745425E+04  0.15208700998E+03  0.28388571285E+03  0.12924443236E+04  0.12699999809E+01 0.  1.
       -4    1    3    3    0  502 -0.12516745425E+04 -0.15208700998E+03  0.64307093398E+03  0.14154015182E+04  0.12699999809E+01 0. -1.
</event>
<event>
 5   0  0.2977854E-05  0.2479400E+04  0.7818609E-02  0.8410361E-01
       -1   -1    0    0    0  501  0.00000000000E+00  0.00000000000E+00  0.10244217621E+04  0.10244217621E+04  0.50400001928E-02 0. -1.
        1   -1    0    0  501    0  0.00000000000E+00  0.00000000000E+00 -0.15002175593E+04  0.15002175593E+04  0.50400001928E-02 0.  1.
    10030    2    1    2    0    0  0.00000000000E+00  0.00000000000E+00 -0.47579579723E+03  0.25246393214E+04  0.24793995367E+04 0.  0.
        1    1    3    3  502    0  0.69280646676E+03 -0.46498132495E+03  0.69571071002E+03  0.10863709426E+04  0.50400001928E-02 0. -1.
       -1    1    3    3    0  502 -0.69280646676E+03  0.46498132495E+03 -0.11715065073E+04  0.14382683788E+04  0.50400001928E-02 0.  1.
</event>
<event>
 5   0  0.2777539E-05  0.2600235E+04  0.7818609E-02  0.8368121E-01
       -1   -1    0    0    0  501  0.00000000000E+00  0.00000000000E+00  0.77919169826E+03  0.77919169827E+03  0.50400001928E-02 0. -1.
        1   -1    0    0  501    0  0.00000000000E+00  0.00000000000E+00 -0.21693061104E+04  0.21693061104E+04  0.50400001928E-02 0.  1.
    10030    2    1    2    0    0  0.00000000000E+00  0.00000000000E+00 -0.13901144121E+04  0.29484978086E+04  0.26002348449E+04 0.  0.
        3    1    3    3  502    0 -0.97860157996E+03 -0.78990353750E+03 -0.10689062872E+04  0.16505057745E+04  0.10100000352E+00 0. -1.
       -3    1    3    3    0  502  0.97860157996E+03  0.78990353750E+03 -0.32120812494E+03  0.12979920341E+04  0.10100000352E+00 0.  1.
</event>
<event>
 5   0  0.2896652E-05  0.2384159E+04  0.7818609E-02  0.8445458E-01
        1   -1    0    0  501    0  0.00000000000E+00  0.00000000000E+00  0.13855084920E+04  0.13855084920E+04  0.50400001928E-02 0. -1.
       -1   -1    0    0    0  501  0.00000000000E+00  0.00000000000E+00 -0.10256551298E+04  0.10256551298E+04  0.50400001928E-02 0.  1.
    10030    2    1    2    0    0  0.00000000000E+00  0.00000000000E+00  0.35985336219E+03  0.24111636219E+04  0.23841593003E+04 0.  0.
        4    1    3    3  502    0  0.34963246435E+03  0.11090959864E+04 -0.85178860931E+02  0.11660162171E+04  0.12699999809E+01 0.  1.
       -4    1    3    3    0  502 -0.34963246435E+03 -0.11090959864E+04  0.44503222313E+03  0.12451474048E+04  0.12699999809E+01 0. -1.
</event>
<event>
 5   0  0.6827859E-05  0.2477235E+04  0.7818609E-02  0.8411141E-01
        2   -1    0    0  501    0  0.00000000000E+00  0.00000000000E+00  0.12997259917E+04  0.12997259917E+04  0.25500000920E-02 0.  1.
       -2   -1    0    0    0  501  0.00000000000E+00  0.00000000000E+00 -0.11803823817E+04  0.11803823817E+04  0.25500000920E-02 0. -1.
    10030    2    1    2    0    0  0.00000000000E+00  0.00000000000E+00  0.11934361005E+03  0.24801083734E+04  0.24772352829E+04 0.  0.
        3    1    3    3  502    0  0.99461007920E+03  0.59780222099E+03  0.49325254113E+03  0.12609182307E+04  0.10100000352E+00 0.  1.
       -3    1    3    3    0  502 -0.99461007920E+03 -0.59780222099E+03 -0.37390893108E+03  0.12191901427E+04  0.10100000352E+00 0. -1.
</event>
<event>
 5   0  0.2793920E-05  0.2562913E+04  0.7818609E-02  0.8380909E-01
       -1   -1    0    0    0  501  0.00000000000E+00  0.00000000000E+00  0.15400219935E+04  0.15400219935E+04  0.50400001928E-02 0.  1.
        1   -1    0    0  501    0  0.00000000000E+00  0.00000000000E+00 -0.10663031909E+04  0.10663031909E+04  0.50400001928E-02 0. -1.
    10030    2    1    2    0    0  0.00000000000E+00  0.00000000000E+00  0.47371880261E+03  0.26063251844E+04  0.25629126912E+04 0.  0.
        2    1    3    3  502    0  0.84429139282E+03 -0.76018361674E+03 -0.36599169072E+03  0.11935899651E+04  0.25500000920E-02 0. -1.
       -2    1    3    3    0  502 -0.84429139282E+03  0.76018361674E+03  0.83971049332E+03  0.14127352193E+04  0.25500000920E-02 0.  1.
</event>
<event>
 5   0  0.2777539E-05  0.2507571E+04  0.7818609E-02  0.8400293E-01
       -1   -1    0    0    0  501  0.00000000000E+00  0.00000000000E+00  0.10510280445E+04  0.10510280445E+04  0.50400001928E-02 0.  1.
        1   -1    0    0  501    0  0.00000000000E+00  0.00000000000E+00 -0.14956581135E+04  0.14956581135E+04  0.50400001928E-02 0. -1.
    10030    2    1    2    0    0  0.00000000000E+00  0.00000000000E+00 -0.44463006895E+03  0.25466861580E+04  0.25075714325E+04 0.  0.
        3    1    3    3  502    0  0.74296762719E+03 -0.10046267625E+04 -0.32738304691E+03  0.12916870738E+04  0.10100000352E+00 0.  1.
       -3    1    3    3    0  502 -0.74296762719E+03  0.10046267625E+04 -0.11724702204E+03  0.12549990842E+04  0.10100000352E+00 0. -1.
</event>
<event>
 5   0  0.2793920E-05  0.2535718E+04  0.7818609E-02  0.8390370E-01
       -1   -1    0    0    0  501  0.00000000000E+00  0.00000000000E+00  0.86209611517E+03  0.86209611518E+03  0.50400001928E-02 0. -1.
        1   -1    0    0  501    0  0.00000000000E+00  0.00000000000E+00 -0.18646024532E+04  0.18646024532E+04  0.50400001928E-02 0.  1.
    10030    2    1    2    0    0  0.00000000000E+00  0.00000000000E+00 -0.10025063380E+04  0.27266985683E+04  0.25357180689E+04 0.  0.
        2    1    3    3  502    0  0.80251029025E+03  0.20521572363E+03 -0.15334055893E+04  0.17428336009E+04  0.25500000920E-02 0.  1.
       -2    1    3    3    0  502 -0.80251029025E+03 -0.20521572363E+03  0.53089925127E+03  0.98386496746E+03  0.25500000920E-02 0. -1.
</event>
<event>
 5   0  0.6445331E-05  0.2507092E+04  0.7818609E-02  0.8400463E-01
       -2   -1    0    0    0  501  0.00000000000E+00  0.00000000000E+00  0.10358535734E+04  0.10358535734E+04  0.25500000920E-02 0.  1.
        2   -1    0    0  501    0  0.00000000000E+00  0.00000000000E+00 -0.15169878827E+04  0.15169878827E+04  0.25500000920E-02 0. -1.
    10030    2    1    2    0    0  0.00000000000E+00  0.00000000000E+00 -0.48113430937E+03  0.25528414561E+04  0.25070917966E+04 0.  0.
        1    1    3    3  502    0  0.28263456790E+03 -0.11878826731E+04  0.48209469407E+02  0.12219949660E+04  0.50400001928E-02 0.  1.
       -1    1    3    3    0  502 -0.28263456790E+03  0.11878826731E+04 -0.52934377877E+03  0.13308464901E+04  0.50400001928E-02 0. -1.
</event>
<event>
 5   0  0.2977854E-05  0.1634400E+04  0.7818609E-02  0.8799689E-01
        1   -1    0    0  501    0  0.00000000000E+00  0.00000000000E+00  0.65287083475E+03  0.65287083477E+03  0.50400001928E-02 0.  1.
       -1   -1    0    0    0  501  0.00000000000E+00  0.00000000000E+00 -0.10228914226E+04  0.10228914226E+04  0.50400001928E-02 0. -1.
    10030    2    1    2    0    0  0.00000000000E+00  0.00000000000E+00 -0.37002058788E+03  0.16757622574E+04  0.16344001676E+04 0.  0.
        1    1    3    3  502    0 -0.59063464109E+03  0.19256501784E+03  0.35935484691E+03  0.71768131603E+03  0.50400001928E-02 0.  1.
       -1    1    3    3    0  502  0.59063464109E+03 -0.19256501784E+03 -0.72937543479E+03  0.95808094139E+03  0.50400001928E-02 0. -1.
</event>
<event>
 5   0  0.6648328E-05  0.2513437E+04  0.7818609E-02  0.8398214E-01
        2   -1    0    0  501    0  0.00000000000E+00  0.00000000000E+00  0.20599645079E+04  0.20599645079E+04  0.25500000920E-02 0. -1.
       -2   -1    0    0    0  501  0.00000000000E+00  0.00000000000E+00 -0.76668395894E+03  0.76668395894E+03  0.25500000920E-02 0.  1.
    10030    2    1    2    0    0  0.00000000000E+00  0.00000000000E+00  0.12932805490E+04  0.28266484669E+04  0.25134372833E+04 0.  0.
        2    1    3    3  502    0  0.29781666716E+03  0.80061764070E+03 -0.38999484621E+03  0.93903107186E+03  0.25500000920E-02 0.  1.
       -2    1    3    3    0  502 -0.29781666716E+03 -0.80061764070E+03  0.16832753952E+04  0.18876173950E+04  0.25500000920E-02 0. -1.
</event>
<event>
 5   0  0.2331375E-05  0.2478349E+04  0.7818609E-02  0.8410740E-01
       -3   -1    0    0    0  501  0.00000000000E+00  0.00000000000E+00  0.15847184862E+04  0.15847184894E+04  0.10100000352E+00 0. -1.
        3   -1    0    0  501    0  0.00000000000E+00  0.00000000000E+00 -0.96897561784E+03  0.96897562310E+03  0.10100000352E+00 0.  1.
    10030    2    1    2    0    0  0.00000000000E+00  0.00000000000E+00  0.61574286835E+03  0.25536941125E+04  0.24783491159E+04 0.  0.
        2    1    3    3  502    0  0.11581088591E+04 -0.70019586249E+02  0.75634430191E+03  0.13849821569E+04  0.25500000920E-02 0.  1.
       -2    1    3    3    0  502 -0.11581088591E+04  0.70019586249E+02 -0.14060143357E+03  0.11687119556E+04  0.25500000920E-02 0. -1.
</event>
<event>
 5   0  0.2977854E-05  0.2375155E+04  0.7818609E-02  0.8448864E-01
       -1   -1    0    0    0  501  0.00000000000E+00  0.00000000000E+00  0.10605082855E+04  0.10605082855E+04  0.50400001928E-02 0. -1.
        1   -1    0    0  501    0  0.00000000000E+00  0.00000000000E+00 -0.13298722185E+04  0.13298722185E+04  0.50400001928E-02 0.  1.
    10030    2    1    2    0    0  0.00000000000E+00  0.00000000000E+00 -0.26936393303E+03  0.23903805040E+04  0.23751551582E+04 0.  0.
        1    1    3    3  502    0  0.97041913747E+03 -0.18954844058E+03  0.52733297882E+03  0.11205900161E+04  0.50400001928E-02 0. -1.
       -1    1    3    3    0  502 -0.97041913747E+03  0.18954844058E+03 -0.79669691185E+03  0.12697904879E+04  0.50400001928E-02 0.  1.
</event>
<event>
 5   0  0.2777539E-05  0.2471069E+04  0.7818609E-02  0.8413365E-01
       -1   -1    0    0    0  501  0.00000000000E+00  0.00000000000E+00  0.11466198945E+04  0.11466198945E+04  0.50400001928E-02 0.  1.
        1   -1    0    0  501    0  0.00000000000E+00  0.00000000000E+00 -0.13313441917E+04  0.13313441917E+04  0.50400001928E-02 0. -1.
    10030    2    1    2    0    0  0.00000000000E+00  0.00000000000E+00 -0.18472429727E+03  0.24779640862E+04  0.24710691910E+04 0.  0.
        3    1    3    3  502    0  0.12343104213E+03 -0.11828352227E+04  0.24355213893E+03  0.12139407073E+04  0.10100000352E+00 0.  1.
       -3    1    3    3    0  502 -0.12343104213E+03  0.11828352227E+04 -0.42827643621E+03  0.12640233789E+04  0.10100000352E+00 0. -1.
</event>
<event>
 5   0  0.6827859E-05  0.2384077E+04  0.7818609E-02  0.8445489E-01
        2   -1    0    0  501    0  0.00000000000E+00  0.00000000000E+00  0.13098348808E+04  0.13098348808E+04  0.25500000920E-02 0.  1.
       -2   -1    0    0    0  501  0.00000000000E+00  0.00000000000E+00 -0.10848362386E+04  0.10848362386E+04  0.25500000920E-02 0. -1.
    10030    2    1    2    0    0  0.00000000000E+00  0.00000000000E+00  0.22499864218E+03  0.23946711194E+04  0.23840774696E+04 0.  0.
        3    1    3    3  502    0  0.84672200478E+03 -0.71311927198E+03  0.55659409499E+03  0.12390618412E+04  0.10100000352E+00 0.  1.
       -3    1    3    3    0  502 -0.84672200478E+03  0.71311927198E+03 -0.33159545281E+03  0.11556092782E+04  0.10100000352E+00 0. -1.
</event>
<event>
 5   0  0.6909250E-05  0.1664224E+04  0.7818609E-02  0.8782036E-01
       -2   -1    0    0    0  501  0.00000000000E+00  0.00000000000E+00  0.85564800336E+03  0.85564800336E+03  0.25500000920E-02 0. -1.
        2   -1    0    0  501    0  0.00000000000E+00  0.00000000000E+00 -0.80922359199E+03  0.80922359199E+03  0.25500000920E-02 0.  1.
    10030    2    1    2    0    0  0.00000000000E+00  0.00000000000E+00  0.46424411372E+02  0.16648715954E+04  0.16642242046E+04 0.  0.
        4    1    3    3  502    0 -0.42138178863E+02 -0.16085289329E+03 -0.79243290594E+03  0.80969179490E+03  0.12699999809E+01 0.  1.
       -4    1    3    3    0  502  0.42138178863E+02  0.16085289329E+03  0.83885731732E+03  0.85517980046E+03  0.12699999809E+01 0. -1.
</event>
<event>
 5   0  0.2977854E-05  0.2217970E+04  0.7818609E-02  0.8510986E-01
        1   -1    0    0  501    0  0.00000000000E+00  0.00000000000E+00  0.74391010841E+03  0.74391010843E+03  0.50400001928E-02 0. -1.
       -1   -1    0    0    0  501  0.00000000000E+00  0.00000000000E+00 -0.16532212202E+04  0.16532212202E+04  0.50400001928E-02 0.  1.
    10030    2    1    2    0    0  0.00000000000E+00  0.00000000000E+00 -0.90931111175E+03  0.23971313286E+04  0.22179702226E+04 0.  0.
        1    1    3    3  502    0 -0.48900346280E+02  0.66798932144E+03  0.50062359178E+03  0.83619672213E+03  0.50400001928E-02 0. -1.
       -1    1    3    3    0  502  0.48900346280E+02 -0.66798932144E+03 -0.14099347035E+04  0.15609346065E+04  0.50400001928E-02 0.  1.
</event>
<event>
 5   0  0.2980790E-05  0.1882152E+04  0.7818609E-02  0.8663792E-01
        1   -1    0    0  501    0  0.00000000000E+00  0.00000000000E+00  0.14801708527E+04  0.14801708527E+04  0.50400001928E-02 0. -1.
       -1   -1    0    0    0  501  0.00000000000E+00  0.00000000000E+00 -0.59832582791E+03  0.59832582793E+03  0.50400001928E-02 0.  1.
    10030    2    1    2    0    0  0.00000000000E+00  0.00000000000E+00  0.88184502478E+03  0.20784966806E+04  0.18821524390E+04 0.  0.
        5    1    3    3  502    0 -0.61708688722E+03 -0.43830122025E+03 -0.17660628310E+03  0.77724903041E+03  0.46999998093E+01 0.  1.
       -5    1    3    3    0  502  0.61708688722E+03  0.43830122025E+03  0.10584513079E+04  0.13012476502E+04  0.46999998093E+01 0. -1.
</event>
<event>
 5   0  0.6827859E-05  0.2448662E+04  0.7818609E-02  0.8421507E-01
        2   -1    0    0  501    0  0.00000000000E+00  0.00000000000E+00  0.17803903700E+04  0.17803903700E+04  0.25500000920E-02 0.  1.
       -2   -1    0    0    0  501  0.00000000000E+00  0.00000000000E+00 -0.84194238840E+03  0.84194238840E+03  0.25500000920E-02 0. -1.
    10030    2    1    2    0    0  0.00000000000E+00  0.00000000000E+00  0.93844798162E+03  0.26223327584E+04  0.24486617736E+04 0.  0.
        3    1    3    3  502    0  0.70896079429E+03  0.89809530850E+03  0.93576576325E+03  0.14781265727E+04  0.10100000352E+00 0. -1.
       -3    1    3    3    0  502 -0.70896079429E+03 -0.89809530850E+03  0.26822183752E+01  0.11442061857E+04  0.10100000352E+00 0.  1.
</event>
<event>
 5   0  0.2896652E-05  0.2526220E+04  0.7818609E-02  0.8393704E-01
       -1   -1    0    0    0  501  0.00000000000E+00  0.00000000000E+00  0.11407098249E+04  0.11407098249E+04  0.50400001928E-02 0. -1.
        1   -1    0    0  501    0  0.00000000000E+00  0.00000000000E+00 -0.13986440823E+04  0.13986440824E+04  0.50400001928E-02 0.  1.
    10030    2    1    2    0    0  0.00000000000E+00  0.00000000000E+00 -0.25793425745E+03  0.25393539073E+04  0.25262201379E+04 0.  0.
        4    1    3    3  502    0 -0.12336799170E+04  0.25631220091E+03 -0.40285153026E+02  0.12606691035E+04  0.12699999809E+01 0. -1.
       -4    1    3    3    0  502  0.12336799170E+04 -0.25631220091E+03 -0.21764910442E+03  0.12786848038E+04  0.12699999809E+01 0.  1.
</event>
<event>
 5   0  0.6827859E-05  0.2492090E+04  0.7818609E-02  0.8405809E-01
        2   -1    0    0  501    0  0.00000000000E+00  0.00000000000E+00  0.14361684171E+04  0.14361684171E+04  0.25500000920E-02 0. -1.
       -2   -1    0    0    0  501  0.00000000000E+00  0.00000000000E+00 -0.10810909760E+04  0.10810909760E+04  0.25500000920E-02 0.  1.
    10030    2    1    2    0    0  0.00000000000E+00  0.00000000000E+00  0.35507744105E+03  0.25172593931E+04  0.24920904605E+04 0.  0.
        3    1    3    3  502    0 -0.38836374903E+03 -0.32546099305E+03  0.13274018090E+04  0.14208261091E+04  0.10100000352E+00 0. -1.
       -3    1    3    3    0  502  0.38836374903E+03  0.32546099305E+03 -0.97232436797E+03  0.10964332840E+04  0.10100000352E+00 0.  1.
</event>
<event>
 5   0  0.2980790E-05  0.2475663E+04  0.7818609E-02  0.8411707E-01
       -1   -1    0    0    0  501  0.00000000000E+00  0.00000000000E+00  0.10417298464E+04  0.10417298465E+04  0.50400001928E-02 0.  1.
        1   -1    0    0  501    0  0.00000000000E+00  0.00000000000E+00 -0.14708487349E+04  0.14708487349E+04  0.50400001928E-02 0. -1.
    10030    2    1    2    0    0  0.00000000000E+00  0.00000000000E+00 -0.42911888845E+03  0.25125785814E+04  0.24756631651E+04 0.  0.
        5    1    3    3  502    0 -0.39479175850E+03  0.32159484117E+02  0.97566379559E+03  0.10530131514E+04  0.46999998093E+01 0.  1.
       -5    1    3    3    0  502  0.39479175850E+03 -0.32159484117E+02 -0.14047826840E+04  0.14595654300E+04  0.46999998093E+01 0. -1.
</event>
<event>
 5   0  0.2793920E-05  0.1722802E+04  0.7818609E-02  0.8748465E-01
       -1   -1    0    0    0  501  0.00000000000E+00  0.00000000000E+00  0.51748639583E+03  0.51748639585E+03  0.50400001928E-02 0. -1.
        1   -1    0    0  501    0  0.00000000000E+00  0.00000000000E+00 -0.14338774692E+04  0.14338774693E+04  0.50400001928E-02 0.  1.
    10030    2    1    2    0    0  0.00000000000E+00  0.00000000000E+00 -0.91639107342E+03  0.19513638651E+04  0.17228024653E+04 0.  0.
        2    1    3    3  502    0 -0.52759884354E+03  0.67880272841E+03 -0.39742706203E+03  0.94714410384E+03  0.25500000920E-02 0.  1.
       -2    1    3    3    0  502  0.52759884354E+03 -0.67880272841E+03 -0.51896401139E+03  0.10042197613E+04  0.25500000920E-02 0. -1.
</event>
<event>
 5   0  0.7071821E-05  0.2460905E+04  0.7818609E-02  0.8417047E-01
       -2   -1    0    0    0  501  0.00000000000E+00  0.00000000000E+00  0.55861038642E+03  0.55861038643E+03  0.25500000920E-02 0. -1.
        2   -1    0    0  501    0  0.00000000000E+00  0.00000000000E+00 -0.27103204860E+04  0.27103204860E+04  0.25500000920E-02 0.  1.
    10030    2    1    2    0    0  0.00000000000E+00  0.00000000000E+00 -0.21517100996E+04  0.32689308724E+04  0.24609048531E+04 0.  0.
        5    1    3    3  502    0 -0.11219729126E+04 -0.69390418435E+02 -0.41121398155E+03  0.11969783938E+04  0.46999998093E+01 0. -1.
       -5    1    3    3    0  502  0.11219729126E+04  0.69390418435E+02 -0.17404961180E+04  0.20719524786E+04  0.46999998093E+01 0.  1.
</event>
<event>
 5   0  0.2977854E-05  0.2540266E+04  0.7818609E-02  0.8388779E-01
       -1   -1    0    0    0  501  0.00000000000E+00  0.00000000000E+00  0.94020825881E+03  0.94020825882E+03  0.50400001928E-02 0. -1.
        1   -1    0    0  501    0  0.00000000000E+00  0.00000000000E+00 -0.17158299761E+04  0.17158299761E+04  0.50400001928E-02 0.  1.
    10030    2    1    2    0    0  0.00000000000E+00  0.00000000000E+00 -0.77562171727E+03  0.26560382349E+04  0.25402657453E+04 0.  0.
        1    1    3    3  502    0  0.64935434523E+03  0.10848147988E+04 -0.26081201418E+03  0.12909326552E+04  0.50400001928E-02 0. -1.
       -1    1    3    3    0  502 -0.64935434523E+03 -0.10848147988E+04 -0.51480970309E+03  0.13651055797E+04  0.50400001928E-02 0.  1.
</event>
<event>
 5   0  0.2977854E-05  0.1795222E+04  0.7818609E-02  0.8708844E-01
        1   -1    0    0  501    0  0.00000000000E+00  0.00000000000E+00  0.83779584313E+03  0.83779584314E+03  0.50400001928E-02 0. -1.
       -1   -1    0    0    0  501  0.00000000000E+00  0.00000000000E+00 -0.96169677988E+03  0.96169677990E+03  0.50400001928E-02 0.  1.
    10030    2    1    2    0    0  0.00000000000E+00  0.00000000000E+00 -0.12390093675E+03  0.17994926230E+04  0.17952220638E+04 0.  0.
        1    1    3    3  502    0  0.32116071624E+03  0.25255295249E+03  0.73918690581E+03  0.84458539013E+03  0.50400001928E-02 0. -1.
       -1    1    3    3    0  502 -0.32116071624E+03 -0.25255295249E+03 -0.86308784256E+03  0.95490723292E+03  0.50400001928E-02 0.  1.
</event>
<event>
 5   0  0.6827859E-05  0.2005102E+04  0.7818609E-02  0.8604239E-01
       -2   -1    0    0    0  501  0.00000000000E+00  0.00000000000E+00  0.17976878303E+04  0.17976878303E+04  0.25500000920E-02 0. -1.
        2   -1    0    0  501    0  0.00000000000E+00  0.00000000000E+00 -0.55911193757E+03  0.55911193757E+03  0.25500000920E-02 0.  1.
    10030    2    1    2    0    0  0.00000000000E+00  0.00000000000E+00  0.12385758927E+04  0.23567997679E+04  0.20051022178E+04 0.  0.
        3    1    3    3  502    0 -0.50050273514E+03 -0.70789598996E+03  0.27500532451E+02  0.86739610904E+03  0.10100000352E+00 0.  1.
       -3    1    3    3    0  502  0.50050273514E+03  0.70789598996E+03  0.12110753603E+04  0.14894036588E+04  0.10100000352E+00 0. -1.
</event>
<event>
 5   0  0.2896652E-05  0.2468897E+04  0.7818609E-02  0.8414151E-01
       -1   -1    0    0    0  501  0.00000000000E+00  0.00000000000E+00  0.13501507900E+04  0.13501507900E+04  0.50400001928E-02 0.  1.
        1   -1    0    0  501    0  0.00000000000E+00  0.00000000000E+00 -0.11286610131E+04  0.11286610132E+04  0.50400001928E-02 0. -1.
    10030    2    1    2    0    0  0.00000000000E+00  0.00000000000E+00  0.22148977688E+03  0.24788118032E+04  0.24688965621E+04 0.  0.
        4    1    3    3  502    0 -0.10800325523E+04 -0.94677895454E+02 -0.48190252274E+03  0.11864509565E+04  0.12699999809E+01 0. -1.
       -4    1    3    3    0  502  0.10800325523E+04  0.94677895454E+02  0.70339229962E+03  0.12923608467E+04  0.12699999809E+01 0.  1.
</event>
<event>
 5   0  0.2977854E-05  0.2358595E+04  0.7818609E-02  0.8455170E-01
        1   -1    0    0  501    0  0.00000000000E+00  0.00000000000E+00  0.18090603445E+04  0.18090603445E+04  0.50400001928E-02 0. -1.
       -1   -1    0    0    0  501  0.00000000000E+00  0.00000000000E+00 -0.76876503980E+03  0.76876503981E+03  0.50400001928E-02 0.  1.
    10030    2    1    2    0    0  0.00000000000E+00  0.00000000000E+00  0.10402953047E+04  0.25778253843E+04  0.23585947916E+04 0.  0.
        1    1    3    3  502    0  0.92708102269E+03 -0.79442434289E+02  0.13120287353E+04  0.16084805642E+04  0.50400001928E-02 0. -1.
       -1    1    3    3    0  502 -0.92708102269E+03  0.79442434289E+02 -0.27173343062E+03  0.96934482014E+03  0.50400001928E-02 0.  1.
</event>
<event>
 5   0  0.7071821E-05  0.1387218E+04  0.7818609E-02  0.8963123E-01
        2   -1    0    0  501    0  0.00000000000E+00  0.00000000000E+00  0.44443675468E+03  0.44443675469E+03  0.25500000920E-02 0.  1.
       -2   -1    0    0    0  501  0.00000000000E+00  0.00000000000E+00 -0.10824784146E+04  0.10824784146E+04  0.25500000920E-02 0. -1.
    10030    2    1    2    0    0  0.00000000000E+00  0.00000000000E+00 -0.63804165992E+03  0.15269151693E+04  0.13872176377E+04 0.  0.
        5    1    3    3  502    0  0.32527768169E+03 -0.34741873120E+03  0.23633367740E+03  0.53139537265E+03  0.46999998093E+01 0.  1.
       -5    1    3    3    0  502 -0.32527768169E+03  0.34741873120E+03 -0.87437533732E+03  0.99551979664E+03  0.46999998093E+01 0. -1.
</event>
<event>
 5   0  0.2980790E-05  0.2415982E+04  0.7818609E-02  0.8433544E-01
       -1   -1    0    0    0  501  0.00000000000E+00  0.00000000000E+00  0.95565867722E+03  0.95565867723E+03  0.50400001928E-02 0. -1.
        1   -1    0    0  501    0  0.00000000000E+00  0.00000000000E+00 -0.15269493253E+04  0.15269493253E+04  0.50400001928E-02 0.  1.
    10030    2    1    2    0    0  0.00000000000E+00  0.00000000000E+00 -0.57129064807E+03  0.24826080025E+04  0.24159820963E+04 0.  0.
        5    1    3    3  502    0  0.10141776554E+04 -0.63657850630E+03 -0.44951656489E+03  0.12790135822E+04  0.46999998093E+01 0. -1.
       -5    1    3    3    0  502 -0.10141776554E+04  0.63657850630E+03 -0.12177408317E+03  0.12035944203E+04  0.46999998093E+01 0.  1.
</event>
<event>
 5   0  0.6827859E-05  0.1812906E+04  0.7818609E-02  0.8699466E-01
       -2   -1    0    0    0  501  0.00000000000E+00  0.00000000000E+00  0.72092478474E+03  0.72092478474E+03  0.25500000920E-02 0.  1.
        2   -1    0    0  501    0  0.00000000000E+00  0.00000000000E+00 -0.11397259335E+04  0.11397259335E+04  0.25500000920E-02 0. -1.
    10030    2    1    2    0    0  0.00000000000E+00  0.00000000000E+00 -0.41880114873E+03  0.18606507182E+04  0.18129055941E+04 0.  0.
        3    1    3    3  502    0 -0.44345503186E+03  0.21440306383E+03 -0.99038488201E+03  0.11061117773E+04  0.10100000352E+00 0. -1.
       -3    1    3    3    0  502  0.44345503186E+03 -0.21440306383E+03  0.57158373328E+03  0.75453894096E+03  0.10100000352E+00 0.  1.
</event>
<event>
 5   0  0.2793920E-05  0.2514767E+04  0.7818609E-02  0.8397744E-01
       -1   -1    0    0    0  501  0.00000000000E+00  0.00000000000E+00  0.81064379201E+03  0.81064379202E+03  0.50400001928E-02 0. -1.
        1   -1    0    0  501    0  0.00000000000E+00  0.00000000000E+00 -0.19503177858E+04  0.19503177859E+04  0.50400001928E-02 0.  1.
    10030    2    1    2    0    0  0.00000000000E+00  0.00000000000E+00 -0.11396739938E+04  0.27609615779E+04  0.25147667928E+04 0.  0.
        2    1    3    3  502    0 -0.15461813323E+03  0.69833898308E+03  0.56553611445E+03  0.91181971857E+03  0.25500000920E-02 0. -1.
       -2    1    3    3    0  502  0.15461813323E+03 -0.69833898308E+03 -0.17052101083E+04  0.18491418593E+04  0.25500000920E-02 0.  1.
</event>
<event>
 5   0  0.2896652E-05  0.2444064E+04  0.7818609E-02  0.8423189E-01
        1   -1    0    0  501    0  0.00000000000E+00  0.00000000000E+00  0.18074252282E+04  0.18074252282E+04  0.50400001928E-02 0. -1.
       -1   -1    0    0    0  501  0.00000000000E+00  0.00000000000E+00 -0.82623720707E+03  0.82623720708E+03  0.50400001928E-02 0.  1.
    10030    2    1    2    0    0  0.00000000000E+00  0.00000000000E+00  0.98118802116E+03  0.26336624353E+04  0.24440638065E+04 0.  0.
        4    1    3    3  502    0 -0.80376893867E+03 -0.69461823047E+03 -0.16026617043E+03  0.10743490360E+04  0.12699999809E+01 0.  1.
       -4    1    3    3    0  502  0.80376893867E+03  0.69461823047E+03  0.11414541916E+04  0.15593133993E+04  0.12699999809E+01 0. -1.
</event>
<event>
 5   0  0.2977854E-05  0.2477335E+04  0.7818609E-02  0.8411105E-01
       -1   -1    0    0    0  501  0.00000000000E+00  0.00000000000E+00  0.94370588230E+03  0.94370588232E+03  0.50400001928E-02 0.  1.
        1   -1    0    0  501    0  0.00000000000E+00  0.00000000000E+00 -0.16258218248E+04  0.16258218248E+04  0.50400001928E-02 0. -1.
    10030    2    1    2    0    0  0.00000000000E+00  0.00000000000E+00 -0.68211594249E+03  0.25695277071E+04  0.24773353585E+04 0.  0.
        1    1    3    3  502    0 -0.58780261015E+03 -0.54963868055E+03 -0.13177388889E+04  0.15440370355E+04  0.50400001928E-02 0. -1.
       -1    1    3    3    0  502  0.58780261015E+03  0.54963868055E+03  0.63562294638E+03  0.10254906716E+04  0.50400001928E-02 0.  1.
</event>
<event>
 5   0  0.2896652E-05  0.2503675E+04  0.7818609E-02  0.8401677E-01
       -1   -1    0    0    0  501  0.00000000000E+00  0.00000000000E+00  0.16151823312E+04  0.16151823312E+04  0.50400001928E-02 0. -1.
        1   -1    0    0  501    0  0.00000000000E+00  0.00000000000E+00 -0.97022954414E+03  0.97022954415E+03  0.50400001928E-02 0.  1.
    10030    2    1    2    0    0  0.00000000000E+00  0.00000000000E+00  0.64495278704E+03  0.25854118753E+04  0.25036753918E+04 0.  0.
        4    1    3    3  502    0  0.99708997788E+03  0.74640487282E+03  0.45222606888E+03  0.13250730880E+04  0.12699999809E+01 0.  1.
       -4    1    3    3    0  502 -0.99708997788E+03 -0.74640487282E+03  0.19272671816E+03  0.12603387874E+04  0.12699999809E+01 0. -1.
</event>
<event>
 5   0  0.6648328E-05  0.2505028E+04  0.7818609E-02  0.8401196E-01
        2   -1    0    0  501    0  0.00000000000E+00  0.00000000000E+00  0.10833266148E+04  0.10833266148E+04  0.25500000920E-02 0. -1.
       -2   -1    0    0    0  501  0.00000000000E+00  0.00000000000E+00 -0.14481243916E+04  0.14481243916E+04  0.25500000920E-02 0.  1.
    10030    2    1    2    0    0  0.00000000000E+00  0.00000000000E+00 -0.36479777676E+03  0.25314510064E+04  0.25050282992E+04 0.  0.
        2    1    3    3  502    0 -0.73493585909E+03 -0.48219449878E+03  0.71928474740E+03  0.11357873038E+04  0.25500000920E-02 0.  1.
       -2    1    3    3    0  502  0.73493585909E+03  0.48219449878E+03 -0.10840825242E+04  0.13956637026E+04  0.25500000920E-02 0. -1.
</event>
<event>
 5   0  0.6445331E-05  0.2437061E+04  0.7818609E-02  0.8425757E-01
        2   -1    0    0  501    0  0.00000000000E+00  0.00000000000E+00  0.15536763329E+04  0.15536763329E+04  0.25500000920E-02 0.  1.
       -2   -1    0    0    0  501  0.00000000000E+00  0.00000000000E+00 -0.95567965899E+03  0.95567965899E+03  0.25500000920E-02 0. -1.
    10030    2    1    2    0    0  0.00000000000E+00  0.00000000000E+00  0.59799667389E+03  0.25093559919E+04  0.24370612368E+04 0.  0.
        1    1    3    3  502    0  0.60785600394E+03  0.82473180012E+03 -0.38022568305E+03  0.10928142723E+04  0.50400001928E-02 0. -1.
       -1    1    3    3    0  502 -0.60785600394E+03 -0.82473180012E+03  0.97822235694E+03  0.14165417196E+04  0.50400001928E-02 0.  1.
</event>
<event>
 5   0  0.6827859E-05  0.2641490E+04  0.7818609E-02  0.8354243E-01
        2   -1    0    0  501    0  0.00000000000E+00  0.00000000000E+00  0.15719932571E+04  0.15719932571E+04  0.25500000920E-02 0.  1.
       -2   -1    0    0    0  501  0.00000000000E+00  0.00000000000E+00 -0.11096535743E+04  0.11096535743E+04  0.25500000920E-02 0. -1.
    10030    2    1    2    0    0  0.00000000000E+00  0.00000000000E+00  0.46233968282E+03  0.26816468314E+04  0.26414904403E+04 0.  0.
        3    1    3    3  502    0  0.27631145642E+03  0.23202336876E+03  0.15209901182E+04  0.15631998639E+04  0.10100000352E+00 0.  1.
       -3    1    3    3    0  502 -0.27631145642E+03 -0.23202336876E+03 -0.10586504354E+04  0.11184469675E+04  0.10100000352E+00 0. -1.
</event>
<event>
 5   0  0.6445331E-05  0.1353082E+04  0.7818609E-02  0.8988498E-01
       -2   -1    0    0    0  501  0.00000000000E+00  0.00000000000E+00  0.43583298876E+03  0.43583298877E+03  0.25500000920E-02 0. -1.
        2   -1    0    0  501    0  0.00000000000E+00  0.00000000000E+00 -0.10501907210E+04  0.10501907210E+04  0.25500000920E-02 0.  1.
    10030    2    1    2    0    0  0.00000000000E+00  0.00000000000E+00 -0.61435773225E+03  0.14860237098E+04  0.13530820533E+04 0.  0.
        1    1    3    3  502    0 -0.66061756933E+03 -0.12665953300E+03 -0.22760642836E+03  0.71011470655E+03  0.50400001928E-02 0. -1.
       -1    1    3    3    0  502  0.66061756933E+03  0.12665953300E+03 -0.38675130389E+03  0.77590900323E+03  0.50400001928E-02 0.  1.
</event>
<event>
 5   0  0.6909250E-05  0.2501269E+04  0.7818609E-02  0.8402534E-01
       -2   -1    0    0    0  501  0.00000000000E+00  0.00000000000E+00  0.11759500681E+04  0.11759500681E+04  0.25500000920E-02 0. -1.
        2   -1    0    0  501    0  0.00000000000E+00  0.00000000000E+00 -0.13300618404E+04  0.13300618404E+04  0.25500000920E-02 0.  1.
    10030    2    1    2    0    0  0.00000000000E+00  0.00000000000E+00 -0.15411177230E+03  0.25060119085E+04  0.25012687275E+04 0.  0.
        4    1    3    3  502    0  0.30015305677E+03  0.11987694473E+04 -0.26963029653E+03  0.12648486688E+04  0.12699999809E+01 0. -1.
       -4    1    3    3    0  502 -0.30015305677E+03 -0.11987694473E+04  0.11551852423E+03  0.12411632397E+04  0.12699999809E+01 0.  1.
</event>
<event>
 5   0  0.2777539E-05  0.2456190E+04  0.7818609E-02  0.8418761E-01
        1   -1    0    0  501    0  0.00000000000E+00  0.00000000000E+00  0.19388673529E+04  0.19388673529E+04  0.50400001928E-02 0. -1.
       -1   -1    0    0    0  501  0.00000000000E+00  0.00000000000E+00 -0.77788602255E+03  0.77788602257E+03  0.50400001928E-02 0.  1.
    10030    2    1    2    0    0  0.00000000000E+00  0.00000000000E+00  0.11609813303E+04  0.27167533754E+04  0.24561903944E+04 0.  0.
        3    1    3    3  502    0  0.10878504309E+04  0.63037442442E+02 -0.46011596173E+02  0.10906463021E+04  0.10100000352E+00 0. -1.
       -3    1    3    3    0  502 -0.10878504309E+04 -0.63037442442E+02  0.12069929265E+04  0.16261070733E+04  0.10100000352E+00 0.  1.
</event>
<event>
 5   0  0.2977854E-05  0.2426944E+04  0.7818609E-02  0.8429484E-01
        1   -1    0    0  501    0  0.00000000000E+00  0.00000000000E+00  0.17462560272E+04  0.17462560272E+04  0.50400001928E-02 0.  1.
       -1   -1    0    0    0  501  0.00000000000E+00  0.00000000000E+00 -0.84324078170E+03  0.84324078172E+03  0.50400001928E-02 0. -1.
    10030    2    1    2    0    0  0.00000000000E+00  0.00000000000E+00  0.90301524554E+03  0.25894968090E+04  0.24269440022E+04 0.  0.
        1    1    3    3  502    0  0.24067963290E+03  0.70431151065E+02  0.17183067023E+04  0.17365094748E+04  0.50400001928E-02 0.  1.
       -1    1    3    3    0  502 -0.24067963290E+03 -0.70431151065E+02 -0.81529145679E+03  0.85298733418E+03  0.50400001928E-02 0. -1.
</event>
<event>
 5   0  0.2331375E-05  0.1344327E+04  0.7818609E-02  0.8995133E-01
        3   -1    0    0  501    0  0.00000000000E+00  0.00000000000E+00  0.47408993262E+03  0.47408994338E+03  0.10100000352E+00 0.  1.
       -3   -1    0    0    0  501  0.00000000000E+00  0.00000000000E+00 -0.95299231854E+03  0.95299232389E+03  0.10100000352E+00 0. -1.
    10030    2    1    2    0    0  0.00000000000E+00  0.00000000000E+00 -0.47890238592E+03  0.14270822673E+04  0.13443274535E+04 0.  0.
        2    1    3    3  502    0  0.38671014494E+03 -0.25228083649E+03  0.27910001066E+03  0.53952495088E+03  0.25500000920E-02 0.  1.
       -2    1    3    3    0  502 -0.38671014494E+03  0.25228083649E+03 -0.75800239658E+03  0.88755731640E+03  0.25500000920E-02 0. -1.
</event>
<event>
 5   0  0.2977854E-05  0.2499507E+04  0.7818609E-02  0.8403161E-01
       -1   -1    0    0    0  501  0.00000000000E+00  0.00000000000E+00  0.74773101019E+03  0.74773101021E+03  0.50400001928E-02 0. -1.
        1   -1    0    0  501    0  0.00000000000E+00  0.00000000000E+00 -0.20888312691E+04  0.20888312691E+04  0.50400001928E-02 0.  1.
    10030    2    1    2    0    0  0.00000000000E+00  0.00000000000E+00 -0.13411002589E+04  0.28365622793E+04  0.24995070834E+04 0.  0.
        1    1    3    3  502    0 -0.12081086397E+04  0.41565466191E+02 -0.10305489936E+04  0.15884852538E+04  0.50400001928E-02 0. -1.
       -1    1    3    3    0  502  0.12081086397E+04 -0.41565466191E+02 -0.31055126531E+03  0.12480770255E+04  0.50400001928E-02 0.  1.
</event>
<event>
 5   0  0.2896652E-05  0.2570797E+04  0.7818609E-02  0.8378189E-01
        1   -1    0    0  501    0  0.00000000000E+00  0.00000000000E+00  0.11166087822E+04  0.11166087822E+04  0.50400001928E-02 0.  1.
       -1   -1    0    0    0  501  0.00000000000E+00  0.00000000000E+00 -0.14797026362E+04  0.14797026362E+04  0.50400001928E-02 0. -1.
    10030    2    1    2    0    0  0.00000000000E+00  0.00000000000E+00 -0.36309385405E+03  0.25963114184E+04  0.25707967315E+04 0.  0.
        4    1    3    3  502    0  0.64885401757E+03  0.82811185441E+03  0.56434020074E+03  0.11938434799E+04  0.12699999809E+01 0.  1.
       -4    1    3    3    0  502 -0.64885401757E+03 -0.82811185441E+03 -0.92743405480E+03  0.14024679385E+04  0.12699999809E+01 0. -1.
</event>
<event>
 5   0  0.2777539E-05  0.2476940E+04  0.7818609E-02  0.8411247E-01
       -1   -1    0    0    0  501  0.00000000000E+00  0.00000000000E+00  0.52332374044E+03  0.52332374046E+03  0.50400001928E-02 0.  1.
        1   -1    0    0  501    0  0.00000000000E+00  0.00000000000E+00 -0.29308970240E+04  0.29308970240E+04  0.50400001928E-02 0. -1.
    10030    2    1    2    0    0  0.00000000000E+00  0.00000000000E+00 -0.24075732836E+04  0.34542207645E+04  0.24769400425E+04 0.  0.
        3    1    3    3  502    0 -0.97453264368E+03  0.37505379603E+02 -0.22683032240E+04  0.24690727113E+04  0.10100000352E+00 0. -1.
       -3    1    3    3    0  502  0.97453264368E+03 -0.37505379603E+02 -0.13927005955E+03  0.98514805324E+03  0.10100000352E+00 0.  1.
</event>
<event>
 5   0  0.6909250E-05  0.2490843E+04  0.7818609E-02  0.8406255E-01
       -2   -1    0    0    0  501  0.00000000000E+00  0.00000000000E+00  0.11941416223E+04  0.11941416223E+04  0.25500000920E-02 0. -1.
        2   -1    0    0  501    0  0.00000000000E+00  0.00000000000E+00 -0.12989029831E+04  0.12989029831E+04  0.25500000920E-02 0.  1.
    10030    2    1    2    0    0  0.00000000000E+00  0.00000000000E+00 -0.10476136085E+03  0.24930446054E+04  0.24908425204E+04 0.  0.
        4    1    3    3  502    0 -0.54403149013E+03  0.11200019848E+04 -0.78819830684E+02  0.12476333142E+04  0.12699999809E+01 0. -1.
       -4    1    3    3    0  502  0.54403149013E+03 -0.11200019848E+04 -0.25941530165E+02  0.12454112911E+04  0.12699999809E+01 0.  1.
</event>
<event>
 5   0  0.2793920E-05  0.2533318E+04  0.7818609E-02  0.8391211E-01
        1   -1    0    0  501    0  0.00000000000E+00  0.00000000000E+00  0.13869673069E+04  0.13869673069E+04  0.50400001928E-02 0. -1.
       -1   -1    0    0    0  501  0.00000000000E+00  0.00000000000E+00 -0.11567868184E+04  0.11567868184E+04  0.50400001928E-02 0.  1.
    10030    2    1    2    0    0  0.00000000000E+00  0.00000000000E+00  0.23018048851E+03  0.25437541253E+04  0.25333183757E+04 0.  0.
        2    1    3    3  502    0 -0.64073144465E+03 -0.69754982365E+03  0.95957373669E+03  0.13482931049E+04  0.25500000920E-02 0. -1.
       -2    1    3    3    0  502  0.64073144465E+03  0.69754982365E+03 -0.72939324818E+03  0.11954610203E+04  0.25500000920E-02 0.  1.
</event>
<event>
 5   0  0.2777539E-05  0.2569438E+04  0.7818609E-02  0.8378657E-01
        1   -1    0    0  501    0  0.00000000000E+00  0.00000000000E+00  0.20707162557E+04  0.20707162557E+04  0.50400001928E-02 0. -1.
       -1   -1    0    0    0  501  0.00000000000E+00  0.00000000000E+00 -0.79706848318E+03  0.79706848319E+03  0.50400001928E-02 0.  1.
    10030    2    1    2    0    0  0.00000000000E+00  0.00000000000E+00  0.12736477725E+04  0.28677847389E+04  0.25694378101E+04 0.  0.
        3    1    3    3  502    0  0.10328618631E+04 -0.43992599529E+03 -0.60335561214E+02  0.11242681618E+04  0.10100000352E+00 0.  1.
       -3    1    3    3    0  502 -0.10328618631E+04  0.43992599529E+03  0.13339833337E+04  0.17435165770E+04  0.10100000352E+00 0. -1.
</event>
<event>
 5   0  0.7071821E-05  0.2449451E+04  0.7818609E-02  0.8421219E-01
       -2   -1    0    0    0  501  0.00000000000E+00  0.00000000000E+00  0.11194050648E+04  0.11194050648E+04  0.25500000920E-02 0. -1.
        2   -1    0    0  501    0  0.00000000000E+00  0.00000000000E+00 -0.13399547093E+04  0.13399547093E+04  0.25500000920E-02 0.  1.
    10030    2    1    2    0    0  0.00000000000E+00  0.00000000000E+00 -0.22054964453E+03  0.24593597741E+04  0.24494506226E+04 0.  0.
        5    1    3    3  502    0 -0.10185389439E+04  0.58205454871E+03 -0.46343761857E+03  0.12613507023E+04  0.46999998093E+01 0.  1.
       -5    1    3    3    0  502  0.10185389439E+04 -0.58205454871E+03  0.24288797404E+03  0.11980090717E+04  0.46999998093E+01 0. -1.
</event>
<event>
 5   0  0.2793920E-05  0.2490303E+04  0.7818609E-02  0.8406448E-01
       -1   -1    0    0    0  501  0.00000000000E+00  0.00000000000E+00  0.77202214880E+03  0.77202214881E+03  0.50400001928E-02 0. -1.
        1   -1    0    0  501    0  0.00000000000E+00  0.00000000000E+00 -0.20082347952E+04  0.20082347952E+04  0.50400001928E-02 0.  1.
    10030    2    1    2    0    0  0.00000000000E+00  0.00000000000E+00 -0.12362126464E+04  0.27802569440E+04  0.24903025855E+04 0.  0.
        2    1    3    3  502    0 -0.82105623593E+03  0.92817380121E+03 -0.48246176169E+03  0.13298155133E+04  0.25500000920E-02 0. -1.
       -2    1    3    3    0  502  0.82105623593E+03 -0.92817380121E+03 -0.75375088469E+03  0.14504414307E+04  0.25500000920E-02 0.  1.
</event>
<event>
 5   0  0.2980790E-05  0.2566796E+04  0.7818609E-02  0.8379568E-01
       -1   -1    0    0    0  501  0.00000000000E+00  0.00000000000E+00  0.11272832530E+04  0.11272832530E+04  0.50400001928E-02 0. -1.
        1   -1    0    0  501    0  0.00000000000E+00  0.00000000000E+00 -0.14611327852E+04  0.14611327852E+04  0.50400001928E-02 0.  1.
    10030    2    1    2    0    0  0.00000000000E+00  0.00000000000E+00 -0.33384953222E+03  0.25884160382E+04  0.25667960723E+04 0.  0.
        5    1    3    3  502    0 -0.12730493109E+04 -0.44353047782E+02 -0.32466058016E+03  0.13145525182E+04  0.46999998093E+01 0. -1.
       -5    1    3    3    0  502  0.12730493109E+04  0.44353047782E+02 -0.91889520580E+01  0.12738635200E+04  0.46999998093E+01 0.  1.
</event>
<event>
 5   0  0.2980790E-05  0.2547919E+04  0.7818609E-02  0.8386110E-01
       -1   -1    0    0    0  501  0.00000000000E+00  0.00000000000E+00  0.72195855918E+03  0.72195855919E+03  0.50400001928E-02 0. -1.
        1   -1    0    0  501    0  0.00000000000E+00  0.00000000000E+00 -0.22480130385E+04  0.22480130385E+04  0.50400001928E-02 0.  1.
    10030    2    1    2    0    0  0.00000000000E+00  0.00000000000E+00 -0.15260544793E+04  0.29699715977E+04  0.25479185656E+04 0.  0.
        5    1    3    3  502    0 -0.29315688638E+03  0.10093152076E+03 -0.22033537752E+04  0.22250658599E+04  0.46999998093E+01 0.  1.
       -5    1    3    3    0  502  0.29315688638E+03 -0.10093152076E+03  0.67729929595E+03  0.74490573780E+03  0.46999998093E+01 0. -1.
</event>
<event>
 5   0  0.6648328E-05  0.2650904E+04  0.7818609E-02  0.8351113E-01
       -2   -1    0    0    0  501  0.00000000000E+00  0.00000000000E+00  0.10566372086E+04  0.10566372086E+04  0.25500000920E-02 0. -1.
        2   -1    0    0  501    0  0.00000000000E+00  0.00000000000E+00 -0.16626545580E+04  0.16626545580E+04  0.25500000920E-02 0.  1.
    10030    2    1    2    0    0  0.00000000000E+00  0.00000000000E+00 -0.60601734942E+03  0.27192917666E+04  0.26509037486E+04 0.  0.
        2    1    3    3  502    0 -0.12167111706E+04 -0.43206225477E+03 -0.61033543861E+03  0.14281362723E+04  0.25500000920E-02 0.  1.
       -2    1    3    3    0  502  0.12167111706E+04  0.43206225477E+03  0.43180891866E+01  0.12911554943E+04  0.25500000920E-02 0. -1.
</event>
<event>
 5   0  0.6648328E-05  0.2427243E+04  0.7818609E-02  0.8429374E-01
       -2   -1    0    0    0  501  0.00000000000E+00  0.00000000000E+00  0.75876650923E+03  0.75876650923E+03  0.25500000920E-02 0.  1.
        2   -1    0    0  501    0  0.00000000000E+00  0.00000000000E+00 -0.19411465400E+04  0.19411465400E+04  0.25500000920E-02 0. -1.
    10030    2    1    2    0    0  0.00000000000E+00  0.00000000000E+00 -0.11823800308E+04  0.26999130492E+04  0.24272428672E+04 0.  0.
        2    1    3    3  502    0  0.96440208677E+03 -0.49460965114E+03  0.16198049263E+02  0.10839614702E+04  0.25500000920E-02 0.  1.
       -2    1    3    3    0  502 -0.96440208677E+03  0.49460965114E+03 -0.11985780800E+04  0.16159515791E+04  0.25500000920E-02 0. -1.
</event>
<event>
 5   0  0.6827859E-05  0.2493039E+04  0.7818609E-02  0.8405470E-01
        2   -1    0    0  501    0  0.00000000000E+00  0.00000000000E+00  0.22124565676E+04  0.22124565676E+04  0.25500000920E-02 0. -1.
       -2   -1    0    0    0  501  0.00000000000E+00  0.00000000000E+00 -0.70230100788E+03  0.70230100788E+03  0.25500000920E-02 0.  1.
    10030    2    1    2    0    0  0.00000000000E+00  0.00000000000E+00  0.15101555597E+04  0.29147575755E+04  0.24930386899E+04 0.  0.
        3    1    3    3  502    0 -0.23448175073E+03  0.89279948834E+03  0.17344795216E+04  0.19648134362E+04  0.10100000352E+00 0. -1.
       -3    1    3    3    0  502  0.23448175073E+03 -0.89279948834E+03 -0.22432396188E+03  0.94994413934E+03  0.10100000352E+00 0.  1.
</event>
<event>
 5   0  0.6909250E-05  0.2219539E+04  0.7818609E-02  0.8510339E-01
       -2   -1    0    0    0  501  0.00000000000E+00  0.00000000000E+00  0.15862753696E+04  0.15862753696E+04  0.25500000920E-02 0.  1.
        2   -1    0    0  501    0  0.00000000000E+00  0.00000000000E+00 -0.77640275750E+03  0.77640275750E+03  0.25500000920E-02 0. -1.
    10030    2    1    2    0    0  0.00000000000E+00  0.00000000000E+00  0.80987261213E+03  0.23626781271E+04  0.22195392055E+04 0.  0.
        4    1    3    3  502    0 -0.10127175500E+04 -0.44975627712E+03  0.34010356932E+03  0.11591158681E+04  0.12699999809E+01 0.  1.
       -4    1    3    3    0  502  0.10127175500E+04  0.44975627712E+03  0.46976904281E+03  0.12035622590E+04  0.12699999809E+01 0. -1.
</event>
<event>
 5   0  0.2977854E-05  0.2371612E+04  0.7818609E-02  0.8450209E-01
       -1   -1    0    0    0  501  0.00000000000E+00  0.00000000000E+00  0.10985796697E+04  0.10985796697E+04  0.50400001928E-02 0.  1.
        1   -1    0    0  501    0  0.00000000000E+00  0.00000000000E+00 -0.12799579253E+04  0.12799579253E+04  0.50400001928E-02 0. -1.
    10030    2    1    2    0    0  0.00000000000E+00  0.00000000000E+00 -0.18137825562E+03  0.23785375951E+04  0.23716119032E+04 0.  0.
        1    1    3    3  502    0 -0.11412514641E+04 -0.18560970775E+03 -0.35457321969E+03  0.12093915975E+04  0.50400001928E-02 0.  1.
       -1    1    3    3    0  502  0.11412514641E+04  0.18560970775E+03  0.17319496407E+03  0.11691459976E+04  0.50400001928E-02 0. -1.
</event>
<event>
 5   0  0.6909250E-05  0.1350196E+04  0.7818609E-02  0.8990680E-01
       -2   -1    0    0    0  501  0.00000000000E+00  0.00000000000E+00  0.43551053647E+03  0.43551053648E+03  0.25500000920E-02 0. -1.
        2   -1    0    0  501    0  0.00000000000E+00  0.00000000000E+00 -0.10464902076E+04  0.10464902076E+04  0.25500000920E-02 0.  1.
    10030    2    1    2    0    0  0.00000000000E+00  0.00000000000E+00 -0.61097967114E+03  0.14820007441E+04  0.13501962994E+04 0.  0.
        4    1    3    3  502    0 -0.72863011649E+02 -0.59109362265E+03 -0.65441385124E+03  0.88485015161E+03  0.12699999809E+01 0.  1.
       -4    1    3    3    0  502  0.72863011649E+02  0.59109362265E+03  0.43434180104E+02  0.59715059249E+03  0.12699999809E+01 0. -1.
</event>
<event>
 5   0  0.2896652E-05  0.2311426E+04  0.7818609E-02  0.8473430E-01
        1   -1    0    0  501    0  0.00000000000E+00  0.00000000000E+00  0.16626667324E+04  0.16626667324E+04  0.50400001928E-02 0.  1.
       -1   -1    0    0    0  501  0.00000000000E+00  0.00000000000E+00 -0.80333150626E+03  0.80333150628E+03  0.50400001928E-02 0. -1.
    10030    2    1    2    0    0  0.00000000000E+00  0.00000000000E+00  0.85933522614E+03  0.24659982387E+04  0.23114260279E+04 0.  0.
        4    1    3    3  502    0  0.40918851419E+03  0.36681796932E+02 -0.72279740619E+03  0.83139551217E+03  0.12699999809E+01 0. -1.
       -4    1    3    3    0  502 -0.40918851419E+03 -0.36681796932E+02  0.15821326323E+04  0.16346027265E+04  0.12699999809E+01 0.  1.
</event>
<event>
 5   0  0.6445331E-05  0.2504445E+04  0.7818609E-02  0.8401404E-01
       -2   -1    0    0    0  501  0.00000000000E+00  0.00000000000E+00  0.93283115072E+03  0.93283115072E+03  0.25500000920E-02 0. -1.
        2   -1    0    0  501    0  0.00000000000E+00  0.00000000000E+00 -0.16809695688E+04  0.16809695688E+04  0.25500000920E-02 0.  1.
    10030    2    1    2    0    0  0.00000000000E+00  0.00000000000E+00 -0.74813841808E+03  0.26138007195E+04  0.25044446707E+04 0.  0.
        1    1    3    3  502    0  0.40850047250E+03 -0.40769674324E+03 -0.15338862901E+04  0.16388704713E+04  0.50400001928E-02 0.  1.
       -1    1    3    3    0  502 -0.40850047250E+03  0.40769674324E+03  0.78574787206E+03  0.97493024825E+03  0.50400001928E-02 0. -1.
</event>
<event>
 5   0  0.2777539E-05  0.2516092E+04  0.7818609E-02  0.8397275E-01
        1   -1    0    0  501    0  0.00000000000E+00  0.00000000000E+00  0.20804205653E+04  0.20804205653E+04  0.50400001928E-02 0.  1.
       -1   -1    0    0    0  501  0.00000000000E+00  0.00000000000E+00 -0.76075018845E+03  0.76075018847E+03  0.50400001928E-02 0. -1.
    10030    2    1    2    0    0  0.00000000000E+00  0.00000000000E+00  0.13196703769E+04  0.28411707538E+04  0.25160924762E+04 0.  0.
        3    1    3    3  502    0 -0.93061816800E+03 -0.39013636864E+03 -0.18851152679E+03  0.10265442838E+04  0.10100000352E+00 0. -1.
       -3    1    3    3    0  502  0.93061816800E+03  0.39013636864E+03  0.15081819036E+04  0.18146264699E+04  0.10100000352E+00 0.  1.
</event>
<event>
 5   0  0.6827859E-05  0.2044735E+04  0.7818609E-02  0.8585987E-01
       -2   -1    0    0    0  501  0.00000000000E+00  0.00000000000E+00  0.36603587113E+03  0.36603587114E+03  0.25500000920E-02 0. -1.
        2   -1    0    0  501    0  0.00000000000E+00  0.00000000000E+00 -0.28555537129E+04  0.28555537129E+04  0.25500000920E-02 0.  1.
    10030    2    1    2    0    0  0.00000000000E+00  0.00000000000E+00 -0.24895178418E+04  0.32215895840E+04  0.20447347905E+04 0.  0.
        3    1    3    3  502    0 -0.66829056984E+03 -0.25949961488E+03 -0.96351258560E+02  0.72335047597E+03  0.10100000352E+00 0. -1.
       -3    1    3    3    0  502  0.66829056984E+03  0.25949961488E+03 -0.23931665832E+04  0.24982391080E+04  0.10100000352E+00 0.  1.
</event>
<event>
 5   0  0.2980790E-05  0.2268590E+04  0.7818609E-02  0.8490410E-01
       -1   -1    0    0    0  501  0.00000000000E+00  0.00000000000E+00  0.12633486855E+04  0.12633486855E+04  0.50400001928E-02 0.  1.
        1   -1    0    0  501    0  0.00000000000E+00  0.00000000000E+00 -0.10184245708E+04  0.10184245709E+04  0.50400001928E-02 0. -1.
    10030    2    1    2    0    0  0.00000000000E+00  0.00000000000E+00  0.24492411465E+03  0.22817732563E+04  0.22685901726E+04 0.  0.
        5    1    3    3  502    0  0.33304565891E+03 -0.10494738841E+04  0.39660493466E+03  0.11703129532E+04  0.46999998093E+01 0.  1.
       -5    1    3    3    0  502 -0.33304565891E+03  0.10494738841E+04 -0.15168082001E+03  0.11114603031E+04  0.46999998093E+01 0. -1.
</event>
<event>
 5   0  0.6445331E-05  0.2606844E+04  0.7818609E-02  0.8365880E-01
        2   -1    0    0  501    0  0.00000000000E+00  0.00000000000E+00  0.14379577254E+04  0.14379577254E+04  0.25500000920E-02 0.  1.
       -2   -1    0    0    0  501  0.00000000000E+00  0.00000000000E+00 -0.11814737649E+04  0.11814737649E+04  0.25500000920E-02 0. -1.
    10030    2    1    2    0    0  0.00000000000E+00  0.00000000000E+00  0.25648396045E+03  0.26194314903E+04  0.26068443203E+04 0.  0.
        1    1    3    3  502    0  0.54034675191E+03 -0.78426207349E+03  0.10224082161E+04  0.13972688261E+04  0.50400001928E-02 0.  1.
       -1    1    3    3    0  502 -0.54034675191E+03  0.78426207349E+03 -0.76592425562E+03  0.12221626641E+04  0.50400001928E-02 0. -1.
</event>
<event>
 5   0  0.6827859E-05  0.2441742E+04  0.7818609E-02  0.8424039E-01
        2   -1    0    0  501    0  0.00000000000E+00  0.00000000000E+00  0.10437391455E+04  0.10437391455E+04  0.25500000920E-02 0.  1.
       -2   -1    0    0    0  501  0.00000000000E+00  0.00000000000E+00 -0.14280635524E+04  0.14280635524E+04  0.25500000920E-02 0. -1.
    10030    2    1    2    0    0  0.00000000000E+00  0.00000000000E+00 -0.38432440688E+03  0.24718026978E+04  0.24417418634E+04 0.  0.
        3    1    3    3  502    0 -0.43094631885E+03  0.42735952383E+03  0.88020700078E+03  0.10691656872E+04  0.10100000352E+00 0.  1.
       -3    1    3    3    0  502  0.43094631885E+03 -0.42735952383E+03 -0.12645314077E+04  0.14026370106E+04  0.10100000352E+00 0. -1.
</event>
<event>
 5   0  0.2331375E-05  0.2214193E+04  0.7818609E-02  0.8512544E-01
       -3   -1    0    0    0  501  0.00000000000E+00  0.00000000000E+00  0.11985581970E+04  0.11985582013E+04  0.10100000352E+00 0.  1.
        3   -1    0    0  501    0  0.00000000000E+00  0.00000000000E+00 -0.10226144577E+04  0.10226144627E+04  0.10100000352E+00 0. -1.
    10030    2    1    2    0    0  0.00000000000E+00  0.00000000000E+00  0.17594373929E+03  0.22211726640E+04  0.22141932625E+04 0.  0.
        2    1    3    3  502    0  0.10576092394E+04 -0.68024931496E+02  0.40913452061E+03  0.11360262983E+04  0.25500000920E-02 0.  1.
       -2    1    3    3    0  502 -0.10576092394E+04  0.68024931496E+02 -0.23319078132E+03  0.10851463657E+04  0.25500000920E-02 0. -1.
</event>
<event>
 5   0  0.2896652E-05  0.2364224E+04  0.7818609E-02  0.8453020E-01
        1   -1    0    0  501    0  0.00000000000E+00  0.00000000000E+00  0.13303730633E+04  0.13303730633E+04  0.50400001928E-02 0.  1.
       -1   -1    0    0    0  501  0.00000000000E+00  0.00000000000E+00 -0.10503739750E+04  0.10503739750E+04  0.50400001928E-02 0. -1.
    10030    2    1    2    0    0  0.00000000000E+00  0.00000000000E+00  0.27999908824E+03  0.23807470383E+04  0.23642243910E+04 0.  0.
        4    1    3    3  502    0 -0.10387890662E+04  0.55692686923E+03  0.49161757567E+02  0.11796901089E+04  0.12699999809E+01 0. -1.
       -4    1    3    3    0  502  0.10387890662E+04 -0.55692686923E+03  0.23083733067E+03  0.12010569294E+04  0.12699999809E+01 0.  1.
</event>
<event>
 5   0  0.2793920E-05  0.2358398E+04  0.7818609E-02  0.8455245E-01
        1   -1    0    0  501    0  0.00000000000E+00  0.00000000000E+00  0.10084479265E+04  0.10084479265E+04  0.50400001928E-02 0.  1.
       -1   -1    0    0    0  501  0.00000000000E+00  0.00000000000E+00 -0.13788616473E+04  0.13788616473E+04  0.50400001928E-02 0. -1.
    10030    2    1    2    0    0  0.00000000000E+00  0.00000000000E+00 -0.37041372077E+03  0.23873095738E+04  0.23583979046E+04 0.  0.
        2    1    3    3  502    0 -0.46194190912E+03 -0.58769278266E+02  0.91143273805E+03  0.10235007530E+04  0.25500000920E-02 0.  1.
       -2    1    3    3    0  502  0.46194190912E+03  0.58769278266E+02 -0.12818464588E+04  0.13638088207E+04  0.25500000920E-02 0. -1.
</event>
<event>
 5   0  0.6909250E-05  0.2296173E+04  0.7818609E-02  0.8479431E-01
        2   -1    0    0  501    0  0.00000000000E+00  0.00000000000E+00  0.19599412848E+04  0.19599412848E+04  0.25500000920E-02 0. -1.
       -2   -1    0    0    0  501  0.00000000000E+00  0.00000000000E+00 -0.67252176403E+03  0.67252176403E+03  0.25500000920E-02 0.  1.
    10030    2    1    2    0    0  0.00000000000E+00  0.00000000000E+00  0.12874195207E+04  0.26324630488E+04  0.22961734867E+04 0.  0.
        4    1    3    3  502    0  0.11283516055E+04  0.18387272334E+03  0.52284130547E+03  0.12571201882E+04  0.12699999809E+01 0. -1.
       -4    1    3    3    0  502 -0.11283516055E+04 -0.18387272334E+03  0.76457821527E+03  0.13753428606E+04  0.12699999809E+01 0.  1.
</event>
<event>
 5   0  0.6445331E-05  0.2533627E+04  0.7818609E-02  0.8391103E-01
        2   -1    0    0  501    0  0.00000000000E+00  0.00000000000E+00  0.90805615640E+03  0.90805615641E+03  0.25500000920E-02 0. -1.
       -2   -1    0    0    0  501  0.00000000000E+00  0.00000000000E+00 -0.17673095078E+04  0.17673095078E+04  0.25500000920E-02 0.  1.
    10030    2    1    2    0    0  0.00000000000E+00  0.00000000000E+00 -0.85925335135E+03  0.26753656642E+04  0.25336268698E+04 0.  0.
        1    1    3    3  502    0 -0.87825094137E+03  0.78415343501E+03 -0.92332375527E+03  0.14962446600E+04  0.50400001928E-02 0.  1.
       -1    1    3    3    0  502  0.87825094137E+03 -0.78415343501E+03  0.64070403924E+02  0.11791210041E+04  0.50400001928E-02 0. -1.
</event>
<event>
 5   0  0.2977854E-05  0.2437034E+04  0.7818609E-02  0.8425767E-01
       -1   -1    0    0    0  501  0.00000000000E+00  0.00000000000E+00  0.13122869047E+04  0.13122869047E+04  0.50400001928E-02 0. -1.
        1   -1    0    0  501    0  0.00000000000E+00  0.00000000000E+00 -0.11314471501E+04  0.11314471501E+04  0.50400001928E-02 0.  1.
    10030    2    1    2    0    0  0.00000000000E+00  0.00000000000E+00  0.18083975464E+03  0.24437340548E+04  0.24370336710E+04 0.  0.
        1    1    3    3  502    0  0.50316666019E+03 -0.10340551776E+04 -0.31359789903E+03  0.11919691441E+04  0.50400001928E-02 0.  1.
       -1    1    3    3    0  502 -0.50316666019E+03  0.10340551776E+04  0.49443765367E+03  0.12517649107E+04  0.50400001928E-02 0. -1.
</event>
<event>
 5   0  0.7071821E-05  0.2481834E+04  0.7818609E-02  0.8409486E-01
       -2   -1    0    0    0  501  0.00000000000E+00  0.00000000000E+00  0.12999497233E+04  0.12999497233E+04  0.25500000920E-02 0. -1.
        2   -1    0    0  501    0  0.00000000000E+00  0.00000000000E+00 -0.11845651371E+04  0.11845651371E+04  0.25500000920E-02 0.  1.
    10030    2    1    2    0    0  0.00000000000E+00  0.00000000000E+00  0.11538458622E+03  0.24845148604E+04  0.24818340977E+04 0.  0.
        5    1    3    3  502    0 -0.81356542825E+03  0.24235809617E+03 -0.84839689525E+03  0.12001772930E+04  0.46999998093E+01 0.  1.
       -5    1    3    3    0  502  0.81356542825E+03 -0.24235809617E+03  0.96378148148E+03  0.12843375673E+04  0.46999998093E+01 0. -1.
</event>
<event>
 5   0  0.2896652E-05  0.2475903E+04  0.7818609E-02  0.8411621E-01
        1   -1    0    0  501    0  0.00000000000E+00  0.00000000000E+00  0.11594063786E+04  0.11594063786E+04  0.50400001928E-02 0. -1.
       -1   -1    0    0    0  501  0.00000000000E+00  0.00000000000E+00 -0.13218178236E+04  0.13218178236E+04  0.50400001928E-02 0.  1.
    10030    2    1    2    0    0  0.00000000000E+00  0.00000000000E+00 -0.16241144505E+03  0.24812242022E+04  0.24759030805E+04 0.  0.
        4    1    3    3  502    0 -0.10581419520E+04  0.56798153257E+03 -0.38227606917E+03  0.12603190143E+04  0.12699999809E+01 0.  1.
       -4    1    3    3    0  502  0.10581419520E+04 -0.56798153257E+03  0.21986462412E+03  0.12209051879E+04  0.12699999809E+01 0. -1.
</event>
<event>
 5   0  0.2777539E-05  0.2360063E+04  0.7818609E-02  0.8454609E-01
       -1   -1    0    0    0  501  0.00000000000E+00  0.00000000000E+00  0.16199550452E+04  0.16199550452E+04  0.50400001928E-02 0. -1.
        1   -1    0    0  501    0  0.00000000000E+00  0.00000000000E+00 -0.85957565649E+03  0.85957565651E+03  0.50400001928E-02 0.  1.
    10030    2    1    2    0    0  0.00000000000E+00  0.00000000000E+00  0.76037938870E+03  0.24795307017E+04  0.23600626445E+04 0.  0.
        3    1    3    3  502    0  0.32727362506E+03 -0.71442780714E+03 -0.54469004272E+03  0.95613930476E+03  0.10100000352E+00 0.  1.
       -3    1    3    3    0  502 -0.32727362506E+03  0.71442780714E+03  0.13050694314E+04  0.15233913970E+04  0.10100000352E+00 0. -1.
</event>
<event>
 5   0  0.2793920E-05  0.2305523E+04  0.7818609E-02  0.8475747E-01
        1   -1    0    0  501    0  0.00000000000E+00  0.00000000000E+00  0.17409271811E+04  0.17409271811E+04  0.50400001928E-02 0.  1.
       -1   -1    0    0    0  501  0.00000000000E+00  0.00000000000E+00 -0.76330557655E+03  0.76330557657E+03  0.50400001928E-02 0. -1.
    10030    2    1    2    0    0  0.00000000000E+00  0.00000000000E+00  0.97762160454E+03  0.25042327577E+04  0.23055233035E+04 0.  0.
        2    1    3    3  502    0  0.10406274255E+04  0.22901620483E+03  0.11004465057E+02  0.10655866736E+04  0.25500000920E-02 0. -1.
       -2    1    3    3    0  502 -0.10406274255E+04 -0.22901620483E+03  0.96661713948E+03  0.14386460840E+04  0.25500000920E-02 0.  1.
</event>
<event>
 5   0  0.6909250E-05  0.2484041E+04  0.7818609E-02  0.8408693E-01
        2   -1    0    0  501    0  0.00000000000E+00  0.00000000000E+00  0.94526795875E+03  0.94526795875E+03  0.25500000920E-02 0. -1.
       -2   -1    0    0    0  501  0.00000000000E+00  0.00000000000E+00 -0.16319345230E+04  0.16319345230E+04  0.25500000920E-02 0.  1.
    10030    2    1    2    0    0  0.00000000000E+00  0.00000000000E+00 -0.68666656422E+03  0.25772024817E+04  0.24840413969E+04 0.  0.
        4    1    3    3  502    0 -0.73494444380E+03  0.47208960313E+03 -0.12593979835E+04  0.15326763593E+04  0.12699999809E+01 0.  1.
       -4    1    3    3    0  502  0.73494444380E+03 -0.47208960313E+03  0.57273141923E+03  0.10445261224E+04  0.12699999809E+01 0. -1.
</event>
<event>
 5   0  0.2977854E-05  0.2482558E+04  0.7818609E-02  0.8409226E-01
       -1   -1    0    0    0  501  0.00000000000E+00  0.00000000000E+00  0.13117708842E+04  0.13117708842E+04  0.50400001928E-02 0.  1.
        1   -1    0    0  501    0  0.00000000000E+00  0.00000000000E+00 -0.11745748776E+04  0.11745748776E+04  0.50400001928E-02 0. -1.
    10030    2    1    2    0    0  0.00000000000E+00  0.00000000000E+00  0.13719600662E+03  0.24863457618E+04  0.24825576536E+04 0.  0.
        1    1    3    3  502    0 -0.28239156974E+03 -0.12057169846E+04  0.15401988475E+03  0.12478864414E+04  0.50400001928E-02 0. -1.
       -1    1    3    3    0  502  0.28239156974E+03  0.12057169846E+04 -0.16823878125E+02  0.12384593205E+04  0.50400001928E-02 0.  1.
</event>
<event>
 5   0  0.2777539E-05  0.2476623E+04  0.7818609E-02  0.8411361E-01
        1   -1    0    0  501    0  0.00000000000E+00  0.00000000000E+00  0.10625726572E+04  0.10625726572E+04  0.50400001928E-02 0. -1.
       -1   -1    0    0    0  501  0.00000000000E+00  0.00000000000E+00 -0.14431158457E+04  0.14431158458E+04  0.50400001928E-02 0.  1.
    10030    2    1    2    0    0  0.00000000000E+00  0.00000000000E+00 -0.38054318853E+03  0.25056885030E+04  0.24766230548E+04 0.  0.
        3    1    3    3  502    0  0.12319300925E+04  0.15900288998E+02 -0.64267382255E+02  0.12337077768E+04  0.10100000352E+00 0. -1.
       -3    1    3    3    0  502 -0.12319300925E+04 -0.15900288998E+02 -0.31627580628E+03  0.12719807262E+04  0.10100000352E+00 0.  1.
</event>
<event>
 5   0  0.6648328E-05  0.2461050E+04  0.7818609E-02  0.8416995E-01
        2   -1    0    0  501    0  0.00000000000E+00  0.00000000000E+00  0.11623426662E+04  0.11623426662E+04  0.25500000920E-02 0.  1.
       -2   -1    0    0    0  501  0.00000000000E+00  0.00000000000E+00 -0.13027069076E+04  0.13027069076E+04  0.25500000920E-02 0. -1.
    10030    2    1    2    0    0  0.00000000000E+00  0.00000000000E+00 -0.14036424147E+03  0.24650495738E+04  0.24610500363E+04 0.  0.
        2    1    3    3  502    0  0.90562397974E+03  0.16461342709E+03  0.74780867466E+03  0.11859469579E+04  0.25500000920E-02 0.  1.
       -2    1    3    3    0  502 -0.90562397974E+03 -0.16461342709E+03 -0.88817291614E+03  0.12791026159E+04  0.25500000920E-02 0. -1.
</event>
<event>
 5   0  0.6909250E-05  0.2493163E+04  0.7818609E-02  0.8405425E-01
       -2   -1    0    0    0  501  0.00000000000E+00  0.00000000000E+00  0.64182382149E+03  0.64182382149E+03  0.25500000920E-02 0.  1.
        2   -1    0    0  501    0  0.00000000000E+00  0.00000000000E+00 -0.24211716799E+04  0.24211716799E+04  0.25500000920E-02 0. -1.
    10030    2    1    2    0    0  0.00000000000E+00  0.00000000000E+00 -0.17793478584E+04  0.30629955014E+04  0.24931631796E+04 0.  0.
        4    1    3    3  502    0 -0.18239418581E+03  0.12307472818E+04 -0.79484758519E+03  0.14764114628E+04  0.12699999809E+01 0.  1.
       -4    1    3    3    0  502  0.18239418581E+03 -0.12307472818E+04 -0.98450027320E+03  0.15865840386E+04  0.12699999809E+01 0. -1.
</event>
<event>
 5   0  0.2980790E-05  0.2380277E+04  0.7818609E-02  0.8446925E-01
        1   -1    0    0  501    0  0.00000000000E+00  0.00000000000E+00  0.22108774473E+04  0.22108774473E+04  0.50400001928E-02 0.  1.
       -1   -1    0    0    0  501  0.00000000000E+00  0.00000000000E+00 -0.64066387007E+03  0.64066387009E+03  0.50400001928E-02 0. -1.
    10030    2    1    2    0    0  0.00000000000E+00  0.00000000000E+00  0.15702135773E+04  0.28515413174E+04  0.23802767080E+04 0.  0.
        5    1    3    3  502    0 -0.83401052276E+03  0.78546117599E+03  0.39898226012E+03  0.12131495147E+04  0.46999998093E+01 0.  1.
       -5    1    3    3    0  502  0.83401052276E+03 -0.78546117599E+03  0.11712313171E+04  0.16383918027E+04  0.46999998093E+01 0. -1.
</event>
<event>
 5   0  0.6909250E-05  0.2512468E+04  0.7818609E-02  0.8398557E-01
        2   -1    0    0  501    0  0.00000000000E+00  0.00000000000E+00  0.15585063014E+04  0.15585063014E+04  0.25500000920E-02 0.  1.
       -2   -1    0    0    0  501  0.00000000000E+00  0.00000000000E+00 -0.10125871826E+04  0.10125871827E+04  0.25500000920E-02 0. -1.
    10030    2    1    2    0    0  0.00000000000E+00  0.00000000000E+00  0.54591911873E+03  0.25710934840E+04  0.25124677151E+04 0.  0.
        4    1    3    3  502    0  0.97033114261E+03  0.75162626505E+03 -0.93730041219E+00  0.12273903454E+04  0.12699999809E+01 0. -1.
       -4    1    3    3    0  502 -0.97033114261E+03 -0.75162626505E+03  0.54685641914E+03  0.13437031386E+04  0.12699999809E+01 0.  1.
</event>
<event>
 5   0  0.2793920E-05  0.2477391E+04  0.7818609E-02  0.8411085E-01
        1   -1    0    0  501    0  0.00000000000E+00  0.00000000000E+00  0.18843512034E+04  0.18843512034E+04  0.50400001928E-02 0. -1.
       -1   -1    0    0    0  501  0.00000000000E+00  0.00000000000E+00 -0.81426791501E+03  0.81426791502E+03  0.50400001928E-02 0.  1.
    10030    2    1    2    0    0  0.00000000000E+00  0.00000000000E+00  0.10700832884E+04  0.26986191185E+04  0.24773911484E+04 0.  0.
        2    1    3    3  502    0  0.39939273423E+03 -0.57233953663E+03 -0.57971055618E+03  0.90727693142E+03  0.25500000920E-02 0.  1.
       -2    1    3    3    0  502 -0.39939273423E+03  0.57233953663E+03  0.16497938446E+04  0.17913421870E+04  0.25500000920E-02 0. -1.
</event>
<event>
 5   0  0.7071821E-05  0.2493703E+04  0.7818609E-02  0.8405232E-01
        2   -1    0    0  501    0  0.00000000000E+00  0.00000000000E+00  0.22411992656E+04  0.22411992656E+04  0.25500000920E-02 0.  1.
       -2   -1    0    0    0  501  0.00000000000E+00  0.00000000000E+00 -0.69366368445E+03  0.69366368445E+03  0.25500000920E-02 0. -1.
    10030    2    1    2    0    0  0.00000000000E+00  0.00000000000E+00  0.15475355811E+04  0.29348629500E+04  0.24937029014E+04 0.  0.
        5    1    3    3  502    0 -0.11969550127E+04 -0.18967217773E+03  0.11187842478E+04  0.16493565777E+04  0.46999998093E+01 0. -1.
       -5    1    3    3    0  502  0.11969550127E+04  0.18967217773E+03  0.42875133330E+03  0.12855063723E+04  0.46999998093E+01 0.  1.
</event>
<event>
 5   0  0.2896652E-05  0.1734210E+04  0.7818609E-02  0.8742090E-01
        1   -1    0    0  501    0  0.00000000000E+00  0.00000000000E+00  0.16434861324E+04  0.16434861324E+04  0.50400001928E-02 0.  1.
       -1   -1    0    0    0  501  0.00000000000E+00  0.00000000000E+00 -0.45748545123E+03  0.45748545126E+03  0.50400001928E-02 0. -1.
    10030    2    1    2    0    0  0.00000000000E+00  0.00000000000E+00  0.11860006811E+04  0.21009715836E+04  0.17342099007E+04 0.  0.
        4    1    3    3  502    0  0.71461558409E+03  0.41422330978E+03  0.91264222908E+03  0.12309239760E+04  0.12699999809E+01 0.  1.
       -4    1    3    3    0  502 -0.71461558409E+03 -0.41422330978E+03  0.27335845204E+03  0.87004760766E+03  0.12699999809E+01 0. -1.
</event>
<event>
 5   0  0.6827859E-05  0.1256078E+04  0.7818609E-02  0.9065139E-01
       -2   -1    0    0    0  501  0.00000000000E+00  0.00000000000E+00  0.53999182541E+03  0.53999182541E+03  0.25500000920E-02 0. -1.
        2   -1    0    0  501    0  0.00000000000E+00  0.00000000000E+00 -0.73044277601E+03  0.73044277602E+03  0.25500000920E-02 0.  1.
    10030    2    1    2    0    0  0.00000000000E+00  0.00000000000E+00 -0.19045095061E+03  0.12704346014E+04  0.12560782268E+04 0.  0.
        3    1    3    3  502    0  0.18049131738E+03 -0.42200863649E+03  0.33835197416E+03  0.57021967131E+03  0.10100000352E+00 0.  1.
       -3    1    3    3    0  502 -0.18049131738E+03  0.42200863649E+03 -0.52880292477E+03  0.70021493012E+03  0.10100000352E+00 0. -1.
</event>
<event>
 5   0  0.2793920E-05  0.1405765E+04  0.7818609E-02  0.8949656E-01
       -1   -1    0    0    0  501  0.00000000000E+00  0.00000000000E+00  0.45709633293E+03  0.45709633296E+03  0.50400001928E-02 0.  1.
        1   -1    0    0  501    0  0.00000000000E+00  0.00000000000E+00 -0.10808307109E+04  0.10808307109E+04  0.50400001928E-02 0. -1.
    10030    2    1    2    0    0  0.00000000000E+00  0.00000000000E+00 -0.62373437800E+03  0.15379270439E+04  0.14057649228E+04 0.  0.
        2    1    3    3  502    0 -0.57132622938E+03 -0.99791108784E+02  0.12254308092E+03  0.59278050951E+03  0.25500000920E-02 0.  1.
       -2    1    3    3    0  502  0.57132622938E+03  0.99791108784E+02 -0.74627745892E+03  0.94514653439E+03  0.25500000920E-02 0. -1.
</event>
<event>
 5   0  0.6648328E-05  0.2142437E+04  0.7818609E-02  0.8542776E-01
       -2   -1    0    0    0  501  0.00000000000E+00  0.00000000000E+00  0.11578924145E+04  0.11578924145E+04  0.25500000920E-02 0.  1.
        2   -1    0    0  501    0  0.00000000000E+00  0.00000000000E+00 -0.99103298428E+03  0.99103298429E+03  0.25500000920E-02 0. -1.
    10030    2    1    2    0    0  0.00000000000E+00  0.00000000000E+00  0.16685943021E+03  0.21489253988E+04  0.21424374670E+04 0.  0.
        2    1    3    3  502    0 -0.59818580240E+03 -0.15435780355E+03  0.96121242956E+03  0.11426206372E+04  0.25500000920E-02 0.  1.
       -2    1    3    3    0  502  0.59818580240E+03  0.15435780355E+03 -0.79435299935E+03  0.10063047616E+04  0.25500000920E-02 0. -1.
</event>
<event>
 5   0  0.2331375E-05  0.2490611E+04  0.7818609E-02  0.8406338E-01
        3   -1    0    0  501    0  0.00000000000E+00  0.00000000000E+00  0.17048524739E+04  0.17048524769E+04  0.10100000352E+00 0. -1.
       -3   -1    0    0    0  501  0.00000000000E+00  0.00000000000E+00 -0.90963066622E+03  0.90963067183E+03  0.10100000352E+00 0.  1.
    10030    2    1    2    0    0  0.00000000000E+00  0.00000000000E+00  0.79522180770E+03  0.26144831487E+04  0.24906112526E+04 0.  0.
        3    1    3    3  502    0  0.71359178734E+03 -0.96423185406E+03  0.46569254243E+02  0.12004686639E+04  0.10100000352E+00 0.  1.
       -3    1    3    3    0  502 -0.71359178734E+03  0.96423185406E+03  0.74865255346E+03  0.14140144848E+04  0.10100000352E+00 0. -1.
</event>
<event>
 5   0  0.6909250E-05  0.2450146E+04  0.7818609E-02  0.8420965E-01
       -2   -1    0    0    0  501  0.00000000000E+00  0.00000000000E+00  0.11876055924E+04  0.11876055924E+04  0.25500000920E-02 0.  1.
        2   -1    0    0  501    0  0.00000000000E+00  0.00000000000E+00 -0.12637221840E+04  0.12637221840E+04  0.25500000920E-02 0. -1.
    10030    2    1    2    0    0  0.00000000000E+00  0.00000000000E+00 -0.76116591540E+02  0.24513277764E+04  0.24501457368E+04 0.  0.
        4    1    3    3  502    0 -0.10025807605E+04  0.25150663781E+02  0.66584433332E+03  0.12038068891E+04  0.12699999809E+01 0.  1.
       -4    1    3    3    0  502  0.10025807605E+04 -0.25150663781E+02 -0.74196092486E+03  0.12475208873E+04  0.12699999809E+01 0. -1.
</event>
<event>
 5   0  0.7071821E-05  0.2495424E+04  0.7818609E-02  0.8404618E-01
       -2   -1    0    0    0  501  0.00000000000E+00  0.00000000000E+00  0.10200297702E+04  0.10200297702E+04  0.25500000920E-02 0.  1.
        2   -1    0    0  501    0  0.00000000000E+00  0.00000000000E+00 -0.15262153238E+04  0.15262153238E+04  0.25500000920E-02 0. -1.
    10030    2    1    2    0    0  0.00000000000E+00  0.00000000000E+00 -0.50618555353E+03  0.25462450940E+04  0.24954238646E+04 0.  0.
        5    1    3    3  502    0 -0.69076485475E+03 -0.43295099812E+03 -0.12168714992E+04  0.14647187399E+04  0.46999998093E+01 0. -1.
       -5    1    3    3    0  502  0.69076485475E+03  0.43295099812E+03  0.71068594566E+03  0.10815263541E+04  0.46999998093E+01 0.  1.
</event>
<event>
 5   0  0.2896652E-05  0.2499657E+04  0.7818609E-02  0.8403108E-01
       -1   -1    0    0    0  501  0.00000000000E+00  0.00000000000E+00  0.10527457881E+04  0.10527457881E+04  0.50400001928E-02 0.  1.
        1   -1    0    0  501    0  0.00000000000E+00  0.00000000000E+00 -0.14838068278E+04  0.14838068278E+04  0.50400001928E-02 0. -1.
    10030    2    1    2    0    0  0.00000000000E+00  0.00000000000E+00 -0.43106103970E+03  0.25365526160E+04  0.24996570872E+04 0.  0.
        4    1    3    3  502    0  0.33764792771E+03  0.30398387127E+03 -0.13970433029E+04  0.14690622588E+04  0.12699999809E+01 0. -1.
       -4    1    3    3    0  502 -0.33764792771E+03 -0.30398387127E+03  0.96598226318E+03  0.10674903572E+04  0.12699999809E+01 0.  1.
</event>
<event>
 5   0  0.2793920E-05  0.2445659E+04  0.7818609E-02  0.8422605E-01
       -1   -1    0    0    0  501  0.00000000000E+00  0.00000000000E+00  0.65412594085E+03  0.65412594087E+03  0.50400001928E-02 0. -1.
        1   -1    0    0  501    0  0.00000000000E+00  0.00000000000E+00 -0.22859695928E+04  0.22859695928E+04  0.50400001928E-02 0.  1.
    10030    2    1    2    0    0  0.00000000000E+00  0.00000000000E+00 -0.16318436519E+04  0.29400955337E+04  0.24456590201E+04 0.  0.
        2    1    3    3  502    0  0.84405799425E+03 -0.70746302384E+03 -0.17710252464E+03  0.11154833625E+04  0.25500000920E-02 0. -1.
       -2    1    3    3    0  502 -0.84405799425E+03  0.70746302384E+03 -0.14547411273E+04  0.18246121712E+04  0.25500000920E-02 0.  1.
</event>
<event>
 5   0  0.7071821E-05  0.2562919E+04  0.7818609E-02  0.8380907E-01
        2   -1    0    0  501    0  0.00000000000E+00  0.00000000000E+00  0.16278600435E+04  0.16278600435E+04  0.25500000920E-02 0. -1.
       -2   -1    0    0    0  501  0.00000000000E+00  0.00000000000E+00 -0.10087710886E+04  0.10087710886E+04  0.25500000920E-02 0.  1.
    10030    2    1    2    0    0  0.00000000000E+00  0.00000000000E+00  0.61908895490E+03  0.26366311320E+04  0.25629187643E+04 0.  0.
        5    1    3    3  502    0 -0.69482577080E+03 -0.24473423131E+02 -0.79786046752E+03  0.10582935395E+04  0.46999998093E+01 0.  1.
       -5    1    3    3    0  502  0.69482577080E+03  0.24473423131E+02  0.14169494224E+04  0.15783375925E+04  0.46999998093E+01 0. -1.
</event>
<event>
 5   0  0.2777539E-05  0.2274668E+04  0.7818609E-02  0.8487977E-01
        1   -1    0    0  501    0  0.00000000000E+00  0.00000000000E+00  0.15757393774E+04  0.15757393774E+04  0.50400001928E-02 0. -1.
       -1   -1    0    0    0  501  0.00000000000E+00  0.00000000000E+00 -0.82090231788E+03  0.82090231789E+03  0.50400001928E-02 0.  1.
    10030    2    1    2    0    0  0.00000000000E+00  0.00000000000E+00  0.75483705952E+03  0.23966416953E+04  0.22746675426E+04 0.  0.
        3    1    3    3  502    0  0.58053398084E+03  0.96689568491E+03  0.53234454861E+03  0.12471157513E+04  0.10100000352E+00 0. -1.
       -3    1    3    3    0  502 -0.58053398084E+03 -0.96689568491E+03  0.22249251091E+03  0.11495259440E+04  0.10100000352E+00 0.  1.
</event>
<event>
 5   0  0.6445331E-05  0.2631853E+04  0.7818609E-02  0.8357461E-01
       -2   -1    0    0    0  501  0.00000000000E+00  0.00000000000E+00  0.11457911677E+04  0.11457911677E+04  0.25500000920E-02 0.  1.
        2   -1    0    0  501    0  0.00000000000E+00  0.00000000000E+00 -0.15113247244E+04  0.15113247244E+04  0.25500000920E-02 0. -1.
    10030    2    1    2    0    0  0.00000000000E+00  0.00000000000E+00 -0.36553355672E+03  0.26571158921E+04  0.26318529752E+04 0.  0.
        1    1    3    3  502    0 -0.16205568029E+03  0.89361278388E+03  0.77866439218E+03  0.11962959862E+04  0.50400001928E-02 0.  1.
       -1    1    3    3    0  502  0.16205568029E+03 -0.89361278388E+03 -0.11441979489E+04  0.14608199059E+04  0.50400001928E-02 0. -1.
</event>
<event>
 5   0  0.2977854E-05  0.2495130E+04  0.7818609E-02  0.8404723E-01
       -1   -1    0    0    0  501  0.00000000000E+00  0.00000000000E+00  0.71614135497E+03  0.71614135498E+03  0.50400001928E-02 0. -1.
        1   -1    0    0  501    0  0.00000000000E+00  0.00000000000E+00 -0.21733388930E+04  0.21733388930E+04  0.50400001928E-02 0.  1.
    10030    2    1    2    0    0  0.00000000000E+00  0.00000000000E+00 -0.14571975381E+04  0.28894802480E+04  0.24951295435E+04 0.  0.
        1    1    3    3  502    0 -0.90597157102E+03 -0.49723538350E+03  0.80702398109E+02  0.10366004009E+04  0.50400001928E-02 0. -1.
       -1    1    3    3    0  502  0.90597157102E+03  0.49723538350E+03 -0.15378999362E+04  0.18528798471E+04  0.50400001928E-02 0.  1.
</event>
<event>
 5   0  0.6445331E-05  0.2639908E+04  0.7818609E-02  0.8354770E-01
       -2   -1    0    0    0  501  0.00000000000E+00  0.00000000000E+00  0.72413531172E+03  0.72413531173E+03  0.25500000920E-02 0.  1.
        2   -1    0    0  501    0  0.00000000000E+00  0.00000000000E+00 -0.24060130352E+04  0.24060130352E+04  0.25500000920E-02 0. -1.
    10030    2    1    2    0    0  0.00000000000E+00  0.00000000000E+00 -0.16818777234E+04  0.31301483469E+04  0.26399083312E+04 0.  0.
        1    1    3    3  502    0 -0.11321381919E+04 -0.37005891111E+03 -0.16644293006E+03  0.12026569471E+04  0.50400001928E-02 0.  1.
       -1    1    3    3    0  502  0.11321381919E+04  0.37005891111E+03 -0.15154347934E+04  0.19274913998E+04  0.50400001928E-02 0. -1.
</event>
<event>
 5   0  0.6445331E-05  0.2422137E+04  0.7818609E-02  0.8431262E-01
        2   -1    0    0  501    0  0.00000000000E+00  0.00000000000E+00  0.13186390164E+04  0.13186390164E+04  0.25500000920E-02 0.  1.
       -2   -1    0    0    0  501  0.00000000000E+00  0.00000000000E+00 -0.11122734944E+04  0.11122734944E+04  0.25500000920E-02 0. -1.
    10030    2    1    2    0    0  0.00000000000E+00  0.00000000000E+00  0.20636552207E+03  0.24309125108E+04  0.24221372600E+04 0.  0.
        1    1    3    3  502    0 -0.31509267706E+03 -0.19002494783E+03 -0.10548147415E+04  0.11171512946E+04  0.50400001928E-02 0. -1.
       -1    1    3    3    0  502  0.31509267706E+03  0.19002494783E+03  0.12611802636E+04  0.13137612162E+04  0.50400001928E-02 0.  1.
</event>
<event>
 5   0  0.7071821E-05  0.1851341E+04  0.7818609E-02  0.8679463E-01
        2   -1    0    0  501    0  0.00000000000E+00  0.00000000000E+00  0.12682835073E+04  0.12682835073E+04  0.25500000920E-02 0.  1.
       -2   -1    0    0    0  501  0.00000000000E+00  0.00000000000E+00 -0.67561067810E+03  0.67561067811E+03  0.25500000920E-02 0. -1.
    10030    2    1    2    0    0  0.00000000000E+00  0.00000000000E+00  0.59267282915E+03  0.19438941854E+04  0.18513410063E+04 0.  0.
        5    1    3    3  502    0 -0.11475959993E+03 -0.11983150653E+03 -0.65985714091E+03  0.68041376540E+03  0.46999998093E+01 0. -1.
       -5    1    3    3    0  502  0.11475959993E+03  0.11983150653E+03  0.12525299701E+04  0.12634804200E+04  0.46999998093E+01 0.  1.
</event>
<event>
 5   0  0.6827859E-05  0.1594459E+04  0.7818609E-02  0.8823959E-01
        2   -1    0    0  501    0  0.00000000000E+00  0.00000000000E+00  0.10604705280E+04  0.10604705280E+04  0.25500000920E-02 0.  1.
       -2   -1    0    0    0  501  0.00000000000E+00  0.00000000000E+00 -0.59933315484E+03  0.59933315485E+03  0.25500000920E-02 0. -1.
    10030    2    1    2    0    0  0.00000000000E+00  0.00000000000E+00  0.46113737316E+03  0.16598036828E+04  0.15944593406E+04 0.  0.
        3    1    3    3  502    0  0.23920057929E+03  0.73051888702E+03  0.45065795194E+03  0.89104846180E+03  0.10100000352E+00 0.  1.
       -3    1    3    3    0  502 -0.23920057929E+03 -0.73051888702E+03  0.10479421220E+02  0.76875522105E+03  0.10100000352E+00 0. -1.
</event>
<event>
 5   0  0.2793920E-05  0.2536713E+04  0.7818609E-02  0.8390022E-01
        1   -1    0    0  501    0  0.00000000000E+00  0.00000000000E+00  0.15162606740E+04  0.15162606740E+04  0.50400001928E-02 0.  1.
       -1   -1    0    0    0  501  0.00000000000E+00  0.00000000000E+00 -0.10609836227E+04  0.10609836227E+04  0.50400001928E-02 0. -1.
    10030    2    1    2    0    0  0.00000000000E+00  0.00000000000E+00  0.45527705126E+03  0.25772442967E+04  0.25367126308E+04 0.  0.
        2    1    3    3  502    0  0.81005196334E+03  0.18920227720E+03  0.12004055529E+04  0.14604640278E+04  0.25500000920E-02 0.  1.
       -2    1    3    3    0  502 -0.81005196334E+03 -0.18920227720E+03 -0.74512850167E+03  0.11167802689E+04  0.25500000920E-02 0. -1.
</event>
<event>
 5   0  0.2777539E-05  0.2429348E+04  0.7818609E-02  0.8428597E-01
       -1   -1    0    0    0  501  0.00000000000E+00  0.00000000000E+00  0.79326304941E+03  0.79326304943E+03  0.50400001928E-02 0. -1.
        1   -1    0    0  501    0  0.00000000000E+00  0.00000000000E+00 -0.18599549021E+04  0.18599549021E+04  0.50400001928E-02 0.  1.
    10030    2    1    2    0    0  0.00000000000E+00  0.00000000000E+00 -0.10666918527E+04  0.26532179516E+04  0.24293484702E+04 0.  0.
        3    1    3    3  502    0 -0.12080084242E+04 -0.61223427548E+02 -0.41172496756E+03  0.12777128473E+04  0.10100000352E+00 0. -1.
       -3    1    3    3    0  502  0.12080084242E+04  0.61223427548E+02 -0.65496688517E+03  0.13755051043E+04  0.10100000352E+00 0.  1.
</event>
<event>
 5   0  0.2331375E-05  0.2523943E+04  0.7818609E-02  0.8394505E-01
        3   -1    0    0  501    0  0.00000000000E+00  0.00000000000E+00  0.15696785145E+04  0.15696785178E+04  0.10100000352E+00 0.  1.
       -3   -1    0    0    0  501  0.00000000000E+00  0.00000000000E+00 -0.10145852347E+04  0.10145852397E+04  0.10100000352E+00 0. -1.
    10030    2    1    2    0    0  0.00000000000E+00  0.00000000000E+00  0.55509327987E+03  0.25842637574E+04  0.25239434658E+04 0.  0.
        5    1    3    3  502    0 -0.94565974564E+03  0.78359470722E+03 -0.19662126046E+02  0.12282921920E+04  0.46999998093E+01 0. -1.
       -5    1    3    3    0  502  0.94565974564E+03 -0.78359470722E+03  0.57475540591E+03  0.13559715655E+04  0.46999998093E+01 0.  1.
</event>
<event>
 5   0  0.2793920E-05  0.2357814E+04  0.7818609E-02  0.8455468E-01
       -1   -1    0    0    0  501  0.00000000000E+00  0.00000000000E+00  0.10052316197E+04  0.10052316197E+04  0.50400001928E-02 0. -1.
        1   -1    0    0  501    0  0.00000000000E+00  0.00000000000E+00 -0.13825889549E+04  0.13825889549E+04  0.50400001928E-02 0.  1.
    10030    2    1    2    0    0  0.00000000000E+00  0.00000000000E+00 -0.37735733526E+03  0.23878205746E+04  0.23578143562E+04 0.  0.
        2    1    3    3  502    0 -0.12696319275E+03 -0.58830456144E+03  0.83792822946E+03  0.10316712786E+04  0.25500000920E-02 0. -1.
       -2    1    3    3    0  502  0.12696319275E+03  0.58830456144E+03 -0.12152855647E+04  0.13561492960E+04  0.25500000920E-02 0.  1.
</event>
<event>
 5   0  0.2977854E-05  0.1474672E+04  0.7818609E-02  0.8901473E-01
       -1   -1    0    0    0  501  0.00000000000E+00  0.00000000000E+00  0.12560758268E+04  0.12560758268E+04  0.50400001928E-02 0. -1.
        1   -1    0    0  501    0  0.00000000000E+00  0.00000000000E+00 -0.43282772678E+03  0.43282772680E+03  0.50400001928E-02 0.  1.
    10030    2    1    2    0    0  0.00000000000E+00  0.00000000000E+00  0.82324810002E+03  0.16889035536E+04  0.14746720921E+04 0.  0.
        1    1    3    3  502    0  0.31539284181E+03  0.40638229985E+03  0.10166119476E+04  0.11393502843E+04  0.50400001928E-02 0. -1.
       -1    1    3    3    0  502 -0.31539284181E+03 -0.40638229985E+03 -0.19336384754E+03  0.54955326935E+03  0.50400001928E-02 0.  1.
</event>
<event>
 5   0  0.6445331E-05  0.1285232E+04  0.7818609E-02  0.9041359E-01
       -2   -1    0    0    0  501  0.00000000000E+00  0.00000000000E+00  0.34236843663E+03  0.34236843664E+03  0.25500000920E-02 0. -1.
        2   -1    0    0  501    0  0.00000000000E+00  0.00000000000E+00 -0.12061715347E+04  0.12061715347E+04  0.25500000920E-02 0.  1.
    10030    2    1    2    0    0  0.00000000000E+00  0.00000000000E+00 -0.86380309807E+03  0.15485399713E+04  0.12852315942E+04 0.  0.
        1    1    3    3  502    0 -0.25909693136E+03 -0.37325210014E+03  0.11562869508E+03  0.46884789138E+03  0.50400001928E-02 0. -1.
       -1    1    3    3    0  502  0.25909693136E+03  0.37325210014E+03 -0.97943179314E+03  0.10796920800E+04  0.50400001928E-02 0.  1.
</event>
<event>
 5   0  0.2777539E-05  0.2597947E+04  0.7818609E-02  0.8368899E-01
       -1   -1    0    0    0  501  0.00000000000E+00  0.00000000000E+00  0.79777850381E+03  0.79777850382E+03  0.50400001928E-02 0. -1.
        1   -1    0    0  501    0  0.00000000000E+00  0.00000000000E+00 -0.21150387984E+04  0.21150387984E+04  0.50400001928E-02 0.  1.
    10030    2    1    2    0    0  0.00000000000E+00  0.00000000000E+00 -0.13172602946E+04  0.29128173022E+04  0.25979472575E+04 0.  0.
        3    1    3    3  502    0 -0.69555070768E+03  0.92920690023E+03 -0.13125079468E+04  0.17521111183E+04  0.10100000352E+00 0.  1.
       -3    1    3    3    0  502  0.69555070768E+03 -0.92920690023E+03 -0.47523478385E+01  0.11607061839E+04  0.10100000352E+00 0. -1.
</event>
<event>
 5   0  0.6648328E-05  0.2479147E+04  0.7818609E-02  0.8410452E-01
       -2   -1    0    0    0  501  0.00000000000E+00  0.00000000000E+00  0.19531744628E+04  0.19531744628E+04  0.25500000920E-02 0.  1.
        2   -1    0    0  501    0  0.00000000000E+00  0.00000000000E+00 -0.78668982094E+03  0.78668982095E+03  0.25500000920E-02 0. -1.
    10030    2    1    2    0    0  0.00000000000E+00  0.00000000000E+00  0.11664846419E+04  0.27398642838E+04  0.24791470053E+04 0.  0.
        2    1    3    3  502    0 -0.91044763082E+03  0.60310454285E+03 -0.64851852984E+02  0.10940090223E+04  0.25500000920E-02 0. -1.
       -2    1    3    3    0  502  0.91044763082E+03 -0.60310454285E+03  0.12313364949E+04  0.16458552615E+04  0.25500000920E-02 0.  1.
</event>
<event>
 5   0  0.2980790E-05  0.2299073E+04  0.7818609E-02  0.8478287E-01
       -1   -1    0    0    0  501  0.00000000000E+00  0.00000000000E+00  0.93778343969E+03  0.93778343970E+03  0.50400001928E-02 0. -1.
        1   -1    0    0  501    0  0.00000000000E+00  0.00000000000E+00 -0.14091041023E+04  0.14091041023E+04  0.50400001928E-02 0.  1.
    10030    2    1    2    0    0  0.00000000000E+00  0.00000000000E+00 -0.47132066261E+03  0.23468875420E+04  0.22990732846E+04 0.  0.
        5    1    3    3  502    0 -0.56062272354E+03  0.87900662600E+03 -0.72994326860E+03  0.12727096103E+04  0.46999998093E+01 0.  1.
       -5    1    3    3    0  502  0.56062272354E+03 -0.87900662600E+03  0.25862260599E+03  0.10741779317E+04  0.46999998093E+01 0. -1.
</event>
<event>
 5   0  0.6909250E-05  0.2477483E+04  0.7818609E-02  0.8411052E-01
       -2   -1    0    0    0  501  0.00000000000E+00  0.00000000000E+00  0.16781482199E+04  0.16781482199E+04  0.25500000920E-02 0.  1.
        2   -1    0    0  501    0  0.00000000000E+00  0.00000000000E+00 -0.91438902943E+03  0.91438902943E+03  0.25500000920E-02 0. -1.
    10030    2    1    2    0    0  0.00000000000E+00  0.00000000000E+00  0.76375919047E+03  0.25925372493E+04  0.24774828532E+04 0.  0.
        4    1    3    3  502    0 -0.10657902845E+04 -0.34335257393E+03  0.93627439037E+03  0.14595928431E+04  0.12699999809E+01 0.  1.
       -4    1    3    3    0  502  0.10657902845E+04  0.34335257393E+03 -0.17251519989E+03  0.11329444063E+04  0.12699999809E+01 0. -1.
</event>
<event>
 5   0  0.6445331E-05  0.2501612E+04  0.7818609E-02  0.8402411E-01
       -2   -1    0    0    0  501  0.00000000000E+00  0.00000000000E+00  0.19207619354E+04  0.19207619354E+04  0.25500000920E-02 0.  1.
        2   -1    0    0  501    0  0.00000000000E+00  0.00000000000E+00 -0.81452865437E+03  0.81452865437E+03  0.25500000920E-02 0. -1.
    10030    2    1    2    0    0  0.00000000000E+00  0.00000000000E+00  0.11062332810E+04  0.27352905898E+04  0.25016119880E+04 0.  0.
        1    1    3    3  502    0  0.95297219350E+03  0.56733435476E+03 -0.79260228496E+02  0.11118931853E+04  0.50400001928E-02 0.  1.
       -1    1    3    3    0  502 -0.95297219350E+03 -0.56733435476E+03  0.11854935095E+04  0.16233974045E+04  0.50400001928E-02 0. -1.
</event>
<event>
 5   0  0.6445331E-05  0.2462951E+04  0.7818609E-02  0.8416304E-01
       -2   -1    0    0    0  501  0.00000000000E+00  0.00000000000E+00  0.81149249964E+03  0.81149249964E+03  0.25500000920E-02 0. -1.
        2   -1    0    0  501    0  0.00000000000E+00  0.00000000000E+00 -0.18688187613E+04  0.18688187613E+04  0.25500000920E-02 0.  1.
    10030    2    1    2    0    0  0.00000000000E+00  0.00000000000E+00 -0.10573262617E+04  0.26803112610E+04  0.24629514067E+04 0.  0.
        1    1    3    3  502    0  0.14983273674E+03  0.12163788059E+04 -0.39759695100E+03  0.12884527869E+04  0.50400001928E-02 0.  1.
       -1    1    3    3    0  502 -0.14983273674E+03 -0.12163788059E+04 -0.65972931069E+03  0.13918584741E+04  0.50400001928E-02 0. -1.
</event>
<event>
 5   0  0.2896652E-05  0.2539717E+04  0.7818609E-02  0.8388971E-01
       -1   -1    0    0    0  501  0.00000000000E+00  0.00000000000E+00  0.55203427010E+03  0.55203427013E+03  0.50400001928E-02 0.  1.
        1   -1    0    0  501    0  0.00000000000E+00  0.00000000000E+00 -0.29210871098E+04  0.29210871098E+04  0.50400001928E-02 0. -1.
    10030    2    1    2    0    0  0.00000000000E+00  0.00000000000E+00 -0.23690528397E+04  0.34731213799E+04  0.25397166697E+04 0.  0.
        4    1    3    3  502    0  0.98211729969E+03  0.79553383793E+03 -0.10164261688E+04  0.16218977302E+04  0.12699999809E+01 0.  1.
       -4    1    3    3    0  502 -0.98211729969E+03 -0.79553383793E+03 -0.13526266709E+04  0.18512236497E+04  0.12699999809E+01 0. -1.
</event>
<event>
 5   0  0.6909250E-05  0.2486009E+04  0.7818609E-02  0.8407987E-01
       -2   -1    0    0    0  501  0.00000000000E+00  0.00000000000E+00  0.13934589975E+04  0.13934589975E+04  0.25500000920E-02 0.  1.
        2   -1    0    0  501    0  0.00000000000E+00  0.00000000000E+00 -0.11087944495E+04  0.11087944495E+04  0.25500000920E-02 0. -1.
    10030    2    1    2    0    0  0.00000000000E+00  0.00000000000E+00  0.28466454806E+03  0.25022534470E+04  0.24860085294E+04 0.  0.
        4    1    3    3  502    0 -0.12143480486E+04 -0.25354834460E+03  0.22113848317E+03  0.12600919760E+04  0.12699999809E+01 0.  1.
       -4    1    3    3    0  502  0.12143480486E+04  0.25354834460E+03  0.63526064892E+02  0.12421614710E+04  0.12699999809E+01 0. -1.
</event>
<event>
 5   0  0.6909250E-05  0.2465680E+04  0.7818609E-02  0.8415315E-01
        2   -1    0    0  501    0  0.00000000000E+00  0.00000000000E+00  0.91027147875E+03  0.91027147875E+03  0.25500000920E-02 0. -1.
       -2   -1    0    0    0  501  0.00000000000E+00  0.00000000000E+00 -0.16697152801E+04  0.16697152801E+04  0.25500000920E-02 0.  1.
    10030    2    1    2    0    0  0.00000000000E+00  0.00000000000E+00 -0.75944380139E+03  0.25799867589E+04  0.24656797822E+04 0.  0.
        4    1    3    3  502    0 -0.13015787100E+03  0.15927753258E+03 -0.16516326140E+04  0.16643924743E+04  0.12699999809E+01 0.  1.
       -4    1    3    3    0  502  0.13015787100E+03 -0.15927753258E+03  0.89218881263E+03  0.91559428463E+03  0.12699999809E+01 0. -1.
</event>
<event>
 5   0  0.2793920E-05  0.2551140E+04  0.7818609E-02  0.8384990E-01
       -1   -1    0    0    0  501  0.00000000000E+00  0.00000000000E+00  0.13663833281E+04  0.13663833281E+04  0.50400001928E-02 0. -1.
        1   -1    0    0  501    0  0.00000000000E+00  0.00000000000E+00 -0.11907927628E+04  0.11907927628E+04  0.50400001928E-02 0.  1.
    10030    2    1    2    0    0  0.00000000000E+00  0.00000000000E+00  0.17559056534E+03  0.25571760909E+04  0.25511404338E+04 0.  0.
        2    1    3    3  502    0 -0.11511685902E+04  0.35267448473E+03 -0.33452200444E+03  0.12495892872E+04  0.25500000920E-02 0. -1.
       -2    1    3    3    0  502  0.11511685902E+04 -0.35267448473E+03  0.51011256979E+03  0.13075868037E+04  0.25500000920E-02 0.  1.
</event>
<event>
 5   0  0.6445331E-05  0.2352116E+04  0.7818609E-02  0.8457651E-01
       -2   -1    0    0    0  501  0.00000000000E+00  0.00000000000E+00  0.14252948847E+04  0.14252948847E+04  0.25500000920E-02 0.  1.
        2   -1    0    0  501    0  0.00000000000E+00  0.00000000000E+00 -0.97040463684E+03  0.97040463684E+03  0.25500000920E-02 0. -1.
    10030    2    1    2    0    0  0.00000000000E+00  0.00000000000E+00  0.45489024790E+03  0.23956995216E+04  0.23521162939E+04 0.  0.
        1    1    3    3  502    0  0.24751292136E+03 -0.19617029119E+03  0.13812943057E+04  0.14169401499E+04  0.50400001928E-02 0.  1.
       -1    1    3    3    0  502 -0.24751292136E+03  0.19617029119E+03 -0.92640405779E+03  0.97875937170E+03  0.50400001928E-02 0. -1.
</event>
<event>
 5   0  0.2980790E-05  0.2531796E+04  0.7818609E-02  0.8391745E-01
        1   -1    0    0  501    0  0.00000000000E+00  0.00000000000E+00  0.15183291741E+04  0.15183291741E+04  0.50400001928E-02 0. -1.
       -1   -1    0    0    0  501  0.00000000000E+00  0.00000000000E+00 -0.10554348825E+04  0.10554348825E+04  0.50400001928E-02 0.  1.
    10030    2    1    2    0    0  0.00000000000E+00  0.00000000000E+00  0.46289429160E+03  0.25737640566E+04  0.25317958634E+04 0.  0.
        5    1    3    3  502    0  0.17534687654E+03 -0.11971463603E+04 -0.14697273654E+03  0.12188227969E+04  0.46999998093E+01 0.  1.
       -5    1    3    3    0  502 -0.17534687654E+03  0.11971463603E+04  0.60986702814E+03  0.13549412596E+04  0.46999998093E+01 0. -1.
</event>
<event>
 5   0  0.2980790E-05  0.2558259E+04  0.7818609E-02  0.8382519E-01
       -1   -1    0    0    0  501  0.00000000000E+00  0.00000000000E+00  0.12498843746E+04  0.12498843746E+04  0.50400001928E-02 0.  1.
        1   -1    0    0  501    0  0.00000000000E+00  0.00000000000E+00 -0.13090593721E+04  0.13090593721E+04  0.50400001928E-02 0. -1.
    10030    2    1    2    0    0  0.00000000000E+00  0.00000000000E+00 -0.59174997479E+02  0.25589437468E+04  0.25582594510E+04 0.  0.
        5    1    3    3  502    0  0.34832267089E+03  0.72146188865E+03  0.96783258547E+03  0.12564067587E+04  0.46999998093E+01 0.  1.
       -5    1    3    3    0  502 -0.34832267089E+03 -0.72146188865E+03 -0.10270075829E+04  0.13025369881E+04  0.46999998093E+01 0. -1.
</event>
<event>
 5   0  0.2980790E-05  0.2454102E+04  0.7818609E-02  0.8419522E-01
       -1   -1    0    0    0  501  0.00000000000E+00  0.00000000000E+00  0.60104722048E+03  0.60104722051E+03  0.50400001928E-02 0. -1.
        1   -1    0    0  501    0  0.00000000000E+00  0.00000000000E+00 -0.25050504573E+04  0.25050504573E+04  0.50400001928E-02 0.  1.
    10030    2    1    2    0    0  0.00000000000E+00  0.00000000000E+00 -0.19040032368E+04  0.31060976778E+04  0.24541015583E+04 0.  0.
        5    1    3    3  502    0 -0.20868155446E+02 -0.36930016157E+03  0.52879259066E+03  0.64533850279E+03  0.46999998093E+01 0. -1.
       -5    1    3    3    0  502  0.20868155446E+02  0.36930016157E+03 -0.24327958275E+04  0.24607591750E+04  0.46999998093E+01 0.  1.
</event>
<event>
 5   0  0.2793920E-05  0.2545198E+04  0.7818609E-02  0.8387058E-01
       -1   -1    0    0    0  501  0.00000000000E+00  0.00000000000E+00  0.12049587253E+04  0.12049587253E+04  0.50400001928E-02 0.  1.
        1   -1    0    0  501    0  0.00000000000E+00  0.00000000000E+00 -0.13440364172E+04  0.13440364172E+04  0.50400001928E-02 0. -1.
    10030    2    1    2    0    0  0.00000000000E+00  0.00000000000E+00 -0.13907769193E+03  0.25489951425E+04  0.25451981518E+04 0.  0.
        2    1    3    3  502    0 -0.51478579656E+03 -0.93636779885E+03 -0.76174239085E+03  0.13122654233E+04  0.25500000920E-02 0. -1.
       -2    1    3    3    0  502  0.51478579656E+03  0.93636779885E+03  0.62266469892E+03  0.12367297192E+04  0.25500000920E-02 0.  1.
</event>
<event>
 5   0  0.6827859E-05  0.2493871E+04  0.7818609E-02  0.8405172E-01
        2   -1    0    0  501    0  0.00000000000E+00  0.00000000000E+00  0.15921773798E+04  0.15921773798E+04  0.25500000920E-02 0.  1.
       -2   -1    0    0    0  501  0.00000000000E+00  0.00000000000E+00 -0.97655439083E+03  0.97655439084E+03  0.25500000920E-02 0. -1.
    10030    2    1    2    0    0  0.00000000000E+00  0.00000000000E+00  0.61562298893E+03  0.25687317706E+04  0.24938707354E+04 0.  0.
        3    1    3    3  502    0 -0.38500317668E+03 -0.11840970603E+04  0.37717161516E+03  0.13009887516E+04  0.10100000352E+00 0. -1.
       -3    1    3    3    0  502  0.38500317668E+03  0.11840970603E+04  0.23845137377E+03  0.12677430190E+04  0.10100000352E+00 0.  1.
</event>
<event>
 5   0  0.7071821E-05  0.2512442E+04  0.7818609E-02  0.8398566E-01
       -2   -1    0    0    0  501  0.00000000000E+00  0.00000000000E+00  0.83102478694E+03  0.83102478695E+03  0.25500000920E-02 0.  1.
        2   -1    0    0  501    0  0.00000000000E+00  0.00000000000E+00 -0.18989700183E+04  0.18989700183E+04  0.25500000920E-02 0. -1.
    10030    2    1    2    0    0  0.00000000000E+00  0.00000000000E+00 -0.10679452314E+04  0.27299948053E+04  0.25124419634E+04 0.  0.
        5    1    3    3  502    0 -0.19369977808E+03 -0.74217565223E+03  0.54702067936E+03  0.94212420435E+03  0.46999998093E+01 0.  1.
       -5    1    3    3    0  502  0.19369977808E+03  0.74217565223E+03 -0.16149659108E+04  0.17878706009E+04  0.46999998093E+01 0. -1.
</event>
<event>
 5   0  0.6648328E-05  0.2387631E+04  0.7818609E-02  0.8444149E-01
       -2   -1    0    0    0  501  0.00000000000E+00  0.00000000000E+00  0.70631633616E+03  0.70631633616E+03  0.25500000920E-02 0.  1.
        2   -1    0    0  501    0  0.00000000000E+00  0.00000000000E+00 -0.20177859130E+04  0.20177859130E+04  0.25500000920E-02 0. -1.
    10030    2    1    2    0    0  0.00000000000E+00  0.00000000000E+00 -0.13114695768E+04  0.27241022491E+04  0.23876307530E+04 0.  0.
        2    1    3    3  502    0  0.21311117408E+03  0.11371938994E+04 -0.99142368717E+03  0.15236624511E+04  0.25500000920E-02 0. -1.
       -2    1    3    3    0  502 -0.21311117408E+03 -0.11371938994E+04 -0.32004588964E+03  0.12004397981E+04  0.25500000920E-02 0.  1.
</event>
<event>
 5   0  0.2793920E-05  0.2193673E+04  0.7818609E-02  0.8521066E-01
        1   -1    0    0  501    0  0.00000000000E+00  0.00000000000E+00  0.11243825322E+04  0.11243825322E+04  0.50400001928E-02 0. -1.
       -1   -1    0    0    0  501  0.00000000000E+00  0.00000000000E+00 -0.10699648825E+04  0.10699648825E+04  0.50400001928E-02 0.  1.
    10030    2    1    2    0    0  0.00000000000E+00  0.00000000000E+00  0.54417649751E+02  0.21943474147E+04  0.21936725589E+04 0.  0.
        2    1    3    3  502    0 -0.11923149468E+03 -0.78214903112E+03 -0.73268043222E+03  0.10783292039E+04  0.25500000920E-02 0.  1.
       -2    1    3    3    0  502  0.11923149468E+03  0.78214903112E+03  0.78709808197E+03  0.11160182108E+04  0.25500000920E-02 0. -1.
</event>
<event>
 5   0  0.6445331E-05  0.2527907E+04  0.7818609E-02  0.8393110E-01
        2   -1    0    0  501    0  0.00000000000E+00  0.00000000000E+00  0.11340797775E+04  0.11340797775E+04  0.25500000920E-02 0.  1.
       -2   -1    0    0    0  501  0.00000000000E+00  0.00000000000E+00 -0.14087005677E+04  0.14087005677E+04  0.25500000920E-02 0. -1.
    10030    2    1    2    0    0  0.00000000000E+00  0.00000000000E+00 -0.27462079024E+03  0.25427803451E+04  0.25279072976E+04 0.  0.
        1    1    3    3  502    0 -0.16646698076E+03  0.78494845990E+03 -0.11196438637E+04  0.13774823854E+04  0.50400001928E-02 0. -1.
       -1    1    3    3    0  502  0.16646698076E+03 -0.78494845990E+03  0.84502307347E+03  0.11652979598E+04  0.50400001928E-02 0.  1.
</event>
<event>
 5   0  0.2793920E-05  0.1550892E+04  0.7818609E-02  0.8851298E-01
        1   -1    0    0  501    0  0.00000000000E+00  0.00000000000E+00  0.15806124707E+04  0.15806124707E+04  0.50400001928E-02 0. -1.
       -1   -1    0    0    0  501  0.00000000000E+00  0.00000000000E+00 -0.38043261444E+03  0.38043261447E+03  0.50400001928E-02 0.  1.
    10030    2    1    2    0    0  0.00000000000E+00  0.00000000000E+00  0.12001798562E+04  0.19610450851E+04  0.15508920461E+04 0.  0.
        2    1    3    3  502    0  0.24805059317E+03  0.44095730800E+03  0.13431638568E+04  0.14352914654E+04  0.25500000920E-02 0. -1.
       -2    1    3    3    0  502 -0.24805059317E+03 -0.44095730800E+03 -0.14298400062E+03  0.52575361976E+03  0.25500000920E-02 0.  1.
</event>
<event>
 5   0  0.2977854E-05  0.2487871E+04  0.7818609E-02  0.8407319E-01
        1   -1    0    0  501    0  0.00000000000E+00  0.00000000000E+00  0.76430119587E+03  0.76430119589E+03  0.50400001928E-02 0. -1.
       -1   -1    0    0    0  501  0.00000000000E+00  0.00000000000E+00 -0.20245619382E+04  0.20245619382E+04  0.50400001928E-02 0.  1.
    10030    2    1    2    0    0  0.00000000000E+00  0.00000000000E+00 -0.12602607423E+04  0.27888631340E+04  0.24878706642E+04 0.  0.
        1    1    3    3  502    0 -0.59247897514E+03 -0.99107807485E+03 -0.11143081786E+03  0.11600361691E+04  0.50400001928E-02 0. -1.
       -1    1    3    3    0  502  0.59247897514E+03  0.99107807485E+03 -0.11488299244E+04  0.16288269649E+04  0.50400001928E-02 0.  1.
</event>
<event>
 5   0  0.2777539E-05  0.2432137E+04  0.7818609E-02  0.8427569E-01
        1   -1    0    0  501    0  0.00000000000E+00  0.00000000000E+00  0.10177339027E+04  0.10177339027E+04  0.50400001928E-02 0.  1.
       -1   -1    0    0    0  501  0.00000000000E+00  0.00000000000E+00 -0.14530543974E+04  0.14530543974E+04  0.50400001928E-02 0. -1.
    10030    2    1    2    0    0  0.00000000000E+00  0.00000000000E+00 -0.43532049472E+03  0.24707883001E+04  0.24321371037E+04 0.  0.
        3    1    3    3  502    0  0.23174022489E+03 -0.11733856361E+04  0.55710502137E+01  0.11960637231E+04  0.10100000352E+00 0.  1.
       -3    1    3    3    0  502 -0.23174022489E+03  0.11733856361E+04 -0.44089154493E+03  0.12747245771E+04  0.10100000352E+00 0. -1.
</event>
<event>
 5   0  0.2793920E-05  0.2345131E+04  0.7818609E-02  0.8460336E-01
        1   -1    0    0  501    0  0.00000000000E+00  0.00000000000E+00  0.13609132493E+04  0.13609132493E+04  0.50400001928E-02 0. -1.
       -1   -1    0    0    0  501  0.00000000000E+00  0.00000000000E+00 -0.10102850252E+04  0.10102850252E+04  0.50400001928E-02 0.  1.
    10030    2    1    2    0    0  0.00000000000E+00  0.00000000000E+00  0.35062822411E+03  0.23711982745E+04  0.23451313621E+04 0.  0.
        2    1    3    3  502    0  0.89667688895E+03 -0.29701453500E+03  0.87777603659E+03  0.12894719259E+04  0.25500000920E-02 0. -1.
       -2    1    3    3    0  502 -0.89667688895E+03  0.29701453500E+03 -0.52714781247E+03  0.10817263487E+04  0.25500000920E-02 0.  1.
</event>
<event>
 5   0  0.2777539E-05  0.2443473E+04  0.7818609E-02  0.8423405E-01
       -1   -1    0    0    0  501  0.00000000000E+00  0.00000000000E+00  0.75008788220E+03  0.75008788221E+03  0.50400001928E-02 0.  1.
        1   -1    0    0  501    0  0.00000000000E+00  0.00000000000E+00 -0.19899538330E+04  0.19899538330E+04  0.50400001928E-02 0. -1.
    10030    2    1    2    0    0  0.00000000000E+00  0.00000000000E+00 -0.12398659508E+04  0.27400417152E+04  0.24434731480E+04 0.  0.
        3    1    3    3  502    0  0.72561635829E+03  0.72360412606E+03 -0.13658923566E+04  0.17075666812E+04  0.10100000352E+00 0. -1.
       -3    1    3    3    0  502 -0.72561635829E+03 -0.72360412606E+03  0.12602640582E+03  0.10324750340E+04  0.10100000352E+00 0.  1.
</event>
<event>
 5   0  0.2977854E-05  0.2543929E+04  0.7818609E-02  0.8387501E-01
        1   -1    0    0  501    0  0.00000000000E+00  0.00000000000E+00  0.18881378862E+04  0.18881378862E+04  0.50400001928E-02 0.  1.
       -1   -1    0    0    0  501  0.00000000000E+00  0.00000000000E+00 -0.85687240856E+03  0.85687240857E+03  0.50400001928E-02 0. -1.
    10030    2    1    2    0    0  0.00000000000E+00  0.00000000000E+00  0.10312654776E+04  0.27450102948E+04  0.25439286611E+04 0.  0.
        1    1    3    3  502    0  0.31355699725E+03 -0.75163162056E+03 -0.53864610290E+03  0.97642598683E+03  0.50400001928E-02 0. -1.
       -1    1    3    3    0  502 -0.31355699725E+03  0.75163162056E+03  0.15699115805E+04  0.17685843079E+04  0.50400001928E-02 0.  1.
</event>
<event>
 5   0  0.2793920E-05  0.1614513E+04  0.7818609E-02  0.8811681E-01
       -1   -1    0    0    0  501  0.00000000000E+00  0.00000000000E+00  0.62278262533E+03  0.62278262535E+03  0.50400001928E-02 0.  1.
        1   -1    0    0  501    0  0.00000000000E+00  0.00000000000E+00 -0.10463734865E+04  0.10463734865E+04  0.50400001928E-02 0. -1.
    10030    2    1    2    0    0  0.00000000000E+00  0.00000000000E+00 -0.42359086120E+03  0.16691561119E+04  0.16145132109E+04 0.  0.
        2    1    3    3  502    0 -0.12597264328E+03 -0.26197426200E+03  0.56679584259E+03  0.63699069694E+03  0.25500000920E-02 0.  1.
       -2    1    3    3    0  502  0.12597264328E+03  0.26197426200E+03 -0.99038670379E+03  0.10321654150E+04  0.25500000920E-02 0. -1.
</event>
<event>
 5   0  0.6648328E-05  0.2496414E+04  0.7818609E-02  0.8404264E-01
       -2   -1    0    0    0  501  0.00000000000E+00  0.00000000000E+00  0.87738662454E+03  0.87738662454E+03  0.25500000920E-02 0. -1.
        2   -1    0    0  501    0  0.00000000000E+00  0.00000000000E+00 -0.17757517984E+04  0.17757517984E+04  0.25500000920E-02 0.  1.
    10030    2    1    2    0    0  0.00000000000E+00  0.00000000000E+00 -0.89836517381E+03  0.26531384229E+04  0.24964141294E+04 0.  0.
        2    1    3    3  502    0  0.44770417504E+03  0.84569372626E+03 -0.13009884489E+04  0.16149946907E+04  0.25500000920E-02 0.  1.
       -2    1    3    3    0  502 -0.44770417504E+03 -0.84569372626E+03  0.40262327507E+03  0.10381437322E+04  0.25500000920E-02 0. -1.
</event>
<event>
 5   0  0.2793920E-05  0.2433238E+04  0.7818609E-02  0.8427163E-01
        1   -1    0    0  501    0  0.00000000000E+00  0.00000000000E+00  0.17318223292E+04  0.17318223292E+04  0.50400001928E-02 0.  1.
       -1   -1    0    0    0  501  0.00000000000E+00  0.00000000000E+00 -0.85468468799E+03  0.85468468801E+03  0.50400001928E-02 0. -1.
    10030    2    1    2    0    0  0.00000000000E+00  0.00000000000E+00  0.87713764119E+03  0.25865070172E+04  0.24332381939E+04 0.  0.
        2    1    3    3  502    0  0.87543870297E+03 -0.59390276530E+03  0.10772908199E+04  0.15098572542E+04  0.25500000920E-02 0.  1.
       -2    1    3    3    0  502 -0.87543870297E+03  0.59390276530E+03 -0.20015317871E+03  0.10766497630E+04  0.25500000920E-02 0. -1.
</event>
<event>
 5   0  0.2980790E-05  0.2401310E+04  0.7818609E-02  0.8439013E-01
        1   -1    0    0  501    0  0.00000000000E+00  0.00000000000E+00  0.15314340952E+04  0.15314340952E+04  0.50400001928E-02 0. -1.
       -1   -1    0    0    0  501  0.00000000000E+00  0.00000000000E+00 -0.94132223647E+03  0.94132223648E+03  0.50400001928E-02 0.  1.
    10030    2    1    2    0    0  0.00000000000E+00  0.00000000000E+00  0.59011185875E+03  0.24727563317E+04  0.24013104485E+04 0.  0.
        5    1    3    3  502    0  0.37991214323E+03  0.49351120193E+03 -0.76196637609E+03  0.98412468280E+03  0.46999998093E+01 0.  1.
       -5    1    3    3    0  502 -0.37991214323E+03 -0.49351120193E+03  0.13520782348E+04  0.14886316489E+04  0.46999998093E+01 0. -1.
</event>
<event>
 5   0  0.2331375E-05  0.2784381E+04  0.7818609E-02  0.8308134E-01
       -3   -1    0    0    0  501  0.00000000000E+00  0.00000000000E+00  0.87168282153E+03  0.87168282738E+03  0.10100000352E+00 0. -1.
        3   -1    0    0  501    0  0.00000000000E+00  0.00000000000E+00 -0.22235087918E+04  0.22235087941E+04  0.10100000352E+00 0.  1.
    10030    2    1    2    0    0  0.00000000000E+00  0.00000000000E+00 -0.13518259702E+04  0.30951916214E+04  0.27843810299E+04 0.  0.
        5    1    3    3  502    0 -0.48423884447E+03 -0.11755122934E+04 -0.45261196156E+02  0.12721584321E+04  0.46999998093E+01 0. -1.
       -5    1    3    3    0  502  0.48423884447E+03  0.11755122934E+04 -0.13065647741E+04  0.18230331893E+04  0.46999998093E+01 0.  1.
</event>
<event>
 5   0  0.6827859E-05  0.2491153E+04  0.7818609E-02  0.8406144E-01
       -2   -1    0    0    0  501  0.00000000000E+00  0.00000000000E+00  0.67433245688E+03  0.67433245689E+03  0.25500000920E-02 0.  1.
        2   -1    0    0  501    0  0.00000000000E+00  0.00000000000E+00 -0.23007351501E+04  0.23007351501E+04  0.25500000920E-02 0. -1.
    10030    2    1    2    0    0  0.00000000000E+00  0.00000000000E+00 -0.16264026932E+04  0.29750676070E+04  0.24911526540E+04 0.  0.
        3    1    3    3  502    0  0.42694355721E+03 -0.74104079692E+03 -0.18946689563E+04  0.20787478750E+04  0.10100000352E+00 0. -1.
       -3    1    3    3    0  502 -0.42694355721E+03  0.74104079692E+03  0.26826626311E+03  0.89631973194E+03  0.10100000352E+00 0.  1.
</event>
<event>
 5   0  0.6827859E-05  0.2381429E+04  0.7818609E-02  0.8446489E-01
        2   -1    0    0  501    0  0.00000000000E+00  0.00000000000E+00  0.12904333758E+04  0.12904333758E+04  0.25500000920E-02 0.  1.
       -2   -1    0    0    0  501  0.00000000000E+00  0.00000000000E+00 -0.10987017021E+04  0.10987017021E+04  0.25500000920E-02 0. -1.
    10030    2    1    2    0    0  0.00000000000E+00  0.00000000000E+00  0.19173167377E+03  0.23891350779E+04  0.23814292737E+04 0.  0.
        3    1    3    3  502    0  0.26156501293E+03  0.89547256449E+03  0.83820200010E+03  0.12541411296E+04  0.10100000352E+00 0.  1.
       -3    1    3    3    0  502 -0.26156501293E+03 -0.89547256449E+03 -0.64647032633E+03  0.11349939483E+04  0.10100000352E+00 0. -1.
</event>
<event>
 5   0  0.6909250E-05  0.2572174E+04  0.7818609E-02  0.8377715E-01
       -2   -1    0    0    0  501  0.00000000000E+00  0.00000000000E+00  0.58779798727E+03  0.58779798728E+03  0.25500000920E-02 0. -1.
        2   -1    0    0  501    0  0.00000000000E+00  0.00000000000E+00 -0.28139250182E+04  0.28139250182E+04  0.25500000920E-02 0.  1.
    10030    2    1    2    0    0  0.00000000000E+00  0.00000000000E+00 -0.22261270309E+04  0.34017230055E+04  0.25721737593E+04 0.  0.
        4    1    3    3  502    0  0.12244874825E+04  0.22457237365E+03 -0.15400015133E+04  0.19802546856E+04  0.12699999809E+01 0.  1.
       -4    1    3    3    0  502 -0.12244874825E+04 -0.22457237365E+03 -0.68612551763E+03  0.14214683199E+04  0.12699999809E+01 0. -1.
</event>
<event>
 5   0  0.6827859E-05  0.2401575E+04  0.7818609E-02  0.8438914E-01
       -2   -1    0    0    0  501  0.00000000000E+00  0.00000000000E+00  0.10347279191E+04  0.10347279191E+04  0.25500000920E-02 0. -1.
        2   -1    0    0  501    0  0.00000000000E+00  0.00000000000E+00 -0.13934979196E+04  0.13934979196E+04  0.25500000920E-02 0.  1.
    10030    2    1    2    0    0  0.00000000000E+00  0.00000000000E+00 -0.35877000054E+03  0.24282258387E+04  0.24015754851E+04 0.  0.
        3    1    3    3  502    0  0.57677874797E+03 -0.38220319183E+03  0.81290162099E+03  0.10675027211E+04  0.10100000352E+00 0. -1.
       -3    1    3    3    0  502 -0.57677874797E+03  0.38220319183E+03 -0.11716716215E+04  0.13607231176E+04  0.10100000352E+00 0.  1.
</event>
<event>
 5   0  0.6445331E-05  0.2653754E+04  0.7818609E-02  0.8350168E-01
       -2   -1    0    0    0  501  0.00000000000E+00  0.00000000000E+00  0.74873162358E+03  0.74873162359E+03  0.25500000920E-02 0. -1.
        2   -1    0    0  501    0  0.00000000000E+00  0.00000000000E+00 -0.23514467911E+04  0.23514467911E+04  0.25500000920E-02 0.  1.
    10030    2    1    2    0    0  0.00000000000E+00  0.00000000000E+00 -0.16027151675E+04  0.31001784147E+04  0.26537540004E+04 0.  0.
        1    1    3    3  502    0 -0.47474985041E+03 -0.85931352290E+03  0.24143862007E+03  0.10109894947E+04  0.50400001928E-02 0. -1.
       -1    1    3    3    0  502  0.47474985041E+03  0.85931352290E+03 -0.18441537876E+04  0.20891889200E+04  0.50400001928E-02 0.  1.
</event>
<event>
 5   0  0.6827859E-05  0.2443685E+04  0.7818609E-02  0.8423327E-01
        2   -1    0    0  501    0  0.00000000000E+00  0.00000000000E+00  0.13516046752E+04  0.13516046752E+04  0.25500000920E-02 0. -1.
       -2   -1    0    0    0  501  0.00000000000E+00  0.00000000000E+00 -0.11045384660E+04  0.11045384660E+04  0.25500000920E-02 0.  1.
    10030    2    1    2    0    0  0.00000000000E+00  0.00000000000E+00  0.24706620920E+03  0.24561431411E+04  0.24436852125E+04 0.  0.
        3    1    3    3  502    0 -0.71518083061E+03 -0.30236412061E+02  0.11187839154E+04  0.13281849723E+04  0.10100000352E+00 0. -1.
       -3    1    3    3    0  502  0.71518083061E+03  0.30236412061E+02 -0.87171770620E+03  0.11279581688E+04  0.10100000352E+00 0.  1.
</event>
<event>
 5   0  0.7071821E-05  0.2433769E+04  0.7818609E-02  0.8426968E-01
        2   -1    0    0  501    0  0.00000000000E+00  0.00000000000E+00  0.14821122478E+04  0.14821122478E+04  0.25500000920E-02 0. -1.
       -2   -1    0    0    0  501  0.00000000000E+00  0.00000000000E+00 -0.99911959759E+03  0.99911959760E+03  0.25500000920E-02 0.  1.
    10030    2    1    2    0    0  0.00000000000E+00  0.00000000000E+00  0.48299265022E+03  0.24812318454E+04  0.24337685943E+04 0.  0.
        5    1    3    3  502    0 -0.10792861509E+03  0.33018720903E+03 -0.94748649501E+03  0.10091704153E+04  0.46999998093E+01 0.  1.
       -5    1    3    3    0  502  0.10792861509E+03 -0.33018720903E+03  0.14304791452E+04  0.14720614301E+04  0.46999998093E+01 0. -1.
</event>
<event>
 5   0  0.2777539E-05  0.2541733E+04  0.7818609E-02  0.8388267E-01
        1   -1    0    0  501    0  0.00000000000E+00  0.00000000000E+00  0.82649218769E+03  0.82649218771E+03  0.50400001928E-02 0.  1.
       -1   -1    0    0    0  501  0.00000000000E+00  0.00000000000E+00 -0.19541647417E+04  0.19541647417E+04  0.50400001928E-02 0. -1.
    10030    2    1    2    0    0  0.00000000000E+00  0.00000000000E+00 -0.11276725540E+04  0.27806569294E+04  0.25417331823E+04 0.  0.
        3    1    3    3  502    0  0.10312413407E+04 -0.45326674436E+03  0.79852948864E+02  0.11292855918E+04  0.10100000352E+00 0.  1.
       -3    1    3    3    0  502 -0.10312413407E+04  0.45326674436E+03 -0.12075255029E+04  0.16513713376E+04  0.10100000352E+00 0. -1.
</event>
<event>
 5   0  0.2977854E-05  0.2510109E+04  0.7818609E-02  0.8399393E-01
       -1   -1    0    0    0  501  0.00000000000E+00  0.00000000000E+00  0.91252540271E+03  0.91252540272E+03  0.50400001928E-02 0.  1.
        1   -1    0    0  501    0  0.00000000000E+00  0.00000000000E+00 -0.17261567390E+04  0.17261567390E+04  0.50400001928E-02 0. -1.
    10030    2    1    2    0    0  0.00000000000E+00  0.00000000000E+00 -0.81363133629E+03  0.26386821417E+04  0.25101090601E+04 0.  0.
        1    1    3    3  502    0  0.44830254890E+03  0.76615077273E+02 -0.16364835243E+04  0.16985062174E+04  0.50400001928E-02 0. -1.
       -1    1    3    3    0  502 -0.44830254890E+03 -0.76615077273E+02  0.82285218796E+03  0.94017592432E+03  0.50400001928E-02 0.  1.
</event>
<event>
 5   0  0.2777539E-05  0.2317736E+04  0.7818609E-02  0.8470961E-01
       -1   -1    0    0    0  501  0.00000000000E+00  0.00000000000E+00  0.49404615939E+03  0.49404615942E+03  0.50400001928E-02 0.  1.
        1   -1    0    0  501    0  0.00000000000E+00  0.00000000000E+00 -0.27183177984E+04  0.27183177984E+04  0.50400001928E-02 0. -1.
    10030    2    1    2    0    0  0.00000000000E+00  0.00000000000E+00 -0.22242716390E+04  0.32123639578E+04  0.23177355055E+04 0.  0.
        3    1    3    3  502    0 -0.45008639776E+03  0.87432093724E+03 -0.26230699926E+03  0.10177523465E+04  0.10100000352E+00 0.  1.
       -3    1    3    3    0  502  0.45008639776E+03 -0.87432093724E+03 -0.19619646397E+04  0.21946116113E+04  0.10100000352E+00 0. -1.
</event>
<event>
 5   0  0.2977854E-05  0.2607090E+04  0.7818609E-02  0.8365797E-01
       -1   -1    0    0    0  501  0.00000000000E+00  0.00000000000E+00  0.10208201030E+04  0.10208201030E+04  0.50400001928E-02 0. -1.
        1   -1    0    0  501    0  0.00000000000E+00  0.00000000000E+00 -0.16645728649E+04  0.16645728649E+04  0.50400001928E-02 0.  1.
    10030    2    1    2    0    0  0.00000000000E+00  0.00000000000E+00 -0.64375276196E+03  0.26853929679E+04  0.26070899052E+04 0.  0.
        1    1    3    3  502    0  0.90033613574E+03 -0.94037262837E+03 -0.25414734574E+03  0.13264602184E+04  0.50400001928E-02 0. -1.
       -1    1    3    3    0  502 -0.90033613574E+03  0.94037262837E+03 -0.38960541622E+03  0.13589327496E+04  0.50400001928E-02 0.  1.
</event>
<event>
 5   0  0.2896652E-05  0.2502257E+04  0.7818609E-02  0.8402182E-01
        1   -1    0    0  501    0  0.00000000000E+00  0.00000000000E+00  0.19041352408E+04  0.19041352408E+04  0.50400001928E-02 0. -1.
       -1   -1    0    0    0  501  0.00000000000E+00  0.00000000000E+00 -0.82206498792E+03  0.82206498794E+03  0.50400001928E-02 0.  1.
    10030    2    1    2    0    0  0.00000000000E+00  0.00000000000E+00  0.10820702529E+04  0.27262002288E+04  0.25022573119E+04 0.  0.
        4    1    3    3  502    0  0.11515667458E+04  0.48653468919E+03  0.59550261294E+03  0.13847190866E+04  0.12699999809E+01 0.  1.
       -4    1    3    3    0  502 -0.11515667458E+04 -0.48653468919E+03  0.48656763995E+03  0.13414811422E+04  0.12699999809E+01 0. -1.
</event>
<event>
 5   0  0.6909250E-05  0.2657907E+04  0.7818609E-02  0.8348793E-01
        2   -1    0    0  501    0  0.00000000000E+00  0.00000000000E+00  0.20240809514E+04  0.20240809514E+04  0.25500000920E-02 0.  1.
       -2   -1    0    0    0  501  0.00000000000E+00  0.00000000000E+00 -0.87255300537E+03  0.87255300537E+03  0.25500000920E-02 0. -1.
    10030    2    1    2    0    0  0.00000000000E+00  0.00000000000E+00  0.11515279461E+04  0.28966339568E+04  0.26579073854E+04 0.  0.
        4    1    3    3  502    0 -0.78008557724E+03  0.66504285395E+03 -0.34595415413E+03  0.10818971278E+04  0.12699999809E+01 0. -1.
       -4    1    3    3    0  502  0.78008557724E+03 -0.66504285395E+03  0.14974821002E+04  0.18147368290E+04  0.12699999809E+01 0.  1.
</event>
<event>
 5   0  0.7071821E-05  0.2492933E+04  0.7818609E-02  0.8405508E-01
        2   -1    0    0  501    0  0.00000000000E+00  0.00000000000E+00  0.15286003996E+04  0.15286003996E+04  0.25500000920E-02 0. -1.
       -2   -1    0    0    0  501  0.00000000000E+00  0.00000000000E+00 -0.10164057742E+04  0.10164057742E+04  0.25500000920E-02 0.  1.
    10030    2    1    2    0    0  0.00000000000E+00  0.00000000000E+00  0.51219462534E+03  0.25450061738E+04  0.24929326285E+04 0.  0.
        5    1    3    3  502    0 -0.24913838348E+03  0.64911063861E+03 -0.80003715860E+03  0.10599509896E+04  0.46999998093E+01 0.  1.
       -5    1    3    3    0  502  0.24913838348E+03 -0.64911063861E+03  0.13122317839E+04  0.14850551842E+04  0.46999998093E+01 0. -1.
</event>
<event>
 5   0  0.2977854E-05  0.2485596E+04  0.7818609E-02  0.8408135E-01
        1   -1    0    0  501    0  0.00000000000E+00  0.00000000000E+00  0.12318572041E+04  0.12318572041E+04  0.50400001928E-02 0. -1.
       -1   -1    0    0    0  501  0.00000000000E+00  0.00000000000E+00 -0.12538359358E+04  0.12538359358E+04  0.50400001928E-02 0.  1.
    10030    2    1    2    0    0  0.00000000000E+00  0.00000000000E+00 -0.21978731696E+02  0.24856931400E+04  0.24855959691E+04 0.  0.
        1    1    3    3  502    0 -0.14796376535E+03  0.62048228838E+03  0.10556615781E+04  0.12334151424E+04  0.50400001928E-02 0. -1.
       -1    1    3    3    0  502  0.14796376535E+03 -0.62048228838E+03 -0.10776403098E+04  0.12522779976E+04  0.50400001928E-02 0.  1.
</event>
<event>
 5   0  0.6827859E-05  0.1775608E+04  0.7818609E-02  0.8719379E-01
       -2   -1    0    0    0  501  0.00000000000E+00  0.00000000000E+00  0.97446672504E+03  0.97446672505E+03  0.25500000920E-02 0. -1.
        2   -1    0    0  501    0  0.00000000000E+00  0.00000000000E+00 -0.80884846833E+03  0.80884846834E+03  0.25500000920E-02 0.  1.
    10030    2    1    2    0    0  0.00000000000E+00  0.00000000000E+00  0.16561825671E+03  0.17833151934E+04  0.17756079725E+04 0.  0.
        3    1    3    3  502    0 -0.50829092983E+03  0.65619586757E+03  0.39920546812E+03  0.92104163963E+03  0.10100000352E+00 0.  1.
       -3    1    3    3    0  502  0.50829092983E+03 -0.65619586757E+03 -0.23358721141E+03  0.86227355375E+03  0.10100000352E+00 0. -1.
</event>
<event>
 5   0  0.6445331E-05  0.2498706E+04  0.7818609E-02  0.8403447E-01
        2   -1    0    0  501    0  0.00000000000E+00  0.00000000000E+00  0.15104441434E+04  0.15104441434E+04  0.25500000920E-02 0.  1.
       -2   -1    0    0    0  501  0.00000000000E+00  0.00000000000E+00 -0.10333933320E+04  0.10333933320E+04  0.25500000920E-02 0. -1.
    10030    2    1    2    0    0  0.00000000000E+00  0.00000000000E+00  0.47705081143E+03  0.25438374755E+04  0.24987059901E+04 0.  0.
        1    1    3    3  502    0 -0.20917122781E+03 -0.44920087619E+03 -0.92907619620E+03  0.10529561283E+04  0.50400001928E-02 0. -1.
       -1    1    3    3    0  502  0.20917122781E+03  0.44920087619E+03  0.14061270076E+04  0.14908813472E+04  0.50400001928E-02 0.  1.
</event>
<event>
 5   0  0.6648328E-05  0.2574341E+04  0.7818609E-02  0.8376969E-01
        2   -1    0    0  501    0  0.00000000000E+00  0.00000000000E+00  0.13314344142E+04  0.13314344142E+04  0.25500000920E-02 0. -1.
       -2   -1    0    0    0  501  0.00000000000E+00  0.00000000000E+00 -0.12443785869E+04  0.12443785869E+04  0.25500000920E-02 0.  1.
    10030    2    1    2    0    0  0.00000000000E+00  0.00000000000E+00  0.87055827315E+02  0.25758130012E+04  0.25743414497E+04 0.  0.
        2    1    3    3  502    0  0.10124033365E+04 -0.63801747397E+03 -0.43085454400E+03  0.12718735986E+04  0.25500000920E-02 0.  1.
       -2    1    3    3    0  502 -0.10124033365E+04  0.63801747397E+03  0.51791037132E+03  0.13039394025E+04  0.25500000920E-02 0. -1.
</event>
<event>
 5   0  0.2793920E-05  0.2393325E+04  0.7818609E-02  0.8442007E-01
        1   -1    0    0  501    0  0.00000000000E+00  0.00000000000E+00  0.15441060085E+04  0.15441060085E+04  0.50400001928E-02 0. -1.
       -1   -1    0    0    0  501  0.00000000000E+00  0.00000000000E+00 -0.92739781871E+03  0.92739781872E+03  0.50400001928E-02 0.  1.
    10030    2    1    2    0    0  0.00000000000E+00  0.00000000000E+00  0.61670818978E+03  0.24715038272E+04  0.23933245030E+04 0.  0.
        2    1    3    3  502    0 -0.70768497608E+03  0.64272367811E+03  0.10516501004E+04  0.14212247132E+04  0.25500000920E-02 0. -1.
       -2    1    3    3    0  502  0.70768497608E+03 -0.64272367811E+03 -0.43494191058E+03  0.10502791140E+04  0.25500000920E-02 0.  1.
</event>
<event>
 5   0  0.2896652E-05  0.2486698E+04  0.7818609E-02  0.8407740E-01
       -1   -1    0    0    0  501  0.00000000000E+00  0.00000000000E+00  0.13496012195E+04  0.13496012195E+04  0.50400001928E-02 0.  1.
        1   -1    0    0  501    0  0.00000000000E+00  0.00000000000E+00 -0.11454620204E+04  0.11454620204E+04  0.50400001928E-02 0. -1.
    10030    2    1    2    0    0  0.00000000000E+00  0.00000000000E+00  0.20413919908E+03  0.24950632399E+04  0.24866981640E+04 0.  0.
        4    1    3    3  502    0  0.11200095299E+04  0.42117942138E+03 -0.23685639109E+03  0.12198016293E+04  0.12699999809E+01 0. -1.
       -4    1    3    3    0  502 -0.11200095299E+04 -0.42117942138E+03  0.44099559017E+03  0.12752616106E+04  0.12699999809E+01 0.  1.
</event>
<event>
 5   0  0.7071821E-05  0.2500332E+04  0.7818609E-02  0.8402867E-01
       -2   -1    0    0    0  501  0.00000000000E+00  0.00000000000E+00  0.11953439491E+04  0.11953439491E+04  0.25500000920E-02 0.  1.
        2   -1    0    0  501    0  0.00000000000E+00  0.00000000000E+00 -0.13075020609E+04  0.13075020609E+04  0.25500000920E-02 0. -1.
    10030    2    1    2    0    0  0.00000000000E+00  0.00000000000E+00 -0.11215811188E+03  0.25028460100E+04  0.25003317195E+04 0.  0.
        5    1    3    3  502    0  0.23923174242E+03 -0.26998838636E+03 -0.12542651901E+04  0.13051163980E+04  0.46999998093E+01 0. -1.
       -5    1    3    3    0  502 -0.23923174242E+03  0.26998838636E+03  0.11421070782E+04  0.11977296120E+04  0.46999998093E+01 0.  1.
</event>
<event>
 5   0  0.2331375E-05  0.1656119E+04  0.7818609E-02  0.8786795E-01
        4   -1    0    0  501    0  0.00000000000E+00  0.00000000000E+00  0.82696686345E+03  0.82696783864E+03  0.12699999809E+01 0. -1.
       -4   -1    0    0    0  501  0.00000000000E+00  0.00000000000E+00 -0.82915168926E+03  0.82915266188E+03  0.12699999809E+01 0.  1.
    10030    2    1    2    0    0  0.00000000000E+00  0.00000000000E+00 -0.21848258128E+01  0.16561205005E+04  0.16561190594E+04 0.  0.
        5    1    3    3  502    0 -0.33604946433E+03 -0.11191629982E+03  0.74737733868E+03  0.82707283658E+03  0.46999998093E+01 0. -1.
       -5    1    3    3    0  502  0.33604946433E+03  0.11191629982E+03 -0.74956216450E+03  0.82904766394E+03  0.46999998093E+01 0.  1.
</event>
<event>
 5   0  0.2980790E-05  0.1422703E+04  0.7818609E-02  0.8937547E-01
       -1   -1    0    0    0  501  0.00000000000E+00  0.00000000000E+00  0.39242946930E+03  0.39242946933E+03  0.50400001928E-02 0. -1.
        1   -1    0    0  501    0  0.00000000000E+00  0.00000000000E+00 -0.12894565641E+04  0.12894565642E+04  0.50400001928E-02 0.  1.
    10030    2    1    2    0    0  0.00000000000E+00  0.00000000000E+00 -0.89702709485E+03  0.16818860335E+04  0.14227027169E+04 0.  0.
        5    1    3    3  502    0  0.59879519502E+03  0.10734671014E+03 -0.88434999746E+03  0.10733946198E+04  0.46999998093E+01 0.  1.
       -5    1    3    3    0  502 -0.59879519502E+03 -0.10734671014E+03 -0.12677097385E+02  0.60849141371E+03  0.46999998093E+01 0. -1.
</event>
<event>
 5   0  0.2896652E-05  0.2407100E+04  0.7818609E-02  0.8436850E-01
        1   -1    0    0  501    0  0.00000000000E+00  0.00000000000E+00  0.84264110693E+03  0.84264110695E+03  0.50400001928E-02 0.  1.
       -1   -1    0    0    0  501  0.00000000000E+00  0.00000000000E+00 -0.17190381880E+04  0.17190381880E+04  0.50400001928E-02 0. -1.
    10030    2    1    2    0    0  0.00000000000E+00  0.00000000000E+00 -0.87639708107E+03  0.25616792950E+04  0.24070997002E+04 0.  0.
        4    1    3    3  502    0 -0.67781813483E+03  0.98401629034E+03 -0.59170125311E+03  0.13333557175E+04  0.12699999809E+01 0. -1.
       -4    1    3    3    0  502  0.67781813483E+03 -0.98401629034E+03 -0.28469582796E+03  0.12283235775E+04  0.12699999809E+01 0.  1.
</event>
<event>
 5   0  0.2777539E-05  0.2416138E+04  0.7818609E-02  0.8433486E-01
       -1   -1    0    0    0  501  0.00000000000E+00  0.00000000000E+00  0.11507368053E+04  0.11507368053E+04  0.50400001928E-02 0. -1.
        1   -1    0    0  501    0  0.00000000000E+00  0.00000000000E+00 -0.12682577169E+04  0.12682577169E+04  0.50400001928E-02 0.  1.
    10030    2    1    2    0    0  0.00000000000E+00  0.00000000000E+00 -0.11752091165E+03  0.24189945222E+04  0.24161381032E+04 0.  0.
        3    1    3    3  502    0 -0.22090186728E+03  0.11445892839E+04  0.25870834915E+03  0.11940738184E+04  0.10100000352E+00 0. -1.
       -3    1    3    3    0  502  0.22090186728E+03 -0.11445892839E+04 -0.37622926080E+03  0.12249207038E+04  0.10100000352E+00 0.  1.
</event>
<event>
 5   0  0.2980790E-05  0.2665393E+04  0.7818609E-02  0.8346322E-01
       -1   -1    0    0    0  501  0.00000000000E+00  0.00000000000E+00  0.10787295353E+04  0.10787295353E+04  0.50400001928E-02 0.  1.
        1   -1    0    0  501    0  0.00000000000E+00  0.00000000000E+00 -0.16464553250E+04  0.16464553250E+04  0.50400001928E-02 0. -1.
    10030    2    1    2    0    0  0.00000000000E+00  0.00000000000E+00 -0.56772578974E+03  0.27251848603E+04  0.26653930199E+04 0.  0.
        5    1    3    3  502    0  0.67535217529E+03  0.39086280294E+03  0.82073522839E+03  0.11324763558E+04  0.46999998093E+01 0.  1.
       -5    1    3    3    0  502 -0.67535217529E+03 -0.39086280294E+03 -0.13884610181E+04  0.15927085045E+04  0.46999998093E+01 0. -1.
</event>
<event>
 5   0  0.2977854E-05  0.2486275E+04  0.7818609E-02  0.8407892E-01
       -1   -1    0    0    0  501  0.00000000000E+00  0.00000000000E+00  0.97258078206E+03  0.97258078208E+03  0.50400001928E-02 0.  1.
        1   -1    0    0  501    0  0.00000000000E+00  0.00000000000E+00 -0.15889585156E+04  0.15889585156E+04  0.50400001928E-02 0. -1.
    10030    2    1    2    0    0  0.00000000000E+00  0.00000000000E+00 -0.61637773355E+03  0.25615392977E+04  0.24862747361E+04 0.  0.
        1    1    3    3  502    0 -0.19961846774E+03  0.22733497587E+03  0.93407389690E+03  0.98184661166E+03  0.50400001928E-02 0.  1.
       -1    1    3    3    0  502  0.19961846774E+03 -0.22733497587E+03 -0.15504516305E+04  0.15796926860E+04  0.50400001928E-02 0. -1.
</event>
<event>
 5   0  0.2331375E-05  0.1239066E+04  0.7818609E-02  0.9079333E-01
       -3   -1    0    0    0  501  0.00000000000E+00  0.00000000000E+00  0.16119127798E+04  0.16119127830E+04  0.10100000352E+00 0. -1.
        3   -1    0    0  501    0  0.00000000000E+00  0.00000000000E+00 -0.23811547629E+03  0.23811549771E+03  0.10100000352E+00 0.  1.
    10030    2    1    2    0    0  0.00000000000E+00  0.00000000000E+00  0.13737973035E+04  0.18500282807E+04  0.12390664260E+04 0.  0.
        5    1    3    3  502    0  0.21586532984E+03 -0.10243780952E+03  0.15403202707E+04  0.15587494898E+04  0.46999998093E+01 0. -1.
       -5    1    3    3    0  502 -0.21586532984E+03  0.10243780952E+03 -0.16652296719E+03  0.29127879093E+03  0.46999998093E+01 0.  1.
</event>
<event>
 5   0  0.6445331E-05  0.2474106E+04  0.7818609E-02  0.8412269E-01
        2   -1    0    0  501    0  0.00000000000E+00  0.00000000000E+00  0.11513957971E+04  0.11513957971E+04  0.25500000920E-02 0. -1.
       -2   -1    0    0    0  501  0.00000000000E+00  0.00000000000E+00 -0.13290831209E+04  0.13290831209E+04  0.25500000920E-02 0.  1.
    10030    2    1    2    0    0  0.00000000000E+00  0.00000000000E+00 -0.17768732379E+03  0.24804789180E+04  0.24741064807E+04 0.  0.
        1    1    3    3  502    0  0.46256074431E+03  0.60687606447E+03 -0.10650248181E+04  0.13101674942E+04  0.50400001928E-02 0.  1.
       -1    1    3    3    0  502 -0.46256074431E+03 -0.60687606447E+03  0.88733749430E+03  0.11703114238E+04  0.50400001928E-02 0. -1.
</event>
<event>
 5   0  0.2977854E-05  0.2469131E+04  0.7818609E-02  0.8414066E-01
       -1   -1    0    0    0  501  0.00000000000E+00  0.00000000000E+00  0.11569351300E+04  0.11569351300E+04  0.50400001928E-02 0.  1.
        1   -1    0    0  501    0  0.00000000000E+00  0.00000000000E+00 -0.13174048711E+04  0.13174048711E+04  0.50400001928E-02 0. -1.
    10030    2    1    2    0    0  0.00000000000E+00  0.00000000000E+00 -0.16046974107E+03  0.24743400011E+04  0.24691310016E+04 0.  0.
        1    1    3    3  502    0  0.79968783558E+03  0.78917595091E+03 -0.59302981943E+03  0.12704265751E+04  0.50400001928E-02 0. -1.
       -1    1    3    3    0  502 -0.79968783558E+03 -0.78917595091E+03  0.43256007836E+03  0.12039134260E+04  0.50400001928E-02 0.  1.
</event>
<event>
 5   0  0.6909250E-05  0.2559830E+04  0.7818609E-02  0.8381975E-01
        2   -1    0    0  501    0  0.00000000000E+00  0.00000000000E+00  0.24070606833E+04  0.24070606833E+04  0.25500000920E-02 0.  1.
       -2   -1    0    0    0  501  0.00000000000E+00  0.00000000000E+00 -0.68057395219E+03  0.68057395219E+03  0.25500000920E-02 0. -1.
    10030    2    1    2    0    0  0.00000000000E+00  0.00000000000E+00  0.17264867311E+04  0.30876346355E+04  0.25598303088E+04 0.  0.
        4    1    3    3  502    0 -0.29911504188E+03  0.12292590999E+04  0.10972357505E+04  0.16746568747E+04  0.12699999809E+01 0.  1.
       -4    1    3    3    0  502  0.29911504188E+03 -0.12292590999E+04  0.62925098060E+03  0.14129777608E+04  0.12699999809E+01 0. -1.
</event>
<event>
 5   0  0.7071821E-05  0.2493780E+04  0.7818609E-02  0.8405205E-01
       -2   -1    0    0    0  501  0.00000000000E+00  0.00000000000E+00  0.19516596385E+04  0.19516596385E+04  0.25500000920E-02 0. -1.
        2   -1    0    0  501    0  0.00000000000E+00  0.00000000000E+00 -0.79662189882E+03  0.79662189882E+03  0.25500000920E-02 0.  1.
    10030    2    1    2    0    0  0.00000000000E+00  0.00000000000E+00  0.11550377397E+04  0.27482815373E+04  0.24937801082E+04 0.  0.
        5    1    3    3  502    0  0.49671999618E+03 -0.60368670456E+03 -0.49297508063E+03  0.92423747597E+03  0.46999998093E+01 0.  1.
       -5    1    3    3    0  502 -0.49671999618E+03  0.60368670456E+03  0.16480128203E+04  0.18240440613E+04  0.46999998093E+01 0. -1.
</event>
<event>
 5   0  0.2793920E-05  0.1564000E+04  0.7818609E-02  0.8842975E-01
       -1   -1    0    0    0  501  0.00000000000E+00  0.00000000000E+00  0.47422068527E+03  0.47422068529E+03  0.50400001928E-02 0. -1.
        1   -1    0    0  501    0  0.00000000000E+00  0.00000000000E+00 -0.12895340887E+04  0.12895340887E+04  0.50400001928E-02 0.  1.
    10030    2    1    2    0    0  0.00000000000E+00  0.00000000000E+00 -0.81531340344E+03  0.17637547740E+04  0.15639996666E+04 0.  0.
        2    1    3    3  502    0  0.58931832711E+03 -0.47885848428E+03 -0.19691409501E+03  0.78445949510E+03  0.25500000920E-02 0. -1.
       -2    1    3    3    0  502 -0.58931832711E+03  0.47885848428E+03 -0.61839930844E+03  0.97929527892E+03  0.25500000920E-02 0.  1.
</event>
<event>
 5   0  0.2977854E-05  0.2061564E+04  0.7818609E-02  0.8578366E-01
       -1   -1    0    0    0  501  0.00000000000E+00  0.00000000000E+00  0.48991624209E+03  0.48991624212E+03  0.50400001928E-02 0. -1.
        1   -1    0    0  501    0  0.00000000000E+00  0.00000000000E+00 -0.21687625464E+04  0.21687625464E+04  0.50400001928E-02 0.  1.
    10030    2    1    2    0    0  0.00000000000E+00  0.00000000000E+00 -0.16788463043E+04  0.26586787885E+04  0.20615644513E+04 0.  0.
        1    1    3    3  502    0  0.85681906498E+02  0.13762680709E+03 -0.21522181807E+04  0.21583154600E+04  0.50400001928E-02 0.  1.
       -1    1    3    3    0  502 -0.85681906498E+02 -0.13762680709E+03  0.47337187645E+03  0.50036332856E+03  0.50400001928E-02 0. -1.
</event>
<event>
 5   0  0.6648328E-05  0.1635151E+04  0.7818609E-02  0.8799240E-01
        2   -1    0    0  501    0  0.00000000000E+00  0.00000000000E+00  0.20394830211E+04  0.20394830211E+04  0.25500000920E-02 0.  1.
       -2   -1    0    0    0  501  0.00000000000E+00  0.00000000000E+00 -0.32774465328E+03  0.32774465329E+03  0.25500000920E-02 0. -1.
    10030    2    1    2    0    0  0.00000000000E+00  0.00000000000E+00  0.17117383678E+04  0.23672276744E+04  0.16351509479E+04 0.  0.
        2    1    3    3  502    0  0.88389841832E+02 -0.78218582936E+03  0.11756864949E+04  0.14148731993E+04  0.25500000920E-02 0. -1.
       -2    1    3    3    0  502 -0.88389841832E+02  0.78218582936E+03  0.53605187294E+03  0.95235447512E+03  0.25500000920E-02 0.  1.
</event>
<event>
 5   0  0.2777539E-05  0.2501809E+04  0.7818609E-02  0.8402341E-01
       -1   -1    0    0    0  501  0.00000000000E+00  0.00000000000E+00  0.10929733950E+04  0.10929733950E+04  0.50400001928E-02 0.  1.
        1   -1    0    0  501    0  0.00000000000E+00  0.00000000000E+00 -0.14316564429E+04  0.14316564429E+04  0.50400001928E-02 0. -1.
    10030    2    1    2    0    0  0.00000000000E+00  0.00000000000E+00 -0.33868304789E+03  0.25246298378E+04  0.25018092675E+04 0.  0.
        3    1    3    3  502    0  0.12307785890E+04  0.21880751369E+03 -0.21525078454E+03  0.12684737181E+04  0.10100000352E+00 0. -1.
       -3    1    3    3    0  502 -0.12307785890E+04 -0.21880751369E+03 -0.12343226335E+03  0.12561561197E+04  0.10100000352E+00 0.  1.
</event>
<event>
 5   0  0.2777539E-05  0.2503336E+04  0.7818609E-02  0.8401798E-01
       -1   -1    0    0    0  501  0.00000000000E+00  0.00000000000E+00  0.71697948983E+03  0.71697948984E+03  0.50400001928E-02 0. -1.
        1   -1    0    0  501    0  0.00000000000E+00  0.00000000000E+00 -0.21851009605E+04  0.21851009605E+04  0.50400001928E-02 0.  1.
    10030    2    1    2    0    0  0.00000000000E+00  0.00000000000E+00 -0.14681214707E+04  0.29020804503E+04  0.25033358320E+04 0.  0.
        3    1    3    3  502    0  0.48607157010E+03  0.11527776487E+04 -0.77911926614E+03  0.14738346989E+04  0.10100000352E+00 0.  1.
       -3    1    3    3    0  502 -0.48607157010E+03 -0.11527776487E+04 -0.68900220453E+03  0.14282457515E+04  0.10100000352E+00 0. -1.
</event>
<event>
 5   0  0.6648328E-05  0.2487972E+04  0.7818609E-02  0.8407283E-01
        2   -1    0    0  501    0  0.00000000000E+00  0.00000000000E+00  0.11221367159E+04  0.11221367159E+04  0.25500000920E-02 0. -1.
       -2   -1    0    0    0  501  0.00000000000E+00  0.00000000000E+00 -0.13790663035E+04  0.13790663035E+04  0.25500000920E-02 0.  1.
    10030    2    1    2    0    0  0.00000000000E+00  0.00000000000E+00 -0.25692958762E+03  0.25012030193E+04  0.24879718107E+04 0.  0.
        2    1    3    3  502    0  0.11352703608E+04  0.48609459107E+03 -0.27884031394E+03  0.12660484446E+04  0.25500000920E-02 0. -1.
       -2    1    3    3    0  502 -0.11352703608E+04 -0.48609459107E+03  0.21910726318E+02  0.12351545747E+04  0.25500000920E-02 0.  1.
</event>
<event>
 5   0  0.2980790E-05  0.2543814E+04  0.7818609E-02  0.8387541E-01
       -1   -1    0    0    0  501  0.00000000000E+00  0.00000000000E+00  0.12560840945E+04  0.12560840945E+04  0.50400001928E-02 0.  1.
        1   -1    0    0  501    0  0.00000000000E+00  0.00000000000E+00 -0.12879295913E+04  0.12879295913E+04  0.50400001928E-02 0. -1.
    10030    2    1    2    0    0  0.00000000000E+00  0.00000000000E+00 -0.31845496792E+02  0.25440136858E+04  0.25438143599E+04 0.  0.
        5    1    3    3  502    0 -0.45030473873E+03 -0.10958976601E+04  0.44667132552E+03  0.12662161751E+04  0.46999998093E+01 0.  1.
       -5    1    3    3    0  502  0.45030473873E+03  0.10958976601E+04 -0.47851682232E+03  0.12777975107E+04  0.46999998093E+01 0. -1.
</event>
<event>
 5   0  0.6827859E-05  0.2448853E+04  0.7818609E-02  0.8421437E-01
        2   -1    0    0  501    0  0.00000000000E+00  0.00000000000E+00  0.14651796916E+04  0.14651796916E+04  0.25500000920E-02 0.  1.
       -2   -1    0    0    0  501  0.00000000000E+00  0.00000000000E+00 -0.10232327619E+04  0.10232327619E+04  0.25500000920E-02 0. -1.
    10030    2    1    2    0    0  0.00000000000E+00  0.00000000000E+00  0.44194692966E+03  0.24884124535E+04  0.24488526804E+04 0.  0.
        3    1    3    3  502    0 -0.57438222703E+03 -0.89913412171E+03 -0.38944930961E+03  0.11357939454E+04  0.10100000352E+00 0. -1.
       -3    1    3    3    0  502  0.57438222703E+03  0.89913412171E+03  0.83139623927E+03  0.13526185081E+04  0.10100000352E+00 0.  1.
</event>
<event>
 5   0  0.6827859E-05  0.1741649E+04  0.7818609E-02  0.8737960E-01
        2   -1    0    0  501    0  0.00000000000E+00  0.00000000000E+00  0.71066491793E+03  0.71066491794E+03  0.25500000920E-02 0.  1.
       -2   -1    0    0    0  501  0.00000000000E+00  0.00000000000E+00 -0.10670787281E+04  0.10670787281E+04  0.25500000920E-02 0. -1.
    10030    2    1    2    0    0  0.00000000000E+00  0.00000000000E+00 -0.35641381015E+03  0.17777436460E+04  0.17416491228E+04 0.  0.
        3    1    3    3  502    0 -0.78038770013E+03 -0.37786441213E+03 -0.26080949146E+03  0.90543253614E+03  0.10100000352E+00 0. -1.
       -3    1    3    3    0  502  0.78038770013E+03  0.37786441213E+03 -0.95604318694E+02  0.87231110988E+03  0.10100000352E+00 0.  1.
</event>
<event>
 5   0  0.6648328E-05  0.2496842E+04  0.7818609E-02  0.8404111E-01
        2   -1    0    0  501    0  0.00000000000E+00  0.00000000000E+00  0.12011222822E+04  0.12011222822E+04  0.25500000920E-02 0. -1.
       -2   -1    0    0    0  501  0.00000000000E+00  0.00000000000E+00 -0.12975825412E+04  0.12975825413E+04  0.25500000920E-02 0.  1.
    10030    2    1    2    0    0  0.00000000000E+00  0.00000000000E+00 -0.96460259092E+02  0.24987048234E+04  0.24968422483E+04 0.  0.
        2    1    3    3  502    0 -0.98019607040E+03 -0.63548998723E+03  0.39246576773E+03  0.12323397418E+04  0.25500000920E-02 0. -1.
       -2    1    3    3    0  502  0.98019607040E+03  0.63548998723E+03 -0.48892602682E+03  0.12663650816E+04  0.25500000920E-02 0.  1.
</event>
<event>
 5   0  0.2896652E-05  0.2492728E+04  0.7818609E-02  0.8405581E-01
        1   -1    0    0  501    0  0.00000000000E+00  0.00000000000E+00  0.22205925817E+04  0.22205925817E+04  0.50400001928E-02 0. -1.
       -1   -1    0    0    0  501  0.00000000000E+00  0.00000000000E+00 -0.69955336230E+03  0.69955336232E+03  0.50400001928E-02 0.  1.
    10030    2    1    2    0    0  0.00000000000E+00  0.00000000000E+00  0.15210392194E+04  0.29201459441E+04  0.24927278286E+04 0.  0.
        4    1    3    3  502    0 -0.10021715030E+04  0.20408502355E+03  0.15949973553E+04  0.18947339113E+04  0.12699999809E+01 0. -1.
       -4    1    3    3    0  502  0.10021715030E+04 -0.20408502355E+03 -0.73958135874E+02  0.10254120328E+04  0.12699999809E+01 0.  1.
</event>
<event>
 5   0  0.6445331E-05  0.2530067E+04  0.7818609E-02  0.8392352E-01
        2   -1    0    0  501    0  0.00000000000E+00  0.00000000000E+00  0.10288298174E+04  0.10288298175E+04  0.25500000920E-02 0.  1.
       -2   -1    0    0    0  501  0.00000000000E+00  0.00000000000E+00 -0.15554662749E+04  0.15554662749E+04  0.25500000920E-02 0. -1.
    10030    2    1    2    0    0  0.00000000000E+00  0.00000000000E+00 -0.52663645748E+03  0.25842960924E+04  0.25300672589E+04 0.  0.
        1    1    3    3  502    0 -0.90187769150E+03 -0.16912232257E+03  0.62616488161E+03  0.11108862180E+04  0.50400001928E-02 0.  1.
       -1    1    3    3    0  502  0.90187769150E+03  0.16912232257E+03 -0.11528013391E+04  0.14734098744E+04  0.50400001928E-02 0. -1.
</event>
<event>
 5   0  0.6648328E-05  0.2360421E+04  0.7818609E-02  0.8454472E-01
       -2   -1    0    0    0  501  0.00000000000E+00  0.00000000000E+00  0.13624328803E+04  0.13624328803E+04  0.25500000920E-02 0.  1.
        2   -1    0    0  501    0  0.00000000000E+00  0.00000000000E+00 -0.10223601133E+04  0.10223601133E+04  0.25500000920E-02 0. -1.
    10030    2    1    2    0    0  0.00000000000E+00  0.00000000000E+00  0.34007276699E+03  0.23847929936E+04  0.23604211775E+04 0.  0.
        2    1    3    3  502    0 -0.51943547573E+03  0.28285929628E+03 -0.86181900414E+03  0.10452533620E+04  0.25500000920E-02 0. -1.
       -2    1    3    3    0  502  0.51943547573E+03 -0.28285929628E+03  0.12018917711E+04  0.13395396315E+04  0.25500000920E-02 0.  1.
</event>
<event>
 5   0  0.6445331E-05  0.2319613E+04  0.7818609E-02  0.8470228E-01
        2   -1    0    0  501    0  0.00000000000E+00  0.00000000000E+00  0.10415999611E+04  0.10415999611E+04  0.25500000920E-02 0. -1.
       -2   -1    0    0    0  501  0.00000000000E+00  0.00000000000E+00 -0.12914277789E+04  0.12914277789E+04  0.25500000920E-02 0.  1.
    10030    2    1    2    0    0  0.00000000000E+00  0.00000000000E+00 -0.24982781778E+03  0.23330277401E+04  0.23196130059E+04 0.  0.
        1    1    3    3  502    0 -0.86860551690E+03  0.48874794666E+03 -0.72147224354E+03  0.12303951794E+04  0.50400001928E-02 0.  1.
       -1    1    3    3    0  502  0.86860551690E+03 -0.48874794666E+03  0.47164442576E+03  0.11026325606E+04  0.50400001928E-02 0. -1.
</event>
<event>
 5   0  0.6827859E-05  0.2509035E+04  0.7818609E-02  0.8399774E-01
        2   -1    0    0  501    0  0.00000000000E+00  0.00000000000E+00  0.13179077869E+04  0.13179077869E+04  0.25500000920E-02 0. -1.
       -2   -1    0    0    0  501  0.00000000000E+00  0.00000000000E+00 -0.11941761328E+04  0.11941761328E+04  0.25500000920E-02 0.  1.
    10030    2    1    2    0    0  0.00000000000E+00  0.00000000000E+00  0.12373165413E+03  0.25120839197E+04  0.25090348936E+04 0.  0.
        3    1    3    3  502    0 -0.78217945896E+03  0.57593658660E+03 -0.73301731354E+03  0.12168903196E+04  0.10100000352E+00 0.  1.
       -3    1    3    3    0  502  0.78217945896E+03 -0.57593658660E+03  0.85674896768E+03  0.12951936001E+04  0.10100000352E+00 0. -1.
</event>
<event>
 5   0  0.2793920E-05  0.2537703E+04  0.7818609E-02  0.8389675E-01
       -1   -1    0    0    0  501  0.00000000000E+00  0.00000000000E+00  0.70175718922E+03  0.70175718923E+03  0.50400001928E-02 0. -1.
        1   -1    0    0  501    0  0.00000000000E+00  0.00000000000E+00 -0.22942189585E+04  0.22942189585E+04  0.50400001928E-02 0.  1.
    10030    2    1    2    0    0  0.00000000000E+00  0.00000000000E+00 -0.15924617693E+04  0.29959761477E+04  0.25377034088E+04 0.  0.
        2    1    3    3  502    0  0.10542718976E+04  0.70603521643E+03 -0.79990529226E+03  0.14999411447E+04  0.25500000920E-02 0. -1.
       -2    1    3    3    0  502 -0.10542718976E+04 -0.70603521643E+03 -0.79255647700E+03  0.14960350030E+04  0.25500000920E-02 0.  1.
</event>
<event>
 5   0  0.6445331E-05  0.2463540E+04  0.7818609E-02  0.8416091E-01
        2   -1    0    0  501    0  0.00000000000E+00  0.00000000000E+00  0.76944485923E+03  0.76944485923E+03  0.25500000920E-02 0. -1.
       -2   -1    0    0    0  501  0.00000000000E+00  0.00000000000E+00 -0.19718853883E+04  0.19718853883E+04  0.25500000920E-02 0.  1.
    10030    2    1    2    0    0  0.00000000000E+00  0.00000000000E+00 -0.12024405291E+04  0.27413302476E+04  0.24635397907E+04 0.  0.
        1    1    3    3  502    0  0.11857432556E+03 -0.15614964444E+03 -0.19544097851E+04  0.19642199954E+04  0.50400001928E-02 0.  1.
       -1    1    3    3    0  502 -0.11857432556E+03  0.15614964444E+03  0.75196925597E+03  0.77711025221E+03  0.50400001928E-02 0. -1.
</event>
<event>
 5   0  0.6909250E-05  0.2559764E+04  0.7818609E-02  0.8381998E-01
        2   -1    0    0  501    0  0.00000000000E+00  0.00000000000E+00  0.11468894377E+04  0.11468894377E+04  0.25500000920E-02 0. -1.
       -2   -1    0    0    0  501  0.00000000000E+00  0.00000000000E+00 -0.14282958472E+04  0.14282958472E+04  0.25500000920E-02 0.  1.
    10030    2    1    2    0    0  0.00000000000E+00  0.00000000000E+00 -0.28140640951E+03  0.25751852849E+04  0.25597635993E+04 0.  0.
        4    1    3    3  502    0 -0.39689133901E+03  0.12148228422E+04 -0.71159787887E+02  0.12799932036E+04  0.12699999809E+01 0. -1.
       -4    1    3    3    0  502  0.39689133901E+03 -0.12148228422E+04 -0.21024662162E+03  0.12951920814E+04  0.12699999809E+01 0.  1.
</event>
<event>
 5   0  0.2977854E-05  0.2461858E+04  0.7818609E-02  0.8416701E-01
        1   -1    0    0  501    0  0.00000000000E+00  0.00000000000E+00  0.14985534370E+04  0.14985534371E+04  0.50400001928E-02 0.  1.
       -1   -1    0    0    0  501  0.00000000000E+00  0.00000000000E+00 -0.10110992117E+04  0.10110992117E+04  0.50400001928E-02 0. -1.
    10030    2    1    2    0    0  0.00000000000E+00  0.00000000000E+00  0.48745422537E+03  0.25096526487E+04  0.24618579966E+04 0.  0.
        1    1    3    3  502    0  0.65194172140E+03 -0.86158100631E+03 -0.35749937696E+03  0.11380490513E+04  0.50400001928E-02 0. -1.
       -1    1    3    3    0  502 -0.65194172140E+03  0.86158100631E+03  0.84495360233E+03  0.13716035975E+04  0.50400001928E-02 0.  1.
</event>
<event>
 5   0  0.2793920E-05  0.2441875E+04  0.7818609E-02  0.8423991E-01
       -1   -1    0    0    0  501  0.00000000000E+00  0.00000000000E+00  0.73977314729E+03  0.73977314731E+03  0.50400001928E-02 0. -1.
        1   -1    0    0  501    0  0.00000000000E+00  0.00000000000E+00 -0.20150609011E+04  0.20150609011E+04  0.50400001928E-02 0.  1.
    10030    2    1    2    0    0  0.00000000000E+00  0.00000000000E+00 -0.12752877538E+04  0.27548340484E+04  0.24418746444E+04 0.  0.
        2    1    3    3  502    0  0.66156320408E+03  0.12317618013E+03 -0.17869594962E+04  0.19094665447E+04  0.25500000920E-02 0.  1.
       -2    1    3    3    0  502 -0.66156320408E+03 -0.12317618013E+03  0.51167174239E+03  0.84536750370E+03  0.25500000920E-02 0. -1.
</event>
<event>
 5   0  0.2980790E-05  0.2328810E+04  0.7818609E-02  0.8466648E-01
       -1   -1    0    0    0  501  0.00000000000E+00  0.00000000000E+00  0.84482865750E+03  0.84482865752E+03  0.50400001928E-02 0. -1.
        1   -1    0    0  501    0  0.00000000000E+00  0.00000000000E+00 -0.16048689214E+04  0.16048689214E+04  0.50400001928E-02 0.  1.
    10030    2    1    2    0    0  0.00000000000E+00  0.00000000000E+00 -0.76004026386E+03  0.24496975789E+04  0.23288102167E+04 0.  0.
        5    1    3    3  502    0  0.19199199635E+03 -0.29094069143E+03 -0.15486862568E+04  0.15874377545E+04  0.46999998093E+01 0.  1.
       -5    1    3    3    0  502 -0.19199199635E+03  0.29094069143E+03  0.78864599290E+03  0.86225982437E+03  0.46999998093E+01 0. -1.
</event>
<event>
 5   0  0.2331375E-05  0.2517252E+04  0.7818609E-02  0.8396865E-01
       -3   -1    0    0    0  501  0.00000000000E+00  0.00000000000E+00  0.23388698431E+04  0.23388698453E+04  0.10100000352E+00 0. -1.
        3   -1    0    0  501    0  0.00000000000E+00  0.00000000000E+00 -0.67730955426E+03  0.67730956179E+03  0.10100000352E+00 0.  1.
    10030    2    1    2    0    0  0.00000000000E+00  0.00000000000E+00  0.16615602888E+04  0.30161794070E+04  0.25172516009E+04 0.  0.
        3    1    3    3  502    0  0.91002515469E+03  0.80781938313E+03  0.44544837062E+03  0.12958171935E+04  0.10100000352E+00 0.  1.
       -3    1    3    3    0  502 -0.91002515469E+03 -0.80781938313E+03  0.12161119182E+04  0.17203622135E+04  0.10100000352E+00 0. -1.
</event>
<event>
 5   0  0.2777539E-05  0.2415314E+04  0.7818609E-02  0.8433793E-01
       -1   -1    0    0    0  501  0.00000000000E+00  0.00000000000E+00  0.12471283870E+04  0.12471283870E+04  0.50400001928E-02 0. -1.
        1   -1    0    0  501    0  0.00000000000E+00  0.00000000000E+00 -0.11694346061E+04  0.11694346061E+04  0.50400001928E-02 0.  1.
    10030    2    1    2    0    0  0.00000000000E+00  0.00000000000E+00  0.77693780951E+02  0.24165629931E+04  0.24153137221E+04 0.  0.
        3    1    3    3  502    0 -0.43161834206E+03 -0.76222132905E+03  0.87063682594E+03  0.12350239838E+04  0.10100000352E+00 0. -1.
       -3    1    3    3    0  502  0.43161834206E+03  0.76222132905E+03 -0.79294304499E+03  0.11815390093E+04  0.10100000352E+00 0.  1.
</event>
<event>
 5   0  0.6909250E-05  0.2565469E+04  0.7818609E-02  0.8380026E-01
       -2   -1    0    0    0  501  0.00000000000E+00  0.00000000000E+00  0.10123576268E+04  0.10123576268E+04  0.25500000920E-02 0.  1.
        2   -1    0    0  501    0  0.00000000000E+00  0.00000000000E+00 -0.16253227701E+04  0.16253227701E+04  0.25500000920E-02 0. -1.
    10030    2    1    2    0    0  0.00000000000E+00  0.00000000000E+00 -0.61296514331E+03  0.26376803968E+04  0.25654690817E+04 0.  0.
        4    1    3    3  502    0 -0.13894090927E+03  0.73196339897E+03 -0.13800630988E+04  0.15683273776E+04  0.12699999809E+01 0. -1.
       -4    1    3    3    0  502  0.13894090927E+03 -0.73196339897E+03  0.76709795547E+03  0.10693530193E+04  0.12699999809E+01 0.  1.
</event>
<event>
 5   0  0.2977854E-05  0.2137441E+04  0.7818609E-02  0.8544928E-01
       -1   -1    0    0    0  501  0.00000000000E+00  0.00000000000E+00  0.67566806270E+03  0.67566806271E+03  0.50400001928E-02 0. -1.
        1   -1    0    0  501    0  0.00000000000E+00  0.00000000000E+00 -0.16904203224E+04  0.16904203224E+04  0.50400001928E-02 0.  1.
    10030    2    1    2    0    0  0.00000000000E+00  0.00000000000E+00 -0.10147522597E+04  0.23660883851E+04  0.21374405483E+04 0.  0.
        1    1    3    3  502    0 -0.55193337699E+03 -0.25010149525E+03 -0.14818779965E+04  0.16009820758E+04  0.50400001928E-02 0.  1.
       -1    1    3    3    0  502  0.55193337699E+03  0.25010149525E+03  0.46712573678E+03  0.76510630931E+03  0.50400001928E-02 0. -1.
</event>
<event>
 5   0  0.7071821E-05  0.2503458E+04  0.7818609E-02  0.8401755E-01
        2   -1    0    0  501    0  0.00000000000E+00  0.00000000000E+00  0.21970085219E+04  0.21970085219E+04  0.25500000920E-02 0.  1.
       -2   -1    0    0    0  501  0.00000000000E+00  0.00000000000E+00 -0.71316288133E+03  0.71316288133E+03  0.25500000920E-02 0. -1.
    10030    2    1    2    0    0  0.00000000000E+00  0.00000000000E+00  0.14838456406E+04  0.29101714032E+04  0.25034575513E+04 0.  0.
        5    1    3    3  502    0  0.63749938990E+03 -0.30909352266E+03 -0.45764360037E+03  0.84344770604E+03  0.46999998093E+01 0. -1.
       -5    1    3    3    0  502 -0.63749938990E+03  0.30909352266E+03  0.19414892409E+04  0.20667236972E+04  0.46999998093E+01 0.  1.
</event>
<event>
 5   0  0.7071821E-05  0.2472146E+04  0.7818609E-02  0.8412976E-01
       -2   -1    0    0    0  501  0.00000000000E+00  0.00000000000E+00  0.91717326031E+03  0.91717326031E+03  0.25500000920E-02 0. -1.
        2   -1    0    0  501    0  0.00000000000E+00  0.00000000000E+00 -0.16658537066E+04  0.16658537066E+04  0.25500000920E-02 0.  1.
    10030    2    1    2    0    0  0.00000000000E+00  0.00000000000E+00 -0.74868044631E+03  0.25830269669E+04  0.24721460113E+04 0.  0.
        5    1    3    3  502    0 -0.88866875272E+03  0.46615260249E+03 -0.11283905115E+04  0.15100720636E+04  0.46999998093E+01 0. -1.
       -5    1    3    3    0  502  0.88866875272E+03 -0.46615260249E+03  0.37971006522E+03  0.10729549033E+04  0.46999998093E+01 0.  1.
</event>
<event>
 5   0  0.7071821E-05  0.2437661E+04  0.7818609E-02  0.8425537E-01
        2   -1    0    0  501    0  0.00000000000E+00  0.00000000000E+00  0.17731041891E+04  0.17731041891E+04  0.25500000920E-02 0. -1.
       -2   -1    0    0    0  501  0.00000000000E+00  0.00000000000E+00 -0.83782336225E+03  0.83782336226E+03  0.25500000920E-02 0.  1.
    10030    2    1    2    0    0  0.00000000000E+00  0.00000000000E+00  0.93528082683E+03  0.26109275513E+04  0.24376612671E+04 0.  0.
        5    1    3    3  502    0  0.99880779101E+03  0.65685468954E+03  0.21315843002E+03  0.12143037894E+04  0.46999998093E+01 0.  1.
       -5    1    3    3    0  502 -0.99880779101E+03 -0.65685468954E+03  0.72212239681E+03  0.13966237620E+04  0.46999998093E+01 0. -1.
</event>
<event>
 5   0  0.6648328E-05  0.2657216E+04  0.7818609E-02  0.8349022E-01
        2   -1    0    0  501    0  0.00000000000E+00  0.00000000000E+00  0.17063639729E+04  0.17063639729E+04  0.25500000920E-02 0.  1.
       -2   -1    0    0    0  501  0.00000000000E+00  0.00000000000E+00 -0.10344801334E+04  0.10344801334E+04  0.25500000920E-02 0. -1.
    10030    2    1    2    0    0  0.00000000000E+00  0.00000000000E+00  0.67188383946E+03  0.27408441063E+04  0.26572163106E+04 0.  0.
        2    1    3    3  502    0 -0.93022211040E+03 -0.59088202808E+03  0.11014198270E+04  0.15580694404E+04  0.25500000920E-02 0. -1.
       -2    1    3    3    0  502  0.93022211040E+03  0.59088202808E+03 -0.42953598749E+03  0.11827746659E+04  0.25500000920E-02 0.  1.
</event>
<event>
 5   0  0.2896652E-05  0.2489682E+04  0.7818609E-02  0.8406671E-01
        1   -1    0    0  501    0  0.00000000000E+00  0.00000000000E+00  0.16346803906E+04  0.16346803906E+04  0.50400001928E-02 0. -1.
       -1   -1    0    0    0  501  0.00000000000E+00  0.00000000000E+00 -0.94797048483E+03  0.94797048484E+03  0.50400001928E-02 0.  1.
    10030    2    1    2    0    0  0.00000000000E+00  0.00000000000E+00  0.68670990580E+03  0.25826508755E+04  0.24896817166E+04 0.  0.
        4    1    3    3  502    0  0.95220162099E+03  0.42733955951E+02 -0.48723978282E+03  0.10704757526E+04  0.12699999809E+01 0.  1.
       -4    1    3    3    0  502 -0.95220162099E+03 -0.42733955951E+02  0.11739496886E+04  0.15121751229E+04  0.12699999809E+01 0. -1.
</event>
<event>
 5   0  0.6445331E-05  0.2577786E+04  0.7818609E-02  0.8375786E-01
        2   -1    0    0  501    0  0.00000000000E+00  0.00000000000E+00  0.10241432256E+04  0.10241432256E+04  0.25500000920E-02 0. -1.
       -2   -1    0    0    0  501  0.00000000000E+00  0.00000000000E+00 -0.16220826982E+04  0.16220826983E+04  0.25500000920E-02 0.  1.
    10030    2    1    2    0    0  0.00000000000E+00  0.00000000000E+00 -0.59793947268E+03  0.26462259238E+04  0.25777858769E+04 0.  0.
        1    1    3    3  502    0  0.11081287314E+03  0.86066512285E+03 -0.12772783197E+04  0.15441709272E+04  0.50400001928E-02 0.  1.
       -1    1    3    3    0  502 -0.11081287314E+03 -0.86066512285E+03  0.67933884698E+03  0.11020549966E+04  0.50400001928E-02 0. -1.
</event>
<event>
 5   0  0.7071821E-05  0.1847385E+04  0.7818609E-02  0.8681499E-01
        2   -1    0    0  501    0  0.00000000000E+00  0.00000000000E+00  0.13011603243E+04  0.13011603243E+04  0.25500000920E-02 0.  1.
       -2   -1    0    0    0  501  0.00000000000E+00  0.00000000000E+00 -0.65572846088E+03  0.65572846088E+03  0.25500000920E-02 0. -1.
    10030    2    1    2    0    0  0.00000000000E+00  0.00000000000E+00  0.64543186346E+03  0.19568887852E+04  0.18473850241E+04 0.  0.
        5    1    3    3  502    0  0.16122361409E+03  0.47733967426E+03  0.11427751103E+04  0.12489208386E+04  0.46999998093E+01 0.  1.
       -5    1    3    3    0  502 -0.16122361409E+03 -0.47733967426E+03 -0.49734324680E+03  0.70796794666E+03  0.46999998093E+01 0. -1.
</event>
<event>
 5   0  0.6909250E-05  0.1497082E+04  0.7818609E-02  0.8886396E-01
       -2   -1    0    0    0  501  0.00000000000E+00  0.00000000000E+00  0.80768459282E+03  0.80768459282E+03  0.25500000920E-02 0.  1.
        2   -1    0    0  501    0  0.00000000000E+00  0.00000000000E+00 -0.69372825835E+03  0.69372825836E+03  0.25500000920E-02 0. -1.
    10030    2    1    2    0    0  0.00000000000E+00  0.00000000000E+00  0.11395633446E+03  0.15014128512E+04  0.14970819963E+04 0.  0.
        4    1    3    3  502    0  0.45349906667E+03  0.12913564738E+03  0.64001577467E+03  0.79495863013E+03  0.12699999809E+01 0.  1.
       -4    1    3    3    0  502 -0.45349906667E+03 -0.12913564738E+03 -0.52605944021E+03  0.70645422104E+03  0.12699999809E+01 0. -1.
</event>
<event>
 5   0  0.6827859E-05  0.2650600E+04  0.7818609E-02  0.8351214E-01
        2   -1    0    0  501    0  0.00000000000E+00  0.00000000000E+00  0.18806744616E+04  0.18806744616E+04  0.25500000920E-02 0. -1.
       -2   -1    0    0    0  501  0.00000000000E+00  0.00000000000E+00 -0.93393108349E+03  0.93393108349E+03  0.25500000920E-02 0.  1.
    10030    2    1    2    0    0  0.00000000000E+00  0.00000000000E+00  0.94674337806E+03  0.28146055450E+04  0.26506001868E+04 0.  0.
        3    1    3    3  502    0 -0.48595293668E+03  0.57452639553E+03  0.16318325629E+04  0.17969719974E+04  0.10100000352E+00 0. -1.
       -3    1    3    3    0  502  0.48595293668E+03 -0.57452639553E+03 -0.68508918488E+03  0.10176335476E+04  0.10100000352E+00 0.  1.
</event>
<event>
 5   0  0.7071821E-05  0.2194628E+04  0.7818609E-02  0.8520667E-01
       -2   -1    0    0    0  501  0.00000000000E+00  0.00000000000E+00  0.11934155103E+04  0.11934155103E+04  0.25500000920E-02 0. -1.
        2   -1    0    0  501    0  0.00000000000E+00  0.00000000000E+00 -0.10089516531E+04  0.10089516531E+04  0.25500000920E-02 0.  1.
    10030    2    1    2    0    0  0.00000000000E+00  0.00000000000E+00  0.18446385720E+03  0.22023671634E+04  0.21946284897E+04 0.  0.
        5    1    3    3  502    0  0.20530668044E+03 -0.84036035962E+03  0.76968279118E+03  0.11579248923E+04  0.46999998093E+01 0.  1.
       -5    1    3    3    0  502 -0.20530668044E+03  0.84036035962E+03 -0.58521893398E+03  0.10444422711E+04  0.46999998093E+01 0. -1.
</event>
<event>
 5   0  0.2896652E-05  0.2462501E+04  0.7818609E-02  0.8416468E-01
       -1   -1    0    0    0  501  0.00000000000E+00  0.00000000000E+00  0.90541946840E+03  0.90541946841E+03  0.50400001928E-02 0. -1.
        1   -1    0    0  501    0  0.00000000000E+00  0.00000000000E+00 -0.16743379305E+04  0.16743379306E+04  0.50400001928E-02 0.  1.
    10030    2    1    2    0    0  0.00000000000E+00  0.00000000000E+00 -0.76891846215E+03  0.25797573990E+04  0.24625012967E+04 0.  0.
        4    1    3    3  502    0  0.57365843763E+03 -0.33134182768E+03 -0.14717143156E+04  0.16139442523E+04  0.12699999809E+01 0.  1.
       -4    1    3    3    0  502 -0.57365843763E+03  0.33134182768E+03  0.70279585343E+03  0.96581314670E+03  0.12699999809E+01 0. -1.
</event>
<event>
 5   0  0.2777539E-05  0.1726628E+04  0.7818609E-02  0.8746322E-01
        1   -1    0    0  501    0  0.00000000000E+00  0.00000000000E+00  0.51862512360E+03  0.51862512363E+03  0.50400001928E-02 0. -1.
       -1   -1    0    0    0  501  0.00000000000E+00  0.00000000000E+00 -0.14370898829E+04  0.14370898829E+04  0.50400001928E-02 0.  1.
    10030    2    1    2    0    0  0.00000000000E+00  0.00000000000E+00 -0.91846475926E+03  0.19557150065E+04  0.17266278327E+04 0.  0.
        3    1    3    3  502    0  0.28297193250E+03 -0.49903032930E+03 -0.11899696734E+04  0.13210345257E+04  0.10100000352E+00 0.  1.
       -3    1    3    3    0  502 -0.28297193250E+03  0.49903032930E+03  0.27150491416E+03  0.63468048084E+03  0.10100000352E+00 0. -1.
</event>
<event>
 5   0  0.2980790E-05  0.2401080E+04  0.7818609E-02  0.8439099E-01
        1   -1    0    0  501    0  0.00000000000E+00  0.00000000000E+00  0.75802622786E+03  0.75802622788E+03  0.50400001928E-02 0. -1.
       -1   -1    0    0    0  501  0.00000000000E+00  0.00000000000E+00 -0.19013810988E+04  0.19013810988E+04  0.50400001928E-02 0.  1.
    10030    2    1    2    0    0  0.00000000000E+00  0.00000000000E+00 -0.11433548709E+04  0.26594073266E+04  0.24010803752E+04 0.  0.
        5    1    3    3  502    0  0.10119863186E+04 -0.31557332181E+03  0.52487177634E+02  0.10613575384E+04  0.46999998093E+01 0. -1.
       -5    1    3    3    0  502 -0.10119863186E+04  0.31557332181E+03 -0.11958420485E+04  0.15980497882E+04  0.46999998093E+01 0.  1.
</event>
<event>
 5   0  0.6445331E-05  0.2515203E+04  0.7818609E-02  0.8397589E-01
        2   -1    0    0  501    0  0.00000000000E+00  0.00000000000E+00  0.19954526813E+04  0.19954526813E+04  0.25500000920E-02 0. -1.
       -2   -1    0    0    0  501  0.00000000000E+00  0.00000000000E+00 -0.79258289695E+03  0.79258289696E+03  0.25500000920E-02 0.  1.
    10030    2    1    2    0    0  0.00000000000E+00  0.00000000000E+00  0.12028697843E+04  0.27880355782E+04  0.25152031066E+04 0.  0.
        1    1    3    3  502    0 -0.64805522612E+03  0.15590251436E+02 -0.59311834772E+03  0.87863986165E+03  0.50400001928E-02 0.  1.
       -1    1    3    3    0  502  0.64805522612E+03 -0.15590251436E+02  0.17959881320E+04  0.19093957166E+04  0.50400001928E-02 0. -1.
</event>
<event>
 5   0  0.7071821E-05  0.2542619E+04  0.7818609E-02  0.8387958E-01
       -2   -1    0    0    0  501  0.00000000000E+00  0.00000000000E+00  0.12148122424E+04  0.12148122424E+04  0.25500000920E-02 0. -1.
        2   -1    0    0  501    0  0.00000000000E+00  0.00000000000E+00 -0.13304338174E+04  0.13304338174E+04  0.25500000920E-02 0.  1.
    10030    2    1    2    0    0  0.00000000000E+00  0.00000000000E+00 -0.11562157500E+03  0.25452460597E+04  0.25426185628E+04 0.  0.
        5    1    3    3  502    0 -0.46488294319E+03 -0.30776065895E+03 -0.12015204169E+04  0.13245777351E+04  0.46999998093E+01 0.  1.
       -5    1    3    3    0  502  0.46488294319E+03  0.30776065895E+03  0.10858988419E+04  0.12206683247E+04  0.46999998093E+01 0. -1.
</event>
<event>
 5   0  0.2980790E-05  0.2510666E+04  0.7818609E-02  0.8399195E-01
        1   -1    0    0  501    0  0.00000000000E+00  0.00000000000E+00  0.17712174091E+04  0.17712174091E+04  0.50400001928E-02 0.  1.
       -1   -1    0    0    0  501  0.00000000000E+00  0.00000000000E+00 -0.88970519873E+03  0.88970519874E+03  0.50400001928E-02 0. -1.
    10030    2    1    2    0    0  0.00000000000E+00  0.00000000000E+00  0.88151221033E+03  0.26609226078E+04  0.25106663155E+04 0.  0.
        5    1    3    3  502    0 -0.54220587108E+03  0.41824229674E+03  0.15558268668E+04  0.16998626870E+04  0.46999998093E+01 0.  1.
       -5    1    3    3    0  502  0.54220587108E+03 -0.41824229674E+03 -0.67431465644E+03  0.96105992077E+03  0.46999998093E+01 0. -1.
</event>
<event>
 5   0  0.2977854E-05  0.2474828E+04  0.7818609E-02  0.8412008E-01
       -1   -1    0    0    0  501  0.00000000000E+00  0.00000000000E+00  0.13555955243E+04  0.13555955244E+04  0.50400001928E-02 0. -1.
        1   -1    0    0  501    0  0.00000000000E+00  0.00000000000E+00 -0.11295357044E+04  0.11295357044E+04  0.50400001928E-02 0.  1.
    10030    2    1    2    0    0  0.00000000000E+00  0.00000000000E+00  0.22605981996E+03  0.24851312288E+04  0.24748281116E+04 0.  0.
        1    1    3    3  502    0  0.60283459819E+03 -0.12076978708E+03 -0.96531166408E+03  0.11444743348E+04  0.50400001928E-02 0.  1.
       -1    1    3    3    0  502 -0.60283459819E+03  0.12076978708E+03  0.11913714840E+04  0.13406568939E+04  0.50400001928E-02 0. -1.
</event>
<event>
 5   0  0.6648328E-05  0.1297300E+04  0.7818609E-02  0.9031709E-01
        2   -1    0    0  501    0  0.00000000000E+00  0.00000000000E+00  0.56969982831E+03  0.56969982832E+03  0.25500000920E-02 0. -1.
       -2   -1    0    0    0  501  0.00000000000E+00  0.00000000000E+00 -0.73854068424E+03  0.73854068424E+03  0.25500000920E-02 0.  1.
    10030    2    1    2    0    0  0.00000000000E+00  0.00000000000E+00 -0.16884085593E+03  0.13082405126E+04  0.12972995044E+04 0.  0.
        2    1    3    3  502    0 -0.18400010420E+03  0.18653918241E+02 -0.71138927772E+03  0.73503653751E+03  0.25500000920E-02 0.  1.
       -2    1    3    3    0  502  0.18400010420E+03 -0.18653918241E+02  0.54254842180E+03  0.57320397505E+03  0.25500000920E-02 0. -1.
</event>
<event>
 5   0  0.2977854E-05  0.2535310E+04  0.7818609E-02  0.8390513E-01
        1   -1    0    0  501    0  0.00000000000E+00  0.00000000000E+00  0.12813878829E+04  0.12813878829E+04  0.50400001928E-02 0. -1.
       -1   -1    0    0    0  501  0.00000000000E+00  0.00000000000E+00 -0.12540691336E+04  0.12540691336E+04  0.50400001928E-02 0.  1.
    10030    2    1    2    0    0  0.00000000000E+00  0.00000000000E+00  0.27318749283E+02  0.25354570165E+04  0.25353098368E+04 0.  0.
        1    1    3    3  502    0  0.49476896511E+03 -0.11116510852E+04  0.36918602942E+03  0.12715591958E+04  0.50400001928E-02 0. -1.
       -1    1    3    3    0  502 -0.49476896511E+03  0.11116510852E+04 -0.34186728014E+03  0.12638978207E+04  0.50400001928E-02 0.  1.
</event>
<event>
 5   0  0.6909250E-05  0.2600986E+04  0.7818609E-02  0.8367866E-01
        2   -1    0    0  501    0  0.00000000000E+00  0.00000000000E+00  0.15663196956E+04  0.15663196956E+04  0.25500000920E-02 0.  1.
       -2   -1    0    0    0  501  0.00000000000E+00  0.00000000000E+00 -0.10797809900E+04  0.10797809900E+04  0.25500000920E-02 0. -1.
    10030    2    1    2    0    0  0.00000000000E+00  0.00000000000E+00  0.48653870558E+03  0.26461006857E+04  0.26009861450E+04 0.  0.
        4    1    3    3  502    0  0.10159621757E+04 -0.34040077817E+03  0.99309400449E+03  0.14609206504E+04  0.12699999809E+01 0.  1.
       -4    1    3    3    0  502 -0.10159621757E+04  0.34040077817E+03 -0.50655529890E+03  0.11851800352E+04  0.12699999809E+01 0. -1.
</event>
<event>
 5   0  0.6445331E-05  0.2435097E+04  0.7818609E-02  0.8426480E-01
        2   -1    0    0  501    0  0.00000000000E+00  0.00000000000E+00  0.18441676177E+04  0.18441676177E+04  0.25500000920E-02 0.  1.
       -2   -1    0    0    0  501  0.00000000000E+00  0.00000000000E+00 -0.80384450408E+03  0.80384450408E+03  0.25500000920E-02 0. -1.
    10030    2    1    2    0    0  0.00000000000E+00  0.00000000000E+00  0.10403231136E+04  0.26480121217E+04  0.24350967160E+04 0.  0.
        1    1    3    3  502    0 -0.55484559882E+03 -0.12587820024E+03  0.16907222879E+04  0.17838836326E+04  0.50400001928E-02 0.  1.
       -1    1    3    3    0  502  0.55484559882E+03  0.12587820024E+03 -0.65039917430E+03  0.86412848916E+03  0.50400001928E-02 0. -1.
</event>
<event>
 5   0  0.2331375E-05  0.2121118E+04  0.7818609E-02  0.8551997E-01
        4   -1    0    0  501    0  0.00000000000E+00  0.00000000000E+00  0.93653012079E+03  0.93653098190E+03  0.12699999809E+01 0. -1.
       -4   -1    0    0    0  501  0.00000000000E+00  0.00000000000E+00 -0.12010121887E+04  0.12010128601E+04  0.12699999809E+01 0.  1.
    10030    2    1    2    0    0  0.00000000000E+00  0.00000000000E+00 -0.26448206788E+03  0.21375438420E+04  0.21211183165E+04 0.  0.
        5    1    3    3  502    0  0.37943299593E+03  0.46215982542E+03 -0.10149248249E+04  0.11779879426E+04  0.46999998093E+01 0.  1.
       -5    1    3    3    0  502 -0.37943299593E+03 -0.46215982542E+03  0.75044275703E+03  0.95955589947E+03  0.46999998093E+01 0. -1.
</event>
<event>
 5   0  0.2977854E-05  0.2545141E+04  0.7818609E-02  0.8387078E-01
       -1   -1    0    0    0  501  0.00000000000E+00  0.00000000000E+00  0.88274335971E+03  0.88274335973E+03  0.50400001928E-02 0.  1.
        1   -1    0    0  501    0  0.00000000000E+00  0.00000000000E+00 -0.18345491862E+04  0.18345491862E+04  0.50400001928E-02 0. -1.
    10030    2    1    2    0    0  0.00000000000E+00  0.00000000000E+00 -0.95180582645E+03  0.27172925459E+04  0.25451413416E+04 0.  0.
        1    1    3    3  502    0 -0.24548250453E+03  0.96362011227E+03 -0.13237258673E+04  0.16556193864E+04  0.50400001928E-02 0. -1.
       -1    1    3    3    0  502  0.24548250453E+03 -0.96362011227E+03  0.37192004086E+03  0.10616731595E+04  0.50400001928E-02 0.  1.
</event>
<event>
 5   0  0.2331375E-05  0.2537490E+04  0.7818609E-02  0.8389750E-01
        3   -1    0    0  501    0  0.00000000000E+00  0.00000000000E+00  0.82888503639E+03  0.82888504255E+03  0.10100000352E+00 0.  1.
       -3   -1    0    0    0  501  0.00000000000E+00  0.00000000000E+00 -0.19420226216E+04  0.19420226243E+04  0.10100000352E+00 0. -1.
    10030    2    1    2    0    0  0.00000000000E+00  0.00000000000E+00 -0.11131375852E+04  0.27709076668E+04  0.25374897072E+04 0.  0.
        4    1    3    3  502    0 -0.21613835336E+03 -0.89525423177E+03 -0.15094906111E+04  0.17682645292E+04  0.12699999809E+01 0. -1.
       -4    1    3    3    0  502  0.21613835336E+03  0.89525423177E+03  0.39635302590E+03  0.10026431376E+04  0.12699999809E+01 0.  1.
</event>
<event>
 5   0  0.6909250E-05  0.2463865E+04  0.7818609E-02  0.8415973E-01
       -2   -1    0    0    0  501  0.00000000000E+00  0.00000000000E+00  0.20742790717E+04  0.20742790717E+04  0.25500000920E-02 0. -1.
        2   -1    0    0  501    0  0.00000000000E+00  0.00000000000E+00 -0.73165535937E+03  0.73165535937E+03  0.25500000920E-02 0.  1.
    10030    2    1    2    0    0  0.00000000000E+00  0.00000000000E+00  0.13426237124E+04  0.28059344311E+04  0.24638647688E+04 0.  0.
        4    1    3    3  502    0 -0.66453989397E+03 -0.29335833765E+03 -0.46180475785E+03  0.86077734184E+03  0.12699999809E+01 0.  1.
       -4    1    3    3    0  502  0.66453989397E+03  0.29335833765E+03  0.18044284702E+04  0.19451570893E+04  0.12699999809E+01 0. -1.
</event>
<event>
 5   0  0.2896652E-05  0.2582677E+04  0.7818609E-02  0.8374109E-01
       -1   -1    0    0    0  501  0.00000000000E+00  0.00000000000E+00  0.12778583490E+04  0.12778583490E+04  0.50400001928E-02 0. -1.
        1   -1    0    0  501    0  0.00000000000E+00  0.00000000000E+00 -0.13049604942E+04  0.13049604942E+04  0.50400001928E-02 0.  1.
    10030    2    1    2    0    0  0.00000000000E+00  0.00000000000E+00 -0.27102145145E+02  0.25828188432E+04  0.25826766446E+04 0.  0.
        4    1    3    3  502    0 -0.33693177880E+03  0.22504116298E+03 -0.12397452066E+04  0.13042761743E+04  0.12699999809E+01 0.  1.
       -4    1    3    3    0  502  0.33693177880E+03 -0.22504116298E+03  0.12126430615E+04  0.12785426689E+04  0.12699999809E+01 0. -1.
</event>
<event>
 5   0  0.6909250E-05  0.1817115E+04  0.7818609E-02  0.8697251E-01
       -2   -1    0    0    0  501  0.00000000000E+00  0.00000000000E+00  0.98262779838E+03  0.98262779839E+03  0.25500000920E-02 0.  1.
        2   -1    0    0  501    0  0.00000000000E+00  0.00000000000E+00 -0.84007024933E+03  0.84007024933E+03  0.25500000920E-02 0. -1.
    10030    2    1    2    0    0  0.00000000000E+00  0.00000000000E+00  0.14255754905E+03  0.18226980477E+04  0.18171146134E+04 0.  0.
        4    1    3    3  502    0  0.70727399253E+03  0.11758925114E+03  0.63103561014E+03  0.95512893719E+03  0.12699999809E+01 0.  1.
       -4    1    3    3    0  502 -0.70727399253E+03 -0.11758925114E+03 -0.48847806108E+03  0.86756911053E+03  0.12699999809E+01 0. -1.
</event>
<event>
 5   0  0.2793920E-05  0.1558210E+04  0.7818609E-02  0.8846641E-01
        1   -1    0    0  501    0  0.00000000000E+00  0.00000000000E+00  0.21833956434E+04  0.21833956434E+04  0.50400001928E-02 0. -1.
       -1   -1    0    0    0  501  0.00000000000E+00  0.00000000000E+00 -0.27800931371E+03  0.27800931376E+03  0.50400001928E-02 0.  1.
    10030    2    1    2    0    0  0.00000000000E+00  0.00000000000E+00  0.19053863297E+04  0.24614049571E+04  0.15582096450E+04 0.  0.
        2    1    3    3  502    0 -0.25224389973E+03  0.48298442009E+02 -0.20922011686E+03  0.33125938743E+03  0.25500000920E-02 0.  1.
       -2    1    3    3    0  502  0.25224389973E+03 -0.48298442009E+02  0.21146064465E+04  0.21301455697E+04  0.25500000920E-02 0. -1.
</event>
<event>
 5   0  0.6445331E-05  0.2464648E+04  0.7818609E-02  0.8415689E-01
       -2   -1    0    0    0  501  0.00000000000E+00  0.00000000000E+00  0.13381591897E+04  0.13381591897E+04  0.25500000920E-02 0. -1.
        2   -1    0    0  501    0  0.00000000000E+00  0.00000000000E+00 -0.11348596446E+04  0.11348596446E+04  0.25500000920E-02 0.  1.
    10030    2    1    2    0    0  0.00000000000E+00  0.00000000000E+00  0.20329954503E+03  0.24730188343E+04  0.24646483420E+04 0.  0.
        1    1    3    3  502    0  0.75244611429E+03  0.71988590857E+03 -0.55953579511E+03  0.11821553123E+04  0.50400001928E-02 0.  1.
       -1    1    3    3    0  502 -0.75244611429E+03 -0.71988590857E+03  0.76283534014E+03  0.12908635220E+04  0.50400001928E-02 0. -1.
</event>
<event>
 5   0  0.2777539E-05  0.2519319E+04  0.7818609E-02  0.8396135E-01
        1   -1    0    0  501    0  0.00000000000E+00  0.00000000000E+00  0.10233840482E+04  0.10233840483E+04  0.50400001928E-02 0.  1.
       -1   -1    0    0    0  501  0.00000000000E+00  0.00000000000E+00 -0.15504857831E+04  0.15504857831E+04  0.50400001928E-02 0. -1.
    10030    2    1    2    0    0  0.00000000000E+00  0.00000000000E+00 -0.52710173490E+03  0.25738698314E+04  0.25193192870E+04 0.  0.
        3    1    3    3  502    0 -0.11805765556E+04 -0.81422488125E+02  0.17748117457E+03  0.11966161468E+04  0.10100000352E+00 0.  1.
       -3    1    3    3    0  502  0.11805765556E+04  0.81422488125E+02 -0.70458290947E+03  0.13772536846E+04  0.10100000352E+00 0. -1.
</event>
<event>
 5   0  0.2977854E-05  0.2516394E+04  0.7818609E-02  0.8397168E-01
       -1   -1    0    0    0  501  0.00000000000E+00  0.00000000000E+00  0.11708236741E+04  0.11708236741E+04  0.50400001928E-02 0.  1.
        1   -1    0    0  501    0  0.00000000000E+00  0.00000000000E+00 -0.13520901620E+04  0.13520901620E+04  0.50400001928E-02 0. -1.
    10030    2    1    2    0    0  0.00000000000E+00  0.00000000000E+00 -0.18126648792E+03  0.25229138361E+04  0.25163935870E+04 0.  0.
        1    1    3    3  502    0  0.60121066526E+03  0.69099285324E+03  0.77423382258E+03  0.11993178892E+04  0.50400001928E-02 0.  1.
       -1    1    3    3    0  502 -0.60121066526E+03 -0.69099285324E+03 -0.95550031049E+03  0.13235959469E+04  0.50400001928E-02 0. -1.
</event>
<event>
 5   0  0.2777539E-05  0.2507409E+04  0.7818609E-02  0.8400351E-01
       -1   -1    0    0    0  501  0.00000000000E+00  0.00000000000E+00  0.76280097816E+03  0.76280097818E+03  0.50400001928E-02 0. -1.
        1   -1    0    0  501    0  0.00000000000E+00  0.00000000000E+00 -0.20605316125E+04  0.20605316125E+04  0.50400001928E-02 0.  1.
    10030    2    1    2    0    0  0.00000000000E+00  0.00000000000E+00 -0.12977306343E+04  0.28233325907E+04  0.25074094437E+04 0.  0.
        3    1    3    3  502    0 -0.86093994509E+03  0.12580888883E+03 -0.16652161622E+04  0.18788268528E+04  0.10100000352E+00 0.  1.
       -3    1    3    3    0  502  0.86093994509E+03 -0.12580888883E+03  0.36748552789E+03  0.94450573792E+03  0.10100000352E+00 0. -1.
</event>
<event>
 5   0  0.6827859E-05  0.2558154E+04  0.7818609E-02  0.8382556E-01
        2   -1    0    0  501    0  0.00000000000E+00  0.00000000000E+00  0.17527228875E+04  0.17527228875E+04  0.25500000920E-02 0.  1.
       -2   -1    0    0    0  501  0.00000000000E+00  0.00000000000E+00 -0.93342639150E+03  0.93342639150E+03  0.25500000920E-02 0. -1.
    10030    2    1    2    0    0  0.00000000000E+00  0.00000000000E+00  0.81929649604E+03  0.26861492790E+04  0.25581538658E+04 0.  0.
        3    1    3    3  502    0  0.50971193962E+02 -0.97742939201E+02  0.17477257130E+04  0.17511987103E+04  0.10100000352E+00 0.  1.
       -3    1    3    3    0  502 -0.50971193962E+02  0.97742939201E+02 -0.92842921700E+03  0.93495056873E+03  0.10100000352E+00 0. -1.
</event>
<event>
 5   0  0.6648328E-05  0.2142258E+04  0.7818609E-02  0.8542853E-01
        2   -1    0    0  501    0  0.00000000000E+00  0.00000000000E+00  0.12185883266E+04  0.12185883266E+04  0.25500000920E-02 0.  1.
       -2   -1    0    0    0  501  0.00000000000E+00  0.00000000000E+00 -0.94151353441E+03  0.94151353441E+03  0.25500000920E-02 0. -1.
    10030    2    1    2    0    0  0.00000000000E+00  0.00000000000E+00  0.27707479216E+03  0.21601018610E+04  0.21422580632E+04 0.  0.
        2    1    3    3  502    0 -0.10078555915E+04 -0.91396070035E+02  0.49244704754E+03  0.11254466801E+04  0.25500000920E-02 0.  1.
       -2    1    3    3    0  502  0.10078555915E+04  0.91396070035E+02 -0.21537225538E+03  0.10346551809E+04  0.25500000920E-02 0. -1.
</event>
<event>
 5   0  0.2896652E-05  0.2438043E+04  0.7818609E-02  0.8425397E-01
       -1   -1    0    0    0  501  0.00000000000E+00  0.00000000000E+00  0.10242843295E+04  0.10242843295E+04  0.50400001928E-02 0.  1.
        1   -1    0    0  501    0  0.00000000000E+00  0.00000000000E+00 -0.14507824614E+04  0.14507824614E+04  0.50400001928E-02 0. -1.
    10030    2    1    2    0    0  0.00000000000E+00  0.00000000000E+00 -0.42649813186E+03  0.24750667909E+04  0.24380432652E+04 0.  0.
        4    1    3    3  502    0  0.18436125858E+03  0.49537289127E+03  0.90189852304E+03  0.10453735858E+04  0.12699999809E+01 0.  1.
       -4    1    3    3    0  502 -0.18436125858E+03 -0.49537289127E+03 -0.13283966549E+04  0.14296932051E+04  0.12699999809E+01 0. -1.
</event>
<event>
 5   0  0.6445331E-05  0.2056309E+04  0.7818609E-02  0.8580738E-01
       -2   -1    0    0    0  501  0.00000000000E+00  0.00000000000E+00  0.84606058651E+03  0.84606058652E+03  0.25500000920E-02 0. -1.
        2   -1    0    0  501    0  0.00000000000E+00  0.00000000000E+00 -0.12494392435E+04  0.12494392435E+04  0.25500000920E-02 0.  1.
    10030    2    1    2    0    0  0.00000000000E+00  0.00000000000E+00 -0.40337865699E+03  0.20954998300E+04  0.20563086336E+04 0.  0.
        1    1    3    3  502    0 -0.98533312937E+03 -0.16330088231E+03  0.46996034093E+02  0.99987858325E+03  0.50400001928E-02 0. -1.
       -1    1    3    3    0  502  0.98533312937E+03  0.16330088231E+03 -0.45037469109E+03  0.10956212468E+04  0.50400001928E-02 0.  1.
</event>
<event>
 5   0  0.7071821E-05  0.2671050E+04  0.7818609E-02  0.8344460E-01
       -2   -1    0    0    0  501  0.00000000000E+00  0.00000000000E+00  0.14482213288E+04  0.14482213288E+04  0.25500000920E-02 0.  1.
        2   -1    0    0  501    0  0.00000000000E+00  0.00000000000E+00 -0.12315979578E+04  0.12315979578E+04  0.25500000920E-02 0. -1.
    10030    2    1    2    0    0  0.00000000000E+00  0.00000000000E+00  0.21662337102E+03  0.26798192865E+04  0.26710495547E+04 0.  0.
        5    1    3    3  502    0 -0.80719129371E+03 -0.17469553288E+03 -0.94467126401E+03  0.12547916962E+04  0.46999998093E+01 0. -1.
       -5    1    3    3    0  502  0.80719129371E+03  0.17469553288E+03  0.11612946350E+04  0.14250275903E+04  0.46999998093E+01 0.  1.
</event>
<event>
 5   0  0.2896652E-05  0.2518211E+04  0.7818609E-02  0.8396526E-01
       -1   -1    0    0    0  501  0.00000000000E+00  0.00000000000E+00  0.14177721474E+04  0.14177721474E+04  0.50400001928E-02 0.  1.
        1   -1    0    0  501    0  0.00000000000E+00  0.00000000000E+00 -0.11181955660E+04  0.11181955660E+04  0.50400001928E-02 0. -1.
    10030    2    1    2    0    0  0.00000000000E+00  0.00000000000E+00  0.29957658138E+03  0.25359677134E+04  0.25182108958E+04 0.  0.
        4    1    3    3  502    0 -0.34728805184E+03  0.30790543282E+03  0.13284816490E+04  0.14072241652E+04  0.12699999809E+01 0.  1.
       -4    1    3    3    0  502  0.34728805184E+03 -0.30790543282E+03 -0.10289050676E+04  0.11287435482E+04  0.12699999809E+01 0. -1.
</event>
<event>
 5   0  0.6445331E-05  0.2452145E+04  0.7818609E-02  0.8420235E-01
       -2   -1    0    0    0  501  0.00000000000E+00  0.00000000000E+00  0.58494643599E+03  0.58494643599E+03  0.25500000920E-02 0.  1.
        2   -1    0    0  501    0  0.00000000000E+00  0.00000000000E+00 -0.25698996542E+04  0.25698996542E+04  0.25500000920E-02 0. -1.
    10030    2    1    2    0    0  0.00000000000E+00  0.00000000000E+00 -0.19849532182E+04  0.31548460902E+04  0.24521448926E+04 0.  0.
        1    1    3    3  502    0 -0.10248878783E+04  0.59266109489E+03 -0.14025891667E+04  0.18354559943E+04  0.50400001928E-02 0.  1.
       -1    1    3    3    0  502  0.10248878783E+04 -0.59266109489E+03 -0.58236405149E+03  0.13193900958E+04  0.50400001928E-02 0. -1.
</event>
<event>
 5   0  0.2977854E-05  0.2464167E+04  0.7818609E-02  0.8415864E-01
        1   -1    0    0  501    0  0.00000000000E+00  0.00000000000E+00  0.12523995917E+04  0.12523995917E+04  0.50400001928E-02 0. -1.
       -1   -1    0    0    0  501  0.00000000000E+00  0.00000000000E+00 -0.12120968879E+04  0.12120968880E+04  0.50400001928E-02 0.  1.
    10030    2    1    2    0    0  0.00000000000E+00  0.00000000000E+00  0.40302703791E+02  0.24644964797E+04  0.24641669161E+04 0.  0.
        1    1    3    3  502    0  0.62283627210E+03  0.10622120875E+04  0.62702394646E+02  0.12329440907E+04  0.50400001928E-02 0.  1.
       -1    1    3    3    0  502 -0.62283627210E+03 -0.10622120875E+04 -0.22399690855E+02  0.12315523890E+04  0.50400001928E-02 0. -1.
</event>
<event>
 5   0  0.6445331E-05  0.2488888E+04  0.7818609E-02  0.8406955E-01
        2   -1    0    0  501    0  0.00000000000E+00  0.00000000000E+00  0.19248848574E+04  0.19248848574E+04  0.25500000920E-02 0. -1.
       -2   -1    0    0    0  501  0.00000000000E+00  0.00000000000E+00 -0.80453668624E+03  0.80453668625E+03  0.25500000920E-02 0.  1.
    10030    2    1    2    0    0  0.00000000000E+00  0.00000000000E+00  0.11203481712E+04  0.27294215437E+04  0.24888876910E+04 0.  0.
        1    1    3    3  502    0 -0.92175041223E+03 -0.79055344082E+03  0.26177042301E+03  0.12422247460E+04  0.50400001928E-02 0.  1.
       -1    1    3    3    0  502  0.92175041223E+03  0.79055344082E+03  0.85857774815E+03  0.14871967976E+04  0.50400001928E-02 0. -1.
</event>
<event>
 5   0  0.2896652E-05  0.2491165E+04  0.7818609E-02  0.8406140E-01
        1   -1    0    0  501    0  0.00000000000E+00  0.00000000000E+00  0.11423351988E+04  0.11423351988E+04  0.50400001928E-02 0. -1.
       -1   -1    0    0    0  501  0.00000000000E+00  0.00000000000E+00 -0.13581614644E+04  0.13581614644E+04  0.50400001928E-02 0.  1.
    10030    2    1    2    0    0  0.00000000000E+00  0.00000000000E+00 -0.21582626568E+03  0.25004966632E+04  0.24911649054E+04 0.  0.
        4    1    3    3  502    0  0.52923293182E+03 -0.11220233837E+04 -0.21991095908E+03  0.12599152402E+04  0.12699999809E+01 0. -1.
       -4    1    3    3    0  502 -0.52923293182E+03  0.11220233837E+04  0.40846934051E+01  0.12405814230E+04  0.12699999809E+01 0.  1.
</event>
<event>
 5   0  0.6648328E-05  0.2433054E+04  0.7818609E-02  0.8427231E-01
       -2   -1    0    0    0  501  0.00000000000E+00  0.00000000000E+00  0.88353848701E+03  0.88353848702E+03  0.25500000920E-02 0.  1.
        2   -1    0    0  501    0  0.00000000000E+00  0.00000000000E+00 -0.16750127480E+04  0.16750127480E+04  0.25500000920E-02 0. -1.
    10030    2    1    2    0    0  0.00000000000E+00  0.00000000000E+00 -0.79147426102E+03  0.25585512351E+04  0.24330542362E+04 0.  0.
        2    1    3    3  502    0  0.41013400481E+03 -0.11453068702E+04 -0.39499328902E+03  0.12790455141E+04  0.25500000920E-02 0. -1.
       -2    1    3    3    0  502 -0.41013400481E+03  0.11453068702E+04 -0.39648097200E+03  0.12795057209E+04  0.25500000920E-02 0.  1.
</event>
<event>
 5   0  0.6648328E-05  0.2545273E+04  0.7818609E-02  0.8387032E-01
       -2   -1    0    0    0  501  0.00000000000E+00  0.00000000000E+00  0.63189143933E+03  0.63189143934E+03  0.25500000920E-02 0.  1.
        2   -1    0    0  501    0  0.00000000000E+00  0.00000000000E+00 -0.25631047951E+04  0.25631047951E+04  0.25500000920E-02 0. -1.
    10030    2    1    2    0    0  0.00000000000E+00  0.00000000000E+00 -0.19312133558E+04  0.31949962345E+04  0.25452732491E+04 0.  0.
        2    1    3    3  502    0  0.48896449057E+01 -0.76687822808E+03  0.30926329224E+03  0.82690380896E+03  0.25500000920E-02 0.  1.
       -2    1    3    3    0  502 -0.48896449057E+01  0.76687822808E+03 -0.22404766480E+04  0.23680924255E+04  0.25500000920E-02 0. -1.
</event>
<event>
 5   0  0.2896652E-05  0.2508643E+04  0.7818609E-02  0.8399913E-01
        1   -1    0    0  501    0  0.00000000000E+00  0.00000000000E+00  0.84375908547E+03  0.84375908549E+03  0.50400001928E-02 0. -1.
       -1   -1    0    0    0  501  0.00000000000E+00  0.00000000000E+00 -0.18646584770E+04  0.18646584770E+04  0.50400001928E-02 0.  1.
    10030    2    1    2    0    0  0.00000000000E+00  0.00000000000E+00 -0.10208993915E+04  0.27084175625E+04  0.25086430844E+04 0.  0.
        4    1    3    3  502    0  0.21851223415E+03 -0.36951119335E+03 -0.17828779608E+04  0.18338324772E+04  0.12699999809E+01 0.  1.
       -4    1    3    3    0  502 -0.21851223415E+03  0.36951119335E+03  0.76197856926E+03  0.87458508528E+03  0.12699999809E+01 0. -1.
</event>
<event>
 5   0  0.2980790E-05  0.2444141E+04  0.7818609E-02  0.8423160E-01
       -1   -1    0    0    0  501  0.00000000000E+00  0.00000000000E+00  0.92940955682E+03  0.92940955683E+03  0.50400001928E-02 0.  1.
        1   -1    0    0  501    0  0.00000000000E+00  0.00000000000E+00 -0.16068868321E+04  0.16068868321E+04  0.50400001928E-02 0. -1.
    10030    2    1    2    0    0  0.00000000000E+00  0.00000000000E+00 -0.67747727532E+03  0.25362963890E+04  0.24441407313E+04 0.  0.
        5    1    3    3  502    0  0.57294211753E+03 -0.14083935359E+02  0.78129663272E+03  0.96897241734E+03  0.46999998093E+01 0.  1.
       -5    1    3    3    0  502 -0.57294211753E+03  0.14083935359E+02 -0.14587739080E+04  0.15673239716E+04  0.46999998093E+01 0. -1.
</event>
<event>
 5   0  0.2793920E-05  0.2545366E+04  0.7818609E-02  0.8386999E-01
       -1   -1    0    0    0  501  0.00000000000E+00  0.00000000000E+00  0.96783817418E+03  0.96783817419E+03  0.50400001928E-02 0.  1.
        1   -1    0    0  501    0  0.00000000000E+00  0.00000000000E+00 -0.16735469567E+04  0.16735469567E+04  0.50400001928E-02 0. -1.
    10030    2    1    2    0    0  0.00000000000E+00  0.00000000000E+00 -0.70570878254E+03  0.26413851309E+04  0.25453664813E+04 0.  0.
        2    1    3    3  502    0  0.11350375553E+04  0.27228292854E+02 -0.94958657540E+03  0.14801237435E+04  0.25500000920E-02 0. -1.
       -2    1    3    3    0  502 -0.11350375553E+04 -0.27228292854E+02  0.24387779285E+03  0.11612613874E+04  0.25500000920E-02 0.  1.
</event>
<event>
 5   0  0.6827859E-05  0.2500114E+04  0.7818609E-02  0.8402945E-01
       -2   -1    0    0    0  501  0.00000000000E+00  0.00000000000E+00  0.14543222324E+04  0.14543222324E+04  0.25500000920E-02 0.  1.
        2   -1    0    0  501    0  0.00000000000E+00  0.00000000000E+00 -0.10744818692E+04  0.10744818692E+04  0.25500000920E-02 0. -1.
    10030    2    1    2    0    0  0.00000000000E+00  0.00000000000E+00  0.37984036320E+03  0.25288041016E+04  0.25001142939E+04 0.  0.
        3    1    3    3  502    0  0.89581993535E+03 -0.25884188536E+03  0.10320306335E+04  0.13908916985E+04  0.10100000352E+00 0. -1.
       -3    1    3    3    0  502 -0.89581993535E+03  0.25884188536E+03 -0.65219027031E+03  0.11379124031E+04  0.10100000352E+00 0.  1.
</event>
<event>
 5   0  0.2793920E-05  0.1720085E+04  0.7818609E-02  0.8749991E-01
       -1   -1    0    0    0  501  0.00000000000E+00  0.00000000000E+00  0.59979219608E+03  0.59979219610E+03  0.50400001928E-02 0.  1.
        1   -1    0    0  501    0  0.00000000000E+00  0.00000000000E+00 -0.12332162864E+04  0.12332162864E+04  0.50400001928E-02 0. -1.
    10030    2    1    2    0    0  0.00000000000E+00  0.00000000000E+00 -0.63342409028E+03  0.18330084825E+04  0.17200854684E+04 0.  0.
        2    1    3    3  502    0 -0.68408878524E+03  0.11778398855E+03  0.22438511155E+03  0.72951985055E+03  0.25500000920E-02 0.  1.
       -2    1    3    3    0  502  0.68408878524E+03 -0.11778398855E+03 -0.85780920183E+03  0.11034886319E+04  0.25500000920E-02 0. -1.
</event>
<event>
 5   0  0.2977854E-05  0.2454317E+04  0.7818609E-02  0.8419443E-01
       -1   -1    0    0    0  501  0.00000000000E+00  0.00000000000E+00  0.10873584136E+04  0.10873584137E+04  0.50400001928E-02 0. -1.
        1   -1    0    0  501    0  0.00000000000E+00  0.00000000000E+00 -0.13849330130E+04  0.13849330130E+04  0.50400001928E-02 0.  1.
    10030    2    1    2    0    0  0.00000000000E+00  0.00000000000E+00 -0.29757459934E+03  0.24722914266E+04  0.24543174725E+04 0.  0.
        1    1    3    3  502    0 -0.20213227691E+03  0.64146368869E+03 -0.11827474579E+04  0.13605971742E+04  0.50400001928E-02 0.  1.
       -1    1    3    3    0  502  0.20213227691E+03 -0.64146368869E+03  0.88517285857E+03  0.11116942524E+04  0.50400001928E-02 0. -1.
</event>
<event>
 5   0  0.6445331E-05  0.2518021E+04  0.7818609E-02  0.8396593E-01
        2   -1    0    0  501    0  0.00000000000E+00  0.00000000000E+00  0.18259337673E+04  0.18259337673E+04  0.25500000920E-02 0. -1.
       -2   -1    0    0    0  501  0.00000000000E+00  0.00000000000E+00 -0.86810791997E+03  0.86810791997E+03  0.25500000920E-02 0.  1.
    10030    2    1    2    0    0  0.00000000000E+00  0.00000000000E+00  0.95782584732E+03  0.26940416873E+04  0.25180210998E+04 0.  0.
        1    1    3    3  502    0 -0.93174250891E+03  0.71306431353E+03  0.96745372092E+03  0.15207141481E+04  0.50400001928E-02 0. -1.
       -1    1    3    3    0  502  0.93174250891E+03 -0.71306431353E+03 -0.96278735997E+01  0.11733275391E+04  0.50400001928E-02 0.  1.
</event>
<event>
 5   0  0.2980790E-05  0.2511013E+04  0.7818609E-02  0.8399073E-01
        1   -1    0    0  501    0  0.00000000000E+00  0.00000000000E+00  0.12968180406E+04  0.12968180406E+04  0.50400001928E-02 0. -1.
       -1   -1    0    0    0  501  0.00000000000E+00  0.00000000000E+00 -0.12155105712E+04  0.12155105712E+04  0.50400001928E-02 0.  1.
    10030    2    1    2    0    0  0.00000000000E+00  0.00000000000E+00  0.81307469356E+02  0.25123286118E+04  0.25110125745E+04 0.  0.
        5    1    3    3  502    0 -0.84577841196E+03  0.66020283788E+03  0.69296555678E+03  0.12772753275E+04  0.46999998093E+01 0. -1.
       -5    1    3    3    0  502  0.84577841196E+03 -0.66020283788E+03 -0.61165808743E+03  0.12350532844E+04  0.46999998093E+01 0.  1.
</event>
<event>
 5   0  0.2980790E-05  0.2633871E+04  0.7818609E-02  0.8356786E-01
       -1   -1    0    0    0  501  0.00000000000E+00  0.00000000000E+00  0.16311153606E+04  0.16311153606E+04  0.50400001928E-02 0.  1.
        1   -1    0    0  501    0  0.00000000000E+00  0.00000000000E+00 -0.10632716081E+04  0.10632716082E+04  0.50400001928E-02 0. -1.
    10030    2    1    2    0    0  0.00000000000E+00  0.00000000000E+00  0.56784375249E+03  0.26943869688E+04  0.26338706518E+04 0.  0.
        5    1    3    3  502    0  0.12142971803E+04 -0.47499655249E+03  0.47298491292E+03  0.13870386386E+04  0.46999998093E+01 0.  1.
       -5    1    3    3    0  502 -0.12142971803E+04  0.47499655249E+03  0.94858839573E+02  0.13073483302E+04  0.46999998093E+01 0. -1.
</event>
<event>
 5   0  0.6648328E-05  0.2430803E+04  0.7818609E-02  0.8428060E-01
       -2   -1    0    0    0  501  0.00000000000E+00  0.00000000000E+00  0.10686847093E+04  0.10686847093E+04  0.25500000920E-02 0.  1.
        2   -1    0    0  501    0  0.00000000000E+00  0.00000000000E+00 -0.13822610346E+04  0.13822610346E+04  0.25500000920E-02 0. -1.
    10030    2    1    2    0    0  0.00000000000E+00  0.00000000000E+00 -0.31357632525E+03  0.24509457439E+04  0.24308033502E+04 0.  0.
        2    1    3    3  502    0 -0.82037722618E+03  0.83866764607E+03  0.16336301443E+03  0.11845124264E+04  0.25500000920E-02 0.  1.
       -2    1    3    3    0  502  0.82037722618E+03 -0.83866764607E+03 -0.47693933968E+03  0.12664333175E+04  0.25500000920E-02 0. -1.
</event>
<event>
 5   0  0.6648328E-05  0.2505141E+04  0.7818609E-02  0.8401156E-01
        2   -1    0    0  501    0  0.00000000000E+00  0.00000000000E+00  0.13318670614E+04  0.13318670614E+04  0.25500000920E-02 0.  1.
       -2   -1    0    0    0  501  0.00000000000E+00  0.00000000000E+00 -0.11779948298E+04  0.11779948299E+04  0.25500000920E-02 0. -1.
    10030    2    1    2    0    0  0.00000000000E+00  0.00000000000E+00  0.15387223153E+03  0.25098618912E+04  0.25051407245E+04 0.  0.
        2    1    3    3  502    0 -0.51081996889E+03  0.33566152692E+03  0.11723065836E+04  0.13220848790E+04  0.25500000920E-02 0.  1.
       -2    1    3    3    0  502  0.51081996889E+03 -0.33566152692E+03 -0.10184343521E+04  0.11877770122E+04  0.25500000920E-02 0. -1.
</event>
<event>
 5   0  0.2777539E-05  0.1352911E+04  0.7818609E-02  0.8988627E-01
       -1   -1    0    0    0  501  0.00000000000E+00  0.00000000000E+00  0.59654628710E+03  0.59654628713E+03  0.50400001928E-02 0.  1.
        1   -1    0    0  501    0  0.00000000000E+00  0.00000000000E+00 -0.76706884624E+03  0.76706884626E+03  0.50400001928E-02 0. -1.
    10030    2    1    2    0    0  0.00000000000E+00  0.00000000000E+00 -0.17052255914E+03  0.13636151334E+04  0.13529110425E+04 0.  0.
        3    1    3    3  502    0 -0.24854941062E+03 -0.62369376690E+03 -0.16850612345E+03  0.69221748623E+03  0.10100000352E+00 0.  1.
       -3    1    3    3    0  502  0.24854941062E+03  0.62369376690E+03 -0.20164356838E+01  0.67139764716E+03  0.10100000352E+00 0. -1.
</event>
<event>
 5   0  0.7071821E-05  0.2476982E+04  0.7818609E-02  0.8411232E-01
        2   -1    0    0  501    0  0.00000000000E+00  0.00000000000E+00  0.24457539731E+04  0.24457539731E+04  0.25500000920E-02 0. -1.
       -2   -1    0    0    0  501  0.00000000000E+00  0.00000000000E+00 -0.62715207726E+03  0.62715207727E+03  0.25500000920E-02 0.  1.
    10030    2    1    2    0    0  0.00000000000E+00  0.00000000000E+00  0.18186018958E+04  0.30729060503E+04  0.24769817801E+04 0.  0.
        5    1    3    3  502    0  0.85971712870E+03 -0.62898500951E+03  0.12556751379E+03  0.10726252720E+04  0.46999998093E+01 0.  1.
       -5    1    3    3    0  502 -0.85971712870E+03  0.62898500951E+03  0.16930343820E+04  0.20002807784E+04  0.46999998093E+01 0. -1.
</event>
<event>
 5   0  0.2896652E-05  0.2529223E+04  0.7818609E-02  0.8392648E-01
        1   -1    0    0  501    0  0.00000000000E+00  0.00000000000E+00  0.17267614392E+04  0.17267614392E+04  0.50400001928E-02 0. -1.
       -1   -1    0    0    0  501  0.00000000000E+00  0.00000000000E+00 -0.92615101456E+03  0.92615101457E+03  0.50400001928E-02 0.  1.
    10030    2    1    2    0    0  0.00000000000E+00  0.00000000000E+00  0.80061042461E+03  0.26529124537E+04  0.25292226939E+04 0.  0.
        4    1    3    3  502    0  0.43888936949E+03 -0.61874482068E+03  0.14616031140E+04  0.16467405101E+04  0.12699999809E+01 0. -1.
       -4    1    3    3    0  502 -0.43888936949E+03  0.61874482068E+03 -0.66099268943E+03  0.10061719436E+04  0.12699999809E+01 0.  1.
</event>
<event>
 5   0  0.6648328E-05  0.2328937E+04  0.7818609E-02  0.8466598E-01
       -2   -1    0    0    0  501  0.00000000000E+00  0.00000000000E+00  0.72931371274E+03  0.72931371275E+03  0.25500000920E-02 0.  1.
        2   -1    0    0  501    0  0.00000000000E+00  0.00000000000E+00 -0.18592641465E+04  0.18592641465E+04  0.25500000920E-02 0. -1.
    10030    2    1    2    0    0  0.00000000000E+00  0.00000000000E+00 -0.11299504338E+04  0.25885778593E+04  0.23289369572E+04 0.  0.
        2    1    3    3  502    0 -0.47567064384E+03 -0.50895674489E+03 -0.16021085833E+04  0.17470121472E+04  0.25500000920E-02 0. -1.
       -2    1    3    3    0  502  0.47567064384E+03  0.50895674489E+03  0.47215814955E+03  0.84156571210E+03  0.25500000920E-02 0.  1.
</event>
<event>
 5   0  0.2980790E-05  0.2415493E+04  0.7818609E-02  0.8433726E-01
        1   -1    0    0  501    0  0.00000000000E+00  0.00000000000E+00  0.14035188023E+04  0.14035188023E+04  0.50400001928E-02 0. -1.
       -1   -1    0    0    0  501  0.00000000000E+00  0.00000000000E+00 -0.10392814928E+04  0.10392814928E+04  0.50400001928E-02 0.  1.
    10030    2    1    2    0    0  0.00000000000E+00  0.00000000000E+00  0.36423730951E+03  0.24428002951E+04  0.24154925924E+04 0.  0.
        5    1    3    3  502    0  0.75632865565E+03  0.28470465805E+03  0.10897836911E+04  0.13567388698E+04  0.46999998093E+01 0. -1.
       -5    1    3    3    0  502 -0.75632865565E+03 -0.28470465805E+03 -0.72554638154E+03  0.10860614253E+04  0.46999998093E+01 0.  1.
</event>
<event>
 5   0  0.2980790E-05  0.2696572E+04  0.7818609E-02  0.8336118E-01
        1   -1    0    0  501    0  0.00000000000E+00  0.00000000000E+00  0.91061302760E+03  0.91061302761E+03  0.50400001928E-02 0.  1.
       -1   -1    0    0    0  501  0.00000000000E+00  0.00000000000E+00 -0.19963203086E+04  0.19963203086E+04  0.50400001928E-02 0. -1.
    10030    2    1    2    0    0  0.00000000000E+00  0.00000000000E+00 -0.10857072810E+04  0.29069333362E+04  0.26965721057E+04 0.  0.
        5    1    3    3  502    0 -0.59072937831E+03 -0.93133107488E+03  0.29322293613E+03  0.11412013625E+04  0.46999998093E+01 0.  1.
       -5    1    3    3    0  502  0.59072937831E+03  0.93133107488E+03 -0.13789302171E+04  0.17657319738E+04  0.46999998093E+01 0. -1.
</event>
<event>
 5   0  0.2793920E-05  0.2501568E+04  0.7818609E-02  0.8402427E-01
       -1   -1    0    0    0  501  0.00000000000E+00  0.00000000000E+00  0.11021188182E+04  0.11021188182E+04  0.50400001928E-02 0. -1.
        1   -1    0    0  501    0  0.00000000000E+00  0.00000000000E+00 -0.14195021883E+04  0.14195021883E+04  0.50400001928E-02 0.  1.
    10030    2    1    2    0    0  0.00000000000E+00  0.00000000000E+00 -0.31738337012E+03  0.25216210066E+04  0.25015675680E+04 0.  0.
        2    1    3    3  502    0 -0.29402496284E+03  0.47841690676E+03 -0.12852944546E+04  0.14026101563E+04  0.25500000920E-02 0.  1.
       -2    1    3    3    0  502  0.29402496284E+03 -0.47841690676E+03  0.96791108452E+03  0.11190108503E+04  0.25500000920E-02 0. -1.
</event>
<event>
 5   0  0.2980790E-05  0.2535528E+04  0.7818609E-02  0.8390437E-01
       -1   -1    0    0    0  501  0.00000000000E+00  0.00000000000E+00  0.11127949145E+04  0.11127949145E+04  0.50400001928E-02 0.  1.
        1   -1    0    0  501    0  0.00000000000E+00  0.00000000000E+00 -0.14443136877E+04  0.14443136877E+04  0.50400001928E-02 0. -1.
    10030    2    1    2    0    0  0.00000000000E+00  0.00000000000E+00 -0.33151877317E+03  0.25571086022E+04  0.25355275006E+04 0.  0.
        5    1    3    3  502    0 -0.10053011314E+04 -0.72696562687E+02  0.60973786604E+03  0.11780142233E+04  0.46999998093E+01 0.  1.
       -5    1    3    3    0  502  0.10053011314E+04  0.72696562687E+02 -0.94125663922E+03  0.13790943789E+04  0.46999998093E+01 0. -1.
</event>
<event>
 5   0  0.6648328E-05  0.2425193E+04  0.7818609E-02  0.8430131E-01
        2   -1    0    0  501    0  0.00000000000E+00  0.00000000000E+00  0.13307650929E+04  0.13307650929E+04  0.25500000920E-02 0.  1.
       -2   -1    0    0    0  501  0.00000000000E+00  0.00000000000E+00 -0.11049212815E+04  0.11049212815E+04  0.25500000920E-02 0. -1.
    10030    2    1    2    0    0  0.00000000000E+00  0.00000000000E+00  0.22584381136E+03  0.24356863744E+04  0.24251933299E+04 0.  0.
        2    1    3    3  502    0 -0.27144867561E+03 -0.52563790665E+03  0.11759964010E+04  0.13164144968E+04  0.25500000920E-02 0.  1.
       -2    1    3    3    0  502  0.27144867561E+03  0.52563790665E+03 -0.95015258961E+03  0.11192718776E+04  0.25500000920E-02 0. -1.
</event>
<event>
 5   0  0.6648328E-05  0.1878751E+04  0.7818609E-02  0.8665506E-01
       -2   -1    0    0    0  501  0.00000000000E+00  0.00000000000E+00  0.56166173625E+03  0.56166173626E+03  0.25500000920E-02 0. -1.
        2   -1    0    0  501    0  0.00000000000E+00  0.00000000000E+00 -0.15710990279E+04  0.15710990279E+04  0.25500000920E-02 0.  1.
    10030    2    1    2    0    0  0.00000000000E+00  0.00000000000E+00 -0.10094372917E+04  0.21327607642E+04  0.18787508700E+04 0.  0.
        2    1    3    3  502    0  0.92878303188E+03  0.74993697216E+02 -0.63982304116E+03  0.11303253952E+04  0.25500000920E-02 0. -1.
       -2    1    3    3    0  502 -0.92878303188E+03 -0.74993697216E+02 -0.36961425054E+03  0.10024353691E+04  0.25500000920E-02 0.  1.
</event>
<event>
 5   0  0.2896652E-05  0.2476572E+04  0.7818609E-02  0.8411380E-01
       -1   -1    0    0    0  501  0.00000000000E+00  0.00000000000E+00  0.92199853419E+03  0.92199853420E+03  0.50400001928E-02 0. -1.
        1   -1    0    0  501    0  0.00000000000E+00  0.00000000000E+00 -0.16630739408E+04  0.16630739408E+04  0.50400001928E-02 0.  1.
    10030    2    1    2    0    0  0.00000000000E+00  0.00000000000E+00 -0.74107540659E+03  0.25850724750E+04  0.24765716107E+04 0.  0.
        4    1    3    3  502    0  0.32239478379E+03  0.99345481969E+03 -0.10648557785E+04  0.14915798058E+04  0.12699999809E+01 0.  1.
       -4    1    3    3    0  502 -0.32239478379E+03 -0.99345481969E+03  0.32378037187E+03  0.10934926692E+04  0.12699999809E+01 0. -1.
</event>
<event>
 5   0  0.6909250E-05  0.2497975E+04  0.7818609E-02  0.8403707E-01
        2   -1    0    0  501    0  0.00000000000E+00  0.00000000000E+00  0.28287377558E+04  0.28287377559E+04  0.25500000920E-02 0.  1.
       -2   -1    0    0    0  501  0.00000000000E+00  0.00000000000E+00 -0.55147193564E+03  0.55147193564E+03  0.25500000920E-02 0. -1.
    10030    2    1    2    0    0  0.00000000000E+00  0.00000000000E+00  0.22772658202E+04  0.33802096915E+04  0.24979747682E+04 0.  0.
        4    1    3    3  502    0 -0.43066681340E+03 -0.22857067953E+03 -0.41737674240E+03  0.64181260326E+03  0.12699999809E+01 0. -1.
       -4    1    3    3    0  502  0.43066681340E+03  0.22857067953E+03  0.26946425626E+04  0.27383970882E+04  0.12699999809E+01 0.  1.
</event>
<event>
 5   0  0.2331375E-05  0.2481850E+04  0.7818609E-02  0.8409480E-01
        3   -1    0    0  501    0  0.00000000000E+00  0.00000000000E+00  0.20848936233E+04  0.20848936258E+04  0.10100000352E+00 0.  1.
       -3   -1    0    0    0  501  0.00000000000E+00  0.00000000000E+00 -0.73859616958E+03  0.73859617648E+03  0.10100000352E+00 0. -1.
    10030    2    1    2    0    0  0.00000000000E+00  0.00000000000E+00  0.13462974538E+04  0.28234898023E+04  0.24818496791E+04 0.  0.
        1    1    3    3  502    0  0.97346301324E+03  0.41549278112E+03  0.14101088654E+04  0.17631425075E+04  0.50400001928E-02 0.  1.
       -1    1    3    3    0  502 -0.97346301324E+03 -0.41549278112E+03 -0.63811411639E+02  0.10603472948E+04  0.50400001928E-02 0. -1.
</event>
<event>
 5   0  0.2980790E-05  0.2492327E+04  0.7818609E-02  0.8405724E-01
       -1   -1    0    0    0  501  0.00000000000E+00  0.00000000000E+00  0.12804780212E+04  0.12804780212E+04  0.50400001928E-02 0. -1.
        1   -1    0    0  501    0  0.00000000000E+00  0.00000000000E+00 -0.12127683652E+04  0.12127683652E+04  0.50400001928E-02 0.  1.
    10030    2    1    2    0    0  0.00000000000E+00  0.00000000000E+00  0.67709655916E+02  0.24932463864E+04  0.24923268136E+04 0.  0.
        5    1    3    3  502    0 -0.96100596665E+03  0.37268261822E+03 -0.66674373413E+03  0.12275968796E+04  0.46999998093E+01 0.  1.
       -5    1    3    3    0  502  0.96100596665E+03 -0.37268261822E+03  0.73445339004E+03  0.12656495068E+04  0.46999998093E+01 0. -1.
</event>
<event>
 5   0  0.2777539E-05  0.2710179E+04  0.7818609E-02  0.8331710E-01
       -1   -1    0    0    0  501  0.00000000000E+00  0.00000000000E+00  0.86700400959E+03  0.86700400961E+03  0.50400001928E-02 0. -1.
        1   -1    0    0  501    0  0.00000000000E+00  0.00000000000E+00 -0.21179454908E+04  0.21179454908E+04  0.50400001928E-02 0.  1.
    10030    2    1    2    0    0  0.00000000000E+00  0.00000000000E+00 -0.12509414812E+04  0.29849495004E+04  0.27101787636E+04 0.  0.
        3    1    3    3  502    0  0.14198687426E+03 -0.20362894568E+03  0.84174660551E+03  0.87758895735E+03  0.10100000352E+00 0. -1.
       -3    1    3    3    0  502 -0.14198687426E+03  0.20362894568E+03 -0.20926880867E+04  0.21073605431E+04  0.10100000352E+00 0.  1.
</event>
<event>
 5   0  0.6648328E-05  0.2501831E+04  0.7818609E-02  0.8402334E-01
        2   -1    0    0  501    0  0.00000000000E+00  0.00000000000E+00  0.16098320658E+04  0.16098320658E+04  0.25500000920E-02 0.  1.
       -2   -1    0    0    0  501  0.00000000000E+00  0.00000000000E+00 -0.97202017251E+03  0.97202017251E+03  0.25500000920E-02 0. -1.
    10030    2    1    2    0    0  0.00000000000E+00  0.00000000000E+00  0.63781189329E+03  0.25818522383E+04  0.25018307235E+04 0.  0.
        2    1    3    3  502    0 -0.63457079632E+03  0.61926758678E+03 -0.59171020235E+03  0.10659706390E+04  0.25500000920E-02 0. -1.
       -2    1    3    3    0  502  0.63457079632E+03 -0.61926758678E+03  0.12295220956E+04  0.15158815994E+04  0.25500000920E-02 0.  1.
</event>
<event>
 5   0  0.2977854E-05  0.2511996E+04  0.7818609E-02  0.8398724E-01
        1   -1    0    0  501    0  0.00000000000E+00  0.00000000000E+00  0.15507419274E+04  0.15507419274E+04  0.50400001928E-02 0.  1.
       -1   -1    0    0    0  501  0.00000000000E+00  0.00000000000E+00 -0.10172752260E+04  0.10172752260E+04  0.50400001928E-02 0. -1.
    10030    2    1    2    0    0  0.00000000000E+00  0.00000000000E+00  0.53346670133E+03  0.25680171534E+04  0.25119962936E+04 0.  0.
        1    1    3    3  502    0 -0.43427360172E+03  0.98380888983E+03 -0.39662746021E+03  0.11462054070E+04  0.50400001928E-02 0. -1.
       -1    1    3    3    0  502  0.43427360172E+03 -0.98380888983E+03  0.93009416154E+03  0.14218117464E+04  0.50400001928E-02 0.  1.
</event>
<event>
 5   0  0.6648328E-05  0.2398280E+04  0.7818609E-02  0.8440148E-01
        2   -1    0    0  501    0  0.00000000000E+00  0.00000000000E+00  0.20361631306E+04  0.20361631306E+04  0.25500000920E-02 0. -1.
       -2   -1    0    0    0  501  0.00000000000E+00  0.00000000000E+00 -0.70619940916E+03  0.70619940917E+03  0.25500000920E-02 0.  1.
    10030    2    1    2    0    0  0.00000000000E+00  0.00000000000E+00  0.13299637214E+04  0.27423625398E+04  0.23982803838E+04 0.  0.
        2    1    3    3  502    0  0.10496345917E+04  0.53857928117E+03  0.91059328345E+03  0.14902954559E+04  0.25500000920E-02 0.  1.
       -2    1    3    3    0  502 -0.10496345917E+04 -0.53857928117E+03  0.41937043799E+03  0.12520670838E+04  0.25500000920E-02 0. -1.
</event>
<event>
 5   0  0.6648328E-05  0.2615704E+04  0.7818609E-02  0.8362887E-01
       -2   -1    0    0    0  501  0.00000000000E+00  0.00000000000E+00  0.94952605126E+03  0.94952605126E+03  0.25500000920E-02 0. -1.
        2   -1    0    0  501    0  0.00000000000E+00  0.00000000000E+00 -0.18014000732E+04  0.18014000732E+04  0.25500000920E-02 0.  1.
    10030    2    1    2    0    0  0.00000000000E+00  0.00000000000E+00 -0.85187402193E+03  0.27509261245E+04  0.26157035751E+04 0.  0.
        2    1    3    3  502    0  0.57354529735E+03 -0.28373514104E+03 -0.16255241397E+04  0.17469369099E+04  0.25500000920E-02 0.  1.
       -2    1    3    3    0  502 -0.57354529735E+03  0.28373514104E+03  0.77365011773E+03  0.10039892146E+04  0.25500000920E-02 0. -1.
</event>
<event>
 5   0  0.2777539E-05  0.2415047E+04  0.7818609E-02  0.8433891E-01
       -1   -1    0    0    0  501  0.00000000000E+00  0.00000000000E+00  0.11968241645E+04  0.11968241646E+04  0.50400001928E-02 0. -1.
        1   -1    0    0  501    0  0.00000000000E+00  0.00000000000E+00 -0.12183189602E+04  0.12183189603E+04  0.50400001928E-02 0.  1.
    10030    2    1    2    0    0  0.00000000000E+00  0.00000000000E+00 -0.21494795702E+02  0.24151431248E+04  0.24150474710E+04 0.  0.
        3    1    3    3  502    0  0.44010412590E+03 -0.56739159744E+03  0.96010962338E+03  0.11989309261E+04  0.10100000352E+00 0. -1.
       -3    1    3    3    0  502 -0.44010412590E+03  0.56739159744E+03 -0.98160441909E+03  0.12162121987E+04  0.10100000352E+00 0.  1.
</event>
<event>
 5   0  0.2977854E-05  0.2356365E+04  0.7818609E-02  0.8456023E-01
        1   -1    0    0  501    0  0.00000000000E+00  0.00000000000E+00  0.12383897196E+04  0.12383897196E+04  0.50400001928E-02 0.  1.
       -1   -1    0    0    0  501  0.00000000000E+00  0.00000000000E+00 -0.11209028059E+04  0.11209028059E+04  0.50400001928E-02 0. -1.
    10030    2    1    2    0    0  0.00000000000E+00  0.00000000000E+00  0.11748691372E+03  0.23592925255E+04  0.23563654313E+04 0.  0.
        1    1    3    3  502    0 -0.96635925071E+03 -0.47471963349E+03  0.53777855906E+03  0.12035010222E+04  0.50400001928E-02 0.  1.
       -1    1    3    3    0  502  0.96635925071E+03  0.47471963349E+03 -0.42029164534E+03  0.11557915033E+04  0.50400001928E-02 0. -1.
</event>
<event>
 5   0  0.2777539E-05  0.2499396E+04  0.7818609E-02  0.8403201E-01
        1   -1    0    0  501    0  0.00000000000E+00  0.00000000000E+00  0.31906502002E+04  0.31906502002E+04  0.50400001928E-02 0.  1.
       -1   -1    0    0    0  501  0.00000000000E+00  0.00000000000E+00 -0.48947557766E+03  0.48947557768E+03  0.50400001928E-02 0. -1.
    10030    2    1    2    0    0  0.00000000000E+00  0.00000000000E+00  0.27011746225E+04  0.36801257779E+04  0.24993962070E+04 0.  0.
        3    1    3    3  502    0  0.42057816565E+03  0.63284093183E+03  0.28114423260E+04  0.29123155051E+04  0.10100000352E+00 0.  1.
       -3    1    3    3    0  502 -0.42057816565E+03 -0.63284093183E+03 -0.11026770346E+03  0.76781027282E+03  0.10100000352E+00 0. -1.
</event>
<event>
 5   0  0.2331375E-05  0.2047468E+04  0.7818609E-02  0.8584744E-01
       -3   -1    0    0    0  501  0.00000000000E+00  0.00000000000E+00  0.74013948754E+03  0.74013949443E+03  0.10100000352E+00 0.  1.
        3   -1    0    0  501    0  0.00000000000E+00  0.00000000000E+00 -0.14159909729E+04  0.14159909765E+04  0.10100000352E+00 0. -1.
    10030    2    1    2    0    0  0.00000000000E+00  0.00000000000E+00 -0.67585148540E+03  0.21561304710E+04  0.20474675523E+04 0.  0.
        4    1    3    3  502    0 -0.24890617587E+03 -0.16129022515E+03  0.69390221228E+03  0.75463283405E+03  0.12699999809E+01 0.  1.
       -4    1    3    3    0  502  0.24890617587E+03  0.16129022515E+03 -0.13697536977E+04  0.14014976369E+04  0.12699999809E+01 0. -1.
</event>
<event>
 5   0  0.2896652E-05  0.2357811E+04  0.7818609E-02  0.8455470E-01
       -1   -1    0    0    0  501  0.00000000000E+00  0.00000000000E+00  0.91121011088E+03  0.91121011089E+03  0.50400001928E-02 0. -1.
        1   -1    0    0  501    0  0.00000000000E+00  0.00000000000E+00 -0.15252441302E+04  0.15252441302E+04  0.50400001928E-02 0.  1.
    10030    2    1    2    0    0  0.00000000000E+00  0.00000000000E+00 -0.61403401932E+03  0.24364542411E+04  0.23578107414E+04 0.  0.
        4    1    3    3  502    0  0.32403377206E+03 -0.16021833207E+03  0.85252846929E+03  0.92599902982E+03  0.12699999809E+01 0. -1.
       -4    1    3    3    0  502 -0.32403377206E+03  0.16021833207E+03 -0.14665624886E+04  0.15104552113E+04  0.12699999809E+01 0.  1.
</event>
<event>
 5   0  0.2896652E-05  0.2450255E+04  0.7818609E-02  0.8420925E-01
        1   -1    0    0  501    0  0.00000000000E+00  0.00000000000E+00  0.11317919678E+04  0.11317919678E+04  0.50400001928E-02 0. -1.
       -1   -1    0    0    0  501  0.00000000000E+00  0.00000000000E+00 -0.13261606414E+04  0.13261606414E+04  0.50400001928E-02 0.  1.
    10030    2    1    2    0    0  0.00000000000E+00  0.00000000000E+00 -0.19436867357E+03  0.24579526092E+04  0.24502554658E+04 0.  0.
        4    1    3    3  502    0 -0.10318272462E+03  0.74319789087E+03  0.87433441632E+03  0.11521510596E+04  0.12699999809E+01 0. -1.
       -4    1    3    3    0  502  0.10318272462E+03 -0.74319789087E+03 -0.10687030899E+04  0.13058015496E+04  0.12699999809E+01 0.  1.
</event>
<event>
 5   0  0.6445331E-05  0.2467530E+04  0.7818609E-02  0.8414645E-01
       -2   -1    0    0    0  501  0.00000000000E+00  0.00000000000E+00  0.14132336311E+04  0.14132336312E+04  0.25500000920E-02 0. -1.
        2   -1    0    0  501    0  0.00000000000E+00  0.00000000000E+00 -0.10770871702E+04  0.10770871702E+04  0.25500000920E-02 0.  1.
    10030    2    1    2    0    0  0.00000000000E+00  0.00000000000E+00  0.33614646090E+03  0.24903208014E+04  0.24675297872E+04 0.  0.
        1    1    3    3  502    0 -0.36840220649E+03  0.73037895830E+02  0.13541389973E+04  0.14052569673E+04  0.50400001928E-02 0. -1.
       -1    1    3    3    0  502  0.36840220649E+03 -0.73037895830E+02 -0.10179925364E+04  0.10850638341E+04  0.50400001928E-02 0.  1.
</event>
<event>
 5   0  0.6827859E-05  0.2486660E+04  0.7818609E-02  0.8407754E-01
       -2   -1    0    0    0  501  0.00000000000E+00  0.00000000000E+00  0.11900937731E+04  0.11900937731E+04  0.25500000920E-02 0.  1.
        2   -1    0    0  501    0  0.00000000000E+00  0.00000000000E+00 -0.12989473912E+04  0.12989473912E+04  0.25500000920E-02 0. -1.
    10030    2    1    2    0    0  0.00000000000E+00  0.00000000000E+00 -0.10885361805E+03  0.24890411643E+04  0.24866597691E+04 0.  0.
        3    1    3    3  502    0  0.77064456993E+03  0.88028724121E+02 -0.10270708656E+04  0.12870573735E+04  0.10100000352E+00 0. -1.
       -3    1    3    3    0  502 -0.77064456993E+03 -0.88028724121E+02  0.91821724755E+03  0.12019837908E+04  0.10100000352E+00 0.  1.
</event>
<event>
 5   0  0.2980790E-05  0.2492138E+04  0.7818609E-02  0.8405792E-01
       -1   -1    0    0    0  501  0.00000000000E+00  0.00000000000E+00  0.93535112093E+03  0.93535112094E+03  0.50400001928E-02 0.  1.
        1   -1    0    0  501    0  0.00000000000E+00  0.00000000000E+00 -0.16600054056E+04  0.16600054056E+04  0.50400001928E-02 0. -1.
    10030    2    1    2    0    0  0.00000000000E+00  0.00000000000E+00 -0.72465428464E+03  0.25953565265E+04  0.24921379712E+04 0.  0.
        5    1    3    3  502    0 -0.60651502412E+03  0.35310781204E+03  0.70993877909E+03  0.99828891683E+03  0.46999998093E+01 0.  1.
       -5    1    3    3    0  502  0.60651502412E+03 -0.35310781204E+03 -0.14345930637E+04  0.15970676097E+04  0.46999998093E+01 0. -1.
</event>
<event>
 5   0  0.6648328E-05  0.2450487E+04  0.7818609E-02  0.8420840E-01
       -2   -1    0    0    0  501  0.00000000000E+00  0.00000000000E+00  0.15169506399E+04  0.15169506399E+04  0.25500000920E-02 0. -1.
        2   -1    0    0  501    0  0.00000000000E+00  0.00000000000E+00 -0.98963079487E+03  0.98963079487E+03  0.25500000920E-02 0.  1.
    10030    2    1    2    0    0  0.00000000000E+00  0.00000000000E+00  0.52731984500E+03  0.25065814347E+04  0.24504865374E+04 0.  0.
        2    1    3    3  502    0  0.22682397477E+03 -0.82777031654E+03  0.11580719461E+04  0.14414518531E+04  0.25500000920E-02 0. -1.
       -2    1    3    3    0  502 -0.22682397477E+03  0.82777031654E+03 -0.63075210115E+03  0.10651295816E+04  0.25500000920E-02 0.  1.
</event>
<event>
 5   0  0.6909250E-05  0.2443350E+04  0.7818609E-02  0.8423450E-01
        2   -1    0    0  501    0  0.00000000000E+00  0.00000000000E+00  0.18105988400E+04  0.18105988400E+04  0.25500000920E-02 0.  1.
       -2   -1    0    0    0  501  0.00000000000E+00  0.00000000000E+00 -0.82430731453E+03  0.82430731453E+03  0.25500000920E-02 0. -1.
    10030    2    1    2    0    0  0.00000000000E+00  0.00000000000E+00  0.98629152547E+03  0.26349061545E+04  0.24433500506E+04 0.  0.
        4    1    3    3  502    0 -0.88000999412E+03  0.42124086807E+03 -0.29977217777E+03  0.10206500037E+04  0.12699999809E+01 0. -1.
       -4    1    3    3    0  502  0.88000999412E+03 -0.42124086807E+03  0.12860637032E+04  0.16142561508E+04  0.12699999809E+01 0.  1.
</event>
<event>
 5   0  0.2896652E-05  0.2486196E+04  0.7818609E-02  0.8407920E-01
       -1   -1    0    0    0  501  0.00000000000E+00  0.00000000000E+00  0.77810742967E+03  0.77810742969E+03  0.50400001928E-02 0. -1.
        1   -1    0    0  501    0  0.00000000000E+00  0.00000000000E+00 -0.19859632417E+04  0.19859632417E+04  0.50400001928E-02 0.  1.
    10030    2    1    2    0    0  0.00000000000E+00  0.00000000000E+00 -0.12078558120E+04  0.27640706714E+04  0.24861960932E+04 0.  0.
        4    1    3    3  502    0  0.78597283662E+03  0.93486131659E+03 -0.86125371065E+03  0.14944827025E+04  0.12699999809E+01 0.  1.
       -4    1    3    3    0  502 -0.78597283662E+03 -0.93486131659E+03 -0.34660210140E+03  0.12695879689E+04  0.12699999809E+01 0. -1.
</event>
<event>
 5   0  0.7071821E-05  0.2493965E+04  0.7818609E-02  0.8405139E-01
        2   -1    0    0  501    0  0.00000000000E+00  0.00000000000E+00  0.18349434627E+04  0.18349434627E+04  0.25500000920E-02 0. -1.
       -2   -1    0    0    0  501  0.00000000000E+00  0.00000000000E+00 -0.84741888561E+03  0.84741888561E+03  0.25500000920E-02 0.  1.
    10030    2    1    2    0    0  0.00000000000E+00  0.00000000000E+00  0.98752457711E+03  0.26823623483E+04  0.24939653120E+04 0.  0.
        5    1    3    3  502    0 -0.26597650993E+03 -0.11905230788E+04  0.21566688049E+03  0.12387990145E+04  0.46999998093E+01 0.  1.
       -5    1    3    3    0  502  0.26597650993E+03  0.11905230788E+04  0.77185769662E+03  0.14435633338E+04  0.46999998093E+01 0. -1.
</event>
<event>
 5   0  0.6445331E-05  0.2526579E+04  0.7818609E-02  0.8393577E-01
       -2   -1    0    0    0  501  0.00000000000E+00  0.00000000000E+00  0.10978606998E+04  0.10978606998E+04  0.25500000920E-02 0. -1.
        2   -1    0    0  501    0  0.00000000000E+00  0.00000000000E+00 -0.14536457586E+04  0.14536457586E+04  0.25500000920E-02 0.  1.
    10030    2    1    2    0    0  0.00000000000E+00  0.00000000000E+00 -0.35578505885E+03  0.25515064584E+04  0.25265791496E+04 0.  0.
        1    1    3    3  502    0 -0.36589216925E+03 -0.26917397834E+03  0.10125372910E+04  0.11097582961E+04  0.50400001928E-02 0. -1.
       -1    1    3    3    0  502  0.36589216925E+03  0.26917397834E+03 -0.13683223499E+04  0.14417481622E+04  0.50400001928E-02 0.  1.
</event>
<event>
 5   0  0.2896652E-05  0.2437272E+04  0.7818609E-02  0.8425680E-01
        1   -1    0    0  501    0  0.00000000000E+00  0.00000000000E+00  0.18345458170E+04  0.18345458171E+04  0.50400001928E-02 0.  1.
       -1   -1    0    0    0  501  0.00000000000E+00  0.00000000000E+00 -0.80950490939E+03  0.80950490940E+03  0.50400001928E-02 0. -1.
    10030    2    1    2    0    0  0.00000000000E+00  0.00000000000E+00  0.10250409077E+04  0.26440507265E+04  0.24372721189E+04 0.  0.
        4    1    3    3  502    0  0.21347654574E+03  0.33716126584E+03 -0.73661178890E+03  0.83776398539E+03  0.12699999809E+01 0. -1.
       -4    1    3    3    0  502 -0.21347654574E+03 -0.33716126584E+03  0.17616526966E+04  0.18062867411E+04  0.12699999809E+01 0.  1.
</event>
<event>
 5   0  0.2777539E-05  0.2451946E+04  0.7818609E-02  0.8420308E-01
       -1   -1    0    0    0  501  0.00000000000E+00  0.00000000000E+00  0.13271611485E+04  0.13271611485E+04  0.50400001928E-02 0.  1.
        1   -1    0    0  501    0  0.00000000000E+00  0.00000000000E+00 -0.11325001704E+04  0.11325001704E+04  0.50400001928E-02 0. -1.
    10030    2    1    2    0    0  0.00000000000E+00  0.00000000000E+00  0.19466097806E+03  0.24596613189E+04  0.24519463508E+04 0.  0.
        3    1    3    3  502    0  0.10415747508E+04 -0.52384719044E+03  0.47762274052E+03  0.12599275110E+04  0.10100000352E+00 0. -1.
       -3    1    3    3    0  502 -0.10415747508E+04  0.52384719044E+03 -0.28296176246E+03  0.11997338079E+04  0.10100000352E+00 0.  1.
</event>
<event>
 5   0  0.6909250E-05  0.2626168E+04  0.7818609E-02  0.8359366E-01
       -2   -1    0    0    0  501  0.00000000000E+00  0.00000000000E+00  0.99981856117E+03  0.99981856118E+03  0.25500000920E-02 0. -1.
        2   -1    0    0  501    0  0.00000000000E+00  0.00000000000E+00 -0.17245030220E+04  0.17245030220E+04  0.25500000920E-02 0.  1.
    10030    2    1    2    0    0  0.00000000000E+00  0.00000000000E+00 -0.72468446086E+03  0.27243215832E+04  0.26261684106E+04 0.  0.
        4    1    3    3  502    0  0.37082542123E+03 -0.31204723049E+03  0.90363941860E+03  0.10254027398E+04  0.12699999809E+01 0. -1.
       -4    1    3    3    0  502 -0.37082542123E+03  0.31204723049E+03 -0.16283238795E+04  0.16989188434E+04  0.12699999809E+01 0.  1.
</event>
<event>
 5   0  0.6827859E-05  0.2532542E+04  0.7818609E-02  0.8391483E-01
       -2   -1    0    0    0  501  0.00000000000E+00  0.00000000000E+00  0.15837092461E+04  0.15837092461E+04  0.25500000920E-02 0. -1.
        2   -1    0    0  501    0  0.00000000000E+00  0.00000000000E+00 -0.10124599083E+04  0.10124599083E+04  0.25500000920E-02 0.  1.
    10030    2    1    2    0    0  0.00000000000E+00  0.00000000000E+00  0.57124933785E+03  0.25961691544E+04  0.25325418994E+04 0.  0.
        3    1    3    3  502    0 -0.32056578155E+03  0.98062222720E+03  0.10382776623E+04  0.14636949433E+04  0.10100000352E+00 0. -1.
       -3    1    3    3    0  502  0.32056578155E+03 -0.98062222720E+03 -0.46702832443E+03  0.11324742111E+04  0.10100000352E+00 0.  1.
</event>
<event>
 5   0  0.6648328E-05  0.2469572E+04  0.7818609E-02  0.8413907E-01
       -2   -1    0    0    0  501  0.00000000000E+00  0.00000000000E+00  0.11128554868E+04  0.11128554868E+04  0.25500000920E-02 0.  1.
        2   -1    0    0  501    0  0.00000000000E+00  0.00000000000E+00 -0.13700754413E+04  0.13700754413E+04  0.25500000920E-02 0. -1.
    10030    2    1    2    0    0  0.00000000000E+00  0.00000000000E+00 -0.25721995449E+03  0.24829309281E+04  0.24695716003E+04 0.  0.
        2    1    3    3  502    0 -0.31793183540E+03 -0.11178411309E+04  0.29083567396E+03  0.11980128694E+04  0.25500000920E-02 0.  1.
       -2    1    3    3    0  502  0.31793183540E+03  0.11178411309E+04 -0.54805562845E+03  0.12849180588E+04  0.25500000920E-02 0. -1.
</event>
<event>
 5   0  0.6648328E-05  0.2558909E+04  0.7818609E-02  0.8382294E-01
       -2   -1    0    0    0  501  0.00000000000E+00  0.00000000000E+00  0.79358082062E+03  0.79358082062E+03  0.25500000920E-02 0. -1.
        2   -1    0    0  501    0  0.00000000000E+00  0.00000000000E+00 -0.20628066637E+04  0.20628066637E+04  0.25500000920E-02 0.  1.
    10030    2    1    2    0    0  0.00000000000E+00  0.00000000000E+00 -0.12692258431E+04  0.28563874843E+04  0.25589089902E+04 0.  0.
        2    1    3    3  502    0 -0.36755005880E+03 -0.14420297365E+03 -0.19931042060E+04  0.20318346191E+04  0.25500000920E-02 0.  1.
       -2    1    3    3    0  502  0.36755005880E+03  0.14420297365E+03  0.72387836289E+03  0.82455286526E+03  0.25500000920E-02 0. -1.
</event>
<event>
 5   0  0.6909250E-05  0.2191156E+04  0.7818609E-02  0.8522118E-01
        2   -1    0    0  501    0  0.00000000000E+00  0.00000000000E+00  0.10765096626E+04  0.10765096626E+04  0.25500000920E-02 0. -1.
       -2   -1    0    0    0  501  0.00000000000E+00  0.00000000000E+00 -0.11149838223E+04  0.11149838223E+04  0.25500000920E-02 0.  1.
    10030    2    1    2    0    0  0.00000000000E+00  0.00000000000E+00 -0.38474159748E+02  0.21914934849E+04  0.21911557300E+04 0.  0.
        4    1    3    3  502    0  0.67313352793E+03 -0.83538222405E+03 -0.24134571055E+03  0.10996461120E+04  0.12699999809E+01 0. -1.
       -4    1    3    3    0  502 -0.67313352793E+03  0.83538222405E+03  0.20287155080E+03  0.10918473729E+04  0.12699999809E+01 0.  1.
</event>
<event>
 5   0  0.7071821E-05  0.2773622E+04  0.7818609E-02  0.8311505E-01
        2   -1    0    0  501    0  0.00000000000E+00  0.00000000000E+00  0.10885723844E+04  0.10885723844E+04  0.25500000920E-02 0. -1.
       -2   -1    0    0    0  501  0.00000000000E+00  0.00000000000E+00 -0.17667587770E+04  0.17667587770E+04  0.25500000920E-02 0.  1.
    10030    2    1    2    0    0  0.00000000000E+00  0.00000000000E+00 -0.67818639260E+03  0.28553311615E+04  0.27736220468E+04 0.  0.
        5    1    3    3  502    0  0.84150651529E+03  0.83238394423E+03  0.40484806793E+03  0.12509677430E+04  0.46999998093E+01 0. -1.
       -5    1    3    3    0  502 -0.84150651529E+03 -0.83238394423E+03 -0.10830344605E+04  0.16043634185E+04  0.46999998093E+01 0.  1.
</event>
<event>
 5   0  0.7071821E-05  0.2478356E+04  0.7818609E-02  0.8410737E-01
        2   -1    0    0  501    0  0.00000000000E+00  0.00000000000E+00  0.19607422882E+04  0.19607422882E+04  0.25500000920E-02 0.  1.
       -2   -1    0    0    0  501  0.00000000000E+00  0.00000000000E+00 -0.78315373241E+03  0.78315373241E+03  0.25500000920E-02 0. -1.
    10030    2    1    2    0    0  0.00000000000E+00  0.00000000000E+00  0.11775885558E+04  0.27438960206E+04  0.24783564242E+04 0.  0.
        5    1    3    3  502    0  0.34994279804E+03 -0.14096886399E+03  0.18956026937E+04  0.19327865492E+04  0.46999998093E+01 0.  1.
       -5    1    3    3    0  502 -0.34994279804E+03  0.14096886399E+03 -0.71801413785E+03  0.81110947144E+03  0.46999998093E+01 0. -1.
</event>
<event>
 5   0  0.6827859E-05  0.2507518E+04  0.7818609E-02  0.8400312E-01
        2   -1    0    0  501    0  0.00000000000E+00  0.00000000000E+00  0.27076506158E+04  0.27076506158E+04  0.25500000920E-02 0.  1.
       -2   -1    0    0    0  501  0.00000000000E+00  0.00000000000E+00 -0.58054470438E+03  0.58054470438E+03  0.25500000920E-02 0. -1.
    10030    2    1    2    0    0  0.00000000000E+00  0.00000000000E+00  0.21271059114E+04  0.32881953202E+04  0.25075184755E+04 0.  0.
        3    1    3    3  502    0 -0.77042628646E+03 -0.98788491620E+03  0.99879181056E+03  0.16022042197E+04  0.10100000352E+00 0.  1.
       -3    1    3    3    0  502  0.77042628646E+03  0.98788491620E+03  0.11283141008E+04  0.16859911005E+04  0.10100000352E+00 0. -1.
</event>
<event>
 5   0  0.2977854E-05  0.2627142E+04  0.7818609E-02  0.8359040E-01
       -1   -1    0    0    0  501  0.00000000000E+00  0.00000000000E+00  0.16499240550E+04  0.16499240550E+04  0.50400001928E-02 0. -1.
        1   -1    0    0  501    0  0.00000000000E+00  0.00000000000E+00 -0.10457869599E+04  0.10457869599E+04  0.50400001928E-02 0.  1.
    10030    2    1    2    0    0  0.00000000000E+00  0.00000000000E+00  0.60413709508E+03  0.26957110149E+04  0.26271422204E+04 0.  0.
        1    1    3    3  502    0  0.31195296790E+03 -0.73883161924E+03  0.13695492096E+04  0.15870891132E+04  0.50400001928E-02 0. -1.
       -1    1    3    3    0  502 -0.31195296790E+03  0.73883161924E+03 -0.76541211456E+03  0.11086219017E+04  0.50400001928E-02 0.  1.
</event>
<event>
 5   0  0.2977854E-05  0.2442651E+04  0.7818609E-02  0.8423706E-01
        1   -1    0    0  501    0  0.00000000000E+00  0.00000000000E+00  0.16897376846E+04  0.16897376846E+04  0.50400001928E-02 0.  1.
       -1   -1    0    0    0  501  0.00000000000E+00  0.00000000000E+00 -0.88276172235E+03  0.88276172236E+03  0.50400001928E-02 0. -1.
    10030    2    1    2    0    0  0.00000000000E+00  0.00000000000E+00  0.80697596223E+03  0.25724994069E+04  0.24426508132E+04 0.  0.
        1    1    3    3  502    0 -0.99299426961E+03 -0.66970133649E+03  0.15183313859E+03  0.12073072524E+04  0.50400001928E-02 0. -1.
       -1    1    3    3    0  502  0.99299426961E+03  0.66970133649E+03  0.65514282365E+03  0.13651921546E+04  0.50400001928E-02 0.  1.
</event>
<event>
 5   0  0.6648328E-05  0.2216572E+04  0.7818609E-02  0.8511562E-01
        2   -1    0    0  501    0  0.00000000000E+00  0.00000000000E+00  0.18415739704E+04  0.18415739704E+04  0.25500000920E-02 0. -1.
       -2   -1    0    0    0  501  0.00000000000E+00  0.00000000000E+00 -0.66698288325E+03  0.66698288326E+03  0.25500000920E-02 0.  1.
    10030    2    1    2    0    0  0.00000000000E+00  0.00000000000E+00  0.11745910871E+04  0.25085568536E+04  0.22165724139E+04 0.  0.
        2    1    3    3  502    0 -0.80548684871E+03 -0.52384390398E+03 -0.37800323959E+02  0.96158741863E+03  0.25500000920E-02 0.  1.
       -2    1    3    3    0  502  0.80548684871E+03  0.52384390398E+03  0.12123914111E+04  0.15469694350E+04  0.25500000920E-02 0. -1.
</event>
<event>
 5   0  0.6909250E-05  0.2554465E+04  0.7818609E-02  0.8383835E-01
       -2   -1    0    0    0  501  0.00000000000E+00  0.00000000000E+00  0.12308888240E+04  0.12308888240E+04  0.25500000920E-02 0.  1.
        2   -1    0    0  501    0  0.00000000000E+00  0.00000000000E+00 -0.13253209842E+04  0.13253209842E+04  0.25500000920E-02 0. -1.
    10030    2    1    2    0    0  0.00000000000E+00  0.00000000000E+00 -0.94432160284E+02  0.25562098082E+04  0.25544649441E+04 0.  0.
        4    1    3    3  502    0  0.39432441337E+02  0.34480519025E+03 -0.12772325003E+04  0.13235444871E+04  0.12699999809E+01 0. -1.
       -4    1    3    3    0  502 -0.39432441337E+02 -0.34480519025E+03  0.11828003400E+04  0.12326653211E+04  0.12699999809E+01 0.  1.
</event>
<event>
 5   0  0.2980790E-05  0.2531726E+04  0.7818609E-02  0.8391770E-01
        1   -1    0    0  501    0  0.00000000000E+00  0.00000000000E+00  0.22457047292E+04  0.22457047292E+04  0.50400001928E-02 0.  1.
       -1   -1    0    0    0  501  0.00000000000E+00  0.00000000000E+00 -0.71354374941E+03  0.71354374943E+03  0.50400001928E-02 0. -1.
    10030    2    1    2    0    0  0.00000000000E+00  0.00000000000E+00  0.15321609798E+04  0.29592484787E+04  0.25317255559E+04 0.  0.
        5    1    3    3  502    0  0.10751290137E+04  0.26907976232E+02 -0.14316126818E+02  0.10755712328E+04  0.46999998093E+01 0. -1.
       -5    1    3    3    0  502 -0.10751290137E+04 -0.26907976232E+02  0.15464771066E+04  0.18836772459E+04  0.46999998093E+01 0.  1.
</event>
<event>
 5   0  0.6445331E-05  0.2323895E+04  0.7818609E-02  0.8468559E-01
        2   -1    0    0  501    0  0.00000000000E+00  0.00000000000E+00  0.70582265371E+03  0.70582265371E+03  0.25500000920E-02 0.  1.
       -2   -1    0    0    0  501  0.00000000000E+00  0.00000000000E+00 -0.19128341689E+04  0.19128341689E+04  0.25500000920E-02 0. -1.
    10030    2    1    2    0    0  0.00000000000E+00  0.00000000000E+00 -0.12070115152E+04  0.26186568227E+04  0.23238947388E+04 0.  0.
        1    1    3    3  502    0  0.86091196765E+03  0.65200048423E+03 -0.12034554194E+03  0.10866264754E+04  0.50400001928E-02 0.  1.
       -1    1    3    3    0  502 -0.86091196765E+03 -0.65200048423E+03 -0.10866659733E+04  0.15320303473E+04  0.50400001928E-02 0. -1.
</event>
<event>
 5   0  0.2980790E-05  0.2389770E+04  0.7818609E-02  0.8443343E-01
        1   -1    0    0  501    0  0.00000000000E+00  0.00000000000E+00  0.97731234512E+03  0.97731234513E+03  0.50400001928E-02 0.  1.
       -1   -1    0    0    0  501  0.00000000000E+00  0.00000000000E+00 -0.14608945774E+04  0.14608945774E+04  0.50400001928E-02 0. -1.
    10030    2    1    2    0    0  0.00000000000E+00  0.00000000000E+00 -0.48358223229E+03  0.24382069225E+04  0.23897701190E+04 0.  0.
        5    1    3    3  502    0 -0.65512369571E+03  0.96134600515E+03  0.36416857163E+02  0.11639250301E+04  0.46999998093E+01 0.  1.
       -5    1    3    3    0  502  0.65512369571E+03 -0.96134600515E+03 -0.51999908945E+03  0.12742818924E+04  0.46999998093E+01 0. -1.
</event>
<event>
 5   0  0.2896652E-05  0.2544200E+04  0.7818609E-02  0.8387406E-01
        1   -1    0    0  501    0  0.00000000000E+00  0.00000000000E+00  0.86250936163E+03  0.86250936164E+03  0.50400001928E-02 0. -1.
       -1   -1    0    0    0  501  0.00000000000E+00  0.00000000000E+00 -0.18761980953E+04  0.18761980953E+04  0.50400001928E-02 0.  1.
    10030    2    1    2    0    0  0.00000000000E+00  0.00000000000E+00 -0.10136887337E+04  0.27387074570E+04  0.25442000091E+04 0.  0.
        4    1    3    3  502    0  0.82288024733E+03 -0.21478282316E+03 -0.15251998847E+04  0.17462817252E+04  0.12699999809E+01 0.  1.
       -4    1    3    3    0  502 -0.82288024733E+03  0.21478282316E+03  0.51151115101E+03  0.99242573177E+03  0.12699999809E+01 0. -1.
</event>
<event>
 5   0  0.2977854E-05  0.2416801E+04  0.7818609E-02  0.8433240E-01
       -1   -1    0    0    0  501  0.00000000000E+00  0.00000000000E+00  0.13800090025E+04  0.13800090025E+04  0.50400001928E-02 0. -1.
        1   -1    0    0  501    0  0.00000000000E+00  0.00000000000E+00 -0.10581322924E+04  0.10581322924E+04  0.50400001928E-02 0.  1.
    10030    2    1    2    0    0  0.00000000000E+00  0.00000000000E+00  0.32187671011E+03  0.24381412949E+04  0.24168012656E+04 0.  0.
        1    1    3    3  502    0 -0.25270923830E+03 -0.69149971005E+03  0.11276260005E+04  0.13466900925E+04  0.50400001928E-02 0. -1.
       -1    1    3    3    0  502  0.25270923830E+03  0.69149971005E+03 -0.80574929041E+03  0.10914512024E+04  0.50400001928E-02 0.  1.
</event>
<event>
 5   0  0.2977854E-05  0.2487716E+04  0.7818609E-02  0.8407375E-01
       -1   -1    0    0    0  501  0.00000000000E+00  0.00000000000E+00  0.12764106686E+04  0.12764106686E+04  0.50400001928E-02 0.  1.
        1   -1    0    0  501    0  0.00000000000E+00  0.00000000000E+00 -0.12121351075E+04  0.12121351076E+04  0.50400001928E-02 0. -1.
    10030    2    1    2    0    0  0.00000000000E+00  0.00000000000E+00  0.64275561022E+02  0.24885457761E+04  0.24877155650E+04 0.  0.
        1    1    3    3  502    0  0.29477806753E+03  0.11013329642E+04 -0.46537493236E+03  0.12314228497E+04  0.50400001928E-02 0. -1.
       -1    1    3    3    0  502 -0.29477806753E+03 -0.11013329642E+04  0.52965049338E+03  0.12571229264E+04  0.50400001928E-02 0.  1.
</event>
<event>
 5   0  0.2977854E-05  0.2477207E+04  0.7818609E-02  0.8411151E-01
       -1   -1    0    0    0  501  0.00000000000E+00  0.00000000000E+00  0.10706412418E+04  0.10706412418E+04  0.50400001928E-02 0.  1.
        1   -1    0    0  501    0  0.00000000000E+00  0.00000000000E+00 -0.14329153756E+04  0.14329153756E+04  0.50400001928E-02 0. -1.
    10030    2    1    2    0    0  0.00000000000E+00  0.00000000000E+00 -0.36227413381E+03  0.25035566173E+04  0.24772067310E+04 0.  0.
        1    1    3    3  502    0  0.72938629521E+03  0.21746108598E+02  0.83033887181E+03  0.11054139057E+04  0.50400001928E-02 0.  1.
       -1    1    3    3    0  502 -0.72938629521E+03 -0.21746108598E+02 -0.11926130056E+04  0.13981427116E+04  0.50400001928E-02 0. -1.
</event>
<event>
 5   0  0.2793920E-05  0.2539897E+04  0.7818609E-02  0.8388908E-01
       -1   -1    0    0    0  501  0.00000000000E+00  0.00000000000E+00  0.95650339120E+03  0.95650339121E+03  0.50400001928E-02 0. -1.
        1   -1    0    0  501    0  0.00000000000E+00  0.00000000000E+00 -0.16861095403E+04  0.16861095403E+04  0.50400001928E-02 0.  1.
    10030    2    1    2    0    0  0.00000000000E+00  0.00000000000E+00 -0.72960614910E+03  0.26426129315E+04  0.25398972367E+04 0.  0.
        2    1    3    3  502    0 -0.62873186500E+03  0.79367887102E+03 -0.11623127788E+04  0.15414930762E+04  0.25500000920E-02 0.  1.
       -2    1    3    3    0  502  0.62873186500E+03 -0.79367887102E+03  0.43270662966E+03  0.11011198553E+04  0.25500000920E-02 0. -1.
</event>
<event>
 5   0  0.2980790E-05  0.2587496E+04  0.7818609E-02  0.8372461E-01
        1   -1    0    0  501    0  0.00000000000E+00  0.00000000000E+00  0.14469577499E+04  0.14469577499E+04  0.50400001928E-02 0.  1.
       -1   -1    0    0    0  501  0.00000000000E+00  0.00000000000E+00 -0.11567603238E+04  0.11567603238E+04  0.50400001928E-02 0. -1.
    10030    2    1    2    0    0  0.00000000000E+00  0.00000000000E+00  0.29019742609E+03  0.26037180738E+04  0.25874955578E+04 0.  0.
        5    1    3    3  502    0  0.12919635271E+04  0.57875837864E+02  0.10963777555E+03  0.12979067377E+04  0.46999998093E+01 0. -1.
       -5    1    3    3    0  502 -0.12919635271E+04 -0.57875837864E+02  0.18055965054E+03  0.13058113361E+04  0.46999998093E+01 0.  1.
</event>
<event>
 5   0  0.6827859E-05  0.2667925E+04  0.7818609E-02  0.8345488E-01
       -2   -1    0    0    0  501  0.00000000000E+00  0.00000000000E+00  0.13384855334E+04  0.13384855334E+04  0.25500000920E-02 0.  1.
        2   -1    0    0  501    0  0.00000000000E+00  0.00000000000E+00 -0.13294548797E+04  0.13294548797E+04  0.25500000920E-02 0. -1.
    10030    2    1    2    0    0  0.00000000000E+00  0.00000000000E+00  0.90306537517E+01  0.26679404131E+04  0.26679251293E+04 0.  0.
        3    1    3    3  502    0 -0.11155693358E+04 -0.72399873231E+03  0.10837643578E+03  0.13343217638E+04  0.10100000352E+00 0.  1.
       -3    1    3    3    0  502  0.11155693358E+04  0.72399873231E+03 -0.99345782027E+02  0.13336186494E+04  0.10100000352E+00 0. -1.
</event>
<event>
 5   0  0.2777539E-05  0.2491134E+04  0.7818609E-02  0.8406151E-01
        1   -1    0    0  501    0  0.00000000000E+00  0.00000000000E+00  0.15924336698E+04  0.15924336698E+04  0.50400001928E-02 0. -1.
       -1   -1    0    0    0  501  0.00000000000E+00  0.00000000000E+00 -0.97425558132E+03  0.97425558134E+03  0.50400001928E-02 0.  1.
    10030    2    1    2    0    0  0.00000000000E+00  0.00000000000E+00  0.61817808847E+03  0.25666892511E+04  0.24911341921E+04 0.  0.
        3    1    3    3  502    0  0.10176095309E+04 -0.65542406251E+03  0.61181579895E+03  0.13562553009E+04  0.10100000352E+00 0. -1.
       -3    1    3    3    0  502 -0.10176095309E+04  0.65542406251E+03  0.63622895208E+01  0.12104339503E+04  0.10100000352E+00 0.  1.
</event>
<event>
 5   0  0.2793920E-05  0.2466448E+04  0.7818609E-02  0.8415037E-01
       -1   -1    0    0    0  501  0.00000000000E+00  0.00000000000E+00  0.85969933520E+03  0.85969933521E+03  0.50400001928E-02 0. -1.
        1   -1    0    0  501    0  0.00000000000E+00  0.00000000000E+00 -0.17690380709E+04  0.17690380709E+04  0.50400001928E-02 0.  1.
    10030    2    1    2    0    0  0.00000000000E+00  0.00000000000E+00 -0.90933873567E+03  0.26287374061E+04  0.24664475291E+04 0.  0.
        2    1    3    3  502    0  0.88323474724E+03 -0.79158042546E+03 -0.81474175311E+03  0.14389257496E+04  0.25500000920E-02 0. -1.
       -2    1    3    3    0  502 -0.88323474724E+03  0.79158042546E+03 -0.94596982562E+02  0.11898116565E+04  0.25500000920E-02 0.  1.
</event>
<event>
 5   0  0.7071821E-05  0.2468225E+04  0.7818609E-02  0.8414394E-01
       -2   -1    0    0    0  501  0.00000000000E+00  0.00000000000E+00  0.93869960984E+03  0.93869960985E+03  0.25500000920E-02 0.  1.
        2   -1    0    0  501    0  0.00000000000E+00  0.00000000000E+00 -0.16224930102E+04  0.16224930102E+04  0.25500000920E-02 0. -1.
    10030    2    1    2    0    0  0.00000000000E+00  0.00000000000E+00 -0.68379340035E+03  0.25611926200E+04  0.24682249133E+04 0.  0.
        5    1    3    3  502    0 -0.20709044357E+03 -0.13369738063E+03 -0.15966788409E+04  0.16156010808E+04  0.46999998093E+01 0. -1.
       -5    1    3    3    0  502  0.20709044357E+03  0.13369738063E+03  0.91288544057E+03  0.94559153920E+03  0.46999998093E+01 0.  1.
</event>
<event>
 5   0  0.6827859E-05  0.2408390E+04  0.7818609E-02  0.8436369E-01
       -2   -1    0    0    0  501  0.00000000000E+00  0.00000000000E+00  0.14883376711E+04  0.14883376711E+04  0.25500000920E-02 0.  1.
        2   -1    0    0  501    0  0.00000000000E+00  0.00000000000E+00 -0.97429868993E+03  0.97429868994E+03  0.25500000920E-02 0. -1.
    10030    2    1    2    0    0  0.00000000000E+00  0.00000000000E+00  0.51403898120E+03  0.24626363611E+04  0.24083898714E+04 0.  0.
        3    1    3    3  502    0  0.95736332308E+03  0.19532471849E+02 -0.48960464319E+03  0.10754714160E+04  0.10100000352E+00 0. -1.
       -3    1    3    3    0  502 -0.95736332308E+03 -0.19532471849E+02  0.10036436244E+04  0.13871649451E+04  0.10100000352E+00 0.  1.
</event>
<event>
 5   0  0.2977854E-05  0.2553110E+04  0.7818609E-02  0.8384305E-01
        1   -1    0    0  501    0  0.00000000000E+00  0.00000000000E+00  0.14507761621E+04  0.14507761622E+04  0.50400001928E-02 0. -1.
       -1   -1    0    0    0  501  0.00000000000E+00  0.00000000000E+00 -0.11232558062E+04  0.11232558062E+04  0.50400001928E-02 0.  1.
    10030    2    1    2    0    0  0.00000000000E+00  0.00000000000E+00  0.32752035597E+03  0.25740319683E+04  0.25531100624E+04 0.  0.
        1    1    3    3  502    0  0.69934926930E+03  0.77965354207E+02  0.12375820503E+04  0.14236492996E+04  0.50400001928E-02 0. -1.
       -1    1    3    3    0  502 -0.69934926930E+03 -0.77965354207E+02 -0.91006169438E+03  0.11503826687E+04  0.50400001928E-02 0.  1.
</event>
<event>
 5   0  0.6909250E-05  0.2522152E+04  0.7818609E-02  0.8395136E-01
        2   -1    0    0  501    0  0.00000000000E+00  0.00000000000E+00  0.11743731558E+04  0.11743731558E+04  0.25500000920E-02 0.  1.
       -2   -1    0    0    0  501  0.00000000000E+00  0.00000000000E+00 -0.13541795398E+04  0.13541795398E+04  0.25500000920E-02 0. -1.
    10030    2    1    2    0    0  0.00000000000E+00  0.00000000000E+00 -0.17980638400E+03  0.25285526957E+04  0.25221515417E+04 0.  0.
        4    1    3    3  502    0 -0.22477822194E+03 -0.28368184732E+03 -0.13009880887E+04  0.13503970747E+04  0.12699999809E+01 0. -1.
       -4    1    3    3    0  502  0.22477822194E+03  0.28368184732E+03  0.11211817047E+04  0.11781556210E+04  0.12699999809E+01 0.  1.
</event>
<event>
 5   0  0.6445331E-05  0.2515508E+04  0.7818609E-02  0.8397481E-01
       -2   -1    0    0    0  501  0.00000000000E+00  0.00000000000E+00  0.15571909577E+04  0.15571909577E+04  0.25500000920E-02 0. -1.
        2   -1    0    0  501    0  0.00000000000E+00  0.00000000000E+00 -0.10158967732E+04  0.10158967732E+04  0.25500000920E-02 0.  1.
    10030    2    1    2    0    0  0.00000000000E+00  0.00000000000E+00  0.54129418452E+03  0.25730877309E+04  0.25155081151E+04 0.  0.
        1    1    3    3  502    0 -0.10609595373E+04  0.53873124957E+03  0.68750297186E+03  0.13742368192E+04  0.50400001928E-02 0. -1.
       -1    1    3    3    0  502  0.10609595373E+04 -0.53873124957E+03 -0.14620878734E+03  0.11988509117E+04  0.50400001928E-02 0.  1.
</event>
<event>
 5   0  0.6827859E-05  0.2433897E+04  0.7818609E-02  0.8426921E-01
       -2   -1    0    0    0  501  0.00000000000E+00  0.00000000000E+00  0.69213363656E+03  0.69213363656E+03  0.25500000920E-02 0.  1.
        2   -1    0    0  501    0  0.00000000000E+00  0.00000000000E+00 -0.21397081732E+04  0.21397081732E+04  0.25500000920E-02 0. -1.
    10030    2    1    2    0    0  0.00000000000E+00  0.00000000000E+00 -0.14475745366E+04  0.28318418097E+04  0.24338972855E+04 0.  0.
        3    1    3    3  502    0  0.11191951684E+04 -0.46787607970E+03 -0.61063335868E+03  0.13580791435E+04  0.10100000352E+00 0.  1.
       -3    1    3    3    0  502 -0.11191951684E+04  0.46787607970E+03 -0.83694117793E+03  0.14737626663E+04  0.10100000352E+00 0. -1.
</event>
<event>
 5   0  0.2980790E-05  0.2496334E+04  0.7818609E-02  0.8404293E-01
       -1   -1    0    0    0  501  0.00000000000E+00  0.00000000000E+00  0.73535579641E+03  0.73535579643E+03  0.50400001928E-02 0.  1.
        1   -1    0    0  501    0  0.00000000000E+00  0.00000000000E+00 -0.21185948590E+04  0.21185948590E+04  0.50400001928E-02 0. -1.
    10030    2    1    2    0    0  0.00000000000E+00  0.00000000000E+00 -0.13832390626E+04  0.28539506555E+04  0.24963341202E+04 0.  0.
        5    1    3    3  502    0 -0.30309061779E+03 -0.41790211887E+03 -0.19908103127E+04  0.20566608604E+04  0.46999998093E+01 0. -1.
       -5    1    3    3    0  502  0.30309061779E+03  0.41790211887E+03  0.60757125002E+03  0.79728979512E+03  0.46999998093E+01 0.  1.
</event>
<event>
 5   0  0.2793920E-05  0.1644330E+04  0.7818609E-02  0.8793768E-01
        1   -1    0    0  501    0  0.00000000000E+00  0.00000000000E+00  0.12611250028E+04  0.12611250028E+04  0.50400001928E-02 0.  1.
       -1   -1    0    0    0  501  0.00000000000E+00  0.00000000000E+00 -0.53599363675E+03  0.53599363677E+03  0.50400001928E-02 0. -1.
    10030    2    1    2    0    0  0.00000000000E+00  0.00000000000E+00  0.72513136608E+03  0.17971186396E+04  0.16443296223E+04 0.  0.
        2    1    3    3  502    0  0.81300238205E+03  0.17111206054E+02  0.23010451890E+03  0.84511168269E+03  0.25500000920E-02 0.  1.
       -2    1    3    3    0  502 -0.81300238205E+03 -0.17111206054E+02  0.49502684719E+03  0.95200695692E+03  0.25500000920E-02 0. -1.
</event>
<event>
 5   0  0.2777539E-05  0.2414331E+04  0.7818609E-02  0.8434158E-01
       -1   -1    0    0    0  501  0.00000000000E+00  0.00000000000E+00  0.18995905092E+04  0.18995905092E+04  0.50400001928E-02 0.  1.
        1   -1    0    0  501    0  0.00000000000E+00  0.00000000000E+00 -0.76713822093E+03  0.76713822094E+03  0.50400001928E-02 0. -1.
    10030    2    1    2    0    0  0.00000000000E+00  0.00000000000E+00  0.11324522883E+04  0.26667287302E+04  0.24143309498E+04 0.  0.
        3    1    3    3  502    0 -0.35873423396E+03 -0.30370571584E+03 -0.66191327773E+03  0.81182301635E+03  0.10100000352E+00 0. -1.
       -3    1    3    3    0  502  0.35873423396E+03  0.30370571584E+03  0.17943655660E+04  0.18549057138E+04  0.10100000352E+00 0.  1.
</event>
<event>
 5   0  0.6648328E-05  0.2591911E+04  0.7818609E-02  0.8370954E-01
        2   -1    0    0  501    0  0.00000000000E+00  0.00000000000E+00  0.23301725625E+04  0.23301725625E+04  0.25500000920E-02 0. -1.
       -2   -1    0    0    0  501  0.00000000000E+00  0.00000000000E+00 -0.72076250663E+03  0.72076250663E+03  0.25500000920E-02 0.  1.
    10030    2    1    2    0    0  0.00000000000E+00  0.00000000000E+00  0.16094100558E+04  0.30509350691E+04  0.25919112770E+04 0.  0.
        2    1    3    3  502    0  0.44820638333E+03  0.11655781683E+04  0.39687886553E+03  0.13103336455E+04  0.25500000920E-02 0.  1.
       -2    1    3    3    0  502 -0.44820638333E+03 -0.11655781683E+04  0.12125311903E+04  0.17406014236E+04  0.25500000920E-02 0. -1.
</event>
<event>
 5   0  0.6909250E-05  0.2338360E+04  0.7818609E-02  0.8462948E-01
       -2   -1    0    0    0  501  0.00000000000E+00  0.00000000000E+00  0.10562710497E+04  0.10562710497E+04  0.25500000920E-02 0. -1.
        2   -1    0    0  501    0  0.00000000000E+00  0.00000000000E+00 -0.12941583393E+04  0.12941583393E+04  0.25500000920E-02 0.  1.
    10030    2    1    2    0    0  0.00000000000E+00  0.00000000000E+00 -0.23788728960E+03  0.23504293890E+04  0.23383600985E+04 0.  0.
        4    1    3    3  502    0  0.10548130700E+04 -0.19465025107E+03 -0.58659876021E+03  0.12225461346E+04  0.12699999809E+01 0.  1.
       -4    1    3    3    0  502 -0.10548130700E+04  0.19465025107E+03  0.34871147061E+03  0.11278832544E+04  0.12699999809E+01 0. -1.
</event>
<event>
 5   0  0.2793920E-05  0.1843313E+04  0.7818609E-02  0.8683599E-01
        1   -1    0    0  501    0  0.00000000000E+00  0.00000000000E+00  0.64941434235E+03  0.64941434236E+03  0.50400001928E-02 0. -1.
       -1   -1    0    0    0  501  0.00000000000E+00  0.00000000000E+00 -0.13080260343E+04  0.13080260343E+04  0.50400001928E-02 0.  1.
    10030    2    1    2    0    0  0.00000000000E+00  0.00000000000E+00 -0.65861169195E+03  0.19574403767E+04  0.18433131767E+04 0.  0.
        2    1    3    3  502    0 -0.46580960591E+03 -0.40886298008E+03 -0.10536709170E+04  0.12224442428E+04  0.25500000920E-02 0.  1.
       -2    1    3    3    0  502  0.46580960591E+03  0.40886298008E+03  0.39505922508E+03  0.73499613384E+03  0.25500000920E-02 0. -1.
</event>
<event>
 5   0  0.2980790E-05  0.1412026E+04  0.7818609E-02  0.8945159E-01
       -1   -1    0    0    0  501  0.00000000000E+00  0.00000000000E+00  0.78264275355E+03  0.78264275357E+03  0.50400001928E-02 0.  1.
        1   -1    0    0  501    0  0.00000000000E+00  0.00000000000E+00 -0.63688592715E+03  0.63688592717E+03  0.50400001928E-02 0. -1.
    10030    2    1    2    0    0  0.00000000000E+00  0.00000000000E+00  0.14575682640E+03  0.14195286807E+04  0.14120257161E+04 0.  0.
        5    1    3    3  502    0 -0.93383129280E+02 -0.52440558134E+03  0.53870915905E+03  0.75759571713E+03  0.46999998093E+01 0.  1.
       -5    1    3    3    0  502  0.93383129280E+02  0.52440558134E+03 -0.39295233265E+03  0.66193296361E+03  0.46999998093E+01 0. -1.
</event>
<event>
 5   0  0.2793920E-05  0.2516455E+04  0.7818609E-02  0.8397147E-01
        1   -1    0    0  501    0  0.00000000000E+00  0.00000000000E+00  0.83809110212E+03  0.83809110213E+03  0.50400001928E-02 0. -1.
       -1   -1    0    0    0  501  0.00000000000E+00  0.00000000000E+00 -0.18889793171E+04  0.18889793171E+04  0.50400001928E-02 0.  1.
    10030    2    1    2    0    0  0.00000000000E+00  0.00000000000E+00 -0.10508882150E+04  0.27270704192E+04  0.25164552511E+04 0.  0.
        2    1    3    3  502    0  0.27406699462E+03 -0.42455962686E+03  0.72328744053E+03  0.88233118268E+03  0.25500000920E-02 0. -1.
       -2    1    3    3    0  502 -0.27406699462E+03  0.42455962686E+03 -0.17741756555E+04  0.18447392365E+04  0.25500000920E-02 0.  1.
</event>
<event>
 5   0  0.6648328E-05  0.2531215E+04  0.7818609E-02  0.8391949E-01
       -2   -1    0    0    0  501  0.00000000000E+00  0.00000000000E+00  0.12352182790E+04  0.12352182790E+04  0.25500000920E-02 0. -1.
        2   -1    0    0  501    0  0.00000000000E+00  0.00000000000E+00 -0.12967444477E+04  0.12967444477E+04  0.25500000920E-02 0.  1.
    10030    2    1    2    0    0  0.00000000000E+00  0.00000000000E+00 -0.61526168665E+02  0.25319627267E+04  0.25312150797E+04 0.  0.
        2    1    3    3  502    0 -0.33836361693E+03 -0.10776089024E+04 -0.60192347344E+03  0.12798604422E+04  0.25500000920E-02 0. -1.
       -2    1    3    3    0  502  0.33836361693E+03  0.10776089024E+04  0.54039730477E+03  0.12521022845E+04  0.25500000920E-02 0.  1.
</event>
<event>
 5   0  0.6827859E-05  0.2518375E+04  0.7818609E-02  0.8396469E-01
        2   -1    0    0  501    0  0.00000000000E+00  0.00000000000E+00  0.12141966830E+04  0.12141966830E+04  0.25500000920E-02 0. -1.
       -2   -1    0    0    0  501  0.00000000000E+00  0.00000000000E+00 -0.13058452762E+04  0.13058452762E+04  0.25500000920E-02 0.  1.
    10030    2    1    2    0    0  0.00000000000E+00  0.00000000000E+00 -0.91648593190E+02  0.25200419592E+04  0.25183748750E+04 0.  0.
        3    1    3    3  502    0 -0.20018642781E+02 -0.96476224325E+03 -0.85530111088E+03  0.12894599383E+04  0.10100000352E+00 0. -1.
       -3    1    3    3    0  502  0.20018642781E+02  0.96476224325E+03  0.76365251769E+03  0.12305820208E+04  0.10100000352E+00 0.  1.
</event>
<event>
 5   0  0.6648328E-05  0.2498880E+04  0.7818609E-02  0.8403385E-01
        2   -1    0    0  501    0  0.00000000000E+00  0.00000000000E+00  0.81341162064E+03  0.81341162064E+03  0.25500000920E-02 0.  1.
       -2   -1    0    0    0  501  0.00000000000E+00  0.00000000000E+00 -0.19192006610E+04  0.19192006610E+04  0.25500000920E-02 0. -1.
    10030    2    1    2    0    0  0.00000000000E+00  0.00000000000E+00 -0.11057890404E+04  0.27326122817E+04  0.24988798451E+04 0.  0.
        2    1    3    3  502    0  0.40846809542E+03 -0.10436786577E+03 -0.18390706645E+04  0.18867749589E+04  0.25500000920E-02 0. -1.
       -2    1    3    3    0  502 -0.40846809542E+03  0.10436786577E+03  0.73328162411E+03  0.84583732280E+03  0.25500000920E-02 0.  1.
</event>
<event>
 5   0  0.2777539E-05  0.1472457E+04  0.7818609E-02  0.8902978E-01
        1   -1    0    0  501    0  0.00000000000E+00  0.00000000000E+00  0.10815277917E+04  0.10815277917E+04  0.50400001928E-02 0.  1.
       -1   -1    0    0    0  501  0.00000000000E+00  0.00000000000E+00 -0.50117263908E+03  0.50117263910E+03  0.50400001928E-02 0. -1.
    10030    2    1    2    0    0  0.00000000000E+00  0.00000000000E+00  0.58035515266E+03  0.15827004308E+04  0.14724566379E+04 0.  0.
        3    1    3    3  502    0  0.67813775065E+03  0.28141312979E+03  0.23161962367E+03  0.76987779469E+03  0.10100000352E+00 0.  1.
       -3    1    3    3    0  502 -0.67813775065E+03 -0.28141312979E+03  0.34873552899E+03  0.81282263616E+03  0.10100000352E+00 0. -1.
</event>
<event>
 5   0  0.2980790E-05  0.2525365E+04  0.7818609E-02  0.8394005E-01
        1   -1    0    0  501    0  0.00000000000E+00  0.00000000000E+00  0.11177981452E+04  0.11177981453E+04  0.50400001928E-02 0.  1.
       -1   -1    0    0    0  501  0.00000000000E+00  0.00000000000E+00 -0.14263456257E+04  0.14263456257E+04  0.50400001928E-02 0. -1.
    10030    2    1    2    0    0  0.00000000000E+00  0.00000000000E+00 -0.30854748041E+03  0.25441437709E+04  0.25253645241E+04 0.  0.
        5    1    3    3  502    0 -0.11503537646E+02 -0.84665766859E+03 -0.10979263581E+04  0.13865157471E+04  0.46999998093E+01 0. -1.
       -5    1    3    3    0  502  0.11503537646E+02  0.84665766859E+03  0.78937887764E+03  0.11576280239E+04  0.46999998093E+01 0.  1.
</event>
<event>
 5   0  0.7071821E-05  0.1616518E+04  0.7818609E-02  0.8810464E-01
       -2   -1    0    0    0  501  0.00000000000E+00  0.00000000000E+00  0.88870009213E+03  0.88870009214E+03  0.25500000920E-02 0. -1.
        2   -1    0    0  501    0  0.00000000000E+00  0.00000000000E+00 -0.73509924552E+03  0.73509924552E+03  0.25500000920E-02 0.  1.
    10030    2    1    2    0    0  0.00000000000E+00  0.00000000000E+00  0.15360084661E+03  0.16237993377E+04  0.16165181932E+04 0.  0.
        5    1    3    3  502    0  0.32966960403E+03  0.36358410730E+02  0.81717978969E+03  0.88193473711E+03  0.46999998093E+01 0. -1.
       -5    1    3    3    0  502 -0.32966960403E+03 -0.36358410730E+02 -0.66357894308E+03  0.74186460055E+03  0.46999998093E+01 0.  1.
</event>
<event>
 5   0  0.2980790E-05  0.2492179E+04  0.7818609E-02  0.8405777E-01
       -1   -1    0    0    0  501  0.00000000000E+00  0.00000000000E+00  0.12775076536E+04  0.12775076536E+04  0.50400001928E-02 0. -1.
        1   -1    0    0  501    0  0.00000000000E+00  0.00000000000E+00 -0.12154436315E+04  0.12154436316E+04  0.50400001928E-02 0.  1.
    10030    2    1    2    0    0  0.00000000000E+00  0.00000000000E+00  0.62064022036E+02  0.24929512851E+04  0.24921785986E+04 0.  0.
        5    1    3    3  502    0  0.10396176584E+03  0.15660312304E+03 -0.12011712694E+04  0.12157989535E+04  0.46999998093E+01 0.  1.
       -5    1    3    3    0  502 -0.10396176584E+03 -0.15660312304E+03  0.12632352914E+04  0.12771523317E+04  0.46999998093E+01 0. -1.
</event>
<event>
 5   0  0.2793920E-05  0.2497767E+04  0.7818609E-02  0.8403782E-01
        1   -1    0    0  501    0  0.00000000000E+00  0.00000000000E+00  0.10183714845E+04  0.10183714845E+04  0.50400001928E-02 0. -1.
       -1   -1    0    0    0  501  0.00000000000E+00  0.00000000000E+00 -0.15315723863E+04  0.15315723863E+04  0.50400001928E-02 0.  1.
    10030    2    1    2    0    0  0.00000000000E+00  0.00000000000E+00 -0.51320090181E+03  0.25499438708E+04  0.24977667182E+04 0.  0.
        2    1    3    3  502    0 -0.82527587739E+03 -0.28125823854E+03 -0.11694396358E+04  0.14586896628E+04  0.25500000920E-02 0.  1.
       -2    1    3    3    0  502  0.82527587739E+03  0.28125823854E+03  0.65623873396E+03  0.10912542080E+04  0.25500000920E-02 0. -1.
</event>
<event>
 5   0  0.7071821E-05  0.2508828E+04  0.7818609E-02  0.8399847E-01
       -2   -1    0    0    0  501  0.00000000000E+00  0.00000000000E+00  0.14016696273E+04  0.14016696273E+04  0.25500000920E-02 0.  1.
        2   -1    0    0  501    0  0.00000000000E+00  0.00000000000E+00 -0.11226285425E+04  0.11226285425E+04  0.25500000920E-02 0. -1.
    10030    2    1    2    0    0  0.00000000000E+00  0.00000000000E+00  0.27904108472E+03  0.25242981698E+04  0.25088278783E+04 0.  0.
        5    1    3    3  502    0  0.23751783094E+03 -0.69292312656E+03 -0.88507849019E+03  0.11488878114E+04  0.46999998093E+01 0. -1.
       -5    1    3    3    0  502 -0.23751783094E+03  0.69292312656E+03  0.11641195749E+04  0.13754103584E+04  0.46999998093E+01 0.  1.
</event>
<event>
 5   0  0.2977854E-05  0.2598282E+04  0.7818609E-02  0.8368785E-01
        1   -1    0    0  501    0  0.00000000000E+00  0.00000000000E+00  0.15465050283E+04  0.15465050283E+04  0.50400001928E-02 0. -1.
       -1   -1    0    0    0  501  0.00000000000E+00  0.00000000000E+00 -0.10913430088E+04  0.10913430088E+04  0.50400001928E-02 0.  1.
    10030    2    1    2    0    0  0.00000000000E+00  0.00000000000E+00  0.45516201949E+03  0.26378480371E+04  0.25982820868E+04 0.  0.
        1    1    3    3  502    0 -0.22971777704E+03 -0.11849425387E+04  0.71542764573E+03  0.14031022035E+04  0.50400001928E-02 0. -1.
       -1    1    3    3    0  502  0.22971777704E+03  0.11849425387E+04 -0.26026562624E+03  0.12347458335E+04  0.50400001928E-02 0.  1.
</event>
<event>
 5   0  0.6827859E-05  0.1872171E+04  0.7818609E-02  0.8668834E-01
        2   -1    0    0  501    0  0.00000000000E+00  0.00000000000E+00  0.18660220690E+04  0.18660220690E+04  0.25500000920E-02 0. -1.
       -2   -1    0    0    0  501  0.00000000000E+00  0.00000000000E+00 -0.46958493373E+03  0.46958493374E+03  0.25500000920E-02 0.  1.
    10030    2    1    2    0    0  0.00000000000E+00  0.00000000000E+00  0.13964371352E+04  0.23356070027E+04  0.18721707717E+04 0.  0.
        3    1    3    3  502    0  0.47853037294E+03  0.20562954124E+03 -0.27212421614E+03  0.58764481216E+03  0.10100000352E+00 0.  1.
       -3    1    3    3    0  502 -0.47853037294E+03 -0.20562954124E+03  0.16685613514E+04  0.17479621905E+04  0.10100000352E+00 0. -1.
</event>
<event>
 5   0  0.6445331E-05  0.2204004E+04  0.7818609E-02  0.8516763E-01
        2   -1    0    0  501    0  0.00000000000E+00  0.00000000000E+00  0.13107479450E+04  0.13107479450E+04  0.25500000920E-02 0.  1.
       -2   -1    0    0    0  501  0.00000000000E+00  0.00000000000E+00 -0.92650051274E+03  0.92650051274E+03  0.25500000920E-02 0. -1.
    10030    2    1    2    0    0  0.00000000000E+00  0.00000000000E+00  0.38424743227E+03  0.22372484578E+04  0.22040042134E+04 0.  0.
        1    1    3    3  502    0 -0.41605131025E+03 -0.61006124194E+03  0.10224690423E+04  0.12612360422E+04  0.50400001928E-02 0.  1.
       -1    1    3    3    0  502  0.41605131025E+03  0.61006124194E+03 -0.63822161006E+03  0.97601241552E+03  0.50400001928E-02 0. -1.
</event>
<event>
 5   0  0.6827859E-05  0.1661778E+04  0.7818609E-02  0.8783469E-01
        2   -1    0    0  501    0  0.00000000000E+00  0.00000000000E+00  0.20072101704E+04  0.20072101704E+04  0.25500000920E-02 0.  1.
       -2   -1    0    0    0  501  0.00000000000E+00  0.00000000000E+00 -0.34394823871E+03  0.34394823872E+03  0.25500000920E-02 0. -1.
    10030    2    1    2    0    0  0.00000000000E+00  0.00000000000E+00  0.16632619317E+04  0.23511584091E+04  0.16617778466E+04 0.  0.
        3    1    3    3  502    0 -0.60003399025E+03  0.57463507112E+03  0.84777125744E+03  0.11869972071E+04  0.10100000352E+00 0.  1.
       -3    1    3    3    0  502  0.60003399025E+03 -0.57463507112E+03  0.81549067426E+03  0.11641612021E+04  0.10100000352E+00 0. -1.
</event>
<event>
 5   0  0.2793920E-05  0.2583739E+04  0.7818609E-02  0.8373746E-01
        1   -1    0    0  501    0  0.00000000000E+00  0.00000000000E+00  0.17450661062E+04  0.17450661062E+04  0.50400001928E-02 0.  1.
       -1   -1    0    0    0  501  0.00000000000E+00  0.00000000000E+00 -0.95636875733E+03  0.95636875734E+03  0.50400001928E-02 0. -1.
    10030    2    1    2    0    0  0.00000000000E+00  0.00000000000E+00  0.78869734891E+03  0.27014348636E+04  0.25837389214E+04 0.  0.
        2    1    3    3  502    0  0.11024038726E+04 -0.45606541054E+02  0.10969354544E+04  0.15558411378E+04  0.25500000920E-02 0.  1.
       -2    1    3    3    0  502 -0.11024038726E+04  0.45606541054E+02 -0.30823810553E+03  0.11455937258E+04  0.25500000920E-02 0. -1.
</event>
<event>
 5   0  0.6909250E-05  0.1870477E+04  0.7818609E-02  0.8669693E-01
        2   -1    0    0  501    0  0.00000000000E+00  0.00000000000E+00  0.91574626166E+03  0.91574626166E+03  0.25500000920E-02 0. -1.
       -2   -1    0    0    0  501  0.00000000000E+00  0.00000000000E+00 -0.95514592023E+03  0.95514592024E+03  0.25500000920E-02 0.  1.
    10030    2    1    2    0    0  0.00000000000E+00  0.00000000000E+00 -0.39399658575E+02  0.18708921819E+04  0.18704772715E+04 0.  0.
        4    1    3    3  502    0  0.26629521938E+03  0.21529168602E+03 -0.89018365611E+03  0.95377786116E+03  0.12699999809E+01 0.  1.
       -4    1    3    3    0  502 -0.26629521938E+03 -0.21529168602E+03  0.85078399754E+03  0.91711432074E+03  0.12699999809E+01 0. -1.
</event>
<event>
 5   0  0.2980790E-05  0.2361471E+04  0.7818609E-02  0.8454071E-01
       -1   -1    0    0    0  501  0.00000000000E+00  0.00000000000E+00  0.19655053011E+04  0.19655053011E+04  0.50400001928E-02 0. -1.
        1   -1    0    0  501    0  0.00000000000E+00  0.00000000000E+00 -0.70930173198E+03  0.70930173200E+03  0.50400001928E-02 0.  1.
    10030    2    1    2    0    0  0.00000000000E+00  0.00000000000E+00  0.12562035691E+04  0.26748070331E+04  0.23614709944E+04 0.  0.
        5    1    3    3  502    0  0.36677493400E+03 -0.27961050566E+03 -0.60304506070E+03  0.75920440088E+03  0.46999998093E+01 0.  1.
       -5    1    3    3    0  502 -0.36677493400E+03  0.27961050566E+03  0.18592486298E+04  0.19156026322E+04  0.46999998093E+01 0. -1.
</event>
<event>
 5   0  0.2793920E-05  0.2341763E+04  0.7818609E-02  0.8461634E-01
       -1   -1    0    0    0  501  0.00000000000E+00  0.00000000000E+00  0.77594559224E+03  0.77594559226E+03  0.50400001928E-02 0.  1.
        1   -1    0    0  501    0  0.00000000000E+00  0.00000000000E+00 -0.17668290091E+04  0.17668290091E+04  0.50400001928E-02 0. -1.
    10030    2    1    2    0    0  0.00000000000E+00  0.00000000000E+00 -0.99088341687E+03  0.25427746014E+04  0.23417627394E+04 0.  0.
        2    1    3    3  502    0 -0.74610512860E+01  0.41295105715E+03 -0.16851052621E+04  0.17349824169E+04  0.25500000920E-02 0. -1.
       -2    1    3    3    0  502  0.74610512860E+01 -0.41295105715E+03  0.69422184519E+03  0.80779218443E+03  0.25500000920E-02 0.  1.
</event>
<event>
 5   0  0.2331375E-05  0.1829936E+04  0.7818609E-02  0.8690540E-01
       -3   -1    0    0    0  501  0.00000000000E+00  0.00000000000E+00  0.18176613121E+04  0.18176613150E+04  0.10100000352E+00 0.  1.
        3   -1    0    0  501    0  0.00000000000E+00  0.00000000000E+00 -0.46057352592E+03  0.46057353699E+03  0.10100000352E+00 0. -1.
    10030    2    1    2    0    0  0.00000000000E+00  0.00000000000E+00  0.13570877862E+04  0.22782348519E+04  0.18299362779E+04 0.  0.
        5    1    3    3  502    0 -0.35202308201E+03  0.75613972304E+03  0.11468238388E+04  0.14180601321E+04  0.46999998093E+01 0.  1.
       -5    1    3    3    0  502  0.35202308201E+03 -0.75613972304E+03  0.21026394740E+03  0.86017471981E+03  0.46999998093E+01 0. -1.
</event>
<event>
 5   0  0.2793920E-05  0.2381117E+04  0.7818609E-02  0.8446607E-01
       -1   -1    0    0    0  501  0.00000000000E+00  0.00000000000E+00  0.11423591523E+04  0.11423591523E+04  0.50400001928E-02 0.  1.
        1   -1    0    0  501    0  0.00000000000E+00  0.00000000000E+00 -0.12407911448E+04  0.12407911448E+04  0.50400001928E-02 0. -1.
    10030    2    1    2    0    0  0.00000000000E+00  0.00000000000E+00 -0.98431992462E+02  0.23831502971E+04  0.23811166459E+04 0.  0.
        2    1    3    3  502    0  0.13623390835E+03 -0.10428483412E+04  0.50923616521E+03  0.11685092265E+04  0.25500000920E-02 0.  1.
       -2    1    3    3    0  502 -0.13623390835E+03  0.10428483412E+04 -0.60766815768E+03  0.12146410706E+04  0.25500000920E-02 0. -1.
</event>
<event>
 5   0  0.2777539E-05  0.1965029E+04  0.7818609E-02  0.8623147E-01
       -1   -1    0    0    0  501  0.00000000000E+00  0.00000000000E+00  0.87473623280E+03  0.87473623281E+03  0.50400001928E-02 0.  1.
        1   -1    0    0  501    0  0.00000000000E+00  0.00000000000E+00 -0.11035725976E+04  0.11035725976E+04  0.50400001928E-02 0. -1.
    10030    2    1    2    0    0  0.00000000000E+00  0.00000000000E+00 -0.22883636483E+03  0.19783088305E+04  0.19650291974E+04 0.  0.
        3    1    3    3  502    0 -0.92789817272E+03  0.28542796099E+03 -0.26667110328E+03  0.10067659248E+04  0.10100000352E+00 0. -1.
       -3    1    3    3    0  502  0.92789817272E+03 -0.28542796099E+03  0.37834738449E+02  0.97154290563E+03  0.10100000352E+00 0.  1.
</event>
<event>
 5   0  0.2980790E-05  0.2502503E+04  0.7818609E-02  0.8402095E-01
       -1   -1    0    0    0  501  0.00000000000E+00  0.00000000000E+00  0.85935134895E+03  0.85935134896E+03  0.50400001928E-02 0.  1.
        1   -1    0    0  501    0  0.00000000000E+00  0.00000000000E+00 -0.18218739518E+04  0.18218739518E+04  0.50400001928E-02 0. -1.
    10030    2    1    2    0    0  0.00000000000E+00  0.00000000000E+00 -0.96252260288E+03  0.26812253008E+04  0.25025026179E+04 0.  0.
        5    1    3    3  502    0 -0.74131240582E+03 -0.29330665337E+03  0.55199576688E+03  0.96968772941E+03  0.46999998093E+01 0.  1.
       -5    1    3    3    0  502  0.74131240582E+03  0.29330665337E+03 -0.15145183698E+04  0.17115375714E+04  0.46999998093E+01 0. -1.
</event>
<event>
 5   0  0.7071821E-05  0.2206227E+04  0.7818609E-02  0.8515841E-01
       -2   -1    0    0    0  501  0.00000000000E+00  0.00000000000E+00  0.83997894705E+03  0.83997894706E+03  0.25500000920E-02 0.  1.
        2   -1    0    0  501    0  0.00000000000E+00  0.00000000000E+00 -0.14486789091E+04  0.14486789091E+04  0.25500000920E-02 0. -1.
    10030    2    1    2    0    0  0.00000000000E+00  0.00000000000E+00 -0.60869996205E+03  0.22886578562E+04  0.22062273543E+04 0.  0.
        5    1    3    3  502    0  0.24714632106E+03  0.45575699721E+03  0.70570353560E+03  0.87569133527E+03  0.46999998093E+01 0.  1.
       -5    1    3    3    0  502 -0.24714632106E+03 -0.45575699721E+03 -0.13144034976E+04  0.14129665209E+04  0.46999998093E+01 0. -1.
</event>
<event>
 5   0  0.2977854E-05  0.2412317E+04  0.7818609E-02  0.8434907E-01
        1   -1    0    0  501    0  0.00000000000E+00  0.00000000000E+00  0.24260153281E+04  0.24260153281E+04  0.50400001928E-02 0. -1.
       -1   -1    0    0    0  501  0.00000000000E+00  0.00000000000E+00 -0.59967386227E+03  0.59967386229E+03  0.50400001928E-02 0.  1.
    10030    2    1    2    0    0  0.00000000000E+00  0.00000000000E+00  0.18263414658E+04  0.30256891904E+04  0.24123167137E+04 0.  0.
        1    1    3    3  502    0  0.11326656417E+04 -0.37675379905E+03  0.69613143645E+03  0.13818371315E+04  0.50400001928E-02 0.  1.
       -1    1    3    3    0  502 -0.11326656417E+04  0.37675379905E+03  0.11302100294E+04  0.16438520589E+04  0.50400001928E-02 0. -1.
</event>
<event>
 5   0  0.2980790E-05  0.1911098E+04  0.7818609E-02  0.8649352E-01
       -1   -1    0    0    0  501  0.00000000000E+00  0.00000000000E+00  0.83372686588E+03  0.83372686590E+03  0.50400001928E-02 0.  1.
        1   -1    0    0  501    0  0.00000000000E+00  0.00000000000E+00 -0.10951715914E+04  0.10951715915E+04  0.50400001928E-02 0. -1.
    10030    2    1    2    0    0  0.00000000000E+00  0.00000000000E+00 -0.26144472556E+03  0.19288984574E+04  0.19110980912E+04 0.  0.
        5    1    3    3  502    0 -0.63232380392E+02 -0.37273705585E+03  0.75501664039E+03  0.84439532448E+03  0.46999998093E+01 0.  1.
       -5    1    3    3    0  502  0.63232380392E+02  0.37273705585E+03 -0.10164613660E+04  0.10845031329E+04  0.46999998093E+01 0. -1.
</event>
<event>
 5   0  0.2896652E-05  0.2540384E+04  0.7818609E-02  0.8388738E-01
       -1   -1    0    0    0  501  0.00000000000E+00  0.00000000000E+00  0.94884976667E+03  0.94884976668E+03  0.50400001928E-02 0. -1.
        1   -1    0    0  501    0  0.00000000000E+00  0.00000000000E+00 -0.17003610902E+04  0.17003610902E+04  0.50400001928E-02 0.  1.
    10030    2    1    2    0    0  0.00000000000E+00  0.00000000000E+00 -0.75151132353E+03  0.26492108569E+04  0.25403836118E+04 0.  0.
        4    1    3    3  502    0  0.64815428637E+03 -0.98041717592E+02 -0.15103286607E+04  0.16464538966E+04  0.12699999809E+01 0.  1.
       -4    1    3    3    0  502 -0.64815428637E+03  0.98041717592E+02  0.75881733718E+03  0.10027569603E+04  0.12699999809E+01 0. -1.
</event>
<event>
 5   0  0.2793920E-05  0.2350617E+04  0.7818609E-02  0.8458227E-01
        1   -1    0    0  501    0  0.00000000000E+00  0.00000000000E+00  0.20183296151E+04  0.20183296151E+04  0.50400001928E-02 0. -1.
       -1   -1    0    0    0  501  0.00000000000E+00  0.00000000000E+00 -0.68440267198E+03  0.68440267200E+03  0.50400001928E-02 0.  1.
    10030    2    1    2    0    0  0.00000000000E+00  0.00000000000E+00  0.13339269431E+04  0.27027322871E+04  0.23506170947E+04 0.  0.
        2    1    3    3  502    0 -0.41440739453E+03 -0.50569230990E+03 -0.45601321031E+03  0.79712373501E+03  0.25500000920E-02 0.  1.
       -2    1    3    3    0  502  0.41440739453E+03  0.50569230990E+03  0.17899401534E+04  0.19056085521E+04  0.25500000920E-02 0. -1.
</event>
<event>
 5   0  0.6648328E-05  0.2508355E+04  0.7818609E-02  0.8400015E-01
       -2   -1    0    0    0  501  0.00000000000E+00  0.00000000000E+00  0.10481438935E+04  0.10481438935E+04  0.25500000920E-02 0. -1.
        2   -1    0    0  501    0  0.00000000000E+00  0.00000000000E+00 -0.15007111677E+04  0.15007111677E+04  0.25500000920E-02 0.  1.
    10030    2    1    2    0    0  0.00000000000E+00  0.00000000000E+00 -0.45256727425E+03  0.25488550612E+04  0.25083550357E+04 0.  0.
        2    1    3    3  502    0 -0.89160564744E+03 -0.82603441358E+03  0.88012427765E+02  0.12186220376E+04  0.25500000920E-02 0. -1.
       -2    1    3    3    0  502  0.89160564744E+03  0.82603441358E+03 -0.54057970202E+03  0.13302330237E+04  0.25500000920E-02 0.  1.
</event>
<event>
 5   0  0.6827859E-05  0.2500203E+04  0.7818609E-02  0.8402913E-01
       -2   -1    0    0    0  501  0.00000000000E+00  0.00000000000E+00  0.12829071790E+04  0.12829071790E+04  0.25500000920E-02 0.  1.
        2   -1    0    0  501    0  0.00000000000E+00  0.00000000000E+00 -0.12181350612E+04  0.12181350612E+04  0.25500000920E-02 0. -1.
    10030    2    1    2    0    0  0.00000000000E+00  0.00000000000E+00  0.64772117807E+02  0.25010422402E+04  0.25002033637E+04 0.  0.
        3    1    3    3  502    0 -0.27523858034E+02 -0.92299477280E+03 -0.81055751354E+03  0.12286905250E+04  0.10100000352E+00 0. -1.
       -3    1    3    3    0  502  0.27523858034E+02  0.92299477280E+03  0.87532963134E+03  0.12723517152E+04  0.10100000352E+00 0.  1.
</event>
<event>
 5   0  0.6909250E-05  0.2498473E+04  0.7818609E-02  0.8403530E-01
        2   -1    0    0  501    0  0.00000000000E+00  0.00000000000E+00  0.13227635435E+04  0.13227635435E+04  0.25500000920E-02 0. -1.
       -2   -1    0    0    0  501  0.00000000000E+00  0.00000000000E+00 -0.11797967313E+04  0.11797967313E+04  0.25500000920E-02 0.  1.
    10030    2    1    2    0    0  0.00000000000E+00  0.00000000000E+00  0.14296681217E+03  0.25025602748E+04  0.24984732177E+04 0.  0.
        4    1    3    3  502    0  0.28982027625E+03 -0.58432878904E+03 -0.99569578440E+03  0.11903140906E+04  0.12699999809E+01 0.  1.
       -4    1    3    3    0  502 -0.28982027625E+03  0.58432878904E+03  0.11386625966E+04  0.13122461842E+04  0.12699999809E+01 0. -1.
</event>
<event>
 5   0  0.2980790E-05  0.2421694E+04  0.7818609E-02  0.8431426E-01
       -1   -1    0    0    0  501  0.00000000000E+00  0.00000000000E+00  0.77937614408E+03  0.77937614410E+03  0.50400001928E-02 0. -1.
        1   -1    0    0  501    0  0.00000000000E+00  0.00000000000E+00 -0.18811851258E+04  0.18811851258E+04  0.50400001928E-02 0.  1.
    10030    2    1    2    0    0  0.00000000000E+00  0.00000000000E+00 -0.11018089817E+04  0.26605612699E+04  0.24216942909E+04 0.  0.
        5    1    3    3  502    0  0.24616033476E+03  0.98421027404E+03  0.17524669139E+03  0.10295621724E+04  0.46999998093E+01 0. -1.
       -5    1    3    3    0  502 -0.24616033476E+03 -0.98421027404E+03 -0.12770556731E+04  0.16309990976E+04  0.46999998093E+01 0.  1.
</event>
<event>
 5   0  0.6445331E-05  0.2507540E+04  0.7818609E-02  0.8400304E-01
        2   -1    0    0  501    0  0.00000000000E+00  0.00000000000E+00  0.15519241756E+04  0.15519241756E+04  0.25500000920E-02 0. -1.
       -2   -1    0    0    0  501  0.00000000000E+00  0.00000000000E+00 -0.10128969260E+04  0.10128969260E+04  0.25500000920E-02 0.  1.
    10030    2    1    2    0    0  0.00000000000E+00  0.00000000000E+00  0.53902724960E+03  0.25648211016E+04  0.25075400112E+04 0.  0.
        1    1    3    3  502    0 -0.12879336016E+03 -0.58576312920E+03  0.13956792514E+04  0.15190874714E+04  0.50400001928E-02 0. -1.
       -1    1    3    3    0  502  0.12879336016E+03  0.58576312920E+03 -0.85665200177E+03  0.10457336302E+04  0.50400001928E-02 0.  1.
</event>
<event>
 5   0  0.7071821E-05  0.2547903E+04  0.7818609E-02  0.8386116E-01
       -2   -1    0    0    0  501  0.00000000000E+00  0.00000000000E+00  0.49224872551E+03  0.49224872552E+03  0.25500000920E-02 0. -1.
        2   -1    0    0  501    0  0.00000000000E+00  0.00000000000E+00 -0.32970178763E+04  0.32970178763E+04  0.25500000920E-02 0.  1.
    10030    2    1    2    0    0  0.00000000000E+00  0.00000000000E+00 -0.28047691508E+04  0.37892666019E+04  0.25479033323E+04 0.  0.
        5    1    3    3  502    0 -0.66391382037E+03 -0.10175736760E+04 -0.19719936850E+04  0.23162510509E+04  0.46999998093E+01 0.  1.
       -5    1    3    3    0  502  0.66391382037E+03  0.10175736760E+04 -0.83277546579E+03  0.14730155510E+04  0.46999998093E+01 0. -1.
</event>
<event>
 5   0  0.2896652E-05  0.2529410E+04  0.7818609E-02  0.8392582E-01
        1   -1    0    0  501    0  0.00000000000E+00  0.00000000000E+00  0.16870950211E+04  0.16870950211E+04  0.50400001928E-02 0.  1.
       -1   -1    0    0    0  501  0.00000000000E+00  0.00000000000E+00 -0.94806707858E+03  0.94806707859E+03  0.50400001928E-02 0. -1.
    10030    2    1    2    0    0  0.00000000000E+00  0.00000000000E+00  0.73902794249E+03  0.26351620997E+04  0.25294104040E+04 0.  0.
        4    1    3    3  502    0 -0.24485190097E+03  0.12406853276E+04  0.38514455676E+03  0.13219646282E+04  0.12699999809E+01 0.  1.
       -4    1    3    3    0  502  0.24485190097E+03 -0.12406853276E+04  0.35388338573E+03  0.13131974715E+04  0.12699999809E+01 0. -1.
</event>
<event>
 5   0  0.2793920E-05  0.2528296E+04  0.7818609E-02  0.8392974E-01
       -1   -1    0    0    0  501  0.00000000000E+00  0.00000000000E+00  0.15123635095E+04  0.15123635095E+04  0.50400001928E-02 0. -1.
        1   -1    0    0  501    0  0.00000000000E+00  0.00000000000E+00 -0.10566705249E+04  0.10566705249E+04  0.50400001928E-02 0.  1.
    10030    2    1    2    0    0  0.00000000000E+00  0.00000000000E+00  0.45569298465E+03  0.25690340344E+04  0.25282958240E+04 0.  0.
        2    1    3    3  502    0  0.85741389191E+03 -0.52021835627E+02 -0.71457021005E+03  0.11173519761E+04  0.25500000920E-02 0.  1.
       -2    1    3    3    0  502 -0.85741389191E+03  0.52021835627E+02  0.11702631947E+04  0.14516820583E+04  0.25500000920E-02 0. -1.
</event>
<event>
 5   0  0.2793920E-05  0.2464235E+04  0.7818609E-02  0.8415839E-01
        1   -1    0    0  501    0  0.00000000000E+00  0.00000000000E+00  0.13268288135E+04  0.13268288135E+04  0.50400001928E-02 0.  1.
       -1   -1    0    0    0  501  0.00000000000E+00  0.00000000000E+00 -0.11441664685E+04  0.11441664685E+04  0.50400001928E-02 0. -1.
    10030    2    1    2    0    0  0.00000000000E+00  0.00000000000E+00  0.18266234498E+03  0.24709952821E+04  0.24642345975E+04 0.  0.
        2    1    3    3  502    0 -0.95565753582E+03  0.72362832249E+03 -0.19439577425E+03  0.12143759681E+04  0.25500000920E-02 0.  1.
       -2    1    3    3    0  502  0.95565753582E+03 -0.72362832249E+03  0.37705811922E+03  0.12566193139E+04  0.25500000920E-02 0. -1.
</event>
<event>
 5   0  0.2777539E-05  0.2521449E+04  0.7818609E-02  0.8395384E-01
        1   -1    0    0  501    0  0.00000000000E+00  0.00000000000E+00  0.16581958218E+04  0.16581958218E+04  0.50400001928E-02 0. -1.
       -1   -1    0    0    0  501  0.00000000000E+00  0.00000000000E+00 -0.95852773122E+03  0.95852773124E+03  0.50400001928E-02 0.  1.
    10030    2    1    2    0    0  0.00000000000E+00  0.00000000000E+00  0.69966809054E+03  0.26167235530E+04  0.25214493284E+04 0.  0.
        3    1    3    3  502    0 -0.53423746289E+02 -0.85347430174E+02  0.16540163990E+04  0.16570783141E+04  0.10100000352E+00 0. -1.
       -3    1    3    3    0  502  0.53423746289E+02  0.85347430174E+02 -0.95434830849E+03  0.95964523894E+03  0.10100000352E+00 0.  1.
</event>
<event>
 5   0  0.2793920E-05  0.2479605E+04  0.7818609E-02  0.8410287E-01
       -1   -1    0    0    0  501  0.00000000000E+00  0.00000000000E+00  0.64067501887E+03  0.64067501888E+03  0.50400001928E-02 0.  1.
        1   -1    0    0  501    0  0.00000000000E+00  0.00000000000E+00 -0.23992048073E+04  0.23992048073E+04  0.50400001928E-02 0. -1.
    10030    2    1    2    0    0  0.00000000000E+00  0.00000000000E+00 -0.17585297885E+04  0.30398798262E+04  0.24796052793E+04 0.  0.
        2    1    3    3  502    0  0.63206792348E+03 -0.24544127369E+03  0.39322442782E+03  0.78382187350E+03  0.25500000920E-02 0.  1.
       -2    1    3    3    0  502 -0.63206792348E+03  0.24544127369E+03 -0.21517542163E+04  0.22560579527E+04  0.25500000920E-02 0. -1.
</event>
<event>
 5   0  0.6648328E-05  0.2479411E+04  0.7818609E-02  0.8410357E-01
        2   -1    0    0  501    0  0.00000000000E+00  0.00000000000E+00  0.12338157172E+04  0.12338157172E+04  0.25500000920E-02 0. -1.
       -2   -1    0    0    0  501  0.00000000000E+00  0.00000000000E+00 -0.12456233836E+04  0.12456233836E+04  0.25500000920E-02 0.  1.
    10030    2    1    2    0    0  0.00000000000E+00  0.00000000000E+00 -0.11807666348E+02  0.24794391008E+04  0.24794109852E+04 0.  0.
        2    1    3    3  502    0 -0.67786948949E+03 -0.21465358141E+03  0.10096304560E+04  0.12348833396E+04  0.25500000920E-02 0. -1.
       -2    1    3    3    0  502  0.67786948949E+03  0.21465358141E+03 -0.10214381224E+04  0.12445557611E+04  0.25500000920E-02 0.  1.
</event>
<event>
 5   0  0.6648328E-05  0.2467956E+04  0.7818609E-02  0.8414491E-01
        2   -1    0    0  501    0  0.00000000000E+00  0.00000000000E+00  0.11500918846E+04  0.11500918846E+04  0.25500000920E-02 0.  1.
       -2   -1    0    0    0  501  0.00000000000E+00  0.00000000000E+00 -0.13239826105E+04  0.13239826105E+04  0.25500000920E-02 0. -1.
    10030    2    1    2    0    0  0.00000000000E+00  0.00000000000E+00 -0.17389072593E+03  0.24740744952E+04  0.24679559605E+04 0.  0.
        2    1    3    3  502    0 -0.10781815665E+04 -0.34584716582E+03  0.40479689464E+03  0.12024750635E+04  0.25500000920E-02 0.  1.
       -2    1    3    3    0  502  0.10781815665E+04  0.34584716582E+03 -0.57868762057E+03  0.12715994317E+04  0.25500000920E-02 0. -1.
</event>
<event>
 5   0  0.6827859E-05  0.2432153E+04  0.7818609E-02  0.8427563E-01
        2   -1    0    0  501    0  0.00000000000E+00  0.00000000000E+00  0.24722244300E+04  0.24722244300E+04  0.25500000920E-02 0.  1.
       -2   -1    0    0    0  501  0.00000000000E+00  0.00000000000E+00 -0.59818299405E+03  0.59818299406E+03  0.25500000920E-02 0. -1.
    10030    2    1    2    0    0  0.00000000000E+00  0.00000000000E+00  0.18740414360E+04  0.30704074241E+04  0.24321534586E+04 0.  0.
        3    1    3    3  502    0 -0.11449595608E+03  0.34788716428E+03  0.24009462848E+04  0.24287193901E+04  0.10100000352E+00 0.  1.
       -3    1    3    3    0  502  0.11449595608E+03 -0.34788716428E+03 -0.52690484884E+03  0.64168803399E+03  0.10100000352E+00 0. -1.
</event>
<event>
 5   0  0.2977854E-05  0.2410420E+04  0.7818609E-02  0.8435613E-01
        1   -1    0    0  501    0  0.00000000000E+00  0.00000000000E+00  0.14438185015E+04  0.14438185016E+04  0.50400001928E-02 0.  1.
       -1   -1    0    0    0  501  0.00000000000E+00  0.00000000000E+00 -0.10060345070E+04  0.10060345070E+04  0.50400001928E-02 0. -1.
    10030    2    1    2    0    0  0.00000000000E+00  0.00000000000E+00  0.43778399453E+03  0.24498530086E+04  0.24104200750E+04 0.  0.
        1    1    3    3  502    0 -0.81571855131E+03 -0.86627322342E+02  0.11163034649E+04  0.13852921979E+04  0.50400001928E-02 0.  1.
       -1    1    3    3    0  502  0.81571855131E+03  0.86627322342E+02 -0.67851947034E+03  0.10645608107E+04  0.50400001928E-02 0. -1.
</event>
<event>
 5   0  0.2793920E-05  0.2113073E+04  0.7818609E-02  0.8555506E-01
        1   -1    0    0  501    0  0.00000000000E+00  0.00000000000E+00  0.22478504626E+04  0.22478504626E+04  0.50400001928E-02 0.  1.
       -1   -1    0    0    0  501  0.00000000000E+00  0.00000000000E+00 -0.49659411917E+03  0.49659411920E+03  0.50400001928E-02 0. -1.
    10030    2    1    2    0    0  0.00000000000E+00  0.00000000000E+00  0.17512563435E+04  0.27444445818E+04  0.21130729477E+04 0.  0.
        2    1    3    3  502    0  0.11466020273E+03 -0.95997854942E+03  0.32220887250E+03  0.10190801416E+04  0.25500000920E-02 0. -1.
       -2    1    3    3    0  502 -0.11466020273E+03  0.95997854942E+03  0.14290474710E+04  0.17253644403E+04  0.25500000920E-02 0.  1.
</event>
<event>
 5   0  0.2793920E-05  0.2467928E+04  0.7818609E-02  0.8414501E-01
       -1   -1    0    0    0  501  0.00000000000E+00  0.00000000000E+00  0.10565281195E+04  0.10565281195E+04  0.50400001928E-02 0.  1.
        1   -1    0    0  501    0  0.00000000000E+00  0.00000000000E+00 -0.14411989526E+04  0.14411989526E+04  0.50400001928E-02 0. -1.
    10030    2    1    2    0    0  0.00000000000E+00  0.00000000000E+00 -0.38467083310E+03  0.24977270721E+04  0.24679280534E+04 0.  0.
        2    1    3    3  502    0  0.10472574818E+04  0.65184963463E+03 -0.22451620022E+03  0.12538196455E+04  0.25500000920E-02 0.  1.
       -2    1    3    3    0  502 -0.10472574818E+04 -0.65184963463E+03 -0.16015463289E+03  0.12439074265E+04  0.25500000920E-02 0. -1.
</event>
<event>
 5   0  0.6827859E-05  0.2502273E+04  0.7818609E-02  0.8402176E-01
       -2   -1    0    0    0  501  0.00000000000E+00  0.00000000000E+00  0.11186539940E+04  0.11186539940E+04  0.25500000920E-02 0. -1.
        2   -1    0    0  501    0  0.00000000000E+00  0.00000000000E+00 -0.13993090712E+04  0.13993090712E+04  0.25500000920E-02 0.  1.
    10030    2    1    2    0    0  0.00000000000E+00  0.00000000000E+00 -0.28065507718E+03  0.25179630652E+04  0.25022731117E+04 0.  0.
        3    1    3    3  502    0  0.91683259320E+03  0.48639811107E+03  0.56275052116E+03  0.11806156384E+04  0.10100000352E+00 0. -1.
       -3    1    3    3    0  502 -0.91683259320E+03 -0.48639811107E+03 -0.84340559834E+03  0.13373474268E+04  0.10100000352E+00 0.  1.
</event>
<event>
 5   0  0.6648328E-05  0.2462843E+04  0.7818609E-02  0.8416344E-01
        2   -1    0    0  501    0  0.00000000000E+00  0.00000000000E+00  0.22604130013E+04  0.22604130013E+04  0.25500000920E-02 0. -1.
       -2   -1    0    0    0  501  0.00000000000E+00  0.00000000000E+00 -0.67085061813E+03  0.67085061813E+03  0.25500000920E-02 0.  1.
    10030    2    1    2    0    0  0.00000000000E+00  0.00000000000E+00  0.15895623832E+04  0.29312636194E+04  0.24628434454E+04 0.  0.
        2    1    3    3  502    0 -0.11301595467E+04  0.10571126495E+03  0.22651581830E+03  0.11574734936E+04  0.25500000920E-02 0.  1.
       -2    1    3    3    0  502  0.11301595467E+04 -0.10571126495E+03  0.13630465649E+04  0.17737901258E+04  0.25500000920E-02 0. -1.
</event>
<event>
 5   0  0.6648328E-05  0.2479375E+04  0.7818609E-02  0.8410370E-01
       -2   -1    0    0    0  501  0.00000000000E+00  0.00000000000E+00  0.98542819924E+03  0.98542819924E+03  0.25500000920E-02 0.  1.
        2   -1    0    0  501    0  0.00000000000E+00  0.00000000000E+00 -0.15595505967E+04  0.15595505967E+04  0.25500000920E-02 0. -1.
    10030    2    1    2    0    0  0.00000000000E+00  0.00000000000E+00 -0.57412239745E+03  0.25449787959E+04  0.24793750310E+04 0.  0.
        2    1    3    3  502    0  0.44597530409E+03 -0.78006661357E+03 -0.11637247182E+04  0.14702561386E+04  0.25500000920E-02 0. -1.
       -2    1    3    3    0  502 -0.44597530409E+03  0.78006661357E+03  0.58960232074E+03  0.10747226573E+04  0.25500000920E-02 0.  1.
</event>
<event>
 5   0  0.2896652E-05  0.2501612E+04  0.7818609E-02  0.8402411E-01
       -1   -1    0    0    0  501  0.00000000000E+00  0.00000000000E+00  0.10486869875E+04  0.10486869875E+04  0.50400001928E-02 0. -1.
        1   -1    0    0  501    0  0.00000000000E+00  0.00000000000E+00 -0.14918805400E+04  0.14918805400E+04  0.50400001928E-02 0.  1.
    10030    2    1    2    0    0  0.00000000000E+00  0.00000000000E+00 -0.44319355251E+03  0.25405675276E+04  0.25016120477E+04 0.  0.
        4    1    3    3  502    0  0.72530826023E+03  0.90644424548E+03  0.25127269565E+03  0.11877932577E+04  0.12699999809E+01 0.  1.
       -4    1    3    3    0  502 -0.72530826023E+03 -0.90644424548E+03 -0.69446624816E+03  0.13527742699E+04  0.12699999809E+01 0. -1.
</event>
<event>
 5   0  0.2331375E-05  0.1974913E+04  0.7818609E-02  0.8618440E-01
       -3   -1    0    0    0  501  0.00000000000E+00  0.00000000000E+00  0.79682176606E+03  0.79682177246E+03  0.10100000352E+00 0. -1.
        3   -1    0    0  501    0  0.00000000000E+00  0.00000000000E+00 -0.12236998286E+04  0.12236998328E+04  0.10100000352E+00 0.  1.
    10030    2    1    2    0    0  0.00000000000E+00  0.00000000000E+00 -0.42687806253E+03  0.20205216052E+04  0.19749133340E+04 0.  0.
        4    1    3    3  502    0  0.45747710989E+03  0.78811606911E+03 -0.60256023907E+03  0.10924709145E+04  0.12699999809E+01 0.  1.
       -4    1    3    3    0  502 -0.45747710989E+03 -0.78811606911E+03  0.17568217654E+03  0.92805069070E+03  0.12699999809E+01 0. -1.
</event>
<event>
 5   0  0.6445331E-05  0.2504513E+04  0.7818609E-02  0.8401380E-01
        2   -1    0    0  501    0  0.00000000000E+00  0.00000000000E+00  0.18350626232E+04  0.18350626232E+04  0.25500000920E-02 0. -1.
       -2   -1    0    0    0  501  0.00000000000E+00  0.00000000000E+00 -0.85454643692E+03  0.85454643692E+03  0.25500000920E-02 0.  1.
    10030    2    1    2    0    0  0.00000000000E+00  0.00000000000E+00  0.98051618632E+03  0.26896090602E+04  0.25045129077E+04 0.  0.
        1    1    3    3  502    0  0.12934151161E+03 -0.32398532445E+03 -0.80131108970E+03  0.87395376284E+03  0.50400001928E-02 0.  1.
       -1    1    3    3    0  502 -0.12934151161E+03  0.32398532445E+03  0.17818272760E+04  0.18156552973E+04  0.50400001928E-02 0. -1.
</event>
<event>
 5   0  0.6827859E-05  0.1439492E+04  0.7818609E-02  0.8925718E-01
       -2   -1    0    0    0  501  0.00000000000E+00  0.00000000000E+00  0.28575010415E+03  0.28575010416E+03  0.25500000920E-02 0.  1.
        2   -1    0    0  501    0  0.00000000000E+00  0.00000000000E+00 -0.18128935945E+04  0.18128935945E+04  0.25500000920E-02 0. -1.
    10030    2    1    2    0    0  0.00000000000E+00  0.00000000000E+00 -0.15271434904E+04  0.20986436987E+04  0.14394923181E+04 0.  0.
        3    1    3    3  502    0 -0.63299243124E+03 -0.76626803481E+02 -0.27678971553E+03  0.69509973518E+03  0.10100000352E+00 0.  1.
       -3    1    3    3    0  502  0.63299243124E+03  0.76626803481E+02 -0.12503537748E+04  0.14035439635E+04  0.10100000352E+00 0. -1.
</event>
<event>
 5   0  0.2793920E-05  0.1654559E+04  0.7818609E-02  0.8787714E-01
        1   -1    0    0  501    0  0.00000000000E+00  0.00000000000E+00  0.67173509739E+03  0.67173509741E+03  0.50400001928E-02 0. -1.
       -1   -1    0    0    0  501  0.00000000000E+00  0.00000000000E+00 -0.10188412727E+04  0.10188412727E+04  0.50400001928E-02 0.  1.
    10030    2    1    2    0    0  0.00000000000E+00  0.00000000000E+00 -0.34710617532E+03  0.16905763701E+04  0.16545590852E+04 0.  0.
        2    1    3    3  502    0  0.47833900056E+03  0.29695591726E+03 -0.79288340649E+03  0.97244799992E+03  0.25500000920E-02 0.  1.
       -2    1    3    3    0  502 -0.47833900056E+03 -0.29695591726E+03  0.44577723117E+03  0.71812837020E+03  0.25500000920E-02 0. -1.
</event>
<event>
 5   0  0.6827859E-05  0.2101407E+04  0.7818609E-02  0.8560624E-01
        2   -1    0    0  501    0  0.00000000000E+00  0.00000000000E+00  0.15997265968E+04  0.15997265968E+04  0.25500000920E-02 0. -1.
       -2   -1    0    0    0  501  0.00000000000E+00  0.00000000000E+00 -0.69010416003E+03  0.69010416003E+03  0.25500000920E-02 0.  1.
    10030    2    1    2    0    0  0.00000000000E+00  0.00000000000E+00  0.90962243675E+03  0.22898307568E+04  0.21014071280E+04 0.  0.
        3    1    3    3  502    0  0.41900534730E+03  0.34090847063E+03 -0.52721491638E+03  0.75481099930E+03  0.10100000352E+00 0.  1.
       -3    1    3    3    0  502 -0.41900534730E+03 -0.34090847063E+03  0.14368373531E+04  0.15350197575E+04  0.10100000352E+00 0. -1.
</event>
<event>
 5   0  0.6648328E-05  0.2304483E+04  0.7818609E-02  0.8476155E-01
        2   -1    0    0  501    0  0.00000000000E+00  0.00000000000E+00  0.16332760931E+04  0.16332760931E+04  0.25500000920E-02 0.  1.
       -2   -1    0    0    0  501  0.00000000000E+00  0.00000000000E+00 -0.81288208262E+03  0.81288208263E+03  0.25500000920E-02 0. -1.
    10030    2    1    2    0    0  0.00000000000E+00  0.00000000000E+00  0.82039401045E+03  0.24461581757E+04  0.23044833452E+04 0.  0.
        2    1    3    3  502    0  0.15913239279E+02 -0.83466535589E+03 -0.43282056465E+03  0.94034734471E+03  0.25500000920E-02 0. -1.
       -2    1    3    3    0  502 -0.15913239279E+02  0.83466535589E+03  0.12532145751E+04  0.15058108310E+04  0.25500000920E-02 0.  1.
</event>
<event>
 5   0  0.6827859E-05  0.2473766E+04  0.7818609E-02  0.8412392E-01
       -2   -1    0    0    0  501  0.00000000000E+00  0.00000000000E+00  0.12886659670E+04  0.12886659670E+04  0.25500000920E-02 0. -1.
        2   -1    0    0  501    0  0.00000000000E+00  0.00000000000E+00 -0.11871806207E+04  0.11871806208E+04  0.25500000920E-02 0.  1.
    10030    2    1    2    0    0  0.00000000000E+00  0.00000000000E+00  0.10148534622E+03  0.24758465877E+04  0.24737657630E+04 0.  0.
        3    1    3    3  502    0  0.25651569830E+03 -0.98020755285E+03  0.76075613761E+03  0.12670268589E+04  0.10100000352E+00 0. -1.
       -3    1    3    3    0  502 -0.25651569830E+03  0.98020755285E+03 -0.65927079139E+03  0.12088197288E+04  0.10100000352E+00 0.  1.
</event>
<event>
 5   0  0.2980790E-05  0.2517241E+04  0.7818609E-02  0.8396869E-01
        1   -1    0    0  501    0  0.00000000000E+00  0.00000000000E+00  0.13115414113E+04  0.13115414113E+04  0.50400001928E-02 0.  1.
       -1   -1    0    0    0  501  0.00000000000E+00  0.00000000000E+00 -0.12078348788E+04  0.12078348788E+04  0.50400001928E-02 0. -1.
    10030    2    1    2    0    0  0.00000000000E+00  0.00000000000E+00  0.10370653243E+03  0.25193762901E+04  0.25172409194E+04 0.  0.
        5    1    3    3  502    0 -0.29107359230E+03  0.77924043962E+03 -0.89349225610E+03  0.12207743447E+04  0.46999998093E+01 0. -1.
       -5    1    3    3    0  502  0.29107359230E+03 -0.77924043962E+03  0.99719878854E+03  0.12986019455E+04  0.46999998093E+01 0.  1.
</event>
<event>
 5   0  0.2980790E-05  0.2180851E+04  0.7818609E-02  0.8526441E-01
        1   -1    0    0  501    0  0.00000000000E+00  0.00000000000E+00  0.12822592699E+04  0.12822592699E+04  0.50400001928E-02 0. -1.
       -1   -1    0    0    0  501  0.00000000000E+00  0.00000000000E+00 -0.92729082524E+03  0.92729082526E+03  0.50400001928E-02 0.  1.
    10030    2    1    2    0    0  0.00000000000E+00  0.00000000000E+00  0.35496844469E+03  0.22095500952E+04  0.21808505282E+04 0.  0.
        5    1    3    3  502    0  0.29615194314E+03 -0.10348172131E+04  0.68122162548E+00  0.10763713077E+04  0.46999998093E+01 0.  1.
       -5    1    3    3    0  502 -0.29615194314E+03  0.10348172131E+04  0.35428722306E+03  0.11331787875E+04  0.46999998093E+01 0. -1.
</event>
<event>
 5   0  0.6445331E-05  0.2398478E+04  0.7818609E-02  0.8440074E-01
       -2   -1    0    0    0  501  0.00000000000E+00  0.00000000000E+00  0.91705815183E+03  0.91705815183E+03  0.25500000920E-02 0. -1.
        2   -1    0    0  501    0  0.00000000000E+00  0.00000000000E+00 -0.15682472588E+04  0.15682472588E+04  0.25500000920E-02 0.  1.
    10030    2    1    2    0    0  0.00000000000E+00  0.00000000000E+00 -0.65118910694E+03  0.24853054106E+04  0.23984777945E+04 0.  0.
        1    1    3    3  502    0  0.22847086020E+03  0.27684283270E+03 -0.15112790126E+04  0.15533206823E+04  0.50400001928E-02 0.  1.
       -1    1    3    3    0  502 -0.22847086020E+03 -0.27684283270E+03  0.86008990567E+03  0.93198472833E+03  0.50400001928E-02 0. -1.
</event>
<event>
 5   0  0.2896652E-05  0.2484151E+04  0.7818609E-02  0.8408654E-01
        1   -1    0    0  501    0  0.00000000000E+00  0.00000000000E+00  0.11116793614E+04  0.11116793614E+04  0.50400001928E-02 0. -1.
       -1   -1    0    0    0  501  0.00000000000E+00  0.00000000000E+00 -0.13877666315E+04  0.13877666315E+04  0.50400001928E-02 0.  1.
    10030    2    1    2    0    0  0.00000000000E+00  0.00000000000E+00 -0.27608727007E+03  0.24994459929E+04  0.24841509798E+04 0.  0.
        4    1    3    3  502    0 -0.69670818047E+03 -0.98707465360E+03 -0.42796922907E+03  0.12817479996E+04  0.12699999809E+01 0.  1.
       -4    1    3    3    0  502  0.69670818047E+03  0.98707465360E+03  0.15188195900E+03  0.12176979933E+04  0.12699999809E+01 0. -1.
</event>
<event>
 5   0  0.6648328E-05  0.1886325E+04  0.7818609E-02  0.8661693E-01
        2   -1    0    0  501    0  0.00000000000E+00  0.00000000000E+00  0.60379592761E+03  0.60379592762E+03  0.25500000920E-02 0.  1.
       -2   -1    0    0    0  501  0.00000000000E+00  0.00000000000E+00 -0.14732720077E+04  0.14732720077E+04  0.25500000920E-02 0. -1.
    10030    2    1    2    0    0  0.00000000000E+00  0.00000000000E+00 -0.86947608007E+03  0.20770679353E+04  0.18863251454E+04 0.  0.
        2    1    3    3  502    0 -0.28459047748E+02  0.91230161765E+03 -0.17311751571E+03  0.92901767110E+03  0.25500000920E-02 0.  1.
       -2    1    3    3    0  502  0.28459047748E+02 -0.91230161765E+03 -0.69635856436E+03  0.11480502642E+04  0.25500000920E-02 0. -1.
</event>
<event>
 5   0  0.2977854E-05  0.1592546E+04  0.7818609E-02  0.8825141E-01
        1   -1    0    0  501    0  0.00000000000E+00  0.00000000000E+00  0.15010402329E+04  0.15010402329E+04  0.50400001928E-02 0.  1.
       -1   -1    0    0    0  501  0.00000000000E+00  0.00000000000E+00 -0.42240727750E+03  0.42240727753E+03  0.50400001928E-02 0. -1.
    10030    2    1    2    0    0  0.00000000000E+00  0.00000000000E+00  0.10786329554E+04  0.19234475104E+04  0.15925455324E+04 0.  0.
        1    1    3    3  502    0  0.24940265193E+03 -0.31886266645E+03  0.13674843077E+04  0.14261445981E+04  0.50400001928E-02 0.  1.
       -1    1    3    3    0  502 -0.24940265193E+03  0.31886266645E+03 -0.28885135232E+03  0.49730291232E+03  0.50400001928E-02 0. -1.
</event>
<event>
 5   0  0.6909250E-05  0.1463565E+04  0.7818609E-02  0.8909050E-01
        2   -1    0    0  501    0  0.00000000000E+00  0.00000000000E+00  0.16285938492E+04  0.16285938492E+04  0.25500000920E-02 0. -1.
       -2   -1    0    0    0  501  0.00000000000E+00  0.00000000000E+00 -0.32881465804E+03  0.32881465805E+03  0.25500000920E-02 0.  1.
    10030    2    1    2    0    0  0.00000000000E+00  0.00000000000E+00  0.12997791912E+04  0.19574085073E+04  0.14635648665E+04 0.  0.
        4    1    3    3  502    0 -0.63007033942E+03  0.11495753678E+03  0.11233079768E+04  0.12930685564E+04  0.12699999809E+01 0. -1.
       -4    1    3    3    0  502  0.63007033942E+03 -0.11495753678E+03  0.17647121433E+03  0.66433995083E+03  0.12699999809E+01 0.  1.
</event>
<event>
 5   0  0.2896652E-05  0.2532323E+04  0.7818609E-02  0.8391560E-01
        1   -1    0    0  501    0  0.00000000000E+00  0.00000000000E+00  0.20135672294E+04  0.20135672294E+04  0.50400001928E-02 0.  1.
       -1   -1    0    0    0  501  0.00000000000E+00  0.00000000000E+00 -0.79618121043E+03  0.79618121045E+03  0.50400001928E-02 0. -1.
    10030    2    1    2    0    0  0.00000000000E+00  0.00000000000E+00  0.12173860190E+04  0.28097484398E+04  0.25323225656E+04 0.  0.
        4    1    3    3  502    0  0.18312952862E+03  0.52846374728E+03  0.18690761489E+04  0.19509632543E+04  0.12699999809E+01 0.  1.
       -4    1    3    3    0  502 -0.18312952862E+03 -0.52846374728E+03 -0.65169012996E+03  0.85878518550E+03  0.12699999809E+01 0. -1.
</event>
<event>
 5   0  0.7071821E-05  0.2549705E+04  0.7818609E-02  0.8385489E-01
       -2   -1    0    0    0  501  0.00000000000E+00  0.00000000000E+00  0.71749441931E+03  0.71749441932E+03  0.25500000920E-02 0.  1.
        2   -1    0    0  501    0  0.00000000000E+00  0.00000000000E+00 -0.22651733990E+04  0.22651733990E+04  0.25500000920E-02 0. -1.
    10030    2    1    2    0    0  0.00000000000E+00  0.00000000000E+00 -0.15476789797E+04  0.29826678183E+04  0.25497052948E+04 0.  0.
        5    1    3    3  502    0  0.11671075166E+04  0.48861108868E+03 -0.95636877722E+03  0.15860466826E+04  0.46999998093E+01 0. -1.
       -5    1    3    3    0  502 -0.11671075166E+04 -0.48861108868E+03 -0.59131020244E+03  0.13966211357E+04  0.46999998093E+01 0.  1.
</event>
<event>
 5   0  0.2896652E-05  0.2433138E+04  0.7818609E-02  0.8427200E-01
       -1   -1    0    0    0  501  0.00000000000E+00  0.00000000000E+00  0.17335959940E+04  0.17335959940E+04  0.50400001928E-02 0.  1.
        1   -1    0    0  501    0  0.00000000000E+00  0.00000000000E+00 -0.85374010388E+03  0.85374010390E+03  0.50400001928E-02 0. -1.
    10030    2    1    2    0    0  0.00000000000E+00  0.00000000000E+00  0.87985589012E+03  0.25873360979E+04  0.24331382402E+04 0.  0.
        4    1    3    3  502    0  0.12392817702E+03 -0.10048527749E+04  0.11571747511E+04  0.15375767655E+04  0.12699999809E+01 0. -1.
       -4    1    3    3    0  502 -0.12392817702E+03  0.10048527749E+04 -0.27731886100E+03  0.10497593324E+04  0.12699999809E+01 0.  1.
</event>
<event>
 5   0  0.2980790E-05  0.1975755E+04  0.7818609E-02  0.8618041E-01
       -1   -1    0    0    0  501  0.00000000000E+00  0.00000000000E+00  0.94290367733E+03  0.94290367734E+03  0.50400001928E-02 0. -1.
        1   -1    0    0  501    0  0.00000000000E+00  0.00000000000E+00 -0.10349965195E+04  0.10349965195E+04  0.50400001928E-02 0.  1.
    10030    2    1    2    0    0  0.00000000000E+00  0.00000000000E+00 -0.92092842151E+02  0.19779001968E+04  0.19757550701E+04 0.  0.
        5    1    3    3  502    0  0.67168967616E+03 -0.43487602674E+03 -0.62598165849E+03  0.10159524135E+04  0.46999998093E+01 0.  1.
       -5    1    3    3    0  502 -0.67168967616E+03  0.43487602674E+03  0.53388881634E+03  0.96194778336E+03  0.46999998093E+01 0. -1.
</event>
<event>
 5   0  0.6445331E-05  0.2350263E+04  0.7818609E-02  0.8458363E-01
        2   -1    0    0  501    0  0.00000000000E+00  0.00000000000E+00  0.17898405875E+04  0.17898405875E+04  0.25500000920E-02 0.  1.
       -2   -1    0    0    0  501  0.00000000000E+00  0.00000000000E+00 -0.77154015808E+03  0.77154015808E+03  0.25500000920E-02 0. -1.
    10030    2    1    2    0    0  0.00000000000E+00  0.00000000000E+00  0.10183004294E+04  0.25613807455E+04  0.23502628702E+04 0.  0.
        1    1    3    3  502    0 -0.52104378046E+02 -0.75807172318E+03 -0.46777911876E+03  0.89230314785E+03  0.50400001928E-02 0. -1.
       -1    1    3    3    0  502  0.52104378046E+02  0.75807172318E+03  0.14860795481E+04  0.16690775977E+04  0.50400001928E-02 0.  1.
</event>
<event>
 5   0  0.2777539E-05  0.2507527E+04  0.7818609E-02  0.8400309E-01
       -1   -1    0    0    0  501  0.00000000000E+00  0.00000000000E+00  0.16180137044E+04  0.16180137044E+04  0.50400001928E-02 0.  1.
        1   -1    0    0  501    0  0.00000000000E+00  0.00000000000E+00 -0.97151423167E+03  0.97151423168E+03  0.50400001928E-02 0. -1.
    10030    2    1    2    0    0  0.00000000000E+00  0.00000000000E+00  0.64649947276E+03  0.25895279361E+04  0.25075273406E+04 0.  0.
        3    1    3    3  502    0 -0.65172919528E+03  0.10271431258E+04  0.97615740987E+01  0.12164987643E+04  0.10100000352E+00 0. -1.
       -3    1    3    3    0  502  0.65172919528E+03 -0.10271431258E+04  0.63673789866E+03  0.13730291718E+04  0.10100000352E+00 0.  1.
</event>
<event>
 5   0  0.6445331E-05  0.2127162E+04  0.7818609E-02  0.8549372E-01
       -2   -1    0    0    0  501  0.00000000000E+00  0.00000000000E+00  0.77516487035E+03  0.77516487035E+03  0.25500000920E-02 0. -1.
        2   -1    0    0  501    0  0.00000000000E+00  0.00000000000E+00 -0.14593080819E+04  0.14593080819E+04  0.25500000920E-02 0.  1.
    10030    2    1    2    0    0  0.00000000000E+00  0.00000000000E+00 -0.68414321160E+03  0.22344729523E+04  0.21271618275E+04 0.  0.
        1    1    3    3  502    0 -0.80951199793E+03 -0.33316603915E+03  0.29246776323E+03  0.92295540358E+03  0.50400001928E-02 0.  1.
       -1    1    3    3    0  502  0.80951199793E+03  0.33316603915E+03 -0.97661097483E+03  0.13115175487E+04  0.50400001928E-02 0. -1.
</event>
<event>
 5   0  0.2777539E-05  0.2475606E+04  0.7818609E-02  0.8411728E-01
        1   -1    0    0  501    0  0.00000000000E+00  0.00000000000E+00  0.17611091684E+04  0.17611091684E+04  0.50400001928E-02 0. -1.
       -1   -1    0    0    0  501  0.00000000000E+00  0.00000000000E+00 -0.86999535464E+03  0.86999535465E+03  0.50400001928E-02 0.  1.
    10030    2    1    2    0    0  0.00000000000E+00  0.00000000000E+00  0.89111381378E+03  0.26311045231E+04  0.24756064272E+04 0.  0.
        3    1    3    3  502    0  0.52623038353E+03 -0.48904908980E+03 -0.62576053722E+03  0.95271385469E+03  0.10100000352E+00 0.  1.
       -3    1    3    3    0  502 -0.52623038353E+03  0.48904908980E+03  0.15168743510E+04  0.16783906684E+04  0.10100000352E+00 0. -1.
</event>
<event>
 5   0  0.2980790E-05  0.1881204E+04  0.7818609E-02  0.8664269E-01
        1   -1    0    0  501    0  0.00000000000E+00  0.00000000000E+00  0.91100057895E+03  0.91100057896E+03  0.50400001928E-02 0.  1.
       -1   -1    0    0    0  501  0.00000000000E+00  0.00000000000E+00 -0.97116509176E+03  0.97116509177E+03  0.50400001928E-02 0. -1.
    10030    2    1    2    0    0  0.00000000000E+00  0.00000000000E+00 -0.60164512811E+02  0.18821656707E+04  0.18812038283E+04 0.  0.
        5    1    3    3  502    0  0.58424639375E+03  0.36473204867E+03 -0.67098495178E+03  0.96156966021E+03  0.46999998093E+01 0. -1.
       -5    1    3    3    0  502 -0.58424639375E+03 -0.36473204867E+03  0.61082043897E+03  0.92059601052E+03  0.46999998093E+01 0.  1.
</event>
<event>
 5   0  0.6909250E-05  0.2556861E+04  0.7818609E-02  0.8383004E-01
       -2   -1    0    0    0  501  0.00000000000E+00  0.00000000000E+00  0.15697276171E+04  0.15697276171E+04  0.25500000920E-02 0.  1.
        2   -1    0    0  501    0  0.00000000000E+00  0.00000000000E+00 -0.10411895657E+04  0.10411895657E+04  0.25500000920E-02 0. -1.
    10030    2    1    2    0    0  0.00000000000E+00  0.00000000000E+00  0.52853805140E+03  0.26109171827E+04  0.25568605874E+04 0.  0.
        4    1    3    3  502    0  0.21634355656E+03 -0.11715378729E+04 -0.20929958917E+03  0.12095922672E+04  0.12699999809E+01 0. -1.
       -4    1    3    3    0  502 -0.21634355656E+03  0.11715378729E+04  0.73783764056E+03  0.14013249155E+04  0.12699999809E+01 0.  1.
</event>
<event>
 5   0  0.6648328E-05  0.2437854E+04  0.7818609E-02  0.8425466E-01
       -2   -1    0    0    0  501  0.00000000000E+00  0.00000000000E+00  0.11482730906E+04  0.11482730906E+04  0.25500000920E-02 0.  1.
        2   -1    0    0  501    0  0.00000000000E+00  0.00000000000E+00 -0.12939277918E+04  0.12939277918E+04  0.25500000920E-02 0. -1.
    10030    2    1    2    0    0  0.00000000000E+00  0.00000000000E+00 -0.14565470120E+03  0.24422008824E+04  0.24378535350E+04 0.  0.
        2    1    3    3  502    0  0.90318726442E+02  0.12001319748E+04 -0.26632519292E+03  0.12326407983E+04  0.25500000920E-02 0. -1.
       -2    1    3    3    0  502 -0.90318726442E+02 -0.12001319748E+04  0.12067049172E+03  0.12095600840E+04  0.25500000920E-02 0.  1.
</event>
<event>
 5   0  0.2896652E-05  0.2672539E+04  0.7818609E-02  0.8343970E-01
       -1   -1    0    0    0  501  0.00000000000E+00  0.00000000000E+00  0.87585527546E+03  0.87585527548E+03  0.50400001928E-02 0.  1.
        1   -1    0    0  501    0  0.00000000000E+00  0.00000000000E+00 -0.20387115872E+04  0.20387115872E+04  0.50400001928E-02 0. -1.
    10030    2    1    2    0    0  0.00000000000E+00  0.00000000000E+00 -0.11628563117E+04  0.29145668627E+04  0.26725390914E+04 0.  0.
        4    1    3    3  502    0 -0.14979860310E+03 -0.57888925589E+02  0.86529211532E+03  0.88006977390E+03  0.12699999809E+01 0.  1.
       -4    1    3    3    0  502  0.14979860310E+03  0.57888925589E+02 -0.20281484270E+04  0.20344970888E+04  0.12699999809E+01 0. -1.
</event>
<event>
 5   0  0.7071821E-05  0.2433993E+04  0.7818609E-02  0.8426886E-01
        2   -1    0    0  501    0  0.00000000000E+00  0.00000000000E+00  0.10629771273E+04  0.10629771273E+04  0.25500000920E-02 0.  1.
       -2   -1    0    0    0  501  0.00000000000E+00  0.00000000000E+00 -0.13933323204E+04  0.13933323204E+04  0.25500000920E-02 0. -1.
    10030    2    1    2    0    0  0.00000000000E+00  0.00000000000E+00 -0.33035519312E+03  0.24563094477E+04  0.24339929230E+04 0.  0.
        5    1    3    3  502    0  0.42235729512E+03 -0.55996278275E+03  0.83848330607E+03  0.10931698621E+04  0.46999998093E+01 0.  1.
       -5    1    3    3    0  502 -0.42235729512E+03  0.55996278275E+03 -0.11688384992E+04  0.13631395857E+04  0.46999998093E+01 0. -1.
</event>
<event>
 5   0  0.2977854E-05  0.1750421E+04  0.7818609E-02  0.8733118E-01
        1   -1    0    0  501    0  0.00000000000E+00  0.00000000000E+00  0.10264698344E+04  0.10264698344E+04  0.50400001928E-02 0.  1.
       -1   -1    0    0    0  501  0.00000000000E+00  0.00000000000E+00 -0.74624072622E+03  0.74624072624E+03  0.50400001928E-02 0. -1.
    10030    2    1    2    0    0  0.00000000000E+00  0.00000000000E+00  0.28022910818E+03  0.17727105607E+04  0.17504212004E+04 0.  0.
        1    1    3    3  502    0  0.53187846553E+03  0.90320171259E+02  0.83804986488E+03  0.99668450950E+03  0.50400001928E-02 0.  1.
       -1    1    3    3    0  502 -0.53187846553E+03 -0.90320171259E+02 -0.55782075670E+03  0.77602605115E+03  0.50400001928E-02 0. -1.
</event>
<event>
 5   0  0.6909250E-05  0.2618030E+04  0.7818609E-02  0.8362103E-01
        2   -1    0    0  501    0  0.00000000000E+00  0.00000000000E+00  0.15577620700E+04  0.15577620700E+04  0.25500000920E-02 0. -1.
       -2   -1    0    0    0  501  0.00000000000E+00  0.00000000000E+00 -0.10999880325E+04  0.10999880325E+04  0.25500000920E-02 0.  1.
    10030    2    1    2    0    0  0.00000000000E+00  0.00000000000E+00  0.45777403751E+03  0.26577501024E+04  0.26180295143E+04 0.  0.
        4    1    3    3  502    0 -0.16829413515E+03 -0.55886184285E+03  0.14183586341E+04  0.15337510564E+04  0.12699999809E+01 0. -1.
       -4    1    3    3    0  502  0.16829413515E+03  0.55886184285E+03 -0.96058459657E+03  0.11239990460E+04  0.12699999809E+01 0.  1.
</event>
<event>
 5   0  0.2793920E-05  0.2503146E+04  0.7818609E-02  0.8401866E-01
       -1   -1    0    0    0  501  0.00000000000E+00  0.00000000000E+00  0.12996360990E+04  0.12996360990E+04  0.50400001928E-02 0. -1.
        1   -1    0    0  501    0  0.00000000000E+00  0.00000000000E+00 -0.12052869768E+04  0.12052869768E+04  0.50400001928E-02 0.  1.
    10030    2    1    2    0    0  0.00000000000E+00  0.00000000000E+00  0.94349122203E+02  0.25049230759E+04  0.25031455929E+04 0.  0.
        2    1    3    3  502    0 -0.19013092471E+03 -0.10611339321E+04  0.68345581629E+03  0.12764273749E+04  0.25500000920E-02 0. -1.
       -2    1    3    3    0  502  0.19013092471E+03  0.10611339321E+04 -0.58910669409E+03  0.12284957010E+04  0.25500000920E-02 0.  1.
</event>
<event>
 5   0  0.2793920E-05  0.2420766E+04  0.7818609E-02  0.8431770E-01
        1   -1    0    0  501    0  0.00000000000E+00  0.00000000000E+00  0.12028590001E+04  0.12028590001E+04  0.50400001928E-02 0.  1.
       -1   -1    0    0    0  501  0.00000000000E+00  0.00000000000E+00 -0.12179543211E+04  0.12179543211E+04  0.50400001928E-02 0. -1.
    10030    2    1    2    0    0  0.00000000000E+00  0.00000000000E+00 -0.15095320974E+02  0.24208133212E+04  0.24207662563E+04 0.  0.
        2    1    3    3  502    0  0.12067030343E+03 -0.70016467829E+02 -0.12098870050E+04  0.12179040162E+04  0.25500000920E-02 0. -1.
       -2    1    3    3    0  502 -0.12067030343E+03  0.70016467829E+02  0.11947916840E+04  0.12029093050E+04  0.25500000920E-02 0.  1.
</event>
<event>
 5   0  0.6648328E-05  0.2567787E+04  0.7818609E-02  0.8379226E-01
       -2   -1    0    0    0  501  0.00000000000E+00  0.00000000000E+00  0.13308573141E+04  0.13308573141E+04  0.25500000920E-02 0.  1.
        2   -1    0    0  501    0  0.00000000000E+00  0.00000000000E+00 -0.12385868750E+04  0.12385868750E+04  0.25500000920E-02 0. -1.
    10030    2    1    2    0    0  0.00000000000E+00  0.00000000000E+00  0.92270439113E+02  0.25694441892E+04  0.25677869085E+04 0.  0.
        2    1    3    3  502    0  0.11662686206E+04  0.18866760970E+03 -0.45678685450E+03  0.12666618305E+04  0.25500000920E-02 0. -1.
       -2    1    3    3    0  502 -0.11662686206E+04 -0.18866760970E+03  0.54905729361E+03  0.13027823587E+04  0.25500000920E-02 0.  1.
</event>
<event>
 5   0  0.2980790E-05  0.2495695E+04  0.7818609E-02  0.8404521E-01
        1   -1    0    0  501    0  0.00000000000E+00  0.00000000000E+00  0.16686805442E+04  0.16686805442E+04  0.50400001928E-02 0. -1.
       -1   -1    0    0    0  501  0.00000000000E+00  0.00000000000E+00 -0.93314633425E+03  0.93314633426E+03  0.50400001928E-02 0.  1.
    10030    2    1    2    0    0  0.00000000000E+00  0.00000000000E+00  0.73553420992E+03  0.26018268784E+04  0.24956947993E+04 0.  0.
        5    1    3    3  502    0 -0.52522637807E+03 -0.38501383811E+03 -0.74192470977E+03  0.98720452224E+03  0.46999998093E+01 0.  1.
       -5    1    3    3    0  502  0.52522637807E+03  0.38501383811E+03  0.14774589197E+04  0.16146223562E+04  0.46999998093E+01 0. -1.
</event>
<event>
 5   0  0.2896652E-05  0.2569136E+04  0.7818609E-02  0.8378761E-01
       -1   -1    0    0    0  501  0.00000000000E+00  0.00000000000E+00  0.16542824828E+04  0.16542824828E+04  0.50400001928E-02 0. -1.
        1   -1    0    0  501    0  0.00000000000E+00  0.00000000000E+00 -0.99748112931E+03  0.99748112932E+03  0.50400001928E-02 0.  1.
    10030    2    1    2    0    0  0.00000000000E+00  0.00000000000E+00  0.65680135348E+03  0.26517636121E+04  0.25691364768E+04 0.  0.
        4    1    3    3  502    0  0.92178242594E+02  0.12494461301E+04  0.62125361068E+03  0.13984170058E+04  0.12699999809E+01 0. -1.
       -4    1    3    3    0  502 -0.92178242594E+02 -0.12494461301E+04  0.35547742803E+02  0.12533466063E+04  0.12699999809E+01 0.  1.
</event>
<event>
 5   0  0.2980790E-05  0.2135858E+04  0.7818609E-02  0.8545610E-01
       -1   -1    0    0    0  501  0.00000000000E+00  0.00000000000E+00  0.47957978850E+03  0.47957978852E+03  0.50400001928E-02 0.  1.
        1   -1    0    0  501    0  0.00000000000E+00  0.00000000000E+00 -0.23780657383E+04  0.23780657383E+04  0.50400001928E-02 0. -1.
    10030    2    1    2    0    0  0.00000000000E+00  0.00000000000E+00 -0.18984859498E+04  0.28576455268E+04  0.21358579202E+04 0.  0.
        5    1    3    3  502    0  0.53464402604E+03 -0.11448036873E+03 -0.21765779333E+04  0.22442066703E+04  0.46999998093E+01 0. -1.
       -5    1    3    3    0  502 -0.53464402604E+03  0.11448036873E+03  0.27809198349E+03  0.61343885651E+03  0.46999998093E+01 0.  1.
</event>
<event>
 5   0  0.6648328E-05  0.2473765E+04  0.7818609E-02  0.8412392E-01
        2   -1    0    0  501    0  0.00000000000E+00  0.00000000000E+00  0.21370903210E+04  0.21370903210E+04  0.25500000920E-02 0. -1.
       -2   -1    0    0    0  501  0.00000000000E+00  0.00000000000E+00 -0.71586991776E+03  0.71586991776E+03  0.25500000920E-02 0.  1.
    10030    2    1    2    0    0  0.00000000000E+00  0.00000000000E+00  0.14212204033E+04  0.28529602388E+04  0.24737652858E+04 0.  0.
        2    1    3    3  502    0 -0.12358428461E+04 -0.30235916665E+02  0.75755507760E+03  0.14498660098E+04  0.25500000920E-02 0. -1.
       -2    1    3    3    0  502  0.12358428461E+04  0.30235916665E+02  0.66366532567E+03  0.14030942290E+04  0.25500000920E-02 0.  1.
</event>
<event>
 5   0  0.6648328E-05  0.2453927E+04  0.7818609E-02  0.8419585E-01
       -2   -1    0    0    0  501  0.00000000000E+00  0.00000000000E+00  0.61775013845E+03  0.61775013845E+03  0.25500000920E-02 0. -1.
        2   -1    0    0  501    0  0.00000000000E+00  0.00000000000E+00 -0.24369722077E+04  0.24369722077E+04  0.25500000920E-02 0.  1.
    10030    2    1    2    0    0  0.00000000000E+00  0.00000000000E+00 -0.18192220692E+04  0.30547223461E+04  0.24539273980E+04 0.  0.
        2    1    3    3  502    0 -0.11866960731E+04  0.31167330124E+03 -0.90062563261E+03  0.15220099693E+04  0.25500000920E-02 0.  1.
       -2    1    3    3    0  502  0.11866960731E+04 -0.31167330124E+03 -0.91859643660E+03  0.15327123768E+04  0.25500000920E-02 0. -1.
</event>
<event>
 5   0  0.2977854E-05  0.2558682E+04  0.7818609E-02  0.8382373E-01
        1   -1    0    0  501    0  0.00000000000E+00  0.00000000000E+00  0.15109292441E+04  0.15109292441E+04  0.50400001928E-02 0. -1.
       -1   -1    0    0    0  501  0.00000000000E+00  0.00000000000E+00 -0.10832491549E+04  0.10832491549E+04  0.50400001928E-02 0.  1.
    10030    2    1    2    0    0  0.00000000000E+00  0.00000000000E+00  0.42768008915E+03  0.25941783990E+04  0.25586815565E+04 0.  0.
        1    1    3    3  502    0  0.78516170110E+03  0.18317708712E+03  0.12209381555E+04  0.14631208842E+04  0.50400001928E-02 0. -1.
       -1    1    3    3    0  502 -0.78516170110E+03 -0.18317708712E+03 -0.79325806634E+03  0.11310575149E+04  0.50400001928E-02 0.  1.
</event>
<event>
 5   0  0.6827859E-05  0.2433681E+04  0.7818609E-02  0.8427000E-01
       -2   -1    0    0    0  501  0.00000000000E+00  0.00000000000E+00  0.91256914213E+03  0.91256914214E+03  0.25500000920E-02 0. -1.
        2   -1    0    0  501    0  0.00000000000E+00  0.00000000000E+00 -0.16225635035E+04  0.16225635035E+04  0.25500000920E-02 0.  1.
    10030    2    1    2    0    0  0.00000000000E+00  0.00000000000E+00 -0.70999436132E+03  0.25351326456E+04  0.24336814783E+04 0.  0.
        3    1    3    3  502    0  0.34697653552E+03  0.90921913592E+03  0.40595392506E+03  0.10544528215E+04  0.10100000352E+00 0. -1.
       -3    1    3    3    0  502 -0.34697653552E+03 -0.90921913592E+03 -0.11159482864E+04  0.14806798241E+04  0.10100000352E+00 0.  1.
</event>
<event>
 5   0  0.6827859E-05  0.1281508E+04  0.7818609E-02  0.9044360E-01
       -2   -1    0    0    0  501  0.00000000000E+00  0.00000000000E+00  0.23148617881E+03  0.23148617883E+03  0.25500000920E-02 0.  1.
        2   -1    0    0  501    0  0.00000000000E+00  0.00000000000E+00 -0.17736069103E+04  0.17736069103E+04  0.25500000920E-02 0. -1.
    10030    2    1    2    0    0  0.00000000000E+00  0.00000000000E+00 -0.15421207315E+04  0.20050930891E+04  0.12815076846E+04 0.  0.
        3    1    3    3  502    0 -0.41353287386E+03  0.23859740148E+03 -0.10241444949E+03  0.48828975765E+03  0.10100000352E+00 0.  1.
       -3    1    3    3    0  502  0.41353287386E+03 -0.23859740148E+03 -0.14397062820E+04  0.15168033315E+04  0.10100000352E+00 0. -1.
</event>
<event>
 5   0  0.6909250E-05  0.2717914E+04  0.7818609E-02  0.8329216E-01
       -2   -1    0    0    0  501  0.00000000000E+00  0.00000000000E+00  0.14950965942E+04  0.14950965942E+04  0.25500000920E-02 0. -1.
        2   -1    0    0  501    0  0.00000000000E+00  0.00000000000E+00 -0.12352134809E+04  0.12352134809E+04  0.25500000920E-02 0.  1.
    10030    2    1    2    0    0  0.00000000000E+00  0.00000000000E+00  0.25988311334E+03  0.27303100752E+04  0.27179135148E+04 0.  0.
        4    1    3    3  502    0  0.53226481830E+03  0.18045978971E+03 -0.11129933123E+04  0.12468469427E+04  0.12699999809E+01 0.  1.
       -4    1    3    3    0  502 -0.53226481830E+03 -0.18045978971E+03  0.13728764256E+04  0.14834631325E+04  0.12699999809E+01 0. -1.
</event>
<event>
 5   0  0.2896652E-05  0.2507523E+04  0.7818609E-02  0.8400310E-01
       -1   -1    0    0    0  501  0.00000000000E+00  0.00000000000E+00  0.82877834861E+03  0.82877834862E+03  0.50400001928E-02 0. -1.
        1   -1    0    0  501    0  0.00000000000E+00  0.00000000000E+00 -0.18966690690E+04  0.18966690690E+04  0.50400001928E-02 0.  1.
    10030    2    1    2    0    0  0.00000000000E+00  0.00000000000E+00 -0.10678907204E+04  0.27254474176E+04  0.25075232871E+04 0.  0.
        4    1    3    3  502    0 -0.92665679126E+03  0.71138795395E+03 -0.39251674979E+02  0.11688917558E+04  0.12699999809E+01 0. -1.
       -4    1    3    3    0  502  0.92665679126E+03 -0.71138795395E+03 -0.10286390454E+04  0.15565556619E+04  0.12699999809E+01 0.  1.
</event>
<event>
 5   0  0.2896652E-05  0.2459467E+04  0.7818609E-02  0.8417570E-01
        1   -1    0    0  501    0  0.00000000000E+00  0.00000000000E+00  0.20624232745E+04  0.20624232745E+04  0.50400001928E-02 0. -1.
       -1   -1    0    0    0  501  0.00000000000E+00  0.00000000000E+00 -0.73323681283E+03  0.73323681285E+03  0.50400001928E-02 0.  1.
    10030    2    1    2    0    0  0.00000000000E+00  0.00000000000E+00  0.13291864617E+04  0.27956600874E+04  0.24594671525E+04 0.  0.
        4    1    3    3  502    0  0.78089670884E+03  0.81687406242E+03  0.12158135339E+04  0.16599057401E+04  0.12699999809E+01 0. -1.
       -4    1    3    3    0  502 -0.78089670884E+03 -0.81687406242E+03  0.11337292774E+03  0.11357543473E+04  0.12699999809E+01 0.  1.
</event>
<event>
 5   0  0.7071821E-05  0.1975357E+04  0.7818609E-02  0.8618229E-01
        2   -1    0    0  501    0  0.00000000000E+00  0.00000000000E+00  0.38809201663E+03  0.38809201663E+03  0.25500000920E-02 0. -1.
       -2   -1    0    0    0  501  0.00000000000E+00  0.00000000000E+00 -0.25136028726E+04  0.25136028726E+04  0.25500000920E-02 0.  1.
    10030    2    1    2    0    0  0.00000000000E+00  0.00000000000E+00 -0.21255108560E+04  0.29016948893E+04  0.19753573933E+04 0.  0.
        5    1    3    3  502    0  0.84884653202E+02  0.13943871100E+03  0.36812131660E+03  0.40272068758E+03  0.46999998093E+01 0. -1.
       -5    1    3    3    0  502 -0.84884653202E+02 -0.13943871100E+03 -0.24936321726E+04  0.24989742017E+04  0.46999998093E+01 0.  1.
</event>
<event>
 5   0  0.2896652E-05  0.2325733E+04  0.7818609E-02  0.8467844E-01
        1   -1    0    0  501    0  0.00000000000E+00  0.00000000000E+00  0.24932141078E+04  0.24932141078E+04  0.50400001928E-02 0.  1.
       -1   -1    0    0    0  501  0.00000000000E+00  0.00000000000E+00 -0.54237560787E+03  0.54237560789E+03  0.50400001928E-02 0. -1.
    10030    2    1    2    0    0  0.00000000000E+00  0.00000000000E+00  0.19508384999E+04  0.30355897157E+04  0.23257330176E+04 0.  0.
        4    1    3    3  502    0  0.47349884046E+03  0.86753013066E+02 -0.40622073742E+03  0.62987628753E+03  0.12699999809E+01 0. -1.
       -4    1    3    3    0  502 -0.47349884046E+03 -0.86753013066E+02  0.23570592374E+04  0.24057134282E+04  0.12699999809E+01 0.  1.
</event>
<event>
 5   0  0.6827859E-05  0.2478536E+04  0.7818609E-02  0.8410672E-01
       -2   -1    0    0    0  501  0.00000000000E+00  0.00000000000E+00  0.78271070507E+03  0.78271070508E+03  0.25500000920E-02 0.  1.
        2   -1    0    0  501    0  0.00000000000E+00  0.00000000000E+00 -0.19621370440E+04  0.19621370440E+04  0.25500000920E-02 0. -1.
    10030    2    1    2    0    0  0.00000000000E+00  0.00000000000E+00 -0.11794263389E+04  0.27448477490E+04  0.24785363981E+04 0.  0.
        3    1    3    3  502    0  0.77760275009E+03 -0.35378668216E+03  0.40449711128E+03  0.94522429965E+03  0.10100000352E+00 0.  1.
       -3    1    3    3    0  502 -0.77760275009E+03  0.35378668216E+03 -0.15839234502E+04  0.17996234494E+04  0.10100000352E+00 0. -1.
</event>
<event>
 5   0  0.6827859E-05  0.2085036E+04  0.7818609E-02  0.8567864E-01
       -2   -1    0    0    0  501  0.00000000000E+00  0.00000000000E+00  0.68921889372E+03  0.68921889372E+03  0.25500000920E-02 0.  1.
        2   -1    0    0  501    0  0.00000000000E+00  0.00000000000E+00 -0.15769208483E+04  0.15769208483E+04  0.25500000920E-02 0. -1.
    10030    2    1    2    0    0  0.00000000000E+00  0.00000000000E+00 -0.88770195462E+03  0.22661397421E+04  0.20850358679E+04 0.  0.
        3    1    3    3  502    0  0.74849726435E+03  0.15211110201E+03 -0.12150290036E+04  0.14351590267E+04  0.10100000352E+00 0. -1.
       -3    1    3    3    0  502 -0.74849726435E+03 -0.15211110201E+03  0.32732704900E+03  0.83098071536E+03  0.10100000352E+00 0.  1.
</event>
<event>
 5   0  0.2896652E-05  0.2539856E+04  0.7818609E-02  0.8388923E-01
       -1   -1    0    0    0  501  0.00000000000E+00  0.00000000000E+00  0.66017254060E+03  0.66017254062E+03  0.50400001928E-02 0. -1.
        1   -1    0    0  501    0  0.00000000000E+00  0.00000000000E+00 -0.24428726341E+04  0.24428726341E+04  0.50400001928E-02 0.  1.
    10030    2    1    2    0    0  0.00000000000E+00  0.00000000000E+00 -0.17827000935E+04  0.31030451747E+04  0.25398562426E+04 0.  0.
        4    1    3    3  502    0 -0.11985974894E+04 -0.41518070608E+03 -0.96571440927E+03  0.15942449290E+04  0.12699999809E+01 0. -1.
       -4    1    3    3    0  502  0.11985974894E+04  0.41518070608E+03 -0.81698568420E+03  0.15088002457E+04  0.12699999809E+01 0.  1.
</event>
<event>
 5   0  0.2777539E-05  0.2506986E+04  0.7818609E-02  0.8400501E-01
       -1   -1    0    0    0  501  0.00000000000E+00  0.00000000000E+00  0.11017618528E+04  0.11017618528E+04  0.50400001928E-02 0. -1.
        1   -1    0    0  501    0  0.00000000000E+00  0.00000000000E+00 -0.14261201871E+04  0.14261201871E+04  0.50400001928E-02 0.  1.
    10030    2    1    2    0    0  0.00000000000E+00  0.00000000000E+00 -0.32435833429E+03  0.25278820399E+04  0.25069860946E+04 0.  0.
        3    1    3    3  502    0  0.61380662124E+03 -0.55344522469E+03  0.78811158877E+03  0.11420070366E+04  0.10100000352E+00 0. -1.
       -3    1    3    3    0  502 -0.61380662124E+03  0.55344522469E+03 -0.11124699231E+04  0.13858750033E+04  0.10100000352E+00 0.  1.
</event>
<event>
 5   0  0.2896652E-05  0.2489598E+04  0.7818609E-02  0.8406701E-01
       -1   -1    0    0    0  501  0.00000000000E+00  0.00000000000E+00  0.69455092912E+03  0.69455092914E+03  0.50400001928E-02 0. -1.
        1   -1    0    0  501    0  0.00000000000E+00  0.00000000000E+00 -0.22309729644E+04  0.22309729644E+04  0.50400001928E-02 0.  1.
    10030    2    1    2    0    0  0.00000000000E+00  0.00000000000E+00 -0.15364220353E+04  0.29255238936E+04  0.24895978352E+04 0.  0.
        4    1    3    3  502    0  0.17243891453E+03 -0.11493125319E+04 -0.12922422667E+04  0.17379718536E+04  0.12699999809E+01 0.  1.
       -4    1    3    3    0  502 -0.17243891453E+03  0.11493125319E+04 -0.24417976861E+03  0.11875520399E+04  0.12699999809E+01 0. -1.
</event>
<event>
 5   0  0.7071821E-05  0.2142175E+04  0.7818609E-02  0.8542889E-01
        2   -1    0    0  501    0  0.00000000000E+00  0.00000000000E+00  0.11951485626E+04  0.11951485626E+04  0.25500000920E-02 0.  1.
       -2   -1    0    0    0  501  0.00000000000E+00  0.00000000000E+00 -0.95990419474E+03  0.95990419474E+03  0.25500000920E-02 0. -1.
    10030    2    1    2    0    0  0.00000000000E+00  0.00000000000E+00  0.23524436785E+03  0.21550527573E+04  0.21421747068E+04 0.  0.
        5    1    3    3  502    0  0.34944268932E+03 -0.95674024450E+03  0.45088993696E+03  0.11139057024E+04  0.46999998093E+01 0.  1.
       -5    1    3    3    0  502 -0.34944268932E+03  0.95674024450E+03 -0.21564556911E+03  0.10411470549E+04  0.46999998093E+01 0. -1.
</event>
<event>
 5   0  0.2896652E-05  0.2549224E+04  0.7818609E-02  0.8385656E-01
        1   -1    0    0  501    0  0.00000000000E+00  0.00000000000E+00  0.89921096981E+03  0.89921096982E+03  0.50400001928E-02 0. -1.
       -1   -1    0    0    0  501  0.00000000000E+00  0.00000000000E+00 -0.18067353054E+04  0.18067353054E+04  0.50400001928E-02 0.  1.
    10030    2    1    2    0    0  0.00000000000E+00  0.00000000000E+00 -0.90752433563E+03  0.27059462753E+04  0.25492243575E+04 0.  0.
        4    1    3    3  502    0 -0.68985209272E+03  0.29712240104E+03 -0.15468564791E+04  0.17195767534E+04  0.12699999809E+01 0.  1.
       -4    1    3    3    0  502  0.68985209272E+03 -0.29712240104E+03  0.63933214349E+03  0.98636952184E+03  0.12699999809E+01 0. -1.
</event>
<event>
 5   0  0.2793920E-05  0.2533169E+04  0.7818609E-02  0.8391263E-01
        1   -1    0    0  501    0  0.00000000000E+00  0.00000000000E+00  0.17712553323E+04  0.17712553323E+04  0.50400001928E-02 0.  1.
       -1   -1    0    0    0  501  0.00000000000E+00  0.00000000000E+00 -0.90570585966E+03  0.90570585968E+03  0.50400001928E-02 0. -1.
    10030    2    1    2    0    0  0.00000000000E+00  0.00000000000E+00  0.86554947267E+03  0.26769611920E+04  0.25331690299E+04 0.  0.
        2    1    3    3  502    0  0.47669533213E+03 -0.73523853628E+03 -0.53370038289E+03  0.10259874481E+04  0.25500000920E-02 0. -1.
       -2    1    3    3    0  502 -0.47669533213E+03  0.73523853628E+03  0.13992498556E+04  0.16509737439E+04  0.25500000920E-02 0.  1.
</event>
<event>
 5   0  0.2980790E-05  0.2516673E+04  0.7818609E-02  0.8397070E-01
        1   -1    0    0  501    0  0.00000000000E+00  0.00000000000E+00  0.13123092038E+04  0.13123092038E+04  0.50400001928E-02 0. -1.
       -1   -1    0    0    0  501  0.00000000000E+00  0.00000000000E+00 -0.12065838178E+04  0.12065838178E+04  0.50400001928E-02 0.  1.
    10030    2    1    2    0    0  0.00000000000E+00  0.00000000000E+00  0.10572538599E+03  0.25188930216E+04  0.25166732400E+04 0.  0.
        5    1    3    3  502    0  0.69294716936E+03 -0.90593486721E+03 -0.47910887996E+03  0.12371180914E+04  0.46999998093E+01 0.  1.
       -5    1    3    3    0  502 -0.69294716936E+03  0.90593486721E+03  0.58483426595E+03  0.12817749302E+04  0.46999998093E+01 0. -1.
</event>
<event>
 5   0  0.6648328E-05  0.2398801E+04  0.7818609E-02  0.8439953E-01
       -2   -1    0    0    0  501  0.00000000000E+00  0.00000000000E+00  0.14207328050E+04  0.14207328050E+04  0.25500000920E-02 0.  1.
        2   -1    0    0  501    0  0.00000000000E+00  0.00000000000E+00 -0.10125491455E+04  0.10125491455E+04  0.25500000920E-02 0. -1.
    10030    2    1    2    0    0  0.00000000000E+00  0.00000000000E+00  0.40818365947E+03  0.24332819505E+04  0.23988011904E+04 0.  0.
        2    1    3    3  502    0  0.10281410611E+04  0.26704190783E+03  0.76903209625E+03  0.13114098471E+04  0.25500000920E-02 0.  1.
       -2    1    3    3    0  502 -0.10281410611E+04 -0.26704190783E+03 -0.36084843678E+03  0.11218721034E+04  0.25500000920E-02 0. -1.
</event>
<event>
 5   0  0.6909250E-05  0.2488516E+04  0.7818609E-02  0.8407088E-01
        2   -1    0    0  501    0  0.00000000000E+00  0.00000000000E+00  0.12554581509E+04  0.12554581509E+04  0.25500000920E-02 0.  1.
       -2   -1    0    0    0  501  0.00000000000E+00  0.00000000000E+00 -0.12331581050E+04  0.12331581051E+04  0.25500000920E-02 0. -1.
    10030    2    1    2    0    0  0.00000000000E+00  0.00000000000E+00  0.22300045804E+02  0.24886162559E+04  0.24885163405E+04 0.  0.
        4    1    3    3  502    0 -0.29540732313E+03  0.55042474869E+03 -0.10649711956E+04  0.12346651979E+04  0.12699999809E+01 0. -1.
       -4    1    3    3    0  502  0.29540732313E+03 -0.55042474869E+03  0.10872712414E+04  0.12539510580E+04  0.12699999809E+01 0.  1.
</event>
<event>
 5   0  0.6827859E-05  0.2539622E+04  0.7818609E-02  0.8389004E-01
        2   -1    0    0  501    0  0.00000000000E+00  0.00000000000E+00  0.14614839925E+04  0.14614839925E+04  0.25500000920E-02 0.  1.
       -2   -1    0    0    0  501  0.00000000000E+00  0.00000000000E+00 -0.11032758704E+04  0.11032758704E+04  0.25500000920E-02 0. -1.
    10030    2    1    2    0    0  0.00000000000E+00  0.00000000000E+00  0.35820812207E+03  0.25647598629E+04  0.25396220380E+04 0.  0.
        3    1    3    3  502    0  0.12155307659E+02 -0.94403874364E+03  0.10366635584E+04  0.14021512916E+04  0.10100000352E+00 0.  1.
       -3    1    3    3    0  502 -0.12155307659E+02  0.94403874364E+03 -0.67845543629E+03  0.11626085714E+04  0.10100000352E+00 0. -1.
</event>
<event>
 5   0  0.2977854E-05  0.2464681E+04  0.7818609E-02  0.8415677E-01
        1   -1    0    0  501    0  0.00000000000E+00  0.00000000000E+00  0.21663724856E+04  0.21663724856E+04  0.50400001928E-02 0. -1.
       -1   -1    0    0    0  501  0.00000000000E+00  0.00000000000E+00 -0.70101634067E+03  0.70101634069E+03  0.50400001928E-02 0.  1.
    10030    2    1    2    0    0  0.00000000000E+00  0.00000000000E+00  0.14653561449E+04  0.28673888263E+04  0.24646805167E+04 0.  0.
        1    1    3    3  502    0 -0.89925770526E+03 -0.46072529269E+03  0.15534509466E+04  0.18531438313E+04  0.50400001928E-02 0. -1.
       -1    1    3    3    0  502  0.89925770526E+03  0.46072529269E+03 -0.88094801701E+02  0.10142449950E+04  0.50400001928E-02 0.  1.
</event>
<event>
 5   0  0.2777539E-05  0.2533731E+04  0.7818609E-02  0.8391066E-01
        1   -1    0    0  501    0  0.00000000000E+00  0.00000000000E+00  0.12547318620E+04  0.12547318621E+04  0.50400001928E-02 0.  1.
       -1   -1    0    0    0  501  0.00000000000E+00  0.00000000000E+00 -0.12791165451E+04  0.12791165451E+04  0.50400001928E-02 0. -1.
    10030    2    1    2    0    0  0.00000000000E+00  0.00000000000E+00 -0.24384683024E+02  0.25338484071E+04  0.25337310705E+04 0.  0.
        3    1    3    3  502    0 -0.42885554211E+03  0.22601726847E+02  0.11797187002E+04  0.12554537569E+04  0.10100000352E+00 0.  1.
       -3    1    3    3    0  502  0.42885554211E+03 -0.22601726847E+02 -0.12041033832E+04  0.12783946502E+04  0.10100000352E+00 0. -1.
</event>
<event>
 5   0  0.2980790E-05  0.2463921E+04  0.7818609E-02  0.8415953E-01
       -1   -1    0    0    0  501  0.00000000000E+00  0.00000000000E+00  0.16911520170E+04  0.16911520170E+04  0.50400001928E-02 0. -1.
        1   -1    0    0  501    0  0.00000000000E+00  0.00000000000E+00 -0.89745100903E+03  0.89745100905E+03  0.50400001928E-02 0.  1.
    10030    2    1    2    0    0  0.00000000000E+00  0.00000000000E+00  0.79370100798E+03  0.25886030261E+04  0.24639205216E+04 0.  0.
        5    1    3    3  502    0 -0.53502239333E+03 -0.41057779872E+03 -0.68628068605E+03  0.96219871139E+03  0.46999998093E+01 0.  1.
       -5    1    3    3    0  502  0.53502239333E+03  0.41057779872E+03  0.14799816940E+04  0.16264043147E+04  0.46999998093E+01 0. -1.
</event>
<event>
 5   0  0.2980790E-05  0.2456165E+04  0.7818609E-02  0.8418771E-01
        1   -1    0    0  501    0  0.00000000000E+00  0.00000000000E+00  0.12602591550E+04  0.12602591550E+04  0.50400001928E-02 0. -1.
       -1   -1    0    0    0  501  0.00000000000E+00  0.00000000000E+00 -0.11967270052E+04  0.11967270052E+04  0.50400001928E-02 0.  1.
    10030    2    1    2    0    0  0.00000000000E+00  0.00000000000E+00  0.63532149790E+02  0.24569861602E+04  0.24561646234E+04 0.  0.
        5    1    3    3  502    0 -0.49545352067E+03  0.49734956807E+03 -0.97620843883E+03  0.12024291206E+04  0.46999998093E+01 0.  1.
       -5    1    3    3    0  502  0.49545352067E+03 -0.49734956807E+03  0.10397405886E+04  0.12545570396E+04  0.46999998093E+01 0. -1.
</event>
<event>
 5   0  0.6648328E-05  0.2428903E+04  0.7818609E-02  0.8428761E-01
        2   -1    0    0  501    0  0.00000000000E+00  0.00000000000E+00  0.15686050973E+04  0.15686050973E+04  0.25500000920E-02 0. -1.
       -2   -1    0    0    0  501  0.00000000000E+00  0.00000000000E+00 -0.94025723371E+03  0.94025723372E+03  0.25500000920E-02 0.  1.
    10030    2    1    2    0    0  0.00000000000E+00  0.00000000000E+00  0.62834786359E+03  0.25088623310E+04  0.24289028713E+04 0.  0.
        2    1    3    3  502    0  0.44350661591E+02  0.10805174939E+04 -0.25665549921E+03  0.11114661853E+04  0.25500000920E-02 0.  1.
       -2    1    3    3    0  502 -0.44350661591E+02 -0.10805174939E+04  0.88500336280E+03  0.13973961457E+04  0.25500000920E-02 0. -1.
</event>
<event>
 5   0  0.6648328E-05  0.2420216E+04  0.7818609E-02  0.8431973E-01
        2   -1    0    0  501    0  0.00000000000E+00  0.00000000000E+00  0.14826566815E+04  0.14826566815E+04  0.25500000920E-02 0.  1.
       -2   -1    0    0    0  501  0.00000000000E+00  0.00000000000E+00 -0.98766078801E+03  0.98766078802E+03  0.25500000920E-02 0. -1.
    10030    2    1    2    0    0  0.00000000000E+00  0.00000000000E+00  0.49499589351E+03  0.24703174695E+04  0.24202164089E+04 0.  0.
        2    1    3    3  502    0 -0.18990449972E+03  0.25553967449E+02 -0.97207759037E+03  0.99078330929E+03  0.25500000920E-02 0. -1.
       -2    1    3    3    0  502  0.18990449972E+03 -0.25553967449E+02  0.14670734839E+04  0.14795341603E+04  0.25500000920E-02 0.  1.
</event>
<event>
 5   0  0.2777539E-05  0.2481675E+04  0.7818609E-02  0.8409543E-01
        1   -1    0    0  501    0  0.00000000000E+00  0.00000000000E+00  0.11738091729E+04  0.11738091729E+04  0.50400001928E-02 0.  1.
       -1   -1    0    0    0  501  0.00000000000E+00  0.00000000000E+00 -0.13116928962E+04  0.13116928962E+04  0.50400001928E-02 0. -1.
    10030    2    1    2    0    0  0.00000000000E+00  0.00000000000E+00 -0.13788372333E+03  0.24855020692E+04  0.24816745586E+04 0.  0.
        3    1    3    3  502    0 -0.79388857921E+03 -0.94192435237E+03 -0.21815681556E+03  0.12510287639E+04  0.10100000352E+00 0. -1.
       -3    1    3    3    0  502  0.79388857921E+03  0.94192435237E+03  0.80273092223E+02  0.12344733052E+04  0.10100000352E+00 0.  1.
</event>
<event>
 5   0  0.2977854E-05  0.2482756E+04  0.7818609E-02  0.8409155E-01
       -1   -1    0    0    0  501  0.00000000000E+00  0.00000000000E+00  0.14818404173E+04  0.14818404173E+04  0.50400001928E-02 0.  1.
        1   -1    0    0  501    0  0.00000000000E+00  0.00000000000E+00 -0.10399357893E+04  0.10399357893E+04  0.50400001928E-02 0. -1.
    10030    2    1    2    0    0  0.00000000000E+00  0.00000000000E+00  0.44190462803E+03  0.25217762067E+04  0.24827556336E+04 0.  0.
        1    1    3    3  502    0  0.39159577438E+03 -0.45106434317E+03 -0.88436609717E+03  0.10671971168E+04  0.50400001928E-02 0. -1.
       -1    1    3    3    0  502 -0.39159577438E+03  0.45106434317E+03  0.13262707252E+04  0.14545790899E+04  0.50400001928E-02 0.  1.
</event>
<event>
 5   0  0.6445331E-05  0.2508369E+04  0.7818609E-02  0.8400010E-01
        2   -1    0    0  501    0  0.00000000000E+00  0.00000000000E+00  0.18843750962E+04  0.18843750962E+04  0.25500000920E-02 0.  1.
       -2   -1    0    0    0  501  0.00000000000E+00  0.00000000000E+00 -0.83474838438E+03  0.83474838439E+03  0.25500000920E-02 0. -1.
    10030    2    1    2    0    0  0.00000000000E+00  0.00000000000E+00  0.10496267118E+04  0.27191234806E+04  0.25083692448E+04 0.  0.
        1    1    3    3  502    0  0.91329075628E+03  0.21370758585E+03  0.14273592326E+04  0.17079594014E+04  0.50400001928E-02 0.  1.
       -1    1    3    3    0  502 -0.91329075628E+03 -0.21370758585E+03 -0.37773252082E+03  0.10111640792E+04  0.50400001928E-02 0. -1.
</event>
<event>
 5   0  0.7071821E-05  0.2476438E+04  0.7818609E-02  0.8411428E-01
       -2   -1    0    0    0  501  0.00000000000E+00  0.00000000000E+00  0.79421902508E+03  0.79421902508E+03  0.25500000920E-02 0. -1.
        2   -1    0    0  501    0  0.00000000000E+00  0.00000000000E+00 -0.19304319406E+04  0.19304319406E+04  0.25500000920E-02 0.  1.
    10030    2    1    2    0    0  0.00000000000E+00  0.00000000000E+00 -0.11362129156E+04  0.27246509657E+04  0.24764375816E+04 0.  0.
        5    1    3    3  502    0  0.67500984836E+03  0.65491605876E+03  0.31797862509E+03  0.99281712083E+03  0.46999998093E+01 0. -1.
       -5    1    3    3    0  502 -0.67500984836E+03 -0.65491605876E+03 -0.14541915407E+04  0.17318338449E+04  0.46999998093E+01 0.  1.
</event>
<event>
 5   0  0.2793920E-05  0.2396246E+04  0.7818609E-02  0.8440911E-01
        1   -1    0    0  501    0  0.00000000000E+00  0.00000000000E+00  0.87537474533E+03  0.87537474534E+03  0.50400001928E-02 0.  1.
       -1   -1    0    0    0  501  0.00000000000E+00  0.00000000000E+00 -0.16398669898E+04  0.16398669898E+04  0.50400001928E-02 0. -1.
    10030    2    1    2    0    0  0.00000000000E+00  0.00000000000E+00 -0.76449224447E+03  0.25152417352E+04  0.23962455205E+04 0.  0.
        2    1    3    3  502    0  0.26784458701E+03 -0.41546624344E+03  0.76334799260E+03  0.90942458733E+03  0.25500000920E-02 0.  1.
       -2    1    3    3    0  502 -0.26784458701E+03  0.41546624344E+03 -0.15278402371E+04  0.16058171478E+04  0.25500000920E-02 0. -1.
</event>
<event>
 5   0  0.2793920E-05  0.2493691E+04  0.7818609E-02  0.8405237E-01
       -1   -1    0    0    0  501  0.00000000000E+00  0.00000000000E+00  0.10347141889E+04  0.10347141889E+04  0.50400001928E-02 0.  1.
        1   -1    0    0  501    0  0.00000000000E+00  0.00000000000E+00 -0.15024669105E+04  0.15024669105E+04  0.50400001928E-02 0. -1.
    10030    2    1    2    0    0  0.00000000000E+00  0.00000000000E+00 -0.46775272156E+03  0.25371810994E+04  0.24936911041E+04 0.  0.
        2    1    3    3  502    0  0.56138736739E+03 -0.65543871225E+03  0.68174511621E+03  0.10997872909E+04  0.25500000920E-02 0.  1.
       -2    1    3    3    0  502 -0.56138736739E+03  0.65543871225E+03 -0.11494978378E+04  0.14373938085E+04  0.25500000920E-02 0. -1.
</event>
<event>
 5   0  0.2777539E-05  0.2513080E+04  0.7818609E-02  0.8398341E-01
       -1   -1    0    0    0  501  0.00000000000E+00  0.00000000000E+00  0.15374029139E+04  0.15374029139E+04  0.50400001928E-02 0. -1.
        1   -1    0    0  501    0  0.00000000000E+00  0.00000000000E+00 -0.10269866163E+04  0.10269866163E+04  0.50400001928E-02 0.  1.
    10030    2    1    2    0    0  0.00000000000E+00  0.00000000000E+00  0.51041629762E+03  0.25643895302E+04  0.25130795581E+04 0.  0.
        3    1    3    3  502    0  0.11755346339E+04  0.36471522551E+03  0.51334210042E+03  0.13335737675E+04  0.10100000352E+00 0. -1.
       -3    1    3    3    0  502 -0.11755346339E+04 -0.36471522551E+03 -0.29258027970E+01  0.12308157627E+04  0.10100000352E+00 0.  1.
</event>
<event>
 5   0  0.6827859E-05  0.2519378E+04  0.7818609E-02  0.8396115E-01
        2   -1    0    0  501    0  0.00000000000E+00  0.00000000000E+00  0.22302756154E+04  0.22302756154E+04  0.25500000920E-02 0.  1.
       -2   -1    0    0    0  501  0.00000000000E+00  0.00000000000E+00 -0.71148865624E+03  0.71148865624E+03  0.25500000920E-02 0. -1.
    10030    2    1    2    0    0  0.00000000000E+00  0.00000000000E+00  0.15187869591E+04  0.29417642716E+04  0.25193775427E+04 0.  0.
        3    1    3    3  502    0  0.73828615944E+02  0.12026451995E+04  0.33035423344E+03  0.12493758723E+04  0.10100000352E+00 0. -1.
       -3    1    3    3    0  502 -0.73828615944E+02 -0.12026451995E+04  0.11884327257E+04  0.16923883993E+04  0.10100000352E+00 0.  1.
</event>
<event>
 5   0  0.2980790E-05  0.2526207E+04  0.7818609E-02  0.8393708E-01
       -1   -1    0    0    0  501  0.00000000000E+00  0.00000000000E+00  0.20504261679E+04  0.20504261679E+04  0.50400001928E-02 0.  1.
        1   -1    0    0  501    0  0.00000000000E+00  0.00000000000E+00 -0.77809730210E+03  0.77809730211E+03  0.50400001928E-02 0. -1.
    10030    2    1    2    0    0  0.00000000000E+00  0.00000000000E+00  0.12723288658E+04  0.28285234700E+04  0.25262074890E+04 0.  0.
        5    1    3    3  502    0  0.45343717465E+03 -0.10275379438E+04 -0.10894980953E+02  0.11232009116E+04  0.46999998093E+01 0. -1.
       -5    1    3    3    0  502 -0.45343717465E+03  0.10275379438E+04  0.12832238467E+04  0.17053225584E+04  0.46999998093E+01 0.  1.
</event>
<event>
 5   0  0.2793920E-05  0.2642174E+04  0.7818609E-02  0.8354015E-01
        1   -1    0    0  501    0  0.00000000000E+00  0.00000000000E+00  0.20267688970E+04  0.20267688970E+04  0.50400001928E-02 0. -1.
       -1   -1    0    0    0  501  0.00000000000E+00  0.00000000000E+00 -0.86110996511E+03  0.86110996512E+03  0.50400001928E-02 0.  1.
    10030    2    1    2    0    0  0.00000000000E+00  0.00000000000E+00  0.11656589318E+04  0.28878788621E+04  0.26421740247E+04 0.  0.
        2    1    3    3  502    0  0.10887127569E+04 -0.65855084123E+03  0.19441488074E+03  0.12871603721E+04  0.25500000920E-02 0.  1.
       -2    1    3    3    0  502 -0.10887127569E+04  0.65855084123E+03  0.97124405110E+03  0.16007184900E+04  0.25500000920E-02 0. -1.
</event>
<event>
 5   0  0.6827859E-05  0.2382560E+04  0.7818609E-02  0.8446062E-01
        2   -1    0    0  501    0  0.00000000000E+00  0.00000000000E+00  0.10049116544E+04  0.10049116544E+04  0.25500000920E-02 0. -1.
       -2   -1    0    0    0  501  0.00000000000E+00  0.00000000000E+00 -0.14122115771E+04  0.14122115771E+04  0.25500000920E-02 0.  1.
    10030    2    1    2    0    0  0.00000000000E+00  0.00000000000E+00 -0.40729992271E+03  0.24171232315E+04  0.23825598606E+04 0.  0.
        3    1    3    3  502    0  0.10688744435E+04  0.21295108473E+03 -0.69157092024E+03  0.12907792562E+04  0.10100000352E+00 0.  1.
       -3    1    3    3    0  502 -0.10688744435E+04 -0.21295108473E+03  0.28427099753E+03  0.11263439753E+04  0.10100000352E+00 0. -1.
</event>
<event>
 5   0  0.7071821E-05  0.1583244E+04  0.7818609E-02  0.8830909E-01
        2   -1    0    0  501    0  0.00000000000E+00  0.00000000000E+00  0.10206604902E+04  0.10206604902E+04  0.25500000920E-02 0.  1.
       -2   -1    0    0    0  501  0.00000000000E+00  0.00000000000E+00 -0.61397990325E+03  0.61397990325E+03  0.25500000920E-02 0. -1.
    10030    2    1    2    0    0  0.00000000000E+00  0.00000000000E+00  0.40668058691E+03  0.16346403934E+04  0.15832435429E+04 0.  0.
        5    1    3    3  502    0 -0.18219888579E+03 -0.65127969909E+03  0.62813484782E+03  0.92300441898E+03  0.46999998093E+01 0.  1.
       -5    1    3    3    0  502  0.18219888579E+03  0.65127969909E+03 -0.22145426091E+03  0.71163597443E+03  0.46999998093E+01 0. -1.
</event>
<event>
 5   0  0.7071821E-05  0.2486455E+04  0.7818609E-02  0.8407827E-01
        2   -1    0    0  501    0  0.00000000000E+00  0.00000000000E+00  0.10699272022E+04  0.10699272022E+04  0.25500000920E-02 0. -1.
       -2   -1    0    0    0  501  0.00000000000E+00  0.00000000000E+00 -0.14445975277E+04  0.14445975277E+04  0.25500000920E-02 0.  1.
    10030    2    1    2    0    0  0.00000000000E+00  0.00000000000E+00 -0.37467032552E+03  0.25145247298E+04  0.24864546576E+04 0.  0.
        5    1    3    3  502    0 -0.48848556889E+03 -0.88174383758E+03 -0.92321866931E+03  0.13669108045E+04  0.46999998093E+01 0.  1.
       -5    1    3    3    0  502  0.48848556889E+03  0.88174383758E+03  0.54854834379E+03  0.11476139253E+04  0.46999998093E+01 0. -1.
</event>
<event>
 5   0  0.7071821E-05  0.3047089E+04  0.7818609E-02  0.8230411E-01
        2   -1    0    0  501    0  0.00000000000E+00  0.00000000000E+00  0.26329523710E+04  0.26329523710E+04  0.25500000920E-02 0. -1.
       -2   -1    0    0    0  501  0.00000000000E+00  0.00000000000E+00 -0.88159140593E+03  0.88159140594E+03  0.25500000920E-02 0.  1.
    10030    2    1    2    0    0  0.00000000000E+00  0.00000000000E+00  0.17513609650E+04  0.35145437769E+04  0.30470892225E+04 0.  0.
        5    1    3    3  502    0 -0.53314856121E+03 -0.10458404834E+04 -0.24445624309E+03  0.11990874238E+04  0.46999998093E+01 0.  1.
       -5    1    3    3    0  502  0.53314856121E+03  0.10458404834E+04  0.19958172081E+04  0.23154563531E+04  0.46999998093E+01 0. -1.
</event>
<event>
 5   0  0.6648328E-05  0.2335561E+04  0.7818609E-02  0.8464030E-01
       -2   -1    0    0    0  501  0.00000000000E+00  0.00000000000E+00  0.14803355088E+04  0.14803355088E+04  0.25500000920E-02 0.  1.
        2   -1    0    0  501    0  0.00000000000E+00  0.00000000000E+00 -0.92121765125E+03  0.92121765125E+03  0.25500000920E-02 0. -1.
    10030    2    1    2    0    0  0.00000000000E+00  0.00000000000E+00  0.55911785758E+03  0.24015531601E+04  0.23355609181E+04 0.  0.
        2    1    3    3  502    0  0.10276527835E+04  0.58691429588E+02 -0.28756497075E+03  0.10687415683E+04  0.25500000920E-02 0. -1.
       -2    1    3    3    0  502 -0.10276527835E+04 -0.58691429588E+02  0.84668282833E+03  0.13328115918E+04  0.25500000920E-02 0.  1.
</event>
<event>
 5   0  0.6909250E-05  0.2542629E+04  0.7818609E-02  0.8387954E-01
        2   -1    0    0  501    0  0.00000000000E+00  0.00000000000E+00  0.25909797288E+04  0.25909797288E+04  0.25500000920E-02 0.  1.
       -2   -1    0    0    0  501  0.00000000000E+00  0.00000000000E+00 -0.62379489631E+03  0.62379489631E+03  0.25500000920E-02 0. -1.
    10030    2    1    2    0    0  0.00000000000E+00  0.00000000000E+00  0.19671848325E+04  0.32147746251E+04  0.25426285071E+04 0.  0.
        4    1    3    3  502    0 -0.42687674712E+03 -0.99557027862E+03  0.18249838628E+04  0.21222515518E+04  0.12699999809E+01 0.  1.
       -4    1    3    3    0  502  0.42687674712E+03  0.99557027862E+03  0.14220096967E+03  0.10925230732E+04  0.12699999809E+01 0. -1.
</event>
<event>
 5   0  0.6827859E-05  0.2504605E+04  0.7818609E-02  0.8401347E-01
       -2   -1    0    0    0  501  0.00000000000E+00  0.00000000000E+00  0.95017859710E+03  0.95017859711E+03  0.25500000920E-02 0. -1.
        2   -1    0    0  501    0  0.00000000000E+00  0.00000000000E+00 -0.16504916828E+04  0.16504916828E+04  0.25500000920E-02 0.  1.
    10030    2    1    2    0    0  0.00000000000E+00  0.00000000000E+00 -0.70031308565E+03  0.26006702799E+04  0.25046052557E+04 0.  0.
        3    1    3    3  502    0 -0.11316492314E+04 -0.63677258735E+02 -0.90310108301E+03  0.14492330222E+04  0.10100000352E+00 0.  1.
       -3    1    3    3    0  502  0.11316492314E+04  0.63677258735E+02  0.20278799735E+03  0.11514372577E+04  0.10100000352E+00 0. -1.
</event>
<event>
 5   0  0.7071821E-05  0.2669625E+04  0.7818609E-02  0.8344928E-01
       -2   -1    0    0    0  501  0.00000000000E+00  0.00000000000E+00  0.97658272802E+03  0.97658272803E+03  0.25500000920E-02 0. -1.
        2   -1    0    0  501    0  0.00000000000E+00  0.00000000000E+00 -0.18244475083E+04  0.18244475083E+04  0.25500000920E-02 0.  1.
    10030    2    1    2    0    0  0.00000000000E+00  0.00000000000E+00 -0.84786478026E+03  0.28010302363E+04  0.26696246364E+04 0.  0.
        5    1    3    3  502    0 -0.63018221366E+03 -0.11669515651E+04 -0.58234850888E+03  0.14484672773E+04  0.46999998093E+01 0.  1.
       -5    1    3    3    0  502  0.63018221366E+03  0.11669515651E+04 -0.26551627137E+03  0.13525629590E+04  0.46999998093E+01 0. -1.
</event>
<event>
 5   0  0.6445331E-05  0.2467058E+04  0.7818609E-02  0.8414816E-01
        2   -1    0    0  501    0  0.00000000000E+00  0.00000000000E+00  0.16932605334E+04  0.16932605334E+04  0.25500000920E-02 0.  1.
       -2   -1    0    0    0  501  0.00000000000E+00  0.00000000000E+00 -0.89861773404E+03  0.89861773404E+03  0.25500000920E-02 0. -1.
    10030    2    1    2    0    0  0.00000000000E+00  0.00000000000E+00  0.79464279939E+03  0.25918782675E+04  0.24670581215E+04 0.  0.
        1    1    3    3  502    0 -0.26555718351E+01 -0.12327583676E+04  0.35160303884E+03  0.12819223619E+04  0.50400001928E-02 0.  1.
       -1    1    3    3    0  502  0.26555718351E+01  0.12327583676E+04  0.44303976055E+03  0.13099559056E+04  0.50400001928E-02 0. -1.
</event>
<event>
 5   0  0.2331375E-05  0.2341520E+04  0.7818609E-02  0.8461728E-01
        3   -1    0    0  501    0  0.00000000000E+00  0.00000000000E+00  0.89814436030E+03  0.89814436598E+03  0.10100000352E+00 0. -1.
       -3   -1    0    0    0  501  0.00000000000E+00  0.00000000000E+00 -0.15261228722E+04  0.15261228756E+04  0.10100000352E+00 0.  1.
    10030    2    1    2    0    0  0.00000000000E+00  0.00000000000E+00 -0.62797851194E+03  0.24242672416E+04  0.23415197302E+04 0.  0.
        3    1    3    3  502    0 -0.10114420490E+04  0.52732227442E+03 -0.40858108658E+02  0.11413821423E+04  0.10100000352E+00 0. -1.
       -3    1    3    3    0  502  0.10114420490E+04 -0.52732227442E+03 -0.58712040328E+03  0.12828850992E+04  0.10100000352E+00 0.  1.
</event>
<event>
 5   0  0.6445331E-05  0.2363578E+04  0.7818609E-02  0.8453267E-01
       -2   -1    0    0    0  501  0.00000000000E+00  0.00000000000E+00  0.11197854271E+04  0.11197854271E+04  0.25500000920E-02 0.  1.
        2   -1    0    0  501    0  0.00000000000E+00  0.00000000000E+00 -0.12472252542E+04  0.12472252542E+04  0.25500000920E-02 0. -1.
    10030    2    1    2    0    0  0.00000000000E+00  0.00000000000E+00 -0.12743982709E+03  0.23670106812E+04  0.23635775121E+04 0.  0.
        1    1    3    3  502    0  0.11186271640E+04  0.26579234179E+03  0.20990280134E+03  0.11687734969E+04  0.50400001928E-02 0.  1.
       -1    1    3    3    0  502 -0.11186271640E+04 -0.26579234179E+03 -0.33734262843E+03  0.11982371844E+04  0.50400001928E-02 0. -1.
</event>
<event>
 5   0  0.2793920E-05  0.2382538E+04  0.7818609E-02  0.8446070E-01
       -1   -1    0    0    0  501  0.00000000000E+00  0.00000000000E+00  0.13321622573E+04  0.13321622574E+04  0.50400001928E-02 0.  1.
        1   -1    0    0  501    0  0.00000000000E+00  0.00000000000E+00 -0.10652768829E+04  0.10652768829E+04  0.50400001928E-02 0. -1.
    10030    2    1    2    0    0  0.00000000000E+00  0.00000000000E+00  0.26688537444E+03  0.23974391403E+04  0.23825378545E+04 0.  0.
        2    1    3    3  502    0 -0.22376247311E+03  0.75404658465E+02 -0.10414928379E+04  0.10679245471E+04  0.25500000920E-02 0. -1.
       -2    1    3    3    0  502  0.22376247311E+03 -0.75404658465E+02  0.13083782123E+04  0.13295145932E+04  0.25500000920E-02 0.  1.
</event>
<event>
 5   0  0.6827859E-05  0.2409170E+04  0.7818609E-02  0.8436079E-01
        2   -1    0    0  501    0  0.00000000000E+00  0.00000000000E+00  0.21434073596E+04  0.21434073596E+04  0.25500000920E-02 0. -1.
       -2   -1    0    0    0  501  0.00000000000E+00  0.00000000000E+00 -0.67697090809E+03  0.67697090809E+03  0.25500000920E-02 0.  1.
    10030    2    1    2    0    0  0.00000000000E+00  0.00000000000E+00  0.14664364515E+04  0.28203782677E+04  0.24091695056E+04 0.  0.
        3    1    3    3  502    0  0.97466086371E+03 -0.50387184153E+03  0.13152426444E+04  0.17128087622E+04  0.10100000352E+00 0. -1.
       -3    1    3    3    0  502 -0.97466086371E+03  0.50387184153E+03  0.15119380704E+03  0.11075695055E+04  0.10100000352E+00 0.  1.
</event>
<event>
 5   0  0.2896652E-05  0.2648510E+04  0.7818609E-02  0.8351908E-01
        1   -1    0    0  501    0  0.00000000000E+00  0.00000000000E+00  0.20915703773E+04  0.20915703773E+04  0.50400001928E-02 0. -1.
       -1   -1    0    0    0  501  0.00000000000E+00  0.00000000000E+00 -0.83843783944E+03  0.83843783945E+03  0.50400001928E-02 0.  1.
    10030    2    1    2    0    0  0.00000000000E+00  0.00000000000E+00  0.12531325378E+04  0.29300082167E+04  0.26485103346E+04 0.  0.
        4    1    3    3  502    0  0.59012247343E+02 -0.30037567142E+03  0.20518904142E+04  0.20745996901E+04  0.12699999809E+01 0. -1.
       -4    1    3    3    0  502 -0.59012247343E+02  0.30037567142E+03 -0.79875787642E+03  0.85540852659E+03  0.12699999809E+01 0.  1.
</event>
<event>
 5   0  0.2977854E-05  0.2240755E+04  0.7818609E-02  0.8501654E-01
       -1   -1    0    0    0  501  0.00000000000E+00  0.00000000000E+00  0.11431501112E+04  0.11431501112E+04  0.50400001928E-02 0. -1.
        1   -1    0    0  501    0  0.00000000000E+00  0.00000000000E+00 -0.10980580517E+04  0.10980580517E+04  0.50400001928E-02 0.  1.
    10030    2    1    2    0    0  0.00000000000E+00  0.00000000000E+00  0.45092059445E+02  0.22412081629E+04  0.22407545014E+04 0.  0.
        1    1    3    3  502    0  0.40650253699E+03  0.11289158242E+03  0.10606657758E+04  0.11414905649E+04  0.50400001928E-02 0. -1.
       -1    1    3    3    0  502 -0.40650253699E+03 -0.11289158242E+03 -0.10155737163E+04  0.10997175980E+04  0.50400001928E-02 0.  1.
</event>
<event>
 5   0  0.2980790E-05  0.2257877E+04  0.7818609E-02  0.8494717E-01
       -1   -1    0    0    0  501  0.00000000000E+00  0.00000000000E+00  0.14087587176E+04  0.14087587176E+04  0.50400001928E-02 0.  1.
        1   -1    0    0  501    0  0.00000000000E+00  0.00000000000E+00 -0.90469832954E+03  0.90469832955E+03  0.50400001928E-02 0. -1.
    10030    2    1    2    0    0  0.00000000000E+00  0.00000000000E+00  0.50406038809E+03  0.23134570472E+04  0.22578765764E+04 0.  0.
        5    1    3    3  502    0 -0.29520437854E+03  0.63239371520E+03 -0.65717580689E+03  0.95862900399E+03  0.46999998093E+01 0. -1.
       -5    1    3    3    0  502  0.29520437854E+03 -0.63239371520E+03  0.11612361950E+04  0.13548280432E+04  0.46999998093E+01 0.  1.
</event>
<event>
 5   0  0.6909250E-05  0.2487146E+04  0.7818609E-02  0.8407579E-01
       -2   -1    0    0    0  501  0.00000000000E+00  0.00000000000E+00  0.91666891172E+03  0.91666891172E+03  0.25500000920E-02 0.  1.
        2   -1    0    0  501    0  0.00000000000E+00  0.00000000000E+00 -0.16870581720E+04  0.16870581720E+04  0.25500000920E-02 0. -1.
    10030    2    1    2    0    0  0.00000000000E+00  0.00000000000E+00 -0.77038926028E+03  0.26037270837E+04  0.24871459777E+04 0.  0.
        4    1    3    3  502    0 -0.58118153201E+03  0.52597783422E+03  0.62548429540E+03  0.10028244472E+04  0.12699999809E+01 0.  1.
       -4    1    3    3    0  502  0.58118153201E+03 -0.52597783422E+03 -0.13958735557E+04  0.16009026365E+04  0.12699999809E+01 0. -1.
</event>
<event>
 5   0  0.2793920E-05  0.2466360E+04  0.7818609E-02  0.8415069E-01
        1   -1    0    0  501    0  0.00000000000E+00  0.00000000000E+00  0.11348138807E+04  0.11348138807E+04  0.50400001928E-02 0. -1.
       -1   -1    0    0    0  501  0.00000000000E+00  0.00000000000E+00 -0.13400724033E+04  0.13400724033E+04  0.50400001928E-02 0.  1.
    10030    2    1    2    0    0  0.00000000000E+00  0.00000000000E+00 -0.20525852262E+03  0.24748862841E+04  0.24663598800E+04 0.  0.
        2    1    3    3  502    0 -0.43474381515E+03  0.65105461665E+03  0.85348077164E+03  0.11581466773E+04  0.25500000920E-02 0. -1.
       -2    1    3    3    0  502  0.43474381515E+03 -0.65105461665E+03 -0.10587392943E+04  0.13167396067E+04  0.25500000920E-02 0.  1.
</event>
<event>
 5   0  0.6648328E-05  0.1785239E+04  0.7818609E-02  0.8714189E-01
        2   -1    0    0  501    0  0.00000000000E+00  0.00000000000E+00  0.15514340067E+04  0.15514340067E+04  0.25500000920E-02 0. -1.
       -2   -1    0    0    0  501  0.00000000000E+00  0.00000000000E+00 -0.51356972410E+03  0.51356972410E+03  0.25500000920E-02 0.  1.
    10030    2    1    2    0    0  0.00000000000E+00  0.00000000000E+00  0.10378642826E+04  0.20650037308E+04  0.17852389585E+04 0.  0.
        2    1    3    3  502    0  0.33050700963E+03 -0.20555261127E+03 -0.41024714813E+03  0.56549932093E+03  0.25500000920E-02 0.  1.
       -2    1    3    3    0  502 -0.33050700963E+03  0.20555261127E+03  0.14481114307E+04  0.14995044099E+04  0.25500000920E-02 0. -1.
</event>
<event>
 5   0  0.6445331E-05  0.2176106E+04  0.7818609E-02  0.8528440E-01
       -2   -1    0    0    0  501  0.00000000000E+00  0.00000000000E+00  0.58775212920E+03  0.58775212920E+03  0.25500000920E-02 0. -1.
        2   -1    0    0  501    0  0.00000000000E+00  0.00000000000E+00 -0.20142150279E+04  0.20142150279E+04  0.25500000920E-02 0.  1.
    10030    2    1    2    0    0  0.00000000000E+00  0.00000000000E+00 -0.14264628987E+04  0.26019671571E+04  0.21761058534E+04 0.  0.
        1    1    3    3  502    0  0.10287596341E+04 -0.35422486051E+03 -0.70590592771E+03  0.12969675460E+04  0.50400001928E-02 0. -1.
       -1    1    3    3    0  502 -0.10287596341E+04  0.35422486051E+03 -0.72055697103E+03  0.13049996111E+04  0.50400001928E-02 0.  1.
</event>
<event>
 5   0  0.7071821E-05  0.2485404E+04  0.7818609E-02  0.8408204E-01
        2   -1    0    0  501    0  0.00000000000E+00  0.00000000000E+00  0.12167011672E+04  0.12167011672E+04  0.25500000920E-02 0.  1.
       -2   -1    0    0    0  501  0.00000000000E+00  0.00000000000E+00 -0.12692586232E+04  0.12692586232E+04  0.25500000920E-02 0. -1.
    10030    2    1    2    0    0  0.00000000000E+00  0.00000000000E+00 -0.52557455931E+02  0.24859597904E+04  0.24854041509E+04 0.  0.
        5    1    3    3  502    0 -0.90814874392E+03  0.10734053221E+03 -0.86791216285E+03  0.12607734703E+04  0.46999998093E+01 0. -1.
       -5    1    3    3    0  502  0.90814874392E+03 -0.10734053221E+03  0.81535470692E+03  0.12251863201E+04  0.46999998093E+01 0.  1.
</event>
<event>
 5   0  0.2793920E-05  0.2174303E+04  0.7818609E-02  0.8529200E-01
        1   -1    0    0  501    0  0.00000000000E+00  0.00000000000E+00  0.12514292938E+04  0.12514292938E+04  0.50400001928E-02 0.  1.
       -1   -1    0    0    0  501  0.00000000000E+00  0.00000000000E+00 -0.94443914833E+03  0.94443914834E+03  0.50400001928E-02 0. -1.
    10030    2    1    2    0    0  0.00000000000E+00  0.00000000000E+00  0.30699014550E+03  0.21958684422E+04  0.21743033979E+04 0.  0.
        2    1    3    3  502    0  0.19517774215E+02 -0.99880669480E+03  0.58658755964E+03  0.11584820768E+04  0.25500000920E-02 0.  1.
       -2    1    3    3    0  502 -0.19517774215E+02  0.99880669480E+03 -0.27959741415E+03  0.10373863654E+04  0.25500000920E-02 0. -1.
</event>
<event>
 5   0  0.2896652E-05  0.2551318E+04  0.7818609E-02  0.8384928E-01
       -1   -1    0    0    0  501  0.00000000000E+00  0.00000000000E+00  0.14510492656E+04  0.14510492656E+04  0.50400001928E-02 0.  1.
        1   -1    0    0  501    0  0.00000000000E+00  0.00000000000E+00 -0.11214682903E+04  0.11214682904E+04  0.50400001928E-02 0. -1.
    10030    2    1    2    0    0  0.00000000000E+00  0.00000000000E+00  0.32958097526E+03  0.25725175560E+04  0.25513178862E+04 0.  0.
        4    1    3    3  502    0 -0.72787121995E+03 -0.55622479241E+03 -0.73034832236E+03  0.11715770642E+04  0.12699999809E+01 0. -1.
       -4    1    3    3    0  502  0.72787121995E+03  0.55622479241E+03  0.10599292976E+04  0.14009404917E+04  0.12699999809E+01 0.  1.
</event>
<event>
 5   0  0.6909250E-05  0.2494087E+04  0.7818609E-02  0.8405095E-01
        2   -1    0    0  501    0  0.00000000000E+00  0.00000000000E+00  0.89948387243E+03  0.89948387243E+03  0.25500000920E-02 0. -1.
       -2   -1    0    0    0  501  0.00000000000E+00  0.00000000000E+00 -0.17288996965E+04  0.17288996965E+04  0.25500000920E-02 0.  1.
    10030    2    1    2    0    0  0.00000000000E+00  0.00000000000E+00 -0.82941582403E+03  0.26283835689E+04  0.24940869223E+04 0.  0.
        4    1    3    3  502    0  0.49020332935E+03 -0.56372454658E+03  0.63757256696E+03  0.98213291339E+03  0.12699999809E+01 0. -1.
       -4    1    3    3    0  502 -0.49020332935E+03  0.56372454658E+03 -0.14669883910E+04  0.16462506555E+04  0.12699999809E+01 0.  1.
</event>
<event>
 5   0  0.6827859E-05  0.2558116E+04  0.7818609E-02  0.8382569E-01
       -2   -1    0    0    0  501  0.00000000000E+00  0.00000000000E+00  0.97253726298E+03  0.97253726299E+03  0.25500000920E-02 0.  1.
        2   -1    0    0  501    0  0.00000000000E+00  0.00000000000E+00 -0.16821867456E+04  0.16821867456E+04  0.25500000920E-02 0. -1.
    10030    2    1    2    0    0  0.00000000000E+00  0.00000000000E+00 -0.70964948259E+03  0.26547240086E+04  0.25581159422E+04 0.  0.
        3    1    3    3  502    0 -0.76772990903E+03 -0.93716969258E+03 -0.78055275396E+03  0.14411657982E+04  0.10100000352E+00 0. -1.
       -3    1    3    3    0  502  0.76772990903E+03  0.93716969258E+03  0.70903271364E+02  0.12135582104E+04  0.10100000352E+00 0.  1.
</event>
<event>
 5   0  0.2977854E-05  0.2491573E+04  0.7818609E-02  0.8405994E-01
       -1   -1    0    0    0  501  0.00000000000E+00  0.00000000000E+00  0.11430082266E+04  0.11430082266E+04  0.50400001928E-02 0. -1.
        1   -1    0    0  501    0  0.00000000000E+00  0.00000000000E+00 -0.13578067959E+04  0.13578067959E+04  0.50400001928E-02 0.  1.
    10030    2    1    2    0    0  0.00000000000E+00  0.00000000000E+00 -0.21479856926E+03  0.25008150225E+04  0.24915732683E+04 0.  0.
        1    1    3    3  502    0 -0.73097122354E+03 -0.86564522945E+03  0.41252183605E+03  0.12057507446E+04  0.50400001928E-02 0. -1.
       -1    1    3    3    0  502  0.73097122354E+03  0.86564522945E+03 -0.62732040531E+03  0.12950642779E+04  0.50400001928E-02 0.  1.
</event>
<event>
 5   0  0.2777539E-05  0.2284054E+04  0.7818609E-02  0.8484235E-01
        1   -1    0    0  501    0  0.00000000000E+00  0.00000000000E+00  0.83146337012E+03  0.83146337013E+03  0.50400001928E-02 0.  1.
       -1   -1    0    0    0  501  0.00000000000E+00  0.00000000000E+00 -0.15685905646E+04  0.15685905646E+04  0.50400001928E-02 0. -1.
    10030    2    1    2    0    0  0.00000000000E+00  0.00000000000E+00 -0.73712719445E+03  0.24000539347E+04  0.22840539374E+04 0.  0.
        3    1    3    3  502    0  0.41477326080E+03 -0.22356701453E+03 -0.14616883254E+04  0.15357577409E+04  0.10100000352E+00 0. -1.
       -3    1    3    3    0  502 -0.41477326080E+03  0.22356701453E+03  0.72456113099E+03  0.86429619379E+03  0.10100000352E+00 0.  1.
</event>
<event>
 5   0  0.2793920E-05  0.1514356E+04  0.7818609E-02  0.8874962E-01
        1   -1    0    0  501    0  0.00000000000E+00  0.00000000000E+00  0.81321679953E+03  0.81321679955E+03  0.50400001928E-02 0. -1.
       -1   -1    0    0    0  501  0.00000000000E+00  0.00000000000E+00 -0.70500125404E+03  0.70500125406E+03  0.50400001928E-02 0.  1.
    10030    2    1    2    0    0  0.00000000000E+00  0.00000000000E+00  0.10821554549E+03  0.15182180536E+04  0.15143564488E+04 0.  0.
        2    1    3    3  502    0  0.35623075356E+03  0.42843210607E+03  0.56811824025E+03  0.79574666459E+03  0.25500000920E-02 0. -1.
       -2    1    3    3    0  502 -0.35623075356E+03 -0.42843210607E+03 -0.45990269476E+03  0.72247138901E+03  0.25500000920E-02 0.  1.
</event>
<event>
 5   0  0.2793920E-05  0.1257639E+04  0.7818609E-02  0.9063849E-01
        1   -1    0    0  501    0  0.00000000000E+00  0.00000000000E+00  0.16250614195E+04  0.16250614195E+04  0.50400001928E-02 0.  1.
       -1   -1    0    0    0  501  0.00000000000E+00  0.00000000000E+00 -0.24332261004E+03  0.24332261009E+03  0.50400001928E-02 0. -1.
    10030    2    1    2    0    0  0.00000000000E+00  0.00000000000E+00  0.13817388094E+04  0.18683840296E+04  0.12576393539E+04 0.  0.
        2    1    3    3  502    0  0.20328132941E+03  0.24037200648E+03  0.14995644525E+04  0.15322517899E+04  0.25500000920E-02 0.  1.
       -2    1    3    3    0  502 -0.20328132941E+03 -0.24037200648E+03 -0.11782564306E+03  0.33613223969E+03  0.25500000920E-02 0. -1.
</event>
<event>
 5   0  0.7071821E-05  0.2478723E+04  0.7818609E-02  0.8410605E-01
       -2   -1    0    0    0  501  0.00000000000E+00  0.00000000000E+00  0.10022305413E+04  0.10022305413E+04  0.25500000920E-02 0.  1.
        2   -1    0    0  501    0  0.00000000000E+00  0.00000000000E+00 -0.15325984630E+04  0.15325984630E+04  0.25500000920E-02 0. -1.
    10030    2    1    2    0    0  0.00000000000E+00  0.00000000000E+00 -0.53036792168E+03  0.25348290043E+04  0.24787230480E+04 0.  0.
        5    1    3    3  502    0  0.98695931917E+03 -0.20923794779E+03  0.47091841939E+03  0.11133981607E+04  0.46999998093E+01 0.  1.
       -5    1    3    3    0  502 -0.98695931917E+03  0.20923794779E+03 -0.10012863411E+04  0.14214308437E+04  0.46999998093E+01 0. -1.
</event>
<event>
 5   0  0.2980790E-05  0.2527249E+04  0.7818609E-02  0.8393342E-01
        1   -1    0    0  501    0  0.00000000000E+00  0.00000000000E+00  0.18416105180E+04  0.18416105180E+04  0.50400001928E-02 0. -1.
       -1   -1    0    0    0  501  0.00000000000E+00  0.00000000000E+00 -0.86703832727E+03  0.86703832729E+03  0.50400001928E-02 0.  1.
    10030    2    1    2    0    0  0.00000000000E+00  0.00000000000E+00  0.97457219075E+03  0.27086488453E+04  0.25272490206E+04 0.  0.
        5    1    3    3  502    0  0.19984436008E+03  0.61071635412E+02 -0.84838155827E+03  0.87375103509E+03  0.46999998093E+01 0.  1.
       -5    1    3    3    0  502 -0.19984436008E+03 -0.61071635412E+02  0.18229537490E+04  0.18348978102E+04  0.46999998093E+01 0. -1.
</event>
<event>
 5   0  0.2777539E-05  0.1927060E+04  0.7818609E-02  0.8641503E-01
       -1   -1    0    0    0  501  0.00000000000E+00  0.00000000000E+00  0.76517679099E+03  0.76517679101E+03  0.50400001928E-02 0.  1.
        1   -1    0    0  501    0  0.00000000000E+00  0.00000000000E+00 -0.12133017330E+04  0.12133017330E+04  0.50400001928E-02 0. -1.
    10030    2    1    2    0    0  0.00000000000E+00  0.00000000000E+00 -0.44812494199E+03  0.19784785240E+04  0.19270602757E+04 0.  0.
        3    1    3    3  502    0  0.61144293119E+03  0.72604438637E+03 -0.39396956098E+03  0.10277231798E+04  0.10100000352E+00 0. -1.
       -3    1    3    3    0  502 -0.61144293119E+03 -0.72604438637E+03 -0.54155381019E+02  0.95075534422E+03  0.10100000352E+00 0.  1.
</event>
<event>
 5   0  0.2980790E-05  0.2545208E+04  0.7818609E-02  0.8387055E-01
       -1   -1    0    0    0  501  0.00000000000E+00  0.00000000000E+00  0.21531017841E+04  0.21531017841E+04  0.50400001928E-02 0. -1.
        1   -1    0    0  501    0  0.00000000000E+00  0.00000000000E+00 -0.75218055277E+03  0.75218055279E+03  0.50400001928E-02 0.  1.
    10030    2    1    2    0    0  0.00000000000E+00  0.00000000000E+00  0.14009212313E+04  0.29052823369E+04  0.25452082745E+04 0.  0.
        5    1    3    3  502    0 -0.11052464764E+04  0.26695443929E+03  0.13528639264E+04  0.17672287174E+04  0.46999998093E+01 0.  1.
       -5    1    3    3    0  502  0.11052464764E+04 -0.26695443929E+03  0.48057304844E+02  0.11380536194E+04  0.46999998093E+01 0. -1.
</event>
<event>
 5   0  0.2977854E-05  0.2408652E+04  0.7818609E-02  0.8436271E-01
       -1   -1    0    0    0  501  0.00000000000E+00  0.00000000000E+00  0.14512497547E+04  0.14512497547E+04  0.50400001928E-02 0. -1.
        1   -1    0    0  501    0  0.00000000000E+00  0.00000000000E+00 -0.99941564136E+03  0.99941564137E+03  0.50400001928E-02 0.  1.
    10030    2    1    2    0    0  0.00000000000E+00  0.00000000000E+00  0.45183411335E+03  0.24506653961E+04  0.24086524900E+04 0.  0.
        1    1    3    3  502    0  0.93732993352E+03 -0.63351143333E+03 -0.19417404992E+03  0.11478796549E+04  0.50400001928E-02 0.  1.
       -1    1    3    3    0  502 -0.93732993352E+03  0.63351143333E+03  0.64600816327E+03  0.13027857412E+04  0.50400001928E-02 0. -1.
</event>
<event>
 5   0  0.6648328E-05  0.2219628E+04  0.7818609E-02  0.8510303E-01
        2   -1    0    0  501    0  0.00000000000E+00  0.00000000000E+00  0.11931618502E+04  0.11931618502E+04  0.25500000920E-02 0.  1.
       -2   -1    0    0    0  501  0.00000000000E+00  0.00000000000E+00 -0.10322882586E+04  0.10322882586E+04  0.25500000920E-02 0. -1.
    10030    2    1    2    0    0  0.00000000000E+00  0.00000000000E+00  0.16087359159E+03  0.22254501088E+04  0.22196278684E+04 0.  0.
        2    1    3    3  502    0  0.54685592273E+03 -0.35800923239E+02 -0.88716140805E+03  0.10427792049E+04  0.25500000920E-02 0. -1.
       -2    1    3    3    0  502 -0.54685592273E+03  0.35800923239E+02  0.10480349996E+04  0.11826709038E+04  0.25500000920E-02 0.  1.
</event>
<event>
 5   0  0.6445331E-05  0.2499842E+04  0.7818609E-02  0.8403042E-01
       -2   -1    0    0    0  501  0.00000000000E+00  0.00000000000E+00  0.10367591125E+04  0.10367591125E+04  0.25500000920E-02 0. -1.
        2   -1    0    0  501    0  0.00000000000E+00  0.00000000000E+00 -0.15069097067E+04  0.15069097067E+04  0.25500000920E-02 0.  1.
    10030    2    1    2    0    0  0.00000000000E+00  0.00000000000E+00 -0.47015059420E+03  0.25436688192E+04  0.24998418912E+04 0.  0.
        1    1    3    3  502    0  0.11274865597E+04 -0.18929333483E+03 -0.74914994682E+03  0.13668516934E+04  0.50400001928E-02 0.  1.
       -1    1    3    3    0  502 -0.11274865597E+04  0.18929333483E+03  0.27899935261E+03  0.11768171258E+04  0.50400001928E-02 0. -1.
</event>
<event>
 5   0  0.2980790E-05  0.2501287E+04  0.7818609E-02  0.8402527E-01
       -1   -1    0    0    0  501  0.00000000000E+00  0.00000000000E+00  0.89063487193E+03  0.89063487195E+03  0.50400001928E-02 0.  1.
        1   -1    0    0  501    0  0.00000000000E+00  0.00000000000E+00 -0.17561732821E+04  0.17561732822E+04  0.50400001928E-02 0. -1.
    10030    2    1    2    0    0  0.00000000000E+00  0.00000000000E+00 -0.86553841022E+03  0.26468081541E+04  0.25012870017E+04 0.  0.
        5    1    3    3  502    0 -0.10659407786E+03 -0.54884560927E+03 -0.16165552009E+04  0.17105164740E+04  0.46999998093E+01 0. -1.
       -5    1    3    3    0  502  0.10659407786E+03  0.54884560927E+03  0.75101679071E+03  0.93629168008E+03  0.46999998093E+01 0.  1.
</event>
<event>
 5   0  0.2793920E-05  0.2495805E+04  0.7818609E-02  0.8404481E-01
        1   -1    0    0  501    0  0.00000000000E+00  0.00000000000E+00  0.15054870110E+04  0.15054870110E+04  0.50400001928E-02 0.  1.
       -1   -1    0    0    0  501  0.00000000000E+00  0.00000000000E+00 -0.10343902474E+04  0.10343902474E+04  0.50400001928E-02 0. -1.
    10030    2    1    2    0    0  0.00000000000E+00  0.00000000000E+00  0.47109676360E+03  0.25398772585E+04  0.24958053465E+04 0.  0.
        2    1    3    3  502    0 -0.57021635081E+03  0.88258072981E+03 -0.44951461569E+03  0.11428730555E+04  0.25500000920E-02 0. -1.
       -2    1    3    3    0  502  0.57021635081E+03 -0.88258072981E+03  0.92061137929E+03  0.13970042029E+04  0.25500000920E-02 0.  1.
</event>
<event>
 5   0  0.2777539E-05  0.2461249E+04  0.7818609E-02  0.8416922E-01
       -1   -1    0    0    0  501  0.00000000000E+00  0.00000000000E+00  0.12184648413E+04  0.12184648413E+04  0.50400001928E-02 0. -1.
        1   -1    0    0  501    0  0.00000000000E+00  0.00000000000E+00 -0.12429058492E+04  0.12429058493E+04  0.50400001928E-02 0.  1.
    10030    2    1    2    0    0  0.00000000000E+00  0.00000000000E+00 -0.24441007976E+02  0.24613706905E+04  0.24612493399E+04 0.  0.
        3    1    3    3  502    0  0.86402918454E+03  0.80922405523E+03 -0.34846180508E+03  0.12340241663E+04  0.10100000352E+00 0.  1.
       -3    1    3    3    0  502 -0.86402918454E+03 -0.80922405523E+03  0.32402079710E+03  0.12273465242E+04  0.10100000352E+00 0. -1.
</event>
<event>
 5   0  0.6648328E-05  0.2590315E+04  0.7818609E-02  0.8371498E-01
        2   -1    0    0  501    0  0.00000000000E+00  0.00000000000E+00  0.22369660072E+04  0.22369660072E+04  0.25500000920E-02 0. -1.
       -2   -1    0    0    0  501  0.00000000000E+00  0.00000000000E+00 -0.74986958413E+03  0.74986958414E+03  0.25500000920E-02 0.  1.
    10030    2    1    2    0    0  0.00000000000E+00  0.00000000000E+00  0.14870964230E+04  0.29868355913E+04  0.25903148608E+04 0.  0.
        2    1    3    3  502    0 -0.35510073334E+02 -0.11724730960E+04  0.11042674803E+03  0.11781970093E+04  0.25500000920E-02 0.  1.
       -2    1    3    3    0  502  0.35510073334E+02  0.11724730960E+04  0.13766696750E+04  0.18086385820E+04  0.25500000920E-02 0. -1.
</event>
<event>
 5   0  0.6445331E-05  0.2177368E+04  0.7818609E-02  0.8527907E-01
        2   -1    0    0  501    0  0.00000000000E+00  0.00000000000E+00  0.12507599690E+04  0.12507599691E+04  0.25500000920E-02 0. -1.
       -2   -1    0    0    0  501  0.00000000000E+00  0.00000000000E+00 -0.94761055972E+03  0.94761055973E+03  0.25500000920E-02 0.  1.
    10030    2    1    2    0    0  0.00000000000E+00  0.00000000000E+00  0.30314940932E+03  0.21983705288E+04  0.21773684616E+04 0.  0.
        1    1    3    3  502    0 -0.55419425945E+03 -0.61386262138E+03  0.86641147467E+03  0.11977593408E+04  0.50400001928E-02 0. -1.
       -1    1    3    3    0  502  0.55419425945E+03  0.61386262138E+03 -0.56326206535E+03  0.10006111879E+04  0.50400001928E-02 0.  1.
</event>
<event>
 5   0  0.2977854E-05  0.1254493E+04  0.7818609E-02  0.9066452E-01
        1   -1    0    0  501    0  0.00000000000E+00  0.00000000000E+00  0.12909762868E+04  0.12909762868E+04  0.50400001928E-02 0.  1.
       -1   -1    0    0    0  501  0.00000000000E+00  0.00000000000E+00 -0.30476032076E+03  0.30476032080E+03  0.50400001928E-02 0. -1.
    10030    2    1    2    0    0  0.00000000000E+00  0.00000000000E+00  0.98621596601E+03  0.15957366076E+04  0.12544932798E+04 0.  0.
        1    1    3    3  502    0  0.15375924040E+03  0.55958022068E+03  0.79590790344E+03  0.98500828330E+03  0.50400001928E-02 0.  1.
       -1    1    3    3    0  502 -0.15375924040E+03 -0.55958022068E+03  0.19030806258E+03  0.61072832429E+03  0.50400001928E-02 0. -1.
</event>
<event>
 5   0  0.6648328E-05  0.2537963E+04  0.7818609E-02  0.8389584E-01
       -2   -1    0    0    0  501  0.00000000000E+00  0.00000000000E+00  0.65590479406E+03  0.65590479407E+03  0.25500000920E-02 0. -1.
        2   -1    0    0  501    0  0.00000000000E+00  0.00000000000E+00 -0.24551034588E+04  0.24551034588E+04  0.25500000920E-02 0.  1.
    10030    2    1    2    0    0  0.00000000000E+00  0.00000000000E+00 -0.17991986648E+04  0.31110082529E+04  0.25379630640E+04 0.  0.
        2    1    3    3  502    0  0.79761801313E+03  0.97680464133E+03 -0.72636650526E+03  0.14553178698E+04  0.25500000920E-02 0. -1.
       -2    1    3    3    0  502 -0.79761801313E+03 -0.97680464133E+03 -0.10728321595E+04  0.16556903831E+04  0.25500000920E-02 0.  1.
</event>
<event>
 5   0  0.2896652E-05  0.2565757E+04  0.7818609E-02  0.8379927E-01
        1   -1    0    0  501    0  0.00000000000E+00  0.00000000000E+00  0.22669485228E+04  0.22669485228E+04  0.50400001928E-02 0.  1.
       -1   -1    0    0    0  501  0.00000000000E+00  0.00000000000E+00 -0.72598771497E+03  0.72598771499E+03  0.50400001928E-02 0. -1.
    10030    2    1    2    0    0  0.00000000000E+00  0.00000000000E+00  0.15409608079E+04  0.29929362378E+04  0.25657566355E+04 0.  0.
        4    1    3    3  502    0 -0.95059495251E+03  0.83932745153E+03  0.54406712510E+03  0.13798956425E+04  0.12699999809E+01 0. -1.
       -4    1    3    3    0  502  0.95059495251E+03 -0.83932745153E+03  0.99689368277E+03  0.16130405954E+04  0.12699999809E+01 0.  1.
</event>
<event>
 5   0  0.2777539E-05  0.2326237E+04  0.7818609E-02  0.8467648E-01
        1   -1    0    0  501    0  0.00000000000E+00  0.00000000000E+00  0.15382765235E+04  0.15382765235E+04  0.50400001928E-02 0.  1.
       -1   -1    0    0    0  501  0.00000000000E+00  0.00000000000E+00 -0.87945443075E+03  0.87945443076E+03  0.50400001928E-02 0. -1.
    10030    2    1    2    0    0  0.00000000000E+00  0.00000000000E+00  0.65882209277E+03  0.24177309543E+04  0.23262365351E+04 0.  0.
        3    1    3    3  502    0 -0.59914349941E+03  0.15149788829E+03  0.13535189591E+04  0.14879308202E+04  0.10100000352E+00 0.  1.
       -3    1    3    3    0  502  0.59914349941E+03 -0.15149788829E+03 -0.69469686630E+03  0.92980013405E+03  0.10100000352E+00 0. -1.
</event>
<event>
 5   0  0.7071821E-05  0.2251217E+04  0.7818609E-02  0.8497408E-01
       -2   -1    0    0    0  501  0.00000000000E+00  0.00000000000E+00  0.16128848317E+04  0.16128848317E+04  0.25500000920E-02 0.  1.
        2   -1    0    0  501    0  0.00000000000E+00  0.00000000000E+00 -0.78554551234E+03  0.78554551234E+03  0.25500000920E-02 0. -1.
    10030    2    1    2    0    0  0.00000000000E+00  0.00000000000E+00  0.82733931931E+03  0.23984303440E+04  0.22512169522E+04 0.  0.
        5    1    3    3  502    0 -0.20144158251E+03  0.43362947745E+03  0.14993039437E+04  0.15737050678E+04  0.46999998093E+01 0.  1.
       -5    1    3    3    0  502  0.20144158251E+03 -0.43362947745E+03 -0.67196462435E+03  0.82472527622E+03  0.46999998093E+01 0. -1.
</event>
<event>
 5   0  0.6648328E-05  0.2414750E+04  0.7818609E-02  0.8434002E-01
       -2   -1    0    0    0  501  0.00000000000E+00  0.00000000000E+00  0.63451101992E+03  0.63451101993E+03  0.25500000920E-02 0. -1.
        2   -1    0    0  501    0  0.00000000000E+00  0.00000000000E+00 -0.22974450874E+04  0.22974450874E+04  0.25500000920E-02 0.  1.
    10030    2    1    2    0    0  0.00000000000E+00  0.00000000000E+00 -0.16629340675E+04  0.29319561073E+04  0.24147498633E+04 0.  0.
        2    1    3    3  502    0  0.11020552946E+03  0.62114980681E+03  0.41848561173E+03  0.75703536803E+03  0.25500000920E-02 0. -1.
       -2    1    3    3    0  502 -0.11020552946E+03 -0.62114980681E+03 -0.20814196792E+04  0.21749207393E+04  0.25500000920E-02 0.  1.
</event>
<event>
 5   0  0.2331375E-05  0.2529236E+04  0.7818609E-02  0.8392644E-01
        3   -1    0    0  501    0  0.00000000000E+00  0.00000000000E+00  0.87069360976E+03  0.87069361561E+03  0.10100000352E+00 0. -1.
       -3   -1    0    0    0  501  0.00000000000E+00  0.00000000000E+00 -0.18367634975E+04  0.18367635003E+04  0.10100000352E+00 0.  1.
    10030    2    1    2    0    0  0.00000000000E+00  0.00000000000E+00 -0.96606988778E+03  0.27074571159E+04  0.25292356566E+04 0.  0.
        1    1    3    3  502    0  0.67562630873E+03  0.59842548620E+03 -0.14312721668E+04  0.16920768266E+04  0.50400001928E-02 0.  1.
       -1    1    3    3    0  502 -0.67562630873E+03 -0.59842548620E+03  0.46520227901E+03  0.10153802894E+04  0.50400001928E-02 0. -1.
</event>
<event>
 5   0  0.2980790E-05  0.2492851E+04  0.7818609E-02  0.8405537E-01
       -1   -1    0    0    0  501  0.00000000000E+00  0.00000000000E+00  0.16101143659E+04  0.16101143659E+04  0.50400001928E-02 0. -1.
        1   -1    0    0  501    0  0.00000000000E+00  0.00000000000E+00 -0.96488565377E+03  0.96488565379E+03  0.50400001928E-02 0.  1.
    10030    2    1    2    0    0  0.00000000000E+00  0.00000000000E+00  0.64522871212E+03  0.25750000197E+04  0.24928507798E+04 0.  0.
        5    1    3    3  502    0  0.11908719093E+04 -0.36677302652E+03  0.35283254697E+03  0.12950719105E+04  0.46999998093E+01 0.  1.
       -5    1    3    3    0  502 -0.11908719093E+04  0.36677302652E+03  0.29239616515E+03  0.12799281092E+04  0.46999998093E+01 0. -1.
</event>
<event>
 5   0  0.2793920E-05  0.2478725E+04  0.7818609E-02  0.8410604E-01
       -1   -1    0    0    0  501  0.00000000000E+00  0.00000000000E+00  0.95100751260E+03  0.95100751262E+03  0.50400001928E-02 0.  1.
        1   -1    0    0  501    0  0.00000000000E+00  0.00000000000E+00 -0.16151498063E+04  0.16151498064E+04  0.50400001928E-02 0. -1.
    10030    2    1    2    0    0  0.00000000000E+00  0.00000000000E+00 -0.66414229374E+03  0.25661573190E+04  0.24787251561E+04 0.  0.
        2    1    3    3  502    0  0.74651437318E+03  0.98552746188E+03 -0.24258430882E+03  0.12599187412E+04  0.25500000920E-02 0.  1.
       -2    1    3    3    0  502 -0.74651437318E+03 -0.98552746188E+03 -0.42155798493E+03  0.13062385778E+04  0.25500000920E-02 0. -1.
</event>
<event>
 5   0  0.2977854E-05  0.2520877E+04  0.7818609E-02  0.8395586E-01
       -1   -1    0    0    0  501  0.00000000000E+00  0.00000000000E+00  0.13365734818E+04  0.13365734818E+04  0.50400001928E-02 0.  1.
        1   -1    0    0  501    0  0.00000000000E+00  0.00000000000E+00 -0.11886404800E+04  0.11886404800E+04  0.50400001928E-02 0. -1.
    10030    2    1    2    0    0  0.00000000000E+00  0.00000000000E+00  0.14793300176E+03  0.25252139619E+04  0.25208771053E+04 0.  0.
        1    1    3    3  502    0  0.94104833161E+03 -0.11290048206E+03 -0.75835816959E+03  0.12138474347E+04  0.50400001928E-02 0. -1.
       -1    1    3    3    0  502 -0.94104833161E+03  0.11290048206E+03  0.90629117136E+03  0.13113665272E+04  0.50400001928E-02 0.  1.
</event>
<event>
 5   0  0.6648328E-05  0.2468229E+04  0.7818609E-02  0.8414392E-01
        2   -1    0    0  501    0  0.00000000000E+00  0.00000000000E+00  0.18772078338E+04  0.18772078338E+04  0.25500000920E-02 0. -1.
       -2   -1    0    0    0  501  0.00000000000E+00  0.00000000000E+00 -0.81133222093E+03  0.81133222094E+03  0.25500000920E-02 0.  1.
    10030    2    1    2    0    0  0.00000000000E+00  0.00000000000E+00  0.10658756129E+04  0.26885400548E+04  0.24682294877E+04 0.  0.
        2    1    3    3  502    0  0.41232229765E+03  0.98032545957E+02 -0.72957775841E+03  0.84374389644E+03  0.25500000920E-02 0.  1.
       -2    1    3    3    0  502 -0.41232229765E+03 -0.98032545957E+02  0.17954533713E+04  0.18447961583E+04  0.25500000920E-02 0. -1.
</event>
<event>
 5   0  0.2977854E-05  0.2507157E+04  0.7818609E-02  0.8400440E-01
        1   -1    0    0  501    0  0.00000000000E+00  0.00000000000E+00  0.18071659110E+04  0.18071659110E+04  0.50400001928E-02 0. -1.
       -1   -1    0    0    0  501  0.00000000000E+00  0.00000000000E+00 -0.86957099361E+03  0.86957099362E+03  0.50400001928E-02 0.  1.
    10030    2    1    2    0    0  0.00000000000E+00  0.00000000000E+00  0.93759491740E+03  0.26767369046E+04  0.25071570010E+04 0.  0.
        1    1    3    3  502    0 -0.25564215682E+03 -0.64604372773E+02  0.17772240197E+04  0.17966780050E+04  0.50400001928E-02 0. -1.
       -1    1    3    3    0  502  0.25564215682E+03  0.64604372773E+02 -0.83962910233E+03  0.88005889964E+03  0.50400001928E-02 0.  1.
</event>
<event>
 5   0  0.7071821E-05  0.2458243E+04  0.7818609E-02  0.8418015E-01
        2   -1    0    0  501    0  0.00000000000E+00  0.00000000000E+00  0.17090235154E+04  0.17090235154E+04  0.25500000920E-02 0. -1.
       -2   -1    0    0    0  501  0.00000000000E+00  0.00000000000E+00 -0.88397802767E+03  0.88397802767E+03  0.25500000920E-02 0.  1.
    10030    2    1    2    0    0  0.00000000000E+00  0.00000000000E+00  0.82504548769E+03  0.25930015430E+04  0.24582426539E+04 0.  0.
        5    1    3    3  502    0 -0.82531990784E+03  0.28634336868E+03  0.13245429136E+04  0.15866888463E+04  0.46999998093E+01 0. -1.
       -5    1    3    3    0  502  0.82531990784E+03 -0.28634336868E+03 -0.49949742592E+03  0.10063126967E+04  0.46999998093E+01 0.  1.
</event>
<event>
 5   0  0.2777539E-05  0.2046591E+04  0.7818609E-02  0.8585142E-01
       -1   -1    0    0    0  501  0.00000000000E+00  0.00000000000E+00  0.10465545197E+04  0.10465545197E+04  0.50400001928E-02 0. -1.
        1   -1    0    0  501    0  0.00000000000E+00  0.00000000000E+00 -0.10005533898E+04  0.10005533898E+04  0.50400001928E-02 0.  1.
    10030    2    1    2    0    0  0.00000000000E+00  0.00000000000E+00  0.46001129965E+02  0.20471079095E+04  0.20465909922E+04 0.  0.
        3    1    3    3  502    0 -0.18781697556E+03  0.14329688475E+03  0.10189048169E+04  0.10459331956E+04  0.10100000352E+00 0. -1.
       -3    1    3    3    0  502  0.18781697556E+03 -0.14329688475E+03 -0.97290368696E+03  0.10011747139E+04  0.10100000352E+00 0.  1.
</event>
<event>
 5   0  0.2331375E-05  0.2533748E+04  0.7818609E-02  0.8391060E-01
       -3   -1    0    0    0  501  0.00000000000E+00  0.00000000000E+00  0.11812491554E+04  0.11812491597E+04  0.10100000352E+00 0.  1.
        3   -1    0    0  501    0  0.00000000000E+00  0.00000000000E+00 -0.13587054351E+04  0.13587054389E+04  0.10100000352E+00 0. -1.
    10030    2    1    2    0    0  0.00000000000E+00  0.00000000000E+00 -0.17745627974E+03  0.25399545986E+04  0.25337479416E+04 0.  0.
        4    1    3    3  502    0 -0.37541499765E+03 -0.16527003255E+03  0.11128395088E+04  0.11860286630E+04  0.12699999809E+01 0.  1.
       -4    1    3    3    0  502  0.37541499765E+03  0.16527003255E+03 -0.12902957886E+04  0.13539259356E+04  0.12699999809E+01 0. -1.
</event>
<event>
 5   0  0.2980790E-05  0.2461080E+04  0.7818609E-02  0.8416984E-01
       -1   -1    0    0    0  501  0.00000000000E+00  0.00000000000E+00  0.11266220096E+04  0.11266220096E+04  0.50400001928E-02 0. -1.
        1   -1    0    0  501    0  0.00000000000E+00  0.00000000000E+00 -0.13440436138E+04  0.13440436138E+04  0.50400001928E-02 0.  1.
    10030    2    1    2    0    0  0.00000000000E+00  0.00000000000E+00 -0.21742160417E+03  0.24706656234E+04  0.24610803458E+04 0.  0.
        5    1    3    3  502    0 -0.38129898827E+02 -0.10605269255E+04 -0.73406211485E+03  0.12903644940E+04  0.46999998093E+01 0.  1.
       -5    1    3    3    0  502  0.38129898827E+02  0.10605269255E+04  0.51664051067E+03  0.11803011294E+04  0.46999998093E+01 0. -1.
</event>
<event>
 5   0  0.6648328E-05  0.2295712E+04  0.7818609E-02  0.8479614E-01
       -2   -1    0    0    0  501  0.00000000000E+00  0.00000000000E+00  0.69063319009E+03  0.69063319010E+03  0.25500000920E-02 0. -1.
        2   -1    0    0  501    0  0.00000000000E+00  0.00000000000E+00 -0.19077762662E+04  0.19077762662E+04  0.25500000920E-02 0.  1.
    10030    2    1    2    0    0  0.00000000000E+00  0.00000000000E+00 -0.12171430761E+04  0.25984094563E+04  0.22957121847E+04 0.  0.
        2    1    3    3  502    0 -0.71396330046E+03 -0.57709582138E+03 -0.13884754986E+04  0.16645261764E+04  0.25500000920E-02 0.  1.
       -2    1    3    3    0  502  0.71396330046E+03  0.57709582138E+03  0.17133242257E+03  0.93388327990E+03  0.25500000920E-02 0. -1.
</event>
<event>
 5   0  0.2331375E-05  0.2549565E+04  0.7818609E-02  0.8385537E-01
       -3   -1    0    0    0  501  0.00000000000E+00  0.00000000000E+00  0.11297888419E+04  0.11297888465E+04  0.10100000352E+00 0. -1.
        3   -1    0    0  501    0  0.00000000000E+00  0.00000000000E+00 -0.14383841918E+04  0.14383841954E+04  0.10100000352E+00 0.  1.
    10030    2    1    2    0    0  0.00000000000E+00  0.00000000000E+00 -0.30859534989E+03  0.25681730418E+04  0.25495649988E+04 0.  0.
        1    1    3    3  502    0 -0.86620590257E+03 -0.73366336234E+03  0.43001867029E+03  0.12138742322E+04  0.50400001928E-02 0.  1.
       -1    1    3    3    0  502  0.86620590257E+03  0.73366336234E+03 -0.73861402017E+03  0.13542988096E+04  0.50400001928E-02 0. -1.
</event>
<event>
 5   0  0.2977854E-05  0.2483344E+04  0.7818609E-02  0.8408944E-01
        1   -1    0    0  501    0  0.00000000000E+00  0.00000000000E+00  0.20894909416E+04  0.20894909416E+04  0.50400001928E-02 0.  1.
       -1   -1    0    0    0  501  0.00000000000E+00  0.00000000000E+00 -0.73785854862E+03  0.73785854864E+03  0.50400001928E-02 0. -1.
    10030    2    1    2    0    0  0.00000000000E+00  0.00000000000E+00  0.13516323930E+04  0.28273494902E+04  0.24833435151E+04 0.  0.
        1    1    3    3  502    0 -0.43903829525E+03  0.16523967844E+02  0.19980363437E+04  0.20457704899E+04  0.50400001928E-02 0.  1.
       -1    1    3    3    0  502  0.43903829525E+03 -0.16523967844E+02 -0.64640395079E+03  0.78157900037E+03  0.50400001928E-02 0. -1.
</event>
<event>
 5   0  0.6648328E-05  0.2503416E+04  0.7818609E-02  0.8401769E-01
        2   -1    0    0  501    0  0.00000000000E+00  0.00000000000E+00  0.12027993428E+04  0.12027993428E+04  0.25500000920E-02 0. -1.
       -2   -1    0    0    0  501  0.00000000000E+00  0.00000000000E+00 -0.13026059091E+04  0.13026059091E+04  0.25500000920E-02 0.  1.
    10030    2    1    2    0    0  0.00000000000E+00  0.00000000000E+00 -0.99806566352E+02  0.25054052519E+04  0.25034164906E+04 0.  0.
        2    1    3    3  502    0  0.35111734364E+03  0.10918329804E+04  0.45188398571E+03  0.12327131794E+04  0.25500000920E-02 0. -1.
       -2    1    3    3    0  502 -0.35111734364E+03 -0.10918329804E+04 -0.55169055206E+03  0.12726920725E+04  0.25500000920E-02 0.  1.
</event>
<event>
 5   0  0.2793920E-05  0.2601090E+04  0.7818609E-02  0.8367831E-01
        1   -1    0    0  501    0  0.00000000000E+00  0.00000000000E+00  0.22021661947E+04  0.22021661947E+04  0.50400001928E-02 0. -1.
       -1   -1    0    0    0  501  0.00000000000E+00  0.00000000000E+00 -0.76806965087E+03  0.76806965089E+03  0.50400001928E-02 0.  1.
    10030    2    1    2    0    0  0.00000000000E+00  0.00000000000E+00  0.14340965438E+04  0.29702358456E+04  0.26010897873E+04 0.  0.
        2    1    3    3  502    0  0.59515116531E+03 -0.89271476302E+03 -0.12229962630E+03  0.10798619154E+04  0.25500000920E-02 0.  1.
       -2    1    3    3    0  502 -0.59515116531E+03  0.89271476302E+03  0.15563961701E+04  0.18903739302E+04  0.25500000920E-02 0. -1.
</event>
<event>
 5   0  0.2793920E-05  0.2540702E+04  0.7818609E-02  0.8388627E-01
        1   -1    0    0  501    0  0.00000000000E+00  0.00000000000E+00  0.16108344276E+04  0.16108344276E+04  0.50400001928E-02 0. -1.
       -1   -1    0    0    0  501  0.00000000000E+00  0.00000000000E+00 -0.10018357602E+04  0.10018357602E+04  0.50400001928E-02 0.  1.
    10030    2    1    2    0    0  0.00000000000E+00  0.00000000000E+00  0.60899866740E+03  0.26126701878E+04  0.25407018977E+04 0.  0.
        2    1    3    3  502    0 -0.21877547823E+03  0.36887918287E+03  0.15341370520E+04  0.15929567024E+04  0.25500000920E-02 0. -1.
       -2    1    3    3    0  502  0.21877547823E+03 -0.36887918287E+03 -0.92513838463E+03  0.10197134853E+04  0.25500000920E-02 0.  1.
</event>
<event>
 5   0  0.2896652E-05  0.2516883E+04  0.7818609E-02  0.8396995E-01
        1   -1    0    0  501    0  0.00000000000E+00  0.00000000000E+00  0.13723672912E+04  0.13723672913E+04  0.50400001928E-02 0.  1.
       -1   -1    0    0    0  501  0.00000000000E+00  0.00000000000E+00 -0.11539734212E+04  0.11539734212E+04  0.50400001928E-02 0. -1.
    10030    2    1    2    0    0  0.00000000000E+00  0.00000000000E+00  0.21839387005E+03  0.25263407125E+04  0.25168832935E+04 0.  0.
        4    1    3    3  502    0  0.11367808295E+04  0.80900925626E+02  0.64492348321E+03  0.13094821595E+04  0.12699999809E+01 0.  1.
       -4    1    3    3    0  502 -0.11367808295E+04 -0.80900925626E+02 -0.42652961315E+03  0.12168585529E+04  0.12699999809E+01 0. -1.
</event>
<event>
 5   0  0.2896652E-05  0.2214672E+04  0.7818609E-02  0.8512346E-01
        1   -1    0    0  501    0  0.00000000000E+00  0.00000000000E+00  0.16809844959E+04  0.16809844959E+04  0.50400001928E-02 0.  1.
       -1   -1    0    0    0  501  0.00000000000E+00  0.00000000000E+00 -0.72944945203E+03  0.72944945205E+03  0.50400001928E-02 0. -1.
    10030    2    1    2    0    0  0.00000000000E+00  0.00000000000E+00  0.95153504384E+03  0.24104339479E+04  0.22146721829E+04 0.  0.
        4    1    3    3  502    0  0.23962862447E+03  0.82942138393E+03 -0.27894493095E+03  0.90728914751E+03  0.12699999809E+01 0. -1.
       -4    1    3    3    0  502 -0.23962862447E+03 -0.82942138393E+03  0.12304799748E+04  0.15031448004E+04  0.12699999809E+01 0.  1.
</event>
<event>
 5   0  0.2980790E-05  0.2005901E+04  0.7818609E-02  0.8603867E-01
        1   -1    0    0  501    0  0.00000000000E+00  0.00000000000E+00  0.12514144572E+04  0.12514144572E+04  0.50400001928E-02 0. -1.
       -1   -1    0    0    0  501  0.00000000000E+00  0.00000000000E+00 -0.80381809619E+03  0.80381809620E+03  0.50400001928E-02 0.  1.
    10030    2    1    2    0    0  0.00000000000E+00  0.00000000000E+00  0.44759636105E+03  0.20552325535E+04  0.20059008815E+04 0.  0.
        5    1    3    3  502    0 -0.38444518240E+03 -0.90843463656E+03  0.40946146343E+03  0.10680507325E+04  0.46999998093E+01 0. -1.
       -5    1    3    3    0  502  0.38444518240E+03  0.90843463656E+03  0.38134897613E+02  0.98718182094E+03  0.46999998093E+01 0.  1.
</event>
<event>
 5   0  0.2777539E-05  0.2527583E+04  0.7818609E-02  0.8393224E-01
       -1   -1    0    0    0  501  0.00000000000E+00  0.00000000000E+00  0.14173957876E+04  0.14173957876E+04  0.50400001928E-02 0.  1.
        1   -1    0    0  501    0  0.00000000000E+00  0.00000000000E+00 -0.11268338338E+04  0.11268338338E+04  0.50400001928E-02 0. -1.
    10030    2    1    2    0    0  0.00000000000E+00  0.00000000000E+00  0.29056195383E+03  0.25442296214E+04  0.25275834541E+04 0.  0.
        3    1    3    3  502    0 -0.77682896852E+03  0.83166883158E+03 -0.40791391664E+03  0.12089375771E+04  0.10100000352E+00 0.  1.
       -3    1    3    3    0  502  0.77682896852E+03 -0.83166883158E+03  0.69847587047E+03  0.13352920443E+04  0.10100000352E+00 0. -1.
</event>
<event>
 5   0  0.7071821E-05  0.1579511E+04  0.7818609E-02  0.8833235E-01
        2   -1    0    0  501    0  0.00000000000E+00  0.00000000000E+00  0.15772982922E+04  0.15772982922E+04  0.25500000920E-02 0.  1.
       -2   -1    0    0    0  501  0.00000000000E+00  0.00000000000E+00 -0.39543146669E+03  0.39543146670E+03  0.25500000920E-02 0. -1.
    10030    2    1    2    0    0  0.00000000000E+00  0.00000000000E+00  0.11818668255E+04  0.19727297589E+04  0.15795105281E+04 0.  0.
        5    1    3    3  502    0  0.34635852517E+03 -0.61796430919E+03  0.10268995899E+04  0.12475531945E+04  0.46999998093E+01 0.  1.
       -5    1    3    3    0  502 -0.34635852517E+03  0.61796430919E+03  0.15496723556E+03  0.72517656435E+03  0.46999998093E+01 0. -1.
</event>
<event>
 5   0  0.2980790E-05  0.2521760E+04  0.7818609E-02  0.8395274E-01
       -1   -1    0    0    0  501  0.00000000000E+00  0.00000000000E+00  0.10001229509E+04  0.10001229509E+04  0.50400001928E-02 0.  1.
        1   -1    0    0  501    0  0.00000000000E+00  0.00000000000E+00 -0.15896224834E+04  0.15896224835E+04  0.50400001928E-02 0. -1.
    10030    2    1    2    0    0  0.00000000000E+00  0.00000000000E+00 -0.58949953253E+03  0.25897454344E+04  0.25217596468E+04 0.  0.
        5    1    3    3  502    0  0.42256819674E+02  0.37400754850E+03 -0.15305746730E+04  0.15761815266E+04  0.46999998093E+01 0. -1.
       -5    1    3    3    0  502 -0.42256819674E+02 -0.37400754850E+03  0.94107514048E+03  0.10135639078E+04  0.46999998093E+01 0.  1.
</event>
<event>
 5   0  0.6445331E-05  0.2265308E+04  0.7818609E-02  0.8491727E-01
       -2   -1    0    0    0  501  0.00000000000E+00  0.00000000000E+00  0.10871072204E+04  0.10871072204E+04  0.25500000920E-02 0. -1.
        2   -1    0    0  501    0  0.00000000000E+00  0.00000000000E+00 -0.11801093039E+04  0.11801093039E+04  0.25500000920E-02 0.  1.
    10030    2    1    2    0    0  0.00000000000E+00  0.00000000000E+00 -0.93002083457E+02  0.22672165243E+04  0.22653082308E+04 0.  0.
        1    1    3    3  502    0 -0.38638931677E+03 -0.93081167026E+03 -0.56384873938E+03  0.11548300613E+04  0.50400001928E-02 0.  1.
       -1    1    3    3    0  502  0.38638931677E+03  0.93081167026E+03  0.47084665592E+03  0.11123864630E+04  0.50400001928E-02 0. -1.
</event>
<event>
 5   0  0.2777539E-05  0.1628800E+04  0.7818609E-02  0.8803048E-01
        1   -1    0    0  501    0  0.00000000000E+00  0.00000000000E+00  0.10319030174E+04  0.10319030174E+04  0.50400001928E-02 0. -1.
       -1   -1    0    0    0  501  0.00000000000E+00  0.00000000000E+00 -0.64274195986E+03  0.64274195988E+03  0.50400001928E-02 0.  1.
    10030    2    1    2    0    0  0.00000000000E+00  0.00000000000E+00  0.38916105756E+03  0.16746449773E+04  0.16288000096E+04 0.  0.
        3    1    3    3  502    0  0.41007446858E+03  0.62400574783E+03  0.52885166681E+03  0.91500182448E+03  0.10100000352E+00 0. -1.
       -3    1    3    3    0  502 -0.41007446858E+03 -0.62400574783E+03 -0.13969060925E+03  0.75964315282E+03  0.10100000352E+00 0.  1.
</event>
<event>
 5   0  0.2896652E-05  0.2530966E+04  0.7818609E-02  0.8392036E-01
        1   -1    0    0  501    0  0.00000000000E+00  0.00000000000E+00  0.16733328932E+04  0.16733328932E+04  0.50400001928E-02 0. -1.
       -1   -1    0    0    0  501  0.00000000000E+00  0.00000000000E+00 -0.95704079386E+03  0.95704079388E+03  0.50400001928E-02 0.  1.
    10030    2    1    2    0    0  0.00000000000E+00  0.00000000000E+00  0.71629209932E+03  0.26303736871E+04  0.25309664877E+04 0.  0.
        4    1    3    3  502    0 -0.11143770630E+04 -0.58795655905E+03  0.23554194168E+03  0.12817998178E+04  0.12699999809E+01 0.  1.
       -4    1    3    3    0  502  0.11143770630E+04  0.58795655905E+03  0.48075015765E+03  0.13485738692E+04  0.12699999809E+01 0. -1.
</event>
<event>
 5   0  0.6445331E-05  0.2447711E+04  0.7818609E-02  0.8421854E-01
       -2   -1    0    0    0  501  0.00000000000E+00  0.00000000000E+00  0.14033597007E+04  0.14033597007E+04  0.25500000920E-02 0. -1.
        2   -1    0    0  501    0  0.00000000000E+00  0.00000000000E+00 -0.10673119397E+04  0.10673119397E+04  0.25500000920E-02 0.  1.
    10030    2    1    2    0    0  0.00000000000E+00  0.00000000000E+00  0.33604776098E+03  0.24706716404E+04  0.24477112283E+04 0.  0.
        1    1    3    3  502    0 -0.11779801709E+03  0.96291498598E+03 -0.58512601815E+03  0.11328963325E+04  0.50400001928E-02 0.  1.
       -1    1    3    3    0  502  0.11779801709E+03 -0.96291498598E+03  0.92117377913E+03  0.13377753079E+04  0.50400001928E-02 0. -1.
</event>
<event>
 5   0  0.6827859E-05  0.2513373E+04  0.7818609E-02  0.8398237E-01
       -2   -1    0    0    0  501  0.00000000000E+00  0.00000000000E+00  0.80336885699E+03  0.80336885700E+03  0.25500000920E-02 0. -1.
        2   -1    0    0  501    0  0.00000000000E+00  0.00000000000E+00 -0.19657979817E+04  0.19657979817E+04  0.25500000920E-02 0.  1.
    10030    2    1    2    0    0  0.00000000000E+00  0.00000000000E+00 -0.11624291247E+04  0.27691668387E+04  0.25133729350E+04 0.  0.
        3    1    3    3  502    0 -0.51413489450E+03  0.45445491218E+03 -0.17411660905E+04  0.18715029580E+04  0.10100000352E+00 0.  1.
       -3    1    3    3    0  502  0.51413489450E+03 -0.45445491218E+03  0.57873696578E+03  0.89766388070E+03  0.10100000352E+00 0. -1.
</event>
<event>
 5   0  0.6445331E-05  0.2482689E+04  0.7818609E-02  0.8409179E-01
       -2   -1    0    0    0  501  0.00000000000E+00  0.00000000000E+00  0.10268525279E+04  0.10268525279E+04  0.25500000920E-02 0. -1.
        2   -1    0    0  501    0  0.00000000000E+00  0.00000000000E+00 -0.15006396671E+04  0.15006396671E+04  0.25500000920E-02 0.  1.
    10030    2    1    2    0    0  0.00000000000E+00  0.00000000000E+00 -0.47378713912E+03  0.25274921950E+04  0.24826885714E+04 0.  0.
        1    1    3    3  502    0  0.20358245145E+03 -0.69695316389E+03 -0.12619131890E+04  0.14558895645E+04  0.50400001928E-02 0.  1.
       -1    1    3    3    0  502 -0.20358245145E+03  0.69695316389E+03  0.78812604991E+03  0.10716026305E+04  0.50400001928E-02 0. -1.
</event>
<event>
 5   0  0.6827859E-05  0.2514048E+04  0.7818609E-02  0.8397998E-01
        2   -1    0    0  501    0  0.00000000000E+00  0.00000000000E+00  0.12044628409E+04  0.12044628409E+04  0.25500000920E-02 0. -1.
       -2   -1    0    0    0  501  0.00000000000E+00  0.00000000000E+00 -0.13118785687E+04  0.13118785687E+04  0.25500000920E-02 0.  1.
    10030    2    1    2    0    0  0.00000000000E+00  0.00000000000E+00 -0.10741572786E+03  0.25163414096E+04  0.25140477225E+04 0.  0.
        3    1    3    3  502    0  0.73760040650E+03 -0.55294891872E+03  0.80164896151E+03  0.12216578629E+04  0.10100000352E+00 0. -1.
       -3    1    3    3    0  502 -0.73760040650E+03  0.55294891872E+03 -0.90906468937E+03  0.12946835467E+04  0.10100000352E+00 0.  1.
</event>
<event>
 5   0  0.6648328E-05  0.2531034E+04  0.7818609E-02  0.8392012E-01
       -2   -1    0    0    0  501  0.00000000000E+00  0.00000000000E+00  0.65857640859E+03  0.65857640860E+03  0.25500000920E-02 0.  1.
        2   -1    0    0  501    0  0.00000000000E+00  0.00000000000E+00 -0.24318118267E+04  0.24318118267E+04  0.25500000920E-02 0. -1.
    10030    2    1    2    0    0  0.00000000000E+00  0.00000000000E+00 -0.17732354181E+04  0.30903882353E+04  0.25310344914E+04 0.  0.
        2    1    3    3  502    0  0.94356865151E+03  0.77308866951E+03 -0.12980524060E+04  0.17812714391E+04  0.25500000920E-02 0. -1.
       -2    1    3    3    0  502 -0.94356865151E+03 -0.77308866951E+03 -0.47518301208E+03  0.13091167962E+04  0.25500000920E-02 0.  1.
</event>
<event>
 5   0  0.6445331E-05  0.2567437E+04  0.7818609E-02  0.8379347E-01
       -2   -1    0    0    0  501  0.00000000000E+00  0.00000000000E+00  0.92752187515E+03  0.92752187515E+03  0.25500000920E-02 0. -1.
        2   -1    0    0  501    0  0.00000000000E+00  0.00000000000E+00 -0.17767048381E+04  0.17767048381E+04  0.25500000920E-02 0.  1.
    10030    2    1    2    0    0  0.00000000000E+00  0.00000000000E+00 -0.84918296292E+03  0.27042267132E+04  0.25674365449E+04 0.  0.
        1    1    3    3  502    0 -0.43372778138E+03 -0.91228355750E+03 -0.12589795298E+04  0.16141284131E+04  0.50400001928E-02 0.  1.
       -1    1    3    3    0  502  0.43372778138E+03  0.91228355750E+03  0.40979656688E+03  0.10900983001E+04  0.50400001928E-02 0. -1.
</event>
<event>
 5   0  0.2980790E-05  0.2505389E+04  0.7818609E-02  0.8401068E-01
       -1   -1    0    0    0  501  0.00000000000E+00  0.00000000000E+00  0.12917763715E+04  0.12917763715E+04  0.50400001928E-02 0.  1.
        1   -1    0    0  501    0  0.00000000000E+00  0.00000000000E+00 -0.12147950623E+04  0.12147950623E+04  0.50400001928E-02 0. -1.
    10030    2    1    2    0    0  0.00000000000E+00  0.00000000000E+00  0.76981309223E+02  0.25065714338E+04  0.25053890378E+04 0.  0.
        5    1    3    3  502    0  0.13927525955E+03 -0.38215928366E+03  0.12238612572E+04  0.12896905764E+04  0.46999998093E+01 0.  1.
       -5    1    3    3    0  502 -0.13927525955E+03  0.38215928366E+03 -0.11468799480E+04  0.12168808574E+04  0.46999998093E+01 0. -1.
</event>
<event>
 5   0  0.2980790E-05  0.2436589E+04  0.7818609E-02  0.8425931E-01
        1   -1    0    0  501    0  0.00000000000E+00  0.00000000000E+00  0.18521795929E+04  0.18521795929E+04  0.50400001928E-02 0.  1.
       -1   -1    0    0    0  501  0.00000000000E+00  0.00000000000E+00 -0.80134859494E+03  0.80134859496E+03  0.50400001928E-02 0. -1.
    10030    2    1    2    0    0  0.00000000000E+00  0.00000000000E+00  0.10508309979E+04  0.26535281878E+04  0.24365890210E+04 0.  0.
        5    1    3    3  502    0 -0.11037326362E+04  0.31965978223E+03  0.84644134788E+02  0.11522130134E+04  0.46999998093E+01 0.  1.
       -5    1    3    3    0  502  0.11037326362E+04 -0.31965978223E+03  0.96618686313E+03  0.15013151745E+04  0.46999998093E+01 0. -1.
</event>
<event>
 5   0  0.6648328E-05  0.1487357E+04  0.7818609E-02  0.8892904E-01
        2   -1    0    0  501    0  0.00000000000E+00  0.00000000000E+00  0.70066185541E+03  0.70066185541E+03  0.25500000920E-02 0.  1.
       -2   -1    0    0    0  501  0.00000000000E+00  0.00000000000E+00 -0.78933642172E+03  0.78933642173E+03  0.25500000920E-02 0. -1.
    10030    2    1    2    0    0  0.00000000000E+00  0.00000000000E+00 -0.88674566315E+02  0.14899982771E+04  0.14873572830E+04 0.  0.
        2    1    3    3  502    0 -0.15476604069E+03 -0.23658748722E+03  0.64472981055E+03  0.70399055042E+03  0.25500000920E-02 0.  1.
       -2    1    3    3    0  502  0.15476604069E+03  0.23658748722E+03 -0.73340437686E+03  0.78600772672E+03  0.25500000920E-02 0. -1.
</event>
<event>
 5   0  0.2777539E-05  0.2186039E+04  0.7818609E-02  0.8524262E-01
        1   -1    0    0  501    0  0.00000000000E+00  0.00000000000E+00  0.20712569704E+04  0.20712569704E+04  0.50400001928E-02 0.  1.
       -1   -1    0    0    0  501  0.00000000000E+00  0.00000000000E+00 -0.57679521117E+03  0.57679521119E+03  0.50400001928E-02 0. -1.
    10030    2    1    2    0    0  0.00000000000E+00  0.00000000000E+00  0.14944617592E+04  0.26480521816E+04  0.21860385190E+04 0.  0.
        3    1    3    3  502    0  0.20637244250E+03 -0.98635466765E+03  0.12600272858E+04  0.16134292320E+04  0.10100000352E+00 0.  1.
       -3    1    3    3    0  502 -0.20637244250E+03  0.98635466765E+03  0.23443447347E+03  0.10346229497E+04  0.10100000352E+00 0. -1.
</event>
<event>
 5   0  0.2980790E-05  0.1817700E+04  0.7818609E-02  0.8696943E-01
       -1   -1    0    0    0  501  0.00000000000E+00  0.00000000000E+00  0.49898761717E+03  0.49898761719E+03  0.50400001928E-02 0.  1.
        1   -1    0    0  501    0  0.00000000000E+00  0.00000000000E+00 -0.16553689767E+04  0.16553689767E+04  0.50400001928E-02 0. -1.
    10030    2    1    2    0    0  0.00000000000E+00  0.00000000000E+00 -0.11563813595E+04  0.21543565939E+04  0.18177003287E+04 0.  0.
        5    1    3    3  502    0 -0.73054856464E+03  0.54022225772E+03 -0.55318195666E+03  0.10637545113E+04  0.46999998093E+01 0.  1.
       -5    1    3    3    0  502  0.73054856464E+03 -0.54022225772E+03 -0.60319940286E+03  0.10906020826E+04  0.46999998093E+01 0. -1.
</event>
<event>
 5   0  0.2331375E-05  0.1689408E+04  0.7818609E-02  0.8767429E-01
       -4   -1    0    0    0  501  0.00000000000E+00  0.00000000000E+00  0.75366171856E+03  0.75366278860E+03  0.12699999809E+01 0. -1.
        4   -1    0    0  501    0  0.00000000000E+00  0.00000000000E+00 -0.94674178880E+03  0.94674264062E+03  0.12699999809E+01 0.  1.
    10030    2    1    2    0    0  0.00000000000E+00  0.00000000000E+00 -0.19308007024E+03  0.17004054292E+04  0.16894077987E+04 0.  0.
        2    1    3    3  502    0  0.62630088801E+03  0.45597990297E+03 -0.43541290663E+03  0.88868153661E+03  0.25500000920E-02 0. -1.
       -2    1    3    3    0  502 -0.62630088801E+03 -0.45597990297E+03  0.24233283639E+03  0.81172389261E+03  0.25500000920E-02 0.  1.
</event>
<event>
 5   0  0.6827859E-05  0.2684143E+04  0.7818609E-02  0.8340169E-01
        2   -1    0    0  501    0  0.00000000000E+00  0.00000000000E+00  0.22715686864E+04  0.22715686864E+04  0.25500000920E-02 0.  1.
       -2   -1    0    0    0  501  0.00000000000E+00  0.00000000000E+00 -0.79291252855E+03  0.79291252855E+03  0.25500000920E-02 0. -1.
    10030    2    1    2    0    0  0.00000000000E+00  0.00000000000E+00  0.14786561579E+04  0.30644812150E+04  0.26841425230E+04 0.  0.
        3    1    3    3  502    0  0.92294053285E+03  0.29854279594E+03 -0.31956763023E+03  0.10213082339E+04  0.10100000352E+00 0. -1.
       -3    1    3    3    0  502 -0.92294053285E+03 -0.29854279594E+03  0.17982237881E+04  0.20431729810E+04  0.10100000352E+00 0.  1.
</event>
<event>
 5   0  0.2980790E-05  0.2411749E+04  0.7818609E-02  0.8435118E-01
       -1   -1    0    0    0  501  0.00000000000E+00  0.00000000000E+00  0.10218919086E+04  0.10218919086E+04  0.50400001928E-02 0. -1.
        1   -1    0    0  501    0  0.00000000000E+00  0.00000000000E+00 -0.14229819309E+04  0.14229819309E+04  0.50400001928E-02 0.  1.
    10030    2    1    2    0    0  0.00000000000E+00  0.00000000000E+00 -0.40109002231E+03  0.24448738396E+04  0.24117493413E+04 0.  0.
        5    1    3    3  502    0  0.53760000890E+03 -0.10781493277E+04 -0.25314102749E+03  0.12310654785E+04  0.46999998093E+01 0.  1.
       -5    1    3    3    0  502 -0.53760000890E+03  0.10781493277E+04 -0.14794899482E+03  0.12138083611E+04  0.46999998093E+01 0. -1.
</event>
<event>
 5   0  0.6648328E-05  0.2425547E+04  0.7818609E-02  0.8430001E-01
        2   -1    0    0  501    0  0.00000000000E+00  0.00000000000E+00  0.72173953150E+03  0.72173953150E+03  0.25500000920E-02 0. -1.
       -2   -1    0    0    0  501  0.00000000000E+00  0.00000000000E+00 -0.20378819587E+04  0.20378819587E+04  0.25500000920E-02 0.  1.
    10030    2    1    2    0    0  0.00000000000E+00  0.00000000000E+00 -0.13161424272E+04  0.27596214902E+04  0.24255473363E+04 0.  0.
        2    1    3    3  502    0 -0.10549970720E+04  0.27542930793E+03 -0.53958477654E+02  0.10916921008E+04  0.25500000920E-02 0. -1.
       -2    1    3    3    0  502  0.10549970720E+04 -0.27542930793E+03 -0.12621839495E+04  0.16679293894E+04  0.25500000920E-02 0.  1.
</event>
<event>
 5   0  0.2977854E-05  0.2455845E+04  0.7818609E-02  0.8418887E-01
        1   -1    0    0  501    0  0.00000000000E+00  0.00000000000E+00  0.16337158850E+04  0.16337158850E+04  0.50400001928E-02 0. -1.
       -1   -1    0    0    0  501  0.00000000000E+00  0.00000000000E+00 -0.92292275964E+03  0.92292275965E+03  0.50400001928E-02 0.  1.
    10030    2    1    2    0    0  0.00000000000E+00  0.00000000000E+00  0.71079312532E+03  0.25566386446E+04  0.24558449243E+04 0.  0.
        1    1    3    3  502    0 -0.61542495261E+03 -0.45364340746E+03 -0.64490018772E+03  0.10002182090E+04  0.50400001928E-02 0.  1.
       -1    1    3    3    0  502  0.61542495261E+03  0.45364340746E+03  0.13556933130E+04  0.15564204356E+04  0.50400001928E-02 0. -1.
</event>
<event>
 5   0  0.6445331E-05  0.2707388E+04  0.7818609E-02  0.8332612E-01
        2   -1    0    0  501    0  0.00000000000E+00  0.00000000000E+00  0.15510263537E+04  0.15510263537E+04  0.25500000920E-02 0.  1.
       -2   -1    0    0    0  501  0.00000000000E+00  0.00000000000E+00 -0.11814677638E+04  0.11814677638E+04  0.25500000920E-02 0. -1.
    10030    2    1    2    0    0  0.00000000000E+00  0.00000000000E+00  0.36955858987E+03  0.27324941175E+04  0.27073881419E+04 0.  0.
        1    1    3    3  502    0  0.15723745053E+03  0.84547757742E+02 -0.11695342729E+04  0.11830817194E+04  0.50400001928E-02 0. -1.
       -1    1    3    3    0  502 -0.15723745053E+03 -0.84547757742E+02  0.15390928628E+04  0.15494123981E+04  0.50400001928E-02 0.  1.
</event>
<event>
 5   0  0.2793920E-05  0.2424779E+04  0.7818609E-02  0.8430284E-01
       -1   -1    0    0    0  501  0.00000000000E+00  0.00000000000E+00  0.80549764599E+03  0.80549764601E+03  0.50400001928E-02 0. -1.
        1   -1    0    0  501    0  0.00000000000E+00  0.00000000000E+00 -0.18248205914E+04  0.18248205914E+04  0.50400001928E-02 0.  1.
    10030    2    1    2    0    0  0.00000000000E+00  0.00000000000E+00 -0.10193229454E+04  0.26303182374E+04  0.24247793226E+04 0.  0.
        2    1    3    3  502    0 -0.79569501750E+03  0.85748740919E+03 -0.85521261948E+03  0.14490699922E+04  0.25500000920E-02 0.  1.
       -2    1    3    3    0  502  0.79569501750E+03 -0.85748740919E+03 -0.16411032596E+03  0.11812482452E+04  0.25500000920E-02 0. -1.
</event>
<event>
 5   0  0.2777539E-05  0.2479357E+04  0.7818609E-02  0.8410377E-01
        1   -1    0    0  501    0  0.00000000000E+00  0.00000000000E+00  0.83255764237E+03  0.83255764239E+03  0.50400001928E-02 0.  1.
       -1   -1    0    0    0  501  0.00000000000E+00  0.00000000000E+00 -0.18458810500E+04  0.18458810500E+04  0.50400001928E-02 0. -1.
    10030    2    1    2    0    0  0.00000000000E+00  0.00000000000E+00 -0.10133234076E+04  0.26784386924E+04  0.24793566707E+04 0.  0.
        3    1    3    3  502    0  0.39138477597E+03 -0.74109445649E+03 -0.14934629197E+04  0.17125520544E+04  0.10100000352E+00 0. -1.
       -3    1    3    3    0  502 -0.39138477597E+03  0.74109445649E+03  0.48013951204E+03  0.96588663803E+03  0.10100000352E+00 0.  1.
</event>
<event>
 5   0  0.2980790E-05  0.1287669E+04  0.7818609E-02  0.9039402E-01
        1   -1    0    0  501    0  0.00000000000E+00  0.00000000000E+00  0.15364310298E+04  0.15364310298E+04  0.50400001928E-02 0.  1.
       -1   -1    0    0    0  501  0.00000000000E+00  0.00000000000E+00 -0.26979576462E+03  0.26979576467E+03  0.50400001928E-02 0. -1.
    10030    2    1    2    0    0  0.00000000000E+00  0.00000000000E+00  0.12666352652E+04  0.18062267945E+04  0.12876685669E+04 0.  0.
        5    1    3    3  502    0 -0.53725477845E+03  0.12233710055E+03  0.11004254987E+04  0.12306776310E+04  0.46999998093E+01 0.  1.
       -5    1    3    3    0  502  0.53725477845E+03 -0.12233710055E+03  0.16620976646E+03  0.57554916350E+03  0.46999998093E+01 0. -1.
</event>
<event>
 5   0  0.2793920E-05  0.2128765E+04  0.7818609E-02  0.8548677E-01
        1   -1    0    0  501    0  0.00000000000E+00  0.00000000000E+00  0.17841550166E+04  0.17841550166E+04  0.50400001928E-02 0. -1.
       -1   -1    0    0    0  501  0.00000000000E+00  0.00000000000E+00 -0.63498436044E+03  0.63498436046E+03  0.50400001928E-02 0.  1.
    10030    2    1    2    0    0  0.00000000000E+00  0.00000000000E+00  0.11491706562E+04  0.24191393771E+04  0.21287654001E+04 0.  0.
        2    1    3    3  502    0  0.75118984178E+03  0.17300709902E+03  0.14086576556E+04  0.16057814376E+04  0.25500000920E-02 0. -1.
       -2    1    3    3    0  502 -0.75118984178E+03 -0.17300709902E+03 -0.25948699947E+03  0.81335793942E+03  0.25500000920E-02 0.  1.
</event>
<event>
 5   0  0.6909250E-05  0.1820627E+04  0.7818609E-02  0.8695406E-01
        2   -1    0    0  501    0  0.00000000000E+00  0.00000000000E+00  0.11156261106E+04  0.11156261106E+04  0.25500000920E-02 0. -1.
       -2   -1    0    0    0  501  0.00000000000E+00  0.00000000000E+00 -0.74278550379E+03  0.74278550380E+03  0.25500000920E-02 0.  1.
    10030    2    1    2    0    0  0.00000000000E+00  0.00000000000E+00  0.37284060679E+03  0.18584116144E+04  0.18206272574E+04 0.  0.
        4    1    3    3  502    0  0.73433598888E+03 -0.33387333231E+03 -0.24417381055E+03  0.84281860993E+03  0.12699999809E+01 0.  1.
       -4    1    3    3    0  502 -0.73433598888E+03  0.33387333231E+03  0.61701441734E+03  0.10155930045E+04  0.12699999809E+01 0. -1.
</event>
<event>
 5   0  0.2896652E-05  0.2481122E+04  0.7818609E-02  0.8409742E-01
        1   -1    0    0  501    0  0.00000000000E+00  0.00000000000E+00  0.19389127485E+04  0.19389127485E+04  0.50400001928E-02 0. -1.
       -1   -1    0    0    0  501  0.00000000000E+00  0.00000000000E+00 -0.79373960069E+03  0.79373960070E+03  0.50400001928E-02 0.  1.
    10030    2    1    2    0    0  0.00000000000E+00  0.00000000000E+00  0.11451731478E+04  0.27326523492E+04  0.24811221903E+04 0.  0.
        4    1    3    3  502    0 -0.15197054227E+03  0.25509773896E+03  0.18991958969E+04  0.19222685999E+04  0.12699999809E+01 0. -1.
       -4    1    3    3    0  502  0.15197054227E+03 -0.25509773896E+03 -0.75402274912E+03  0.81038374936E+03  0.12699999809E+01 0.  1.
</event>
<event>
 5   0  0.2980790E-05  0.2270664E+04  0.7818609E-02  0.8489578E-01
       -1   -1    0    0    0  501  0.00000000000E+00  0.00000000000E+00  0.12663325570E+04  0.12663325570E+04  0.50400001928E-02 0.  1.
        1   -1    0    0  501    0  0.00000000000E+00  0.00000000000E+00 -0.10178832880E+04  0.10178832880E+04  0.50400001928E-02 0. -1.
    10030    2    1    2    0    0  0.00000000000E+00  0.00000000000E+00  0.24844926897E+03  0.22842158450E+04  0.22706639970E+04 0.  0.
        5    1    3    3  502    0  0.10676579949E+04 -0.23445580258E+02 -0.26344968983E+03  0.10999414159E+04  0.46999998093E+01 0.  1.
       -5    1    3    3    0  502 -0.10676579949E+04  0.23445580258E+02  0.51189895880E+03  0.11842744291E+04  0.46999998093E+01 0. -1.
</event>
<event>
 5   0  0.2793920E-05  0.2463722E+04  0.7818609E-02  0.8416025E-01
       -1   -1    0    0    0  501  0.00000000000E+00  0.00000000000E+00  0.81306408033E+03  0.81306408034E+03  0.50400001928E-02 0. -1.
        1   -1    0    0  501    0  0.00000000000E+00  0.00000000000E+00 -0.18663740817E+04  0.18663740817E+04  0.50400001928E-02 0.  1.
    10030    2    1    2    0    0  0.00000000000E+00  0.00000000000E+00 -0.10533100014E+04  0.26794381621E+04  0.24637221648E+04 0.  0.
        2    1    3    3  502    0 -0.60133870834E+03  0.36667190804E+02  0.64191418808E+03  0.88034456317E+03  0.25500000920E-02 0. -1.
       -2    1    3    3    0  502  0.60133870834E+03 -0.36667190804E+02 -0.16952241895E+04  0.17990935989E+04  0.25500000920E-02 0.  1.
</event>
<event>
 5   0  0.6445331E-05  0.2503871E+04  0.7818609E-02  0.8401608E-01
       -2   -1    0    0    0  501  0.00000000000E+00  0.00000000000E+00  0.91865634672E+03  0.91865634672E+03  0.25500000920E-02 0.  1.
        2   -1    0    0  501    0  0.00000000000E+00  0.00000000000E+00 -0.17061251041E+04  0.17061251041E+04  0.25500000920E-02 0. -1.
    10030    2    1    2    0    0  0.00000000000E+00  0.00000000000E+00 -0.78746875739E+03  0.26247814508E+04  0.25038711270E+04 0.  0.
        1    1    3    3  502    0 -0.58368500286E+03  0.30113944949E+03 -0.15110207788E+04  0.16475912553E+04  0.50400001928E-02 0. -1.
       -1    1    3    3    0  502  0.58368500286E+03 -0.30113944949E+03  0.72355202138E+03  0.97719019554E+03  0.50400001928E-02 0.  1.
</event>
<event>
 5   0  0.6827859E-05  0.2511334E+04  0.7818609E-02  0.8398959E-01
        2   -1    0    0  501    0  0.00000000000E+00  0.00000000000E+00  0.11614937351E+04  0.11614937351E+04  0.25500000920E-02 0. -1.
       -2   -1    0    0    0  501  0.00000000000E+00  0.00000000000E+00 -0.13574760115E+04  0.13574760116E+04  0.25500000920E-02 0.  1.
    10030    2    1    2    0    0  0.00000000000E+00  0.00000000000E+00 -0.19598227645E+03  0.25189697467E+04  0.25113342135E+04 0.  0.
        3    1    3    3  502    0 -0.10343270568E+04 -0.31395956453E+03  0.54293270551E+03  0.12096193622E+04  0.10100000352E+00 0. -1.
       -3    1    3    3    0  502  0.10343270568E+04  0.31395956453E+03 -0.73891498196E+03  0.13093503845E+04  0.10100000352E+00 0.  1.
</event>
<event>
 5   0  0.6827859E-05  0.2461218E+04  0.7818609E-02  0.8416934E-01
        2   -1    0    0  501    0  0.00000000000E+00  0.00000000000E+00  0.98318773587E+03  0.98318773587E+03  0.25500000920E-02 0.  1.
       -2   -1    0    0    0  501  0.00000000000E+00  0.00000000000E+00 -0.15402942870E+04  0.15402942870E+04  0.25500000920E-02 0. -1.
    10030    2    1    2    0    0  0.00000000000E+00  0.00000000000E+00 -0.55710655115E+03  0.25234820229E+04  0.24612179527E+04 0.  0.
        3    1    3    3  502    0  0.74842581419E+03  0.93867509724E+03 -0.55585101997E+03  0.13229597515E+04  0.10100000352E+00 0. -1.
       -3    1    3    3    0  502 -0.74842581419E+03 -0.93867509724E+03 -0.12555311837E+01  0.12005222714E+04  0.10100000352E+00 0.  1.
</event>
<event>
 5   0  0.2896652E-05  0.2519897E+04  0.7818609E-02  0.8395931E-01
        1   -1    0    0  501    0  0.00000000000E+00  0.00000000000E+00  0.13755733699E+04  0.13755733699E+04  0.50400001928E-02 0.  1.
       -1   -1    0    0    0  501  0.00000000000E+00  0.00000000000E+00 -0.11540425683E+04  0.11540425683E+04  0.50400001928E-02 0. -1.
    10030    2    1    2    0    0  0.00000000000E+00  0.00000000000E+00  0.22153080158E+03  0.25296159382E+04  0.25198970016E+04 0.  0.
        4    1    3    3  502    0 -0.55331023775E+02  0.57019011778E+03  0.12372745713E+04  0.13634618698E+04  0.12699999809E+01 0.  1.
       -4    1    3    3    0  502  0.55331023775E+02 -0.57019011778E+03 -0.10157437698E+04  0.11661540684E+04  0.12699999809E+01 0. -1.
</event>
<event>
 5   0  0.6445331E-05  0.2302633E+04  0.7818609E-02  0.8476884E-01
        2   -1    0    0  501    0  0.00000000000E+00  0.00000000000E+00  0.19341838526E+04  0.19341838526E+04  0.25500000920E-02 0.  1.
       -2   -1    0    0    0  501  0.00000000000E+00  0.00000000000E+00 -0.68531703873E+03  0.68531703874E+03  0.25500000920E-02 0. -1.
    10030    2    1    2    0    0  0.00000000000E+00  0.00000000000E+00  0.12488668138E+04  0.26195008913E+04  0.23026325371E+04 0.  0.
        1    1    3    3  502    0  0.54351601213E+03 -0.97385401317E+03  0.94965469523E+03  0.14648021486E+04  0.50400001928E-02 0.  1.
       -1    1    3    3    0  502 -0.54351601213E+03  0.97385401317E+03  0.29921211860E+03  0.11546987427E+04  0.50400001928E-02 0. -1.
</event>
<event>
 5   0  0.2793920E-05  0.1258941E+04  0.7818609E-02  0.9062774E-01
        1   -1    0    0  501    0  0.00000000000E+00  0.00000000000E+00  0.22901941475E+04  0.22901941475E+04  0.50400001928E-02 0.  1.
       -1   -1    0    0    0  501  0.00000000000E+00  0.00000000000E+00 -0.17301302296E+03  0.17301302304E+03  0.50400001928E-02 0. -1.
    10030    2    1    2    0    0  0.00000000000E+00  0.00000000000E+00  0.21171811245E+04  0.24632071705E+04  0.12589414803E+04 0.  0.
        2    1    3    3  502    0  0.62761136626E+02  0.19661668758E+03  0.22221105138E+04  0.22316747562E+04  0.25500000920E-02 0.  1.
       -2    1    3    3    0  502 -0.62761136626E+02 -0.19661668758E+03 -0.10492938931E+03  0.23153241426E+03  0.25500000920E-02 0. -1.
</event>
<event>
 5   0  0.2977854E-05  0.2140107E+04  0.7818609E-02  0.8543779E-01
        1   -1    0    0  501    0  0.00000000000E+00  0.00000000000E+00  0.11022714892E+04  0.11022714893E+04  0.50400001928E-02 0. -1.
       -1   -1    0    0    0  501  0.00000000000E+00  0.00000000000E+00 -0.10387773047E+04  0.10387773047E+04  0.50400001928E-02 0.  1.
    10030    2    1    2    0    0  0.00000000000E+00  0.00000000000E+00  0.63494184506E+02  0.21410487940E+04  0.21401071064E+04 0.  0.
        1    1    3    3  502    0  0.30832074319E+03  0.62525696551E+03 -0.78040235918E+03  0.10464395806E+04  0.50400001928E-02 0.  1.
       -1    1    3    3    0  502 -0.30832074319E+03 -0.62525696551E+03  0.84389654368E+03  0.10946092134E+04  0.50400001928E-02 0. -1.
</event>
<event>
 5   0  0.2980790E-05  0.2470237E+04  0.7818609E-02  0.8413666E-01
        1   -1    0    0  501    0  0.00000000000E+00  0.00000000000E+00  0.81972760347E+03  0.81972760348E+03  0.50400001928E-02 0.  1.
       -1   -1    0    0    0  501  0.00000000000E+00  0.00000000000E+00 -0.18610051152E+04  0.18610051152E+04  0.50400001928E-02 0. -1.
    10030    2    1    2    0    0  0.00000000000E+00  0.00000000000E+00 -0.10412775117E+04  0.26807327187E+04  0.24702366390E+04 0.  0.
        5    1    3    3  502    0  0.89785959952E+03 -0.84183543223E+03 -0.63266520603E+03  0.13838808144E+04  0.46999998093E+01 0.  1.
       -5    1    3    3    0  502 -0.89785959952E+03  0.84183543223E+03 -0.40861230569E+03  0.12968519043E+04  0.46999998093E+01 0. -1.
</event>
<event>
 5   0  0.6648328E-05  0.2352678E+04  0.7818609E-02  0.8457436E-01
       -2   -1    0    0    0  501  0.00000000000E+00  0.00000000000E+00  0.62815716834E+03  0.62815716835E+03  0.25500000920E-02 0. -1.
        2   -1    0    0  501    0  0.00000000000E+00  0.00000000000E+00 -0.22029098510E+04  0.22029098510E+04  0.25500000920E-02 0.  1.
    10030    2    1    2    0    0  0.00000000000E+00  0.00000000000E+00 -0.15747526827E+04  0.28310670194E+04  0.23526781455E+04 0.  0.
        2    1    3    3  502    0 -0.84407257535E+03 -0.40673749707E+03 -0.16432531580E+04  0.18916064193E+04  0.25500000920E-02 0.  1.
       -2    1    3    3    0  502  0.84407257535E+03  0.40673749707E+03  0.68500475378E+02  0.93946060009E+03  0.25500000920E-02 0. -1.
</event>
<event>
 5   0  0.6445331E-05  0.2543977E+04  0.7818609E-02  0.8387484E-01
        2   -1    0    0  501    0  0.00000000000E+00  0.00000000000E+00  0.83545162135E+03  0.83545162136E+03  0.25500000920E-02 0. -1.
       -2   -1    0    0    0  501  0.00000000000E+00  0.00000000000E+00 -0.19366229615E+04  0.19366229615E+04  0.25500000920E-02 0.  1.
    10030    2    1    2    0    0  0.00000000000E+00  0.00000000000E+00 -0.11011713401E+04  0.27720745828E+04  0.25439770385E+04 0.  0.
        1    1    3    3  502    0 -0.36561391633E+03 -0.49855882487E+03  0.66071462780E+03  0.90486366768E+03  0.50400001928E-02 0. -1.
       -1    1    3    3    0  502  0.36561391633E+03  0.49855882487E+03 -0.17618859679E+04  0.18672109151E+04  0.50400001928E-02 0.  1.
</event>
<event>
 5   0  0.6827859E-05  0.2549299E+04  0.7818609E-02  0.8385630E-01
        2   -1    0    0  501    0  0.00000000000E+00  0.00000000000E+00  0.15416434254E+04  0.15416434254E+04  0.25500000920E-02 0. -1.
       -2   -1    0    0    0  501  0.00000000000E+00  0.00000000000E+00 -0.10538958890E+04  0.10538958890E+04  0.25500000920E-02 0.  1.
    10030    2    1    2    0    0  0.00000000000E+00  0.00000000000E+00  0.48774753646E+03  0.25955393144E+04  0.25492992514E+04 0.  0.
        3    1    3    3  502    0  0.87964541773E+03  0.26244071371E+03  0.11442676042E+04  0.14669695121E+04  0.10100000352E+00 0. -1.
       -3    1    3    3    0  502 -0.87964541773E+03 -0.26244071371E+03 -0.65652006773E+03  0.11285698023E+04  0.10100000352E+00 0.  1.
</event>
<event>
 5   0  0.2331375E-05  0.2191484E+04  0.7818609E-02  0.8521981E-01
       -3   -1    0    0    0  501  0.00000000000E+00  0.00000000000E+00  0.11513851106E+04  0.11513851150E+04  0.10100000352E+00 0.  1.
        3   -1    0    0  501    0  0.00000000000E+00  0.00000000000E+00 -0.10427879342E+04  0.10427879391E+04  0.10100000352E+00 0. -1.
    10030    2    1    2    0    0  0.00000000000E+00  0.00000000000E+00  0.10859717640E+03  0.21941730541E+04  0.21914839823E+04 0.  0.
        3    1    3    3  502    0  0.56758762089E+03 -0.43813847611E+03  0.88388602910E+03  0.11381456648E+04  0.10100000352E+00 0.  1.
       -3    1    3    3    0  502 -0.56758762089E+03  0.43813847611E+03 -0.77528885270E+03  0.10560273893E+04  0.10100000352E+00 0. -1.
</event>
<event>
 5   0  0.2793920E-05  0.2507767E+04  0.7818609E-02  0.8400224E-01
        1   -1    0    0  501    0  0.00000000000E+00  0.00000000000E+00  0.12470565003E+04  0.12470565003E+04  0.50400001928E-02 0.  1.
       -1   -1    0    0    0  501  0.00000000000E+00  0.00000000000E+00 -0.12607473916E+04  0.12607473917E+04  0.50400001928E-02 0. -1.
    10030    2    1    2    0    0  0.00000000000E+00  0.00000000000E+00 -0.13690891330E+02  0.25078038920E+04  0.25077665203E+04 0.  0.
        2    1    3    3  502    0  0.52384519822E+03 -0.36926363279E+03  0.10708782782E+04  0.12480183127E+04  0.25500000920E-02 0.  1.
       -2    1    3    3    0  502 -0.52384519822E+03  0.36926363279E+03 -0.10845691695E+04  0.12597855793E+04  0.25500000920E-02 0. -1.
</event>
<event>
 5   0  0.6909250E-05  0.2418369E+04  0.7818609E-02  0.8432658E-01
        2   -1    0    0  501    0  0.00000000000E+00  0.00000000000E+00  0.14516366111E+04  0.14516366111E+04  0.25500000920E-02 0. -1.
       -2   -1    0    0    0  501  0.00000000000E+00  0.00000000000E+00 -0.10072268903E+04  0.10072268903E+04  0.25500000920E-02 0.  1.
    10030    2    1    2    0    0  0.00000000000E+00  0.00000000000E+00  0.44440972078E+03  0.24588635015E+04  0.24183692272E+04 0.  0.
        4    1    3    3  502    0  0.10828332794E+04 -0.41404518930E+03  0.57171139480E+03  0.12926008129E+04  0.12699999809E+01 0. -1.
       -4    1    3    3    0  502 -0.10828332794E+04  0.41404518930E+03 -0.12730167402E+03  0.11662626886E+04  0.12699999809E+01 0.  1.
</event>
<event>
 5   0  0.6445331E-05  0.2462577E+04  0.7818609E-02  0.8416440E-01
        2   -1    0    0  501    0  0.00000000000E+00  0.00000000000E+00  0.95054332346E+03  0.95054332346E+03  0.25500000920E-02 0. -1.
       -2   -1    0    0    0  501  0.00000000000E+00  0.00000000000E+00 -0.15949522025E+04  0.15949522025E+04  0.25500000920E-02 0.  1.
    10030    2    1    2    0    0  0.00000000000E+00  0.00000000000E+00 -0.64440887908E+03  0.25454955260E+04  0.24625768352E+04 0.  0.
        1    1    3    3  502    0 -0.83013330834E+03  0.23146517538E+03 -0.12312324303E+04  0.15028741579E+04  0.50400001928E-02 0.  1.
       -1    1    3    3    0  502  0.83013330834E+03 -0.23146517538E+03  0.58682355119E+03  0.10426213681E+04  0.50400001928E-02 0. -1.
</event>
<event>
 5   0  0.2977854E-05  0.2472766E+04  0.7818609E-02  0.8412752E-01
        1   -1    0    0  501    0  0.00000000000E+00  0.00000000000E+00  0.15923453046E+04  0.15923453046E+04  0.50400001928E-02 0. -1.
       -1   -1    0    0    0  501  0.00000000000E+00  0.00000000000E+00 -0.95999461402E+03  0.95999461403E+03  0.50400001928E-02 0.  1.
    10030    2    1    2    0    0  0.00000000000E+00  0.00000000000E+00  0.63235069059E+03  0.25523399186E+04  0.24727659947E+04 0.  0.
        1    1    3    3  502    0  0.22603818226E+02  0.68550653726E+03  0.13779735640E+04  0.15392339940E+04  0.50400001928E-02 0. -1.
       -1    1    3    3    0  502 -0.22603818226E+02 -0.68550653726E+03 -0.74562287338E+03  0.10131059247E+04  0.50400001928E-02 0.  1.
</event>
<event>
 5   0  0.2980790E-05  0.2461832E+04  0.7818609E-02  0.8416710E-01
        1   -1    0    0  501    0  0.00000000000E+00  0.00000000000E+00  0.18757841222E+04  0.18757841222E+04  0.50400001928E-02 0. -1.
       -1   -1    0    0    0  501  0.00000000000E+00  0.00000000000E+00 -0.80774470584E+03  0.80774470586E+03  0.50400001928E-02 0.  1.
    10030    2    1    2    0    0  0.00000000000E+00  0.00000000000E+00  0.10680394163E+04  0.26835288280E+04  0.24618324021E+04 0.  0.
        5    1    3    3  502    0  0.50253881848E+03 -0.91528419429E+03 -0.17647622731E+03  0.10589883707E+04  0.46999998093E+01 0.  1.
       -5    1    3    3    0  502 -0.50253881848E+03  0.91528419429E+03  0.12445156436E+04  0.16245404574E+04  0.46999998093E+01 0. -1.
</event>
<event>
 5   0  0.7071821E-05  0.2565503E+04  0.7818609E-02  0.8380014E-01
        2   -1    0    0  501    0  0.00000000000E+00  0.00000000000E+00  0.15475869088E+04  0.15475869088E+04  0.25500000920E-02 0.  1.
       -2   -1    0    0    0  501  0.00000000000E+00  0.00000000000E+00 -0.10632371952E+04  0.10632371952E+04  0.25500000920E-02 0. -1.
    10030    2    1    2    0    0  0.00000000000E+00  0.00000000000E+00  0.48434971355E+03  0.26108241040E+04  0.25655034315E+04 0.  0.
        5    1    3    3  502    0 -0.18504031612E+03  0.12686665445E+04  0.20052318357E+03  0.12976849991E+04  0.46999998093E+01 0. -1.
       -5    1    3    3    0  502  0.18504031612E+03 -0.12686665445E+04  0.28382652998E+03  0.13131391049E+04  0.46999998093E+01 0.  1.
</event>
<event>
 5   0  0.7071821E-05  0.2520652E+04  0.7818609E-02  0.8395665E-01
       -2   -1    0    0    0  501  0.00000000000E+00  0.00000000000E+00  0.11771790269E+04  0.11771790269E+04  0.25500000920E-02 0.  1.
        2   -1    0    0  501    0  0.00000000000E+00  0.00000000000E+00 -0.13493462437E+04  0.13493462437E+04  0.25500000920E-02 0. -1.
    10030    2    1    2    0    0  0.00000000000E+00  0.00000000000E+00 -0.17216721680E+03  0.25265252706E+04  0.25206523743E+04 0.  0.
        5    1    3    3  502    0  0.70427887732E+03  0.66040112757E+03  0.72590361246E+03  0.12079306813E+04  0.46999998093E+01 0.  1.
       -5    1    3    3    0  502 -0.70427887732E+03 -0.66040112757E+03 -0.89807082926E+03  0.13185945892E+04  0.46999998093E+01 0. -1.
</event>
<event>
 5   0  0.7071821E-05  0.2195650E+04  0.7818609E-02  0.8520241E-01
        2   -1    0    0  501    0  0.00000000000E+00  0.00000000000E+00  0.12564325659E+04  0.12564325659E+04  0.25500000920E-02 0.  1.
       -2   -1    0    0    0  501  0.00000000000E+00  0.00000000000E+00 -0.95923920219E+03  0.95923920219E+03  0.25500000920E-02 0. -1.
    10030    2    1    2    0    0  0.00000000000E+00  0.00000000000E+00  0.29719336374E+03  0.22156717681E+04  0.21956496735E+04 0.  0.
        5    1    3    3  502    0 -0.11929493965E+03 -0.32937409331E+03  0.11985066461E+04  0.12486628235E+04  0.46999998093E+01 0.  1.
       -5    1    3    3    0  502  0.11929493965E+03  0.32937409331E+03 -0.90131328239E+03  0.96700894462E+03  0.46999998093E+01 0. -1.
</event>
<event>
 5   0  0.6909250E-05  0.2514011E+04  0.7818609E-02  0.8398011E-01
        2   -1    0    0  501    0  0.00000000000E+00  0.00000000000E+00  0.12432535878E+04  0.12432535878E+04  0.25500000920E-02 0.  1.
       -2   -1    0    0    0  501  0.00000000000E+00  0.00000000000E+00 -0.12709090726E+04  0.12709090726E+04  0.25500000920E-02 0. -1.
    10030    2    1    2    0    0  0.00000000000E+00  0.00000000000E+00 -0.27655484888E+02  0.25141626604E+04  0.25140105523E+04 0.  0.
        4    1    3    3  502    0 -0.57631528071E+03  0.28865975791E+03  0.10654024568E+04  0.12452099287E+04  0.12699999809E+01 0.  1.
       -4    1    3    3    0  502  0.57631528071E+03 -0.28865975791E+03 -0.10930579417E+04  0.12689527317E+04  0.12699999809E+01 0. -1.
</event>
<event>
 5   0  0.6909250E-05  0.2512336E+04  0.7818609E-02  0.8398604E-01
        2   -1    0    0  501    0  0.00000000000E+00  0.00000000000E+00  0.16370215070E+04  0.16370215070E+04  0.25500000920E-02 0. -1.
       -2   -1    0    0    0  501  0.00000000000E+00  0.00000000000E+00 -0.96392030845E+03  0.96392030845E+03  0.25500000920E-02 0.  1.
    10030    2    1    2    0    0  0.00000000000E+00  0.00000000000E+00  0.67310119854E+03  0.26009418154E+04  0.25123361845E+04 0.  0.
        4    1    3    3  502    0  0.73977554171E+03  0.31904182866E+03 -0.66123590914E+03  0.10422524075E+04  0.12699999809E+01 0.  1.
       -4    1    3    3    0  502 -0.73977554171E+03 -0.31904182866E+03  0.13343371077E+04  0.15586894079E+04  0.12699999809E+01 0. -1.
</event>
<event>
 5   0  0.2980790E-05  0.2563039E+04  0.7818609E-02  0.8380865E-01
       -1   -1    0    0    0  501  0.00000000000E+00  0.00000000000E+00  0.14321013927E+04  0.14321013927E+04  0.50400001928E-02 0. -1.
        1   -1    0    0  501    0  0.00000000000E+00  0.00000000000E+00 -0.11467710444E+04  0.11467710444E+04  0.50400001928E-02 0.  1.
    10030    2    1    2    0    0  0.00000000000E+00  0.00000000000E+00  0.28533034836E+03  0.25788724371E+04  0.25630391412E+04 0.  0.
        5    1    3    3  502    0 -0.29144441930E+03 -0.76642762351E+03 -0.84826349416E+03  0.11797983714E+04  0.46999998093E+01 0.  1.
       -5    1    3    3    0  502  0.29144441930E+03  0.76642762351E+03  0.11335938425E+04  0.13990740657E+04  0.46999998093E+01 0. -1.
</event>
<event>
 5   0  0.6827859E-05  0.2539645E+04  0.7818609E-02  0.8388996E-01
       -2   -1    0    0    0  501  0.00000000000E+00  0.00000000000E+00  0.95947989678E+03  0.95947989678E+03  0.25500000920E-02 0. -1.
        2   -1    0    0  501    0  0.00000000000E+00  0.00000000000E+00 -0.16805446883E+04  0.16805446883E+04  0.25500000920E-02 0.  1.
    10030    2    1    2    0    0  0.00000000000E+00  0.00000000000E+00 -0.72106479156E+03  0.26400245851E+04  0.25396447343E+04 0.  0.
        3    1    3    3  502    0 -0.16877328605E+03  0.12211087079E+03  0.94159614393E+03  0.96436445150E+03  0.10100000352E+00 0. -1.
       -3    1    3    3    0  502  0.16877328605E+03 -0.12211087079E+03 -0.16626609355E+04  0.16756601336E+04  0.10100000352E+00 0.  1.
</event>
<event>
 5   0  0.6648328E-05  0.2491294E+04  0.7818609E-02  0.8406094E-01
       -2   -1    0    0    0  501  0.00000000000E+00  0.00000000000E+00  0.10764325196E+04  0.10764325196E+04  0.25500000920E-02 0.  1.
        2   -1    0    0  501    0  0.00000000000E+00  0.00000000000E+00 -0.14414619960E+04  0.14414619960E+04  0.25500000920E-02 0. -1.
    10030    2    1    2    0    0  0.00000000000E+00  0.00000000000E+00 -0.36502947640E+03  0.25178945156E+04  0.24912940960E+04 0.  0.
        2    1    3    3  502    0 -0.77358494586E+03  0.93831437138E+03  0.90122928600E+02  0.12194218590E+04  0.25500000920E-02 0.  1.
       -2    1    3    3    0  502  0.77358494586E+03 -0.93831437138E+03 -0.45515240500E+03  0.12984726565E+04  0.25500000920E-02 0. -1.
</event>
<event>
 5   0  0.2777539E-05  0.2513072E+04  0.7818609E-02  0.8398343E-01
       -1   -1    0    0    0  501  0.00000000000E+00  0.00000000000E+00  0.63985796600E+03  0.63985796602E+03  0.50400001928E-02 0.  1.
        1   -1    0    0  501    0  0.00000000000E+00  0.00000000000E+00 -0.24675528213E+04  0.24675528213E+04  0.50400001928E-02 0. -1.
    10030    2    1    2    0    0  0.00000000000E+00  0.00000000000E+00 -0.18276948553E+04  0.31074107873E+04  0.25130724854E+04 0.  0.
        3    1    3    3  502    0 -0.23709254390E+03  0.69230577776E+03 -0.21768829474E+04  0.22965886748E+04  0.10100000352E+00 0. -1.
       -3    1    3    3    0  502  0.23709254390E+03 -0.69230577776E+03  0.34918809211E+03  0.81082211253E+03  0.10100000352E+00 0.  1.
</event>
<event>
 5   0  0.7071821E-05  0.2239039E+04  0.7818609E-02  0.8502353E-01
       -2   -1    0    0    0  501  0.00000000000E+00  0.00000000000E+00  0.71522998848E+03  0.71522998849E+03  0.25500000920E-02 0. -1.
        2   -1    0    0  501    0  0.00000000000E+00  0.00000000000E+00 -0.17523370907E+04  0.17523370907E+04  0.25500000920E-02 0.  1.
    10030    2    1    2    0    0  0.00000000000E+00  0.00000000000E+00 -0.10371071022E+04  0.24675670791E+04  0.22390391128E+04 0.  0.
        5    1    3    3  502    0 -0.31336629843E+03  0.10743719926E+04 -0.55027181528E+03  0.12471145802E+04  0.46999998093E+01 0.  1.
       -5    1    3    3    0  502  0.31336629843E+03 -0.10743719926E+04 -0.48683528689E+03  0.12204524989E+04  0.46999998093E+01 0. -1.
</event>
<event>
 5   0  0.6648328E-05  0.2513812E+04  0.7818609E-02  0.8398081E-01
       -2   -1    0    0    0  501  0.00000000000E+00  0.00000000000E+00  0.11388943001E+04  0.11388943001E+04  0.25500000920E-02 0.  1.
        2   -1    0    0  501    0  0.00000000000E+00  0.00000000000E+00 -0.13871458635E+04  0.13871458635E+04  0.25500000920E-02 0. -1.
    10030    2    1    2    0    0  0.00000000000E+00  0.00000000000E+00 -0.24825156344E+03  0.25260401637E+04  0.25138118604E+04 0.  0.
        2    1    3    3  502    0 -0.11969919041E+03  0.91295546996E+03  0.73560427591E+03  0.11785284201E+04  0.25500000920E-02 0.  1.
       -2    1    3    3    0  502  0.11969919041E+03 -0.91295546996E+03 -0.98385583935E+03  0.13475117435E+04  0.25500000920E-02 0. -1.
</event>
<event>
 5   0  0.2977854E-05  0.1275573E+04  0.7818609E-02  0.9049164E-01
        1   -1    0    0  501    0  0.00000000000E+00  0.00000000000E+00  0.11240063931E+04  0.11240063931E+04  0.50400001928E-02 0. -1.
       -1   -1    0    0    0  501  0.00000000000E+00  0.00000000000E+00 -0.36189427211E+03  0.36189427214E+03  0.50400001928E-02 0.  1.
    10030    2    1    2    0    0  0.00000000000E+00  0.00000000000E+00  0.76211212097E+03  0.14859006652E+04  0.12755727741E+04 0.  0.
        1    1    3    3  502    0 -0.59199100889E+03  0.11763109422E+03  0.14096160018E+03  0.61980690677E+03  0.50400001928E-02 0.  1.
       -1    1    3    3    0  502  0.59199100889E+03 -0.11763109422E+03  0.62115052079E+03  0.86609375845E+03  0.50400001928E-02 0. -1.
</event>
<event>
 5   0  0.7071821E-05  0.2397620E+04  0.7818609E-02  0.8440395E-01
       -2   -1    0    0    0  501  0.00000000000E+00  0.00000000000E+00  0.80392750268E+03  0.80392750268E+03  0.25500000920E-02 0. -1.
        2   -1    0    0  501    0  0.00000000000E+00  0.00000000000E+00 -0.17876549046E+04  0.17876549046E+04  0.25500000920E-02 0.  1.
    10030    2    1    2    0    0  0.00000000000E+00  0.00000000000E+00 -0.98372740196E+03  0.25915824073E+04  0.23976196055E+04 0.  0.
        5    1    3    3  502    0 -0.67235608402E+03  0.95902560457E+03 -0.76813845525E+03  0.14006611262E+04  0.46999998093E+01 0. -1.
       -5    1    3    3    0  502  0.67235608402E+03 -0.95902560457E+03 -0.21558894671E+03  0.11909212811E+04  0.46999998093E+01 0.  1.
</event>
<event>
 5   0  0.7071821E-05  0.2467482E+04  0.7818609E-02  0.8414663E-01
        2   -1    0    0  501    0  0.00000000000E+00  0.00000000000E+00  0.13942402727E+04  0.13942402727E+04  0.25500000920E-02 0.  1.
       -2   -1    0    0    0  501  0.00000000000E+00  0.00000000000E+00 -0.10917177488E+04  0.10917177488E+04  0.25500000920E-02 0. -1.
    10030    2    1    2    0    0  0.00000000000E+00  0.00000000000E+00  0.30252252386E+03  0.24859580215E+04  0.24674819973E+04 0.  0.
        5    1    3    3  502    0 -0.60748499280E+03 -0.80749139071E+03  0.86438501416E+03  0.13297608451E+04  0.46999998093E+01 0.  1.
       -5    1    3    3    0  502  0.60748499280E+03  0.80749139071E+03 -0.56186249029E+03  0.11561971763E+04  0.46999998093E+01 0. -1.
</event>
<event>
 5   0  0.6827859E-05  0.1971746E+04  0.7818609E-02  0.8619945E-01
        2   -1    0    0  501    0  0.00000000000E+00  0.00000000000E+00  0.10836680693E+04  0.10836680693E+04  0.25500000920E-02 0. -1.
       -2   -1    0    0    0  501  0.00000000000E+00  0.00000000000E+00 -0.89690330840E+03  0.89690330841E+03  0.25500000920E-02 0.  1.
    10030    2    1    2    0    0  0.00000000000E+00  0.00000000000E+00  0.18676476092E+03  0.19805713777E+04  0.19717459031E+04 0.  0.
        3    1    3    3  502    0  0.67264779720E+02 -0.36012989975E+03 -0.82598883881E+03  0.90359043118E+03  0.10100000352E+00 0.  1.
       -3    1    3    3    0  502 -0.67264779720E+02  0.36012989975E+03  0.10127535997E+04  0.10769809466E+04  0.10100000352E+00 0. -1.
</event>
<event>
 5   0  0.2793920E-05  0.2521593E+04  0.7818609E-02  0.8395333E-01
        1   -1    0    0  501    0  0.00000000000E+00  0.00000000000E+00  0.18225091425E+04  0.18225091425E+04  0.50400001928E-02 0.  1.
       -1   -1    0    0    0  501  0.00000000000E+00  0.00000000000E+00 -0.87220848185E+03  0.87220848187E+03  0.50400001928E-02 0. -1.
    10030    2    1    2    0    0  0.00000000000E+00  0.00000000000E+00  0.95030066065E+03  0.26947176244E+04  0.25215930936E+04 0.  0.
        2    1    3    3  502    0  0.41385132314E+03 -0.55617926710E+03  0.16005426802E+04  0.17442319702E+04  0.25500000920E-02 0.  1.
       -2    1    3    3    0  502 -0.41385132314E+03  0.55617926710E+03 -0.65024201953E+03  0.95048565417E+03  0.25500000920E-02 0. -1.
</event>
<event>
 5   0  0.2980790E-05  0.1942968E+04  0.7818609E-02  0.8633759E-01
       -1   -1    0    0    0  501  0.00000000000E+00  0.00000000000E+00  0.90221825066E+03  0.90221825068E+03  0.50400001928E-02 0. -1.
        1   -1    0    0  501    0  0.00000000000E+00  0.00000000000E+00 -0.10460680019E+04  0.10460680020E+04  0.50400001928E-02 0.  1.
    10030    2    1    2    0    0  0.00000000000E+00  0.00000000000E+00 -0.14384975128E+03  0.19482862526E+04  0.19429684947E+04 0.  0.
        5    1    3    3  502    0  0.31647671849E+03  0.91839401464E+03 -0.84387622797E+02  0.97506330069E+03  0.46999998093E+01 0. -1.
       -5    1    3    3    0  502 -0.31647671849E+03 -0.91839401464E+03 -0.59462128482E+02  0.97322295194E+03  0.46999998093E+01 0.  1.
</event>
<event>
 5   0  0.6648328E-05  0.2447427E+04  0.7818609E-02  0.8421958E-01
       -2   -1    0    0    0  501  0.00000000000E+00  0.00000000000E+00  0.53249803539E+03  0.53249803540E+03  0.25500000920E-02 0.  1.
        2   -1    0    0  501    0  0.00000000000E+00  0.00000000000E+00 -0.28121695198E+04  0.28121695198E+04  0.25500000920E-02 0. -1.
    10030    2    1    2    0    0  0.00000000000E+00  0.00000000000E+00 -0.22796714844E+04  0.33446675552E+04  0.24474270118E+04 0.  0.
        2    1    3    3  502    0  0.52398569338E+03  0.10901876338E+04 -0.88635098553E+03  0.14995626540E+04  0.25500000920E-02 0. -1.
       -2    1    3    3    0  502 -0.52398569338E+03 -0.10901876338E+04 -0.13933204989E+04  0.18451049012E+04  0.25500000920E-02 0.  1.
</event>
<event>
 5   0  0.6445331E-05  0.2594255E+04  0.7818609E-02  0.8370155E-01
       -2   -1    0    0    0  501  0.00000000000E+00  0.00000000000E+00  0.67283944857E+03  0.67283944857E+03  0.25500000920E-02 0.  1.
        2   -1    0    0  501    0  0.00000000000E+00  0.00000000000E+00 -0.25006552941E+04  0.25006552941E+04  0.25500000920E-02 0. -1.
    10030    2    1    2    0    0  0.00000000000E+00  0.00000000000E+00 -0.18278158456E+04  0.31734947427E+04  0.25942548288E+04 0.  0.
        1    1    3    3  502    0 -0.16258663614E+03  0.36988962775E+03 -0.24217124001E+04  0.24551871008E+04  0.50400001928E-02 0. -1.
       -1    1    3    3    0  502  0.16258663614E+03 -0.36988962775E+03  0.59389655453E+03  0.71830764194E+03  0.50400001928E-02 0.  1.
</event>
<event>
 5   0  0.2793920E-05  0.2225764E+04  0.7818609E-02  0.8507780E-01
        1   -1    0    0  501    0  0.00000000000E+00  0.00000000000E+00  0.12774019957E+04  0.12774019958E+04  0.50400001928E-02 0.  1.
       -1   -1    0    0    0  501  0.00000000000E+00  0.00000000000E+00 -0.96955117953E+03  0.96955117955E+03  0.50400001928E-02 0. -1.
    10030    2    1    2    0    0  0.00000000000E+00  0.00000000000E+00  0.30785081621E+03  0.22469531753E+04  0.22257642389E+04 0.  0.
        2    1    3    3  502    0  0.27509699819E+03 -0.36352399413E+03  0.11788135837E+04  0.12638945834E+04  0.25500000920E-02 0.  1.
       -2    1    3    3    0  502 -0.27509699819E+03  0.36352399413E+03 -0.87096276752E+03  0.98305859191E+03  0.25500000920E-02 0. -1.
</event>
<event>
 5   0  0.2777539E-05  0.1395157E+04  0.7818609E-02  0.8957331E-01
        1   -1    0    0  501    0  0.00000000000E+00  0.00000000000E+00  0.96375642725E+03  0.96375642726E+03  0.50400001928E-02 0.  1.
       -1   -1    0    0    0  501  0.00000000000E+00  0.00000000000E+00 -0.50491585883E+03  0.50491585886E+03  0.50400001928E-02 0. -1.
    10030    2    1    2    0    0  0.00000000000E+00  0.00000000000E+00  0.45884056842E+03  0.14686722861E+04  0.13951572015E+04 0.  0.
        3    1    3    3  502    0 -0.45737884509E+03  0.38120016466E+03 -0.15319695980E+03  0.61479939181E+03  0.10100000352E+00 0. -1.
       -3    1    3    3    0  502  0.45737884509E+03 -0.38120016466E+03  0.61203752822E+03  0.85387289431E+03  0.10100000352E+00 0.  1.
</event>
<event>
 5   0  0.6648328E-05  0.2456432E+04  0.7818609E-02  0.8418674E-01
        2   -1    0    0  501    0  0.00000000000E+00  0.00000000000E+00  0.13655559113E+04  0.13655559113E+04  0.25500000920E-02 0.  1.
       -2   -1    0    0    0  501  0.00000000000E+00  0.00000000000E+00 -0.11046885170E+04  0.11046885170E+04  0.25500000920E-02 0. -1.
    10030    2    1    2    0    0  0.00000000000E+00  0.00000000000E+00  0.26086739431E+03  0.24702444284E+04  0.24564315049E+04 0.  0.
        2    1    3    3  502    0 -0.13671974976E+03 -0.50342130412E+03  0.12486164050E+04  0.13532066458E+04  0.25500000920E-02 0.  1.
       -2    1    3    3    0  502  0.13671974976E+03  0.50342130412E+03 -0.98774901072E+03  0.11170377825E+04  0.25500000920E-02 0. -1.
</event>
<event>
 5   0  0.2977854E-05  0.2499263E+04  0.7818609E-02  0.8403248E-01
       -1   -1    0    0    0  501  0.00000000000E+00  0.00000000000E+00  0.65260973814E+03  0.65260973816E+03  0.50400001928E-02 0. -1.
        1   -1    0    0  501    0  0.00000000000E+00  0.00000000000E+00 -0.23928218487E+04  0.23928218487E+04  0.50400001928E-02 0.  1.
    10030    2    1    2    0    0  0.00000000000E+00  0.00000000000E+00 -0.17402121106E+04  0.30454315869E+04  0.24992629635E+04 0.  0.
        1    1    3    3  502    0  0.10654802658E+04  0.30680765344E+03 -0.16778366026E+03  0.11213966692E+04  0.50400001928E-02 0. -1.
       -1    1    3    3    0  502 -0.10654802658E+04 -0.30680765344E+03 -0.15724284503E+04  0.19240349177E+04  0.50400001928E-02 0.  1.
</event>
<event>
 5   0  0.2977854E-05  0.2441547E+04  0.7818609E-02  0.8424111E-01
        1   -1    0    0  501    0  0.00000000000E+00  0.00000000000E+00  0.18194235899E+04  0.18194235899E+04  0.50400001928E-02 0. -1.
       -1   -1    0    0    0  501  0.00000000000E+00  0.00000000000E+00 -0.81909876506E+03  0.81909876507E+03  0.50400001928E-02 0.  1.
    10030    2    1    2    0    0  0.00000000000E+00  0.00000000000E+00  0.10003248249E+04  0.26385223550E+04  0.24415467357E+04 0.  0.
        1    1    3    3  502    0  0.94757834859E+03 -0.66016387517E+03  0.72555002182E+02  0.11571453224E+04  0.50400001928E-02 0.  1.
       -1    1    3    3    0  502 -0.94757834859E+03  0.66016387517E+03  0.92776982267E+03  0.14813770326E+04  0.50400001928E-02 0. -1.
</event>
<event>
 5   0  0.2793920E-05  0.2503931E+04  0.7818609E-02  0.8401587E-01
       -1   -1    0    0    0  501  0.00000000000E+00  0.00000000000E+00  0.13876185347E+04  0.13876185347E+04  0.50400001928E-02 0. -1.
        1   -1    0    0  501    0  0.00000000000E+00  0.00000000000E+00 -0.11295735711E+04  0.11295735711E+04  0.50400001928E-02 0.  1.
    10030    2    1    2    0    0  0.00000000000E+00  0.00000000000E+00  0.25804496360E+03  0.25171921059E+04  0.25039306889E+04 0.  0.
        2    1    3    3  502    0 -0.80240216293E+03 -0.38904655346E+03 -0.75438685654E+03  0.11680350941E+04  0.25500000920E-02 0.  1.
       -2    1    3    3    0  502  0.80240216293E+03  0.38904655346E+03  0.10124318201E+04  0.13491570117E+04  0.25500000920E-02 0. -1.
</event>
<event>
 5   0  0.6909250E-05  0.2460290E+04  0.7818609E-02  0.8417271E-01
        2   -1    0    0  501    0  0.00000000000E+00  0.00000000000E+00  0.18329015682E+04  0.18329015682E+04  0.25500000920E-02 0. -1.
       -2   -1    0    0    0  501  0.00000000000E+00  0.00000000000E+00 -0.82560717441E+03  0.82560717442E+03  0.25500000920E-02 0.  1.
    10030    2    1    2    0    0  0.00000000000E+00  0.00000000000E+00  0.10072943938E+04  0.26585087427E+04  0.24602899705E+04 0.  0.
        4    1    3    3  502    0 -0.75074513076E+03 -0.43886173497E+03 -0.43653150004E+03  0.97302581528E+03  0.12699999809E+01 0.  1.
       -4    1    3    3    0  502  0.75074513076E+03  0.43886173497E+03  0.14438258939E+04  0.16854829274E+04  0.12699999809E+01 0. -1.
</event>
<event>
 5   0  0.2331375E-05  0.2268670E+04  0.7818609E-02  0.8490377E-01
        4   -1    0    0  501    0  0.00000000000E+00  0.00000000000E+00  0.95182981501E+03  0.95183066227E+03  0.12699999809E+01 0.  1.
       -4   -1    0    0    0  501  0.00000000000E+00  0.00000000000E+00 -0.13518327438E+04  0.13518333404E+04  0.12699999809E+01 0. -1.
    10030    2    1    2    0    0  0.00000000000E+00  0.00000000000E+00 -0.40000292884E+03  0.23036640027E+04  0.22686704243E+04 0.  0.
        4    1    3    3  502    0 -0.86751492706E+02  0.42760636581E+03 -0.12632154976E+04  0.13364460452E+04  0.12699999809E+01 0. -1.
       -4    1    3    3    0  502  0.86751492706E+02 -0.42760636581E+03  0.86321256872E+03  0.96721795748E+03  0.12699999809E+01 0.  1.
</event>
<event>
 5   0  0.6909250E-05  0.2584015E+04  0.7818609E-02  0.8373651E-01
       -2   -1    0    0    0  501  0.00000000000E+00  0.00000000000E+00  0.54366154384E+03  0.54366154385E+03  0.25500000920E-02 0. -1.
        2   -1    0    0  501    0  0.00000000000E+00  0.00000000000E+00 -0.30704457155E+04  0.30704457155E+04  0.25500000920E-02 0.  1.
    10030    2    1    2    0    0  0.00000000000E+00  0.00000000000E+00 -0.25267841717E+04  0.36141072594E+04  0.25840149055E+04 0.  0.
        4    1    3    3  502    0  0.10979511738E+04  0.31862420061E+03 -0.21052102697E+04  0.23956064063E+04  0.12699999809E+01 0.  1.
       -4    1    3    3    0  502 -0.10979511738E+04 -0.31862420061E+03 -0.42157390194E+03  0.12185008531E+04  0.12699999809E+01 0. -1.
</event>
<event>
 5   0  0.6445331E-05  0.1591814E+04  0.7818609E-02  0.8825593E-01
        2   -1    0    0  501    0  0.00000000000E+00  0.00000000000E+00  0.18117705356E+04  0.18117705356E+04  0.25500000920E-02 0.  1.
       -2   -1    0    0    0  501  0.00000000000E+00  0.00000000000E+00 -0.34964048790E+03  0.34964048791E+03  0.25500000920E-02 0. -1.
    10030    2    1    2    0    0  0.00000000000E+00  0.00000000000E+00  0.14621300477E+04  0.21614110236E+04  0.15918144792E+04 0.  0.
        1    1    3    3  502    0  0.56018195881E+03 -0.54446819748E+03  0.52416257595E+03  0.94074218099E+03  0.50400001928E-02 0. -1.
       -1    1    3    3    0  502 -0.56018195881E+03  0.54446819748E+03  0.93796747180E+03  0.12206688426E+04  0.50400001928E-02 0.  1.
</event>
<event>
 5   0  0.7071821E-05  0.2578336E+04  0.7818609E-02  0.8375597E-01
        2   -1    0    0  501    0  0.00000000000E+00  0.00000000000E+00  0.11107990380E+04  0.11107990380E+04  0.25500000920E-02 0. -1.
       -2   -1    0    0    0  501  0.00000000000E+00  0.00000000000E+00 -0.14961794196E+04  0.14961794196E+04  0.25500000920E-02 0.  1.
    10030    2    1    2    0    0  0.00000000000E+00  0.00000000000E+00 -0.38538038162E+03  0.26069784576E+04  0.25783364094E+04 0.  0.
        5    1    3    3  502    0  0.82456232314E+03  0.37984843717E+03 -0.11181417854E+04  0.14402954566E+04  0.46999998093E+01 0.  1.
       -5    1    3    3    0  502 -0.82456232314E+03 -0.37984843717E+03  0.73276140382E+03  0.11666830010E+04  0.46999998093E+01 0. -1.
</event>
<event>
 5   0  0.6827859E-05  0.2524152E+04  0.7818609E-02  0.8394431E-01
       -2   -1    0    0    0  501  0.00000000000E+00  0.00000000000E+00  0.86832650783E+03  0.86832650784E+03  0.25500000920E-02 0.  1.
        2   -1    0    0  501    0  0.00000000000E+00  0.00000000000E+00 -0.18343743282E+04  0.18343743282E+04  0.25500000920E-02 0. -1.
    10030    2    1    2    0    0  0.00000000000E+00  0.00000000000E+00 -0.96604782032E+03  0.27027008360E+04  0.25241520195E+04 0.  0.
        3    1    3    3  502    0  0.36908226255E+03 -0.73591191152E+03 -0.15072700978E+04  0.17174548658E+04  0.10100000352E+00 0.  1.
       -3    1    3    3    0  502 -0.36908226255E+03  0.73591191152E+03  0.54122227746E+03  0.98524597024E+03  0.10100000352E+00 0. -1.
</event>
<event>
 5   0  0.6909250E-05  0.1411961E+04  0.7818609E-02  0.8945206E-01
        2   -1    0    0  501    0  0.00000000000E+00  0.00000000000E+00  0.16684318336E+04  0.16684318336E+04  0.25500000920E-02 0. -1.
       -2   -1    0    0    0  501  0.00000000000E+00  0.00000000000E+00 -0.29872867520E+03  0.29872867521E+03  0.25500000920E-02 0.  1.
    10030    2    1    2    0    0  0.00000000000E+00  0.00000000000E+00  0.13697031584E+04  0.19671605088E+04  0.14119609504E+04 0.  0.
        4    1    3    3  502    0  0.19795039087E+03  0.15341807940E+03 -0.23475822316E+03  0.34327030249E+03  0.12699999809E+01 0.  1.
       -4    1    3    3    0  502 -0.19795039087E+03 -0.15341807940E+03  0.16044613816E+04  0.16238902064E+04  0.12699999809E+01 0. -1.
</event>
<event>
 5   0  0.2777539E-05  0.2462740E+04  0.7818609E-02  0.8416381E-01
        1   -1    0    0  501    0  0.00000000000E+00  0.00000000000E+00  0.16908574847E+04  0.16908574847E+04  0.50400001928E-02 0. -1.
       -1   -1    0    0    0  501  0.00000000000E+00  0.00000000000E+00 -0.89674747103E+03  0.89674747104E+03  0.50400001928E-02 0.  1.
    10030    2    1    2    0    0  0.00000000000E+00  0.00000000000E+00  0.79411001362E+03  0.25876049557E+04  0.24627400783E+04 0.  0.
        3    1    3    3  502    0 -0.17696840791E+03 -0.11871140848E+04  0.68616886669E+03  0.13825286224E+04  0.10100000352E+00 0. -1.
       -3    1    3    3    0  502  0.17696840791E+03  0.11871140848E+04  0.10794114693E+03  0.12050763334E+04  0.10100000352E+00 0.  1.
</event>
<event>
 5   0  0.2793920E-05  0.2218800E+04  0.7818609E-02  0.8510644E-01
        1   -1    0    0  501    0  0.00000000000E+00  0.00000000000E+00  0.10307325860E+04  0.10307325860E+04  0.50400001928E-02 0. -1.
       -1   -1    0    0    0  501  0.00000000000E+00  0.00000000000E+00 -0.11940715868E+04  0.11940715868E+04  0.50400001928E-02 0.  1.
    10030    2    1    2    0    0  0.00000000000E+00  0.00000000000E+00 -0.16333900078E+03  0.22248041728E+04  0.22188001213E+04 0.  0.
        2    1    3    3  502    0  0.95367710131E+03 -0.42994494606E+03  0.28867507296E+03  0.10852124068E+04  0.25500000920E-02 0. -1.
       -2    1    3    3    0  502 -0.95367710131E+03  0.42994494606E+03 -0.45201407373E+03  0.11395917660E+04  0.25500000920E-02 0.  1.
</event>
<event>
 5   0  0.2980790E-05  0.2394395E+04  0.7818609E-02  0.8441605E-01
       -1   -1    0    0    0  501  0.00000000000E+00  0.00000000000E+00  0.16531179159E+04  0.16531179159E+04  0.50400001928E-02 0.  1.
        1   -1    0    0  501    0  0.00000000000E+00  0.00000000000E+00 -0.86701747315E+03  0.86701747316E+03  0.50400001928E-02 0. -1.
    10030    2    1    2    0    0  0.00000000000E+00  0.00000000000E+00  0.78610044271E+03  0.25201353890E+04  0.23943952207E+04 0.  0.
        5    1    3    3  502    0 -0.77246658639E+03 -0.18858420223E+03 -0.54893038719E+03  0.96623769767E+03  0.46999998093E+01 0. -1.
       -5    1    3    3    0  502  0.77246658639E+03  0.18858420223E+03  0.13350308299E+04  0.15538976914E+04  0.46999998093E+01 0.  1.
</event>
<event>
 5   0  0.6909250E-05  0.2425885E+04  0.7818609E-02  0.8429876E-01
        2   -1    0    0  501    0  0.00000000000E+00  0.00000000000E+00  0.98908050991E+03  0.98908050992E+03  0.25500000920E-02 0.  1.
       -2   -1    0    0    0  501  0.00000000000E+00  0.00000000000E+00 -0.14874714482E+04  0.14874714482E+04  0.25500000920E-02 0. -1.
    10030    2    1    2    0    0  0.00000000000E+00  0.00000000000E+00 -0.49839093824E+03  0.24765519581E+04  0.24258845961E+04 0.  0.
        4    1    3    3  502    0  0.48444483738E+03 -0.11085654262E+04 -0.16006035209E+03  0.12203380818E+04  0.12699999809E+01 0. -1.
       -4    1    3    3    0  502 -0.48444483738E+03  0.11085654262E+04 -0.33833058615E+03  0.12562138763E+04  0.12699999809E+01 0.  1.
</event>
<event>
 5   0  0.2977854E-05  0.2562810E+04  0.7818609E-02  0.8380945E-01
       -1   -1    0    0    0  501  0.00000000000E+00  0.00000000000E+00  0.84248301704E+03  0.84248301705E+03  0.50400001928E-02 0. -1.
        1   -1    0    0  501    0  0.00000000000E+00  0.00000000000E+00 -0.19489989767E+04  0.19489989767E+04  0.50400001928E-02 0.  1.
    10030    2    1    2    0    0  0.00000000000E+00  0.00000000000E+00 -0.11065159596E+04  0.27914819937E+04  0.25628098159E+04 0.  0.
        1    1    3    3  502    0  0.12425234542E+04 -0.22331311385E+03 -0.31396180090E+03  0.13008863492E+04  0.50400001928E-02 0. -1.
       -1    1    3    3    0  502 -0.12425234542E+04  0.22331311385E+03 -0.79255415872E+03  0.14905956445E+04  0.50400001928E-02 0.  1.
</event>
<event>
 5   0  0.2980790E-05  0.2588700E+04  0.7818609E-02  0.8372050E-01
       -1   -1    0    0    0  501  0.00000000000E+00  0.00000000000E+00  0.13657215867E+04  0.13657215867E+04  0.50400001928E-02 0. -1.
        1   -1    0    0  501    0  0.00000000000E+00  0.00000000000E+00 -0.12267080568E+04  0.12267080568E+04  0.50400001928E-02 0.  1.
    10030    2    1    2    0    0  0.00000000000E+00  0.00000000000E+00  0.13901352985E+03  0.25924296435E+04  0.25886998078E+04 0.  0.
        5    1    3    3  502    0  0.64887525845E+03 -0.10722324227E+04  0.39338906532E+03  0.13135823218E+04  0.46999998093E+01 0. -1.
       -5    1    3    3    0  502 -0.64887525845E+03  0.10722324227E+04 -0.25437553546E+03  0.12788473218E+04  0.46999998093E+01 0.  1.
</event>
<event>
 5   0  0.2977854E-05  0.2540822E+04  0.7818609E-02  0.8388585E-01
        1   -1    0    0  501    0  0.00000000000E+00  0.00000000000E+00  0.14308613653E+04  0.14308613653E+04  0.50400001928E-02 0. -1.
       -1   -1    0    0    0  501  0.00000000000E+00  0.00000000000E+00 -0.11279531695E+04  0.11279531695E+04  0.50400001928E-02 0.  1.
    10030    2    1    2    0    0  0.00000000000E+00  0.00000000000E+00  0.30290819579E+03  0.25588145347E+04  0.25408223960E+04 0.  0.
        1    1    3    3  502    0 -0.51487789429E+03 -0.11412662075E+04  0.36828504632E+03  0.13050753533E+04  0.50400001928E-02 0. -1.
       -1    1    3    3    0  502  0.51487789429E+03  0.11412662075E+04 -0.65376850521E+02  0.12537391814E+04  0.50400001928E-02 0.  1.
</event>
<event>
 5   0  0.2793920E-05  0.2539531E+04  0.7818609E-02  0.8389036E-01
        1   -1    0    0  501    0  0.00000000000E+00  0.00000000000E+00  0.96360825634E+03  0.96360825635E+03  0.50400001928E-02 0. -1.
       -1   -1    0    0    0  501  0.00000000000E+00  0.00000000000E+00 -0.16731947518E+04  0.16731947518E+04  0.50400001928E-02 0.  1.
    10030    2    1    2    0    0  0.00000000000E+00  0.00000000000E+00 -0.70958649542E+03  0.26368030081E+04  0.25395308837E+04 0.  0.
        2    1    3    3  502    0 -0.13759850211E+03 -0.90255027848E+03  0.56149029761E+03  0.10718216770E+04  0.25500000920E-02 0. -1.
       -2    1    3    3    0  502  0.13759850211E+03  0.90255027848E+03 -0.12710767930E+04  0.15649813311E+04  0.25500000920E-02 0.  1.
</event>
<event>
 5   0  0.7071821E-05  0.2487919E+04  0.7818609E-02  0.8407302E-01
       -2   -1    0    0    0  501  0.00000000000E+00  0.00000000000E+00  0.72938611021E+03  0.72938611021E+03  0.25500000920E-02 0.  1.
        2   -1    0    0  501    0  0.00000000000E+00  0.00000000000E+00 -0.21215588709E+04  0.21215588709E+04  0.25500000920E-02 0. -1.
    10030    2    1    2    0    0  0.00000000000E+00  0.00000000000E+00 -0.13921727607E+04  0.28509449811E+04  0.24879192691E+04 0.  0.
        5    1    3    3  502    0 -0.73125002817E+03 -0.79387818343E+03 -0.14047443140E+04  0.17715241606E+04  0.46999998093E+01 0. -1.
       -5    1    3    3    0  502  0.73125002817E+03  0.79387818343E+03  0.12571553305E+02  0.10794208205E+04  0.46999998093E+01 0.  1.
</event>
<event>
 5   0  0.6909250E-05  0.2450349E+04  0.7818609E-02  0.8420891E-01
       -2   -1    0    0    0  501  0.00000000000E+00  0.00000000000E+00  0.66754234664E+03  0.66754234664E+03  0.25500000920E-02 0. -1.
        2   -1    0    0  501    0  0.00000000000E+00  0.00000000000E+00 -0.22486251629E+04  0.22486251629E+04  0.25500000920E-02 0.  1.
    10030    2    1    2    0    0  0.00000000000E+00  0.00000000000E+00 -0.15810828162E+04  0.29161675095E+04  0.24503489694E+04 0.  0.
        4    1    3    3  502    0  0.52194580406E+03 -0.78266941267E+03  0.14355830634E+03  0.95163513603E+03  0.12699999809E+01 0. -1.
       -4    1    3    3    0  502 -0.52194580406E+03  0.78266941267E+03 -0.17246411226E+04  0.19645323735E+04  0.12699999809E+01 0.  1.
</event>
<event>
 5   0  0.2777539E-05  0.2521111E+04  0.7818609E-02  0.8395503E-01
        1   -1    0    0  501    0  0.00000000000E+00  0.00000000000E+00  0.14826343123E+04  0.14826343123E+04  0.50400001928E-02 0. -1.
       -1   -1    0    0    0  501  0.00000000000E+00  0.00000000000E+00 -0.10717408470E+04  0.10717408470E+04  0.50400001928E-02 0.  1.
    10030    2    1    2    0    0  0.00000000000E+00  0.00000000000E+00  0.41089346530E+03  0.25543751593E+04  0.25211106708E+04 0.  0.
        3    1    3    3  502    0 -0.90236410760E+03  0.27623085171E+03  0.10521979995E+04  0.14133948869E+04  0.10100000352E+00 0. -1.
       -3    1    3    3    0  502  0.90236410760E+03 -0.27623085171E+03 -0.64130453419E+03  0.11409802723E+04  0.10100000352E+00 0.  1.
</event>
<event>
 5   0  0.2793920E-05  0.2548912E+04  0.7818609E-02  0.8385765E-01
        1   -1    0    0  501    0  0.00000000000E+00  0.00000000000E+00  0.15328433234E+04  0.15328433234E+04  0.50400001928E-02 0.  1.
       -1   -1    0    0    0  501  0.00000000000E+00  0.00000000000E+00 -0.10596240664E+04  0.10596240664E+04  0.50400001928E-02 0. -1.
    10030    2    1    2    0    0  0.00000000000E+00  0.00000000000E+00  0.47321925696E+03  0.25924673898E+04  0.25489116701E+04 0.  0.
        2    1    3    3  502    0  0.27236610209E+03 -0.29233827867E+03 -0.99427387415E+03  0.10715528450E+04  0.25500000920E-02 0. -1.
       -2    1    3    3    0  502 -0.27236610209E+03  0.29233827867E+03  0.14674931311E+04  0.15209145448E+04  0.25500000920E-02 0.  1.
</event>
<event>
 5   0  0.6909250E-05  0.2508655E+04  0.7818609E-02  0.8399909E-01
       -2   -1    0    0    0  501  0.00000000000E+00  0.00000000000E+00  0.99783846275E+03  0.99783846276E+03  0.25500000920E-02 0. -1.
        2   -1    0    0  501    0  0.00000000000E+00  0.00000000000E+00 -0.15767451452E+04  0.15767451452E+04  0.25500000920E-02 0.  1.
    10030    2    1    2    0    0  0.00000000000E+00  0.00000000000E+00 -0.57890668248E+03  0.25745836080E+04  0.25086545811E+04 0.  0.
        4    1    3    3  502    0 -0.55478377320E+03  0.43856433714E+03  0.77373160114E+03  0.10482298967E+04  0.12699999809E+01 0. -1.
       -4    1    3    3    0  502  0.55478377320E+03 -0.43856433714E+03 -0.13526382836E+04  0.15263537113E+04  0.12699999809E+01 0.  1.
</event>
<event>
 5   0  0.2977854E-05  0.2551368E+04  0.7818609E-02  0.8384910E-01
        1   -1    0    0  501    0  0.00000000000E+00  0.00000000000E+00  0.15201975294E+04  0.15201975294E+04  0.50400001928E-02 0. -1.
       -1   -1    0    0    0  501  0.00000000000E+00  0.00000000000E+00 -0.10704991442E+04  0.10704991442E+04  0.50400001928E-02 0.  1.
    10030    2    1    2    0    0  0.00000000000E+00  0.00000000000E+00  0.44969838527E+03  0.25906966736E+04  0.25513683813E+04 0.  0.
        1    1    3    3  502    0  0.76709030992E+02 -0.12674654521E+04  0.10041550411E+03  0.12737488847E+04  0.50400001928E-02 0. -1.
       -1    1    3    3    0  502 -0.76709030992E+02  0.12674654521E+04  0.34928288116E+03  0.13169477889E+04  0.50400001928E-02 0.  1.
</event>
<event>
 5   0  0.6445331E-05  0.2524186E+04  0.7818609E-02  0.8394420E-01
       -2   -1    0    0    0  501  0.00000000000E+00  0.00000000000E+00  0.99715854915E+03  0.99715854916E+03  0.25500000920E-02 0.  1.
        2   -1    0    0  501    0  0.00000000000E+00  0.00000000000E+00 -0.15974173974E+04  0.15974173974E+04  0.25500000920E-02 0. -1.
    10030    2    1    2    0    0  0.00000000000E+00  0.00000000000E+00 -0.60025884824E+03  0.25945759466E+04  0.25241857415E+04 0.  0.
        1    1    3    3  502    0 -0.14517997975E+02 -0.38154839236E+03  0.93636630160E+03  0.10112229224E+04  0.50400001928E-02 0.  1.
       -1    1    3    3    0  502  0.14517997975E+02  0.38154839236E+03 -0.15366251498E+04  0.15833530242E+04  0.50400001928E-02 0. -1.
</event>
<event>
 5   0  0.2977854E-05  0.2517713E+04  0.7818609E-02  0.8396702E-01
       -1   -1    0    0    0  501  0.00000000000E+00  0.00000000000E+00  0.90578179380E+03  0.90578179381E+03  0.50400001928E-02 0. -1.
        1   -1    0    0  501    0  0.00000000000E+00  0.00000000000E+00 -0.17495607352E+04  0.17495607352E+04  0.50400001928E-02 0.  1.
    10030    2    1    2    0    0  0.00000000000E+00  0.00000000000E+00 -0.84377894143E+03  0.26553425291E+04  0.25177134556E+04 0.  0.
        1    1    3    3  502    0 -0.57614868418E+03 -0.50682272453E+03 -0.14743914450E+04  0.16621211489E+04  0.50400001928E-02 0.  1.
       -1    1    3    3    0  502  0.57614868418E+03  0.50682272453E+03  0.63061250357E+03  0.99322138019E+03  0.50400001928E-02 0. -1.
</event>
<event>
 5   0  0.2977854E-05  0.2551621E+04  0.7818609E-02  0.8384823E-01
       -1   -1    0    0    0  501  0.00000000000E+00  0.00000000000E+00  0.13073700207E+04  0.13073700207E+04  0.50400001928E-02 0.  1.
        1   -1    0    0  501    0  0.00000000000E+00  0.00000000000E+00 -0.12450131209E+04  0.12450131209E+04  0.50400001928E-02 0. -1.
    10030    2    1    2    0    0  0.00000000000E+00  0.00000000000E+00  0.62356899839E+02  0.25523831416E+04  0.25516213118E+04 0.  0.
        1    1    3    3  502    0  0.31532241602E+03 -0.39932326245E+03  0.12014873912E+04  0.13047832177E+04  0.50400001928E-02 0.  1.
       -1    1    3    3    0  502 -0.31532241602E+03  0.39932326245E+03 -0.11391304913E+04  0.12475999240E+04  0.50400001928E-02 0. -1.
</event>
<event>
 5   0  0.6827859E-05  0.2507243E+04  0.7818609E-02  0.8400410E-01
       -2   -1    0    0    0  501  0.00000000000E+00  0.00000000000E+00  0.10580068718E+04  0.10580068718E+04  0.25500000920E-02 0. -1.
        2   -1    0    0  501    0  0.00000000000E+00  0.00000000000E+00 -0.14854029975E+04  0.14854029975E+04  0.25500000920E-02 0.  1.
    10030    2    1    2    0    0  0.00000000000E+00  0.00000000000E+00 -0.42739612575E+03  0.25434098693E+04  0.25072427715E+04 0.  0.
        3    1    3    3  502    0 -0.77927305744E+03  0.92900287846E+03  0.10909594432E+03  0.12174624354E+04  0.10100000352E+00 0. -1.
       -3    1    3    3    0  502  0.77927305744E+03 -0.92900287846E+03 -0.53649207006E+03  0.13259474340E+04  0.10100000352E+00 0.  1.
</event>
<event>
 5   0  0.2980790E-05  0.2334902E+04  0.7818609E-02  0.8464286E-01
       -1   -1    0    0    0  501  0.00000000000E+00  0.00000000000E+00  0.63919681636E+03  0.63919681638E+03  0.50400001928E-02 0.  1.
        1   -1    0    0  501    0  0.00000000000E+00  0.00000000000E+00 -0.21322716888E+04  0.21322716888E+04  0.50400001928E-02 0. -1.
    10030    2    1    2    0    0  0.00000000000E+00  0.00000000000E+00 -0.14930748725E+04  0.27714685052E+04  0.23349015184E+04 0.  0.
        5    1    3    3  502    0  0.20056036517E+03  0.10718907742E+04 -0.12413006527E+04  0.16522783338E+04  0.46999998093E+01 0. -1.
       -5    1    3    3    0  502 -0.20056036517E+03 -0.10718907742E+04 -0.25177421974E+03  0.11191901714E+04  0.46999998093E+01 0.  1.
</event>
<event>
 5   0  0.6827859E-05  0.2591703E+04  0.7818609E-02  0.8371025E-01
       -2   -1    0    0    0  501  0.00000000000E+00  0.00000000000E+00  0.83195570954E+03  0.83195570954E+03  0.25500000920E-02 0. -1.
        2   -1    0    0  501    0  0.00000000000E+00  0.00000000000E+00 -0.20184147789E+04  0.20184147789E+04  0.25500000920E-02 0.  1.
    10030    2    1    2    0    0  0.00000000000E+00  0.00000000000E+00 -0.11864590693E+04  0.28503704884E+04  0.25917034549E+04 0.  0.
        3    1    3    3  502    0  0.59034272654E+03  0.11478563571E+04 -0.71936214683E+03  0.14776876057E+04  0.10100000352E+00 0.  1.
       -3    1    3    3    0  502 -0.59034272654E+03 -0.11478563571E+04 -0.46709692251E+03  0.13726828828E+04  0.10100000352E+00 0. -1.
</event>
<event>
 5   0  0.6909250E-05  0.2096013E+04  0.7818609E-02  0.8563002E-01
       -2   -1    0    0    0  501  0.00000000000E+00  0.00000000000E+00  0.52711669242E+03  0.52711669242E+03  0.25500000920E-02 0. -1.
        2   -1    0    0  501    0  0.00000000000E+00  0.00000000000E+00 -0.20836321229E+04  0.20836321229E+04  0.25500000920E-02 0.  1.
    10030    2    1    2    0    0  0.00000000000E+00  0.00000000000E+00 -0.15565154305E+04  0.26107488153E+04  0.20960126649E+04 0.  0.
        4    1    3    3  502    0  0.55576979814E+03  0.68427676550E+03 -0.14841843425E+04  0.17262443441E+04  0.12699999809E+01 0.  1.
       -4    1    3    3    0  502 -0.55576979814E+03 -0.68427676550E+03 -0.72331087997E+02  0.88450447117E+03  0.12699999809E+01 0. -1.
</event>
<event>
 5   0  0.6827859E-05  0.2550848E+04  0.7818609E-02  0.8385091E-01
        2   -1    0    0  501    0  0.00000000000E+00  0.00000000000E+00  0.68530735819E+03  0.68530735820E+03  0.25500000920E-02 0.  1.
       -2   -1    0    0    0  501  0.00000000000E+00  0.00000000000E+00 -0.23736892370E+04  0.23736892370E+04  0.25500000920E-02 0. -1.
    10030    2    1    2    0    0  0.00000000000E+00  0.00000000000E+00 -0.16883818788E+04  0.30589965952E+04  0.25508482512E+04 0.  0.
        3    1    3    3  502    0  0.40303555054E+03 -0.40911283540E+03  0.52148261371E+03  0.77572875007E+03  0.10100000352E+00 0.  1.
       -3    1    3    3    0  502 -0.40303555054E+03  0.40911283540E+03 -0.22098644925E+04  0.22832678451E+04  0.10100000352E+00 0. -1.
</event>
<event>
 5   0  0.6445331E-05  0.2500834E+04  0.7818609E-02  0.8402688E-01
       -2   -1    0    0    0  501  0.00000000000E+00  0.00000000000E+00  0.98493270393E+03  0.98493270393E+03  0.25500000920E-02 0.  1.
        2   -1    0    0  501    0  0.00000000000E+00  0.00000000000E+00 -0.15874619413E+04  0.15874619413E+04  0.25500000920E-02 0. -1.
    10030    2    1    2    0    0  0.00000000000E+00  0.00000000000E+00 -0.60252923733E+03  0.25723946452E+04  0.25008344065E+04 0.  0.
        1    1    3    3  502    0  0.66819452843E+03  0.19119254475E+03  0.76795269914E+03  0.10357556976E+04  0.50400001928E-02 0.  1.
       -1    1    3    3    0  502 -0.66819452843E+03 -0.19119254475E+03 -0.13704819365E+04  0.15366389476E+04  0.50400001928E-02 0. -1.
</event>
<event>
 5   0  0.2793920E-05  0.1934933E+04  0.7818609E-02  0.8637661E-01
        1   -1    0    0  501    0  0.00000000000E+00  0.00000000000E+00  0.15278349885E+04  0.15278349885E+04  0.50400001928E-02 0. -1.
       -1   -1    0    0    0  501  0.00000000000E+00  0.00000000000E+00 -0.61262620754E+03  0.61262620756E+03  0.50400001928E-02 0.  1.
    10030    2    1    2    0    0  0.00000000000E+00  0.00000000000E+00  0.91520878093E+03  0.21404611960E+04  0.19349333371E+04 0.  0.
        2    1    3    3  502    0 -0.12502578066E+03 -0.80928252172E+03 -0.11231036286E+03  0.82654900847E+03  0.25500000920E-02 0.  1.
       -2    1    3    3    0  502  0.12502578066E+03  0.80928252172E+03  0.10275191438E+04  0.13139121876E+04  0.25500000920E-02 0. -1.
</event>
<event>
 5   0  0.2896652E-05  0.2537119E+04  0.7818609E-02  0.8389880E-01
       -1   -1    0    0    0  501  0.00000000000E+00  0.00000000000E+00  0.21490032938E+04  0.21490032939E+04  0.50400001928E-02 0.  1.
        1   -1    0    0  501    0  0.00000000000E+00  0.00000000000E+00 -0.74883214348E+03  0.74883214350E+03  0.50400001928E-02 0. -1.
    10030    2    1    2    0    0  0.00000000000E+00  0.00000000000E+00  0.14001711504E+04  0.28978354374E+04  0.25371186357E+04 0.  0.
        4    1    3    3  502    0 -0.27390619462E+03 -0.41970820160E+03 -0.63095921780E+03  0.80578578131E+03  0.12699999809E+01 0. -1.
       -4    1    3    3    0  502  0.27390619462E+03  0.41970820160E+03  0.20311303682E+04  0.20920496560E+04  0.12699999809E+01 0.  1.
</event>
<event>
 5   0  0.7071821E-05  0.2474726E+04  0.7818609E-02  0.8412045E-01
       -2   -1    0    0    0  501  0.00000000000E+00  0.00000000000E+00  0.87985530282E+03  0.87985530282E+03  0.25500000920E-02 0. -1.
        2   -1    0    0  501    0  0.00000000000E+00  0.00000000000E+00 -0.17401348275E+04  0.17401348275E+04  0.25500000920E-02 0.  1.
    10030    2    1    2    0    0  0.00000000000E+00  0.00000000000E+00 -0.86027952465E+03  0.26199901303E+04  0.24747257267E+04 0.  0.
        5    1    3    3  502    0  0.68679170464E+03 -0.10168515997E+04 -0.59878474240E+03  0.13653700155E+04  0.46999998093E+01 0. -1.
       -5    1    3    3    0  502 -0.68679170464E+03  0.10168515997E+04 -0.26149478225E+03  0.12546201148E+04  0.46999998093E+01 0.  1.
</event>
<event>
 5   0  0.2977854E-05  0.2494418E+04  0.7818609E-02  0.8404977E-01
       -1   -1    0    0    0  501  0.00000000000E+00  0.00000000000E+00  0.10458782770E+04  0.10458782770E+04  0.50400001928E-02 0.  1.
        1   -1    0    0  501    0  0.00000000000E+00  0.00000000000E+00 -0.14872952565E+04  0.14872952565E+04  0.50400001928E-02 0. -1.
    10030    2    1    2    0    0  0.00000000000E+00  0.00000000000E+00 -0.44141697952E+03  0.25331735335E+04  0.24944176076E+04 0.  0.
        1    1    3    3  502    0 -0.11482345084E+04 -0.48636257680E+03 -0.19713669737E+03  0.12624792750E+04  0.50400001928E-02 0.  1.
       -1    1    3    3    0  502  0.11482345084E+04  0.48636257680E+03 -0.24428028214E+03  0.12706942585E+04  0.50400001928E-02 0. -1.
</event>
<event>
 5   0  0.2896652E-05  0.1372881E+04  0.7818609E-02  0.8973686E-01
       -1   -1    0    0    0  501  0.00000000000E+00  0.00000000000E+00  0.47828381525E+03  0.47828381527E+03  0.50400001928E-02 0. -1.
        1   -1    0    0  501    0  0.00000000000E+00  0.00000000000E+00 -0.98519089934E+03  0.98519089935E+03  0.50400001928E-02 0.  1.
    10030    2    1    2    0    0  0.00000000000E+00  0.00000000000E+00 -0.50690708409E+03  0.14634747146E+04  0.13728814401E+04 0.  0.
        4    1    3    3  502    0 -0.15365759177E+03  0.60226333793E+03 -0.56399730104E+03  0.83930110937E+03  0.12699999809E+01 0.  1.
       -4    1    3    3    0  502  0.15365759177E+03 -0.60226333793E+03  0.57090216943E+02  0.62417360525E+03  0.12699999809E+01 0. -1.
</event>
<event>
 5   0  0.2980790E-05  0.2451551E+04  0.7818609E-02  0.8420452E-01
       -1   -1    0    0    0  501  0.00000000000E+00  0.00000000000E+00  0.11094938023E+04  0.11094938023E+04  0.50400001928E-02 0. -1.
        1   -1    0    0  501    0  0.00000000000E+00  0.00000000000E+00 -0.13542440099E+04  0.13542440099E+04  0.50400001928E-02 0.  1.
    10030    2    1    2    0    0  0.00000000000E+00  0.00000000000E+00 -0.24475020760E+03  0.24637378123E+04  0.24515508038E+04 0.  0.
        5    1    3    3  502    0 -0.49354144053E+03 -0.73354103227E+02 -0.12475565516E+04  0.13436455699E+04  0.46999998093E+01 0.  1.
       -5    1    3    3    0  502  0.49354144053E+03  0.73354103227E+02  0.10028063440E+04  0.11200922424E+04  0.46999998093E+01 0. -1.
</event>
<event>
 5   0  0.6909250E-05  0.2542208E+04  0.7818609E-02  0.8388101E-01
        2   -1    0    0  501    0  0.00000000000E+00  0.00000000000E+00  0.19295971624E+04  0.19295971624E+04  0.25500000920E-02 0. -1.
       -2   -1    0    0    0  501  0.00000000000E+00  0.00000000000E+00 -0.83732789694E+03  0.83732789694E+03  0.25500000920E-02 0.  1.
    10030    2    1    2    0    0  0.00000000000E+00  0.00000000000E+00  0.10922692654E+04  0.27669250593E+04  0.25422081220E+04 0.  0.
        4    1    3    3  502    0  0.65189486548E+03 -0.44604406243E+03  0.16300474204E+04  0.18113471304E+04  0.12699999809E+01 0. -1.
       -4    1    3    3    0  502 -0.65189486548E+03  0.44604406243E+03 -0.53777815499E+03  0.95557792887E+03  0.12699999809E+01 0.  1.
</event>
<event>
 5   0  0.2977854E-05  0.2497056E+04  0.7818609E-02  0.8404035E-01
       -1   -1    0    0    0  501  0.00000000000E+00  0.00000000000E+00  0.15847243012E+04  0.15847243012E+04  0.50400001928E-02 0. -1.
        1   -1    0    0  501    0  0.00000000000E+00  0.00000000000E+00 -0.98365548416E+03  0.98365548417E+03  0.50400001928E-02 0.  1.
    10030    2    1    2    0    0  0.00000000000E+00  0.00000000000E+00  0.60106881702E+03  0.25683797854E+04  0.24970564669E+04 0.  0.
        1    1    3    3  502    0 -0.75800310022E+03  0.98615682277E+03  0.41202214387E+03  0.13102809722E+04  0.50400001928E-02 0. -1.
       -1    1    3    3    0  502  0.75800310022E+03 -0.98615682277E+03  0.18904667315E+03  0.12580988132E+04  0.50400001928E-02 0.  1.
</event>
<event>
 5   0  0.6648328E-05  0.2481575E+04  0.7818609E-02  0.8409579E-01
        2   -1    0    0  501    0  0.00000000000E+00  0.00000000000E+00  0.24898808482E+04  0.24898808482E+04  0.25500000920E-02 0.  1.
       -2   -1    0    0    0  501  0.00000000000E+00  0.00000000000E+00 -0.61832428653E+03  0.61832428653E+03  0.25500000920E-02 0. -1.
    10030    2    1    2    0    0  0.00000000000E+00  0.00000000000E+00  0.18715565617E+04  0.31082051348E+04  0.24815751442E+04 0.  0.
        2    1    3    3  502    0  0.85104575714E+02 -0.47602383112E+03 -0.49544039407E+03  0.69231687881E+03  0.25500000920E-02 0. -1.
       -2    1    3    3    0  502 -0.85104575714E+02  0.47602383112E+03  0.23669969558E+04  0.24158882560E+04  0.25500000920E-02 0.  1.
</event>
<event>
 5   0  0.7071821E-05  0.2512429E+04  0.7818609E-02  0.8398571E-01
        2   -1    0    0  501    0  0.00000000000E+00  0.00000000000E+00  0.17451131724E+04  0.17451131724E+04  0.25500000920E-02 0.  1.
       -2   -1    0    0    0  501  0.00000000000E+00  0.00000000000E+00 -0.90428247973E+03  0.90428247973E+03  0.25500000920E-02 0. -1.
    10030    2    1    2    0    0  0.00000000000E+00  0.00000000000E+00  0.84083069272E+03  0.26493956522E+04  0.25124293160E+04 0.  0.
        5    1    3    3  502    0  0.30073784307E+02  0.23197186278E+03 -0.88110534335E+03  0.91163813748E+03  0.46999998093E+01 0. -1.
       -5    1    3    3    0  502 -0.30073784307E+02 -0.23197186278E+03  0.17219360361E+04  0.17377575147E+04  0.46999998093E+01 0.  1.
</event>
<event>
 5   0  0.2777539E-05  0.2475920E+04  0.7818609E-02  0.8411615E-01
       -1   -1    0    0    0  501  0.00000000000E+00  0.00000000000E+00  0.90540184367E+03  0.90540184368E+03  0.50400001928E-02 0.  1.
        1   -1    0    0  501    0  0.00000000000E+00  0.00000000000E+00 -0.16926678918E+04  0.16926678918E+04  0.50400001928E-02 0. -1.
    10030    2    1    2    0    0  0.00000000000E+00  0.00000000000E+00 -0.78726604814E+03  0.25980697355E+04  0.24759197321E+04 0.  0.
        3    1    3    3  502    0  0.87214366194E+03 -0.68653972943E+03 -0.96892644631E+03  0.14733600496E+04  0.10100000352E+00 0. -1.
       -3    1    3    3    0  502 -0.87214366194E+03  0.68653972943E+03  0.18166039817E+03  0.11247096859E+04  0.10100000352E+00 0.  1.
</event>
<event>
 5   0  0.2980790E-05  0.2463509E+04  0.7818609E-02  0.8416102E-01
        1   -1    0    0  501    0  0.00000000000E+00  0.00000000000E+00  0.62263114761E+03  0.62263114763E+03  0.50400001928E-02 0.  1.
       -1   -1    0    0    0  501  0.00000000000E+00  0.00000000000E+00 -0.24367856132E+04  0.24367856132E+04  0.50400001928E-02 0. -1.
    10030    2    1    2    0    0  0.00000000000E+00  0.00000000000E+00 -0.18141544656E+04  0.30594167609E+04  0.24635085735E+04 0.  0.
        5    1    3    3  502    0  0.11714441529E+04 -0.30677341114E+03 -0.11870002832E+04  0.16956954595E+04  0.46999998093E+01 0.  1.
       -5    1    3    3    0  502 -0.11714441529E+04  0.30677341114E+03 -0.62715418242E+03  0.13637213013E+04  0.46999998093E+01 0. -1.
</event>
<event>
 5   0  0.6648328E-05  0.2542369E+04  0.7818609E-02  0.8388045E-01
        2   -1    0    0  501    0  0.00000000000E+00  0.00000000000E+00  0.20515795907E+04  0.20515795907E+04  0.25500000920E-02 0.  1.
       -2   -1    0    0    0  501  0.00000000000E+00  0.00000000000E+00 -0.78764189745E+03  0.78764189745E+03  0.25500000920E-02 0. -1.
    10030    2    1    2    0    0  0.00000000000E+00  0.00000000000E+00  0.12639376932E+04  0.28392214881E+04  0.25423690067E+04 0.  0.
        2    1    3    3  502    0 -0.38251706067E+03  0.10358034105E+04  0.13353535212E+04  0.17327368622E+04  0.25500000920E-02 0.  1.
       -2    1    3    3    0  502  0.38251706067E+03 -0.10358034105E+04 -0.71415827972E+02  0.11064846259E+04  0.25500000920E-02 0. -1.
</event>
<event>
 5   0  0.2896652E-05  0.2510232E+04  0.7818609E-02  0.8399349E-01
       -1   -1    0    0    0  501  0.00000000000E+00  0.00000000000E+00  0.65715890589E+03  0.65715890591E+03  0.50400001928E-02 0. -1.
        1   -1    0    0  501    0  0.00000000000E+00  0.00000000000E+00 -0.23971626718E+04  0.23971626718E+04  0.50400001928E-02 0.  1.
    10030    2    1    2    0    0  0.00000000000E+00  0.00000000000E+00 -0.17400037659E+04  0.30543215777E+04  0.25102324981E+04 0.  0.
        4    1    3    3  502    0  0.11468116224E+04  0.80772754307E+02 -0.25724603068E+03  0.11780824540E+04  0.12699999809E+01 0. -1.
       -4    1    3    3    0  502 -0.11468116224E+04 -0.80772754307E+02 -0.14827577352E+04  0.18762391237E+04  0.12699999809E+01 0.  1.
</event>
<event>
 5   0  0.6827859E-05  0.2581906E+04  0.7818609E-02  0.8374373E-01
        2   -1    0    0  501    0  0.00000000000E+00  0.00000000000E+00  0.13367580374E+04  0.13367580374E+04  0.25500000920E-02 0.  1.
       -2   -1    0    0    0  501  0.00000000000E+00  0.00000000000E+00 -0.12467178613E+04  0.12467178613E+04  0.25500000920E-02 0. -1.
    10030    2    1    2    0    0  0.00000000000E+00  0.00000000000E+00  0.90040176019E+02  0.25834758987E+04  0.25819063666E+04 0.  0.
        3    1    3    3  502    0 -0.73811878480E+01  0.74759573712E+03  0.10980885913E+04  0.13284398491E+04  0.10100000352E+00 0.  1.
       -3    1    3    3    0  502  0.73811878480E+01 -0.74759573712E+03 -0.10080484153E+04  0.12550360496E+04  0.10100000352E+00 0. -1.
</event>
<event>
 5   0  0.7071821E-05  0.2436203E+04  0.7818609E-02  0.8426073E-01
        2   -1    0    0  501    0  0.00000000000E+00  0.00000000000E+00  0.23283709622E+04  0.23283709622E+04  0.25500000920E-02 0. -1.
       -2   -1    0    0    0  501  0.00000000000E+00  0.00000000000E+00 -0.63725739771E+03  0.63725739771E+03  0.25500000920E-02 0.  1.
    10030    2    1    2    0    0  0.00000000000E+00  0.00000000000E+00  0.16911135645E+04  0.29656283599E+04  0.24362032922E+04 0.  0.
        5    1    3    3  502    0  0.13974190058E+03 -0.99565142422E+03  0.16826770270E+04  0.19601718355E+04  0.46999998093E+01 0. -1.
       -5    1    3    3    0  502 -0.13974190058E+03  0.99565142422E+03  0.84365374494E+01  0.10054565244E+04  0.46999998093E+01 0.  1.
</event>
<event>
 5   0  0.6445331E-05  0.2418904E+04  0.7818609E-02  0.8432460E-01
        2   -1    0    0  501    0  0.00000000000E+00  0.00000000000E+00  0.26399286304E+04  0.26399286304E+04  0.25500000920E-02 0.  1.
       -2   -1    0    0    0  501  0.00000000000E+00  0.00000000000E+00 -0.55409619382E+03  0.55409619383E+03  0.25500000920E-02 0. -1.
    10030    2    1    2    0    0  0.00000000000E+00  0.00000000000E+00  0.20858324366E+04  0.31940248242E+04  0.24189042197E+04 0.  0.
        1    1    3    3  502    0 -0.91129955136E+02  0.31461162760E+02 -0.54901439739E+03  0.55741482045E+03  0.50400001928E-02 0. -1.
       -1    1    3    3    0  502  0.91129955136E+02 -0.31461162760E+02  0.26348468339E+04  0.26366100037E+04  0.50400001928E-02 0.  1.
</event>
<event>
 5   0  0.2896652E-05  0.2409910E+04  0.7818609E-02  0.8435803E-01
        1   -1    0    0  501    0  0.00000000000E+00  0.00000000000E+00  0.14683506015E+04  0.14683506015E+04  0.50400001928E-02 0. -1.
       -1   -1    0    0    0  501  0.00000000000E+00  0.00000000000E+00 -0.98880771116E+03  0.98880771117E+03  0.50400001928E-02 0.  1.
    10030    2    1    2    0    0  0.00000000000E+00  0.00000000000E+00  0.47954289029E+03  0.24571583126E+04  0.24099098717E+04 0.  0.
        4    1    3    3  502    0 -0.49704946805E+02 -0.11802253120E+04 -0.26127369169E+01  0.11812750772E+04  0.12699999809E+01 0. -1.
       -4    1    3    3    0  502  0.49704946805E+02  0.11802253120E+04  0.48215562721E+03  0.12758832354E+04  0.12699999809E+01 0.  1.
</event>
<event>
 5   0  0.6445331E-05  0.2456528E+04  0.7818609E-02  0.8418639E-01
       -2   -1    0    0    0  501  0.00000000000E+00  0.00000000000E+00  0.12947125689E+04  0.12947125689E+04  0.25500000920E-02 0. -1.
        2   -1    0    0  501    0  0.00000000000E+00  0.00000000000E+00 -0.11652254006E+04  0.11652254006E+04  0.25500000920E-02 0.  1.
    10030    2    1    2    0    0  0.00000000000E+00  0.00000000000E+00  0.12948716828E+03  0.24599379696E+04  0.24565276077E+04 0.  0.
        1    1    3    3  502    0 -0.40960585297E+03 -0.71676246100E+03  0.97546017341E+03  0.12779076376E+04  0.50400001928E-02 0. -1.
       -1    1    3    3    0  502  0.40960585297E+03  0.71676246100E+03 -0.84597300513E+03  0.11820303320E+04  0.50400001928E-02 0.  1.
</event>
<event>
 5   0  0.2977854E-05  0.1763160E+04  0.7818609E-02  0.8726140E-01
        1   -1    0    0  501    0  0.00000000000E+00  0.00000000000E+00  0.15596806311E+04  0.15596806311E+04  0.50400001928E-02 0. -1.
       -1   -1    0    0    0  501  0.00000000000E+00  0.00000000000E+00 -0.49829634725E+03  0.49829634728E+03  0.50400001928E-02 0.  1.
    10030    2    1    2    0    0  0.00000000000E+00  0.00000000000E+00  0.10613842839E+04  0.20579769784E+04  0.17631598469E+04 0.  0.
        1    1    3    3  502    0 -0.58567210699E+03  0.32433741639E+03  0.12001624484E+04  0.13742621581E+04  0.50400001928E-02 0. -1.
       -1    1    3    3    0  502  0.58567210699E+03 -0.32433741639E+03 -0.13877816451E+03  0.68371482034E+03  0.50400001928E-02 0.  1.
</event>
<event>
 5   0  0.6909250E-05  0.2289299E+04  0.7818609E-02  0.8482153E-01
        2   -1    0    0  501    0  0.00000000000E+00  0.00000000000E+00  0.15788344014E+04  0.15788344015E+04  0.25500000920E-02 0.  1.
       -2   -1    0    0    0  501  0.00000000000E+00  0.00000000000E+00 -0.82986661403E+03  0.82986661404E+03  0.25500000920E-02 0. -1.
    10030    2    1    2    0    0  0.00000000000E+00  0.00000000000E+00  0.74896778742E+03  0.24087010155E+04  0.22892985466E+04 0.  0.
        4    1    3    3  502    0  0.94219088023E+03 -0.57393613720E+03  0.69551071047E+03  0.13041714250E+04  0.12699999809E+01 0. -1.
       -4    1    3    3    0  502 -0.94219088023E+03  0.57393613720E+03  0.53457076943E+02  0.11045295905E+04  0.12699999809E+01 0.  1.
</event>
<event>
 5   0  0.2977854E-05  0.2521594E+04  0.7818609E-02  0.8395333E-01
       -1   -1    0    0    0  501  0.00000000000E+00  0.00000000000E+00  0.86469403060E+03  0.86469403061E+03  0.50400001928E-02 0.  1.
        1   -1    0    0  501    0  0.00000000000E+00  0.00000000000E+00 -0.18383480747E+04  0.18383480747E+04  0.50400001928E-02 0. -1.
    10030    2    1    2    0    0  0.00000000000E+00  0.00000000000E+00 -0.97365404410E+03  0.27030421053E+04  0.25215936281E+04 0.  0.
        1    1    3    3  502    0 -0.10045290758E+04  0.49475478809E+03 -0.11079594421E+04  0.15752571504E+04  0.50400001928E-02 0. -1.
       -1    1    3    3    0  502  0.10045290758E+04 -0.49475478809E+03  0.13430539801E+03  0.11277849549E+04  0.50400001928E-02 0.  1.
</event>
<event>
 5   0  0.7071821E-05  0.2469688E+04  0.7818609E-02  0.8413865E-01
        2   -1    0    0  501    0  0.00000000000E+00  0.00000000000E+00  0.11051831759E+04  0.11051831759E+04  0.25500000920E-02 0.  1.
       -2   -1    0    0    0  501  0.00000000000E+00  0.00000000000E+00 -0.13797165689E+04  0.13797165689E+04  0.25500000920E-02 0. -1.
    10030    2    1    2    0    0  0.00000000000E+00  0.00000000000E+00 -0.27453339302E+03  0.24848997448E+04  0.24696878664E+04 0.  0.
        5    1    3    3  502    0 -0.11785794626E+04 -0.26374585461E+03 -0.39615686434E+03  0.12710522320E+04  0.46999998093E+01 0. -1.
       -5    1    3    3    0  502  0.11785794626E+04  0.26374585461E+03  0.12162347132E+03  0.12138475127E+04  0.46999998093E+01 0.  1.
</event>
<event>
 5   0  0.7071821E-05  0.2440493E+04  0.7818609E-02  0.8424497E-01
        2   -1    0    0  501    0  0.00000000000E+00  0.00000000000E+00  0.14529347737E+04  0.14529347737E+04  0.25500000920E-02 0. -1.
       -2   -1    0    0    0  501  0.00000000000E+00  0.00000000000E+00 -0.10248233404E+04  0.10248233404E+04  0.25500000920E-02 0.  1.
    10030    2    1    2    0    0  0.00000000000E+00  0.00000000000E+00  0.42811143328E+03  0.24777581141E+04  0.24404929569E+04 0.  0.
        5    1    3    3  502    0  0.90848854958E+03  0.32342191720E+03 -0.54504155149E+03  0.11077208873E+04  0.46999998093E+01 0.  1.
       -5    1    3    3    0  502 -0.90848854958E+03 -0.32342191720E+03  0.97315298477E+03  0.13700372269E+04  0.46999998093E+01 0. -1.
</event>
<event>
 5   0  0.6648328E-05  0.2483746E+04  0.7818609E-02  0.8408799E-01
       -2   -1    0    0    0  501  0.00000000000E+00  0.00000000000E+00  0.75214675721E+03  0.75214675721E+03  0.25500000920E-02 0. -1.
        2   -1    0    0  501    0  0.00000000000E+00  0.00000000000E+00 -0.20504622761E+04  0.20504622761E+04  0.25500000920E-02 0.  1.
    10030    2    1    2    0    0  0.00000000000E+00  0.00000000000E+00 -0.12983155189E+04  0.28026090334E+04  0.24837460029E+04 0.  0.
        2    1    3    3  502    0  0.10435872824E+04 -0.15946262669E+03  0.88828399280E+02  0.10594306159E+04  0.25500000920E-02 0. -1.
       -2    1    3    3    0  502 -0.10435872824E+04  0.15946262669E+03 -0.13871439182E+04  0.17431784175E+04  0.25500000920E-02 0.  1.
</event>
<event>
 5   0  0.6648328E-05  0.2464010E+04  0.7818609E-02  0.8415921E-01
        2   -1    0    0  501    0  0.00000000000E+00  0.00000000000E+00  0.10791147791E+04  0.10791147791E+04  0.25500000920E-02 0. -1.
       -2   -1    0    0    0  501  0.00000000000E+00  0.00000000000E+00 -0.14065564938E+04  0.14065564938E+04  0.25500000920E-02 0.  1.
    10030    2    1    2    0    0  0.00000000000E+00  0.00000000000E+00 -0.32744171471E+03  0.24856712729E+04  0.24640096591E+04 0.  0.
        2    1    3    3  502    0  0.34433007475E+03  0.10538951500E+04 -0.70563773925E+03  0.13142232712E+04  0.25500000920E-02 0.  1.
       -2    1    3    3    0  502 -0.34433007475E+03 -0.10538951500E+04  0.37819602454E+03  0.11714480017E+04  0.25500000920E-02 0. -1.
</event>
<event>
 5   0  0.6445331E-05  0.2454217E+04  0.7818609E-02  0.8419480E-01
        2   -1    0    0  501    0  0.00000000000E+00  0.00000000000E+00  0.13659526848E+04  0.13659526848E+04  0.25500000920E-02 0.  1.
       -2   -1    0    0    0  501  0.00000000000E+00  0.00000000000E+00 -0.11023773310E+04  0.11023773310E+04  0.25500000920E-02 0. -1.
    10030    2    1    2    0    0  0.00000000000E+00  0.00000000000E+00  0.26357535383E+03  0.24683300159E+04  0.24542170035E+04 0.  0.
        1    1    3    3  502    0  0.87994583447E+03  0.36603160902E+02 -0.72761469901E+03  0.11423955590E+04  0.50400001928E-02 0. -1.
       -1    1    3    3    0  502 -0.87994583447E+03 -0.36603160902E+02  0.99119005284E+03  0.13259344569E+04  0.50400001928E-02 0.  1.
</event>
<event>
 5   0  0.2980790E-05  0.2536743E+04  0.7818609E-02  0.8390011E-01
       -1   -1    0    0    0  501  0.00000000000E+00  0.00000000000E+00  0.15772585982E+04  0.15772585982E+04  0.50400001928E-02 0.  1.
        1   -1    0    0  501    0  0.00000000000E+00  0.00000000000E+00 -0.10199764977E+04  0.10199764977E+04  0.50400001928E-02 0. -1.
    10030    2    1    2    0    0  0.00000000000E+00  0.00000000000E+00  0.55728210046E+03  0.25972350959E+04  0.25367433461E+04 0.  0.
        5    1    3    3  502    0  0.20845986376E+03 -0.63513512786E+03 -0.82497421908E+03  0.10618176386E+04  0.46999998093E+01 0. -1.
       -5    1    3    3    0  502 -0.20845986376E+03  0.63513512786E+03  0.13822563195E+04  0.15354174574E+04  0.46999998093E+01 0.  1.
</event>
<event>
 5   0  0.2777539E-05  0.2585551E+04  0.7818609E-02  0.8373126E-01
        1   -1    0    0  501    0  0.00000000000E+00  0.00000000000E+00  0.11293732013E+04  0.11293732013E+04  0.50400001928E-02 0.  1.
       -1   -1    0    0    0  501  0.00000000000E+00  0.00000000000E+00 -0.14798191779E+04  0.14798191779E+04  0.50400001928E-02 0. -1.
    10030    2    1    2    0    0  0.00000000000E+00  0.00000000000E+00 -0.35044597659E+03  0.26091923791E+04  0.25855507129E+04 0.  0.
        3    1    3    3  502    0 -0.10637561028E+04 -0.38989359831E+03 -0.80355097649E+03  0.13889882096E+04  0.10100000352E+00 0. -1.
       -3    1    3    3    0  502  0.10637561028E+04  0.38989359831E+03  0.45310499990E+03  0.12202041696E+04  0.10100000352E+00 0.  1.
</event>
<event>
 5   0  0.6827859E-05  0.2499535E+04  0.7818609E-02  0.8403151E-01
       -2   -1    0    0    0  501  0.00000000000E+00  0.00000000000E+00  0.16082526692E+04  0.16082526692E+04  0.25500000920E-02 0.  1.
        2   -1    0    0  501    0  0.00000000000E+00  0.00000000000E+00 -0.97118980566E+03  0.97118980566E+03  0.25500000920E-02 0. -1.
    10030    2    1    2    0    0  0.00000000000E+00  0.00000000000E+00  0.63706286353E+03  0.25794424749E+04  0.24995348345E+04 0.  0.
        3    1    3    3  502    0 -0.72879956431E+03  0.38481894355E+03  0.12880794446E+04  0.15291772592E+04  0.10100000352E+00 0.  1.
       -3    1    3    3    0  502  0.72879956431E+03 -0.38481894355E+03 -0.65101658105E+03  0.10502652157E+04  0.10100000352E+00 0. -1.
</event>
<event>
 5   0  0.2977854E-05  0.2544523E+04  0.7818609E-02  0.8387294E-01
       -1   -1    0    0    0  501  0.00000000000E+00  0.00000000000E+00  0.99447403458E+03  0.99447403459E+03  0.50400001928E-02 0. -1.
        1   -1    0    0  501    0  0.00000000000E+00  0.00000000000E+00 -0.16276433150E+04  0.16276433150E+04  0.50400001928E-02 0.  1.
    10030    2    1    2    0    0  0.00000000000E+00  0.00000000000E+00 -0.63316928039E+03  0.26221173496E+04  0.25445227563E+04 0.  0.
        1    1    3    3  502    0  0.10042655122E+04 -0.54964014148E+03 -0.88848185001E+03  0.14491561344E+04  0.50400001928E-02 0.  1.
       -1    1    3    3    0  502 -0.10042655122E+04  0.54964014148E+03  0.25531256963E+03  0.11729612152E+04  0.50400001928E-02 0. -1.
</event>
<event>
 5   0  0.6648328E-05  0.1813067E+04  0.7818609E-02  0.8699381E-01
        2   -1    0    0  501    0  0.00000000000E+00  0.00000000000E+00  0.14282606408E+04  0.14282606408E+04  0.25500000920E-02 0. -1.
       -2   -1    0    0    0  501  0.00000000000E+00  0.00000000000E+00 -0.57538723441E+03  0.57538723442E+03  0.25500000920E-02 0.  1.
    10030    2    1    2    0    0  0.00000000000E+00  0.00000000000E+00  0.85287340638E+03  0.20036478752E+04  0.18130669487E+04 0.  0.
        2    1    3    3  502    0 -0.16555865540E+03  0.80039146714E+03  0.85978670886E+03  0.11862838420E+04  0.25500000920E-02 0. -1.
       -2    1    3    3    0  502  0.16555865540E+03 -0.80039146714E+03 -0.69133024849E+01  0.81736403322E+03  0.25500000920E-02 0.  1.
</event>
<event>
 5   0  0.2896652E-05  0.2562573E+04  0.7818609E-02  0.8381027E-01
       -1   -1    0    0    0  501  0.00000000000E+00  0.00000000000E+00  0.10739447814E+04  0.10739447814E+04  0.50400001928E-02 0. -1.
        1   -1    0    0  501    0  0.00000000000E+00  0.00000000000E+00 -0.15286587666E+04  0.15286587666E+04  0.50400001928E-02 0.  1.
    10030    2    1    2    0    0  0.00000000000E+00  0.00000000000E+00 -0.45471398522E+03  0.26026035480E+04  0.25625730077E+04 0.  0.
        4    1    3    3  502    0 -0.36043955881E+03 -0.81546150352E+03 -0.11619489275E+04  0.14645890421E+04  0.12699999809E+01 0.  1.
       -4    1    3    3    0  502  0.36043955881E+03  0.81546150352E+03  0.70723494225E+03  0.11380145059E+04  0.12699999809E+01 0. -1.
</event>
<event>
 5   0  0.2977854E-05  0.2455243E+04  0.7818609E-02  0.8419106E-01
        1   -1    0    0  501    0  0.00000000000E+00  0.00000000000E+00  0.21377836810E+04  0.21377836810E+04  0.50400001928E-02 0. -1.
       -1   -1    0    0    0  501  0.00000000000E+00  0.00000000000E+00 -0.70496110324E+03  0.70496110326E+03  0.50400001928E-02 0.  1.
    10030    2    1    2    0    0  0.00000000000E+00  0.00000000000E+00  0.14328225777E+04  0.28427447842E+04  0.24552428330E+04 0.  0.
        1    1    3    3  502    0  0.10986044810E+04  0.34483327826E+03  0.12092871530E+04  0.16697955605E+04  0.50400001928E-02 0. -1.
       -1    1    3    3    0  502 -0.10986044810E+04 -0.34483327826E+03  0.22353542473E+03  0.11729492238E+04  0.50400001928E-02 0.  1.
</event>
<event>
 5   0  0.2793920E-05  0.2466413E+04  0.7818609E-02  0.8415050E-01
        1   -1    0    0  501    0  0.00000000000E+00  0.00000000000E+00  0.10648879873E+04  0.10648879873E+04  0.50400001928E-02 0.  1.
       -1   -1    0    0    0  501  0.00000000000E+00  0.00000000000E+00 -0.14281293406E+04  0.14281293406E+04  0.50400001928E-02 0. -1.
    10030    2    1    2    0    0  0.00000000000E+00  0.00000000000E+00 -0.36324135337E+03  0.24930173279E+04  0.24664126006E+04 0.  0.
        2    1    3    3  502    0 -0.99240816727E+03 -0.14865464469E+03  0.54292778359E+03  0.11409394165E+04  0.25500000920E-02 0.  1.
       -2    1    3    3    0  502  0.99240816727E+03  0.14865464469E+03 -0.90616913695E+03  0.13520779114E+04  0.25500000920E-02 0. -1.
</event>
<event>
 5   0  0.2777539E-05  0.2470682E+04  0.7818609E-02  0.8413505E-01
       -1   -1    0    0    0  501  0.00000000000E+00  0.00000000000E+00  0.11996154288E+04  0.11996154288E+04  0.50400001928E-02 0.  1.
        1   -1    0    0  501    0  0.00000000000E+00  0.00000000000E+00 -0.12721302742E+04  0.12721302742E+04  0.50400001928E-02 0. -1.
    10030    2    1    2    0    0  0.00000000000E+00  0.00000000000E+00 -0.72514845453E+02  0.24717457030E+04  0.24706817718E+04 0.  0.
        3    1    3    3  502    0  0.26739677503E+02 -0.99417111588E+02 -0.12678311283E+04  0.12720041480E+04  0.10100000352E+00 0. -1.
       -3    1    3    3    0  502 -0.26739677503E+02  0.99417111588E+02  0.11953162829E+04  0.11997415550E+04  0.10100000352E+00 0.  1.
</event>
<event>
 5   0  0.6909250E-05  0.2553516E+04  0.7818609E-02  0.8384164E-01
        2   -1    0    0  501    0  0.00000000000E+00  0.00000000000E+00  0.60037233259E+03  0.60037233259E+03  0.25500000920E-02 0. -1.
       -2   -1    0    0    0  501  0.00000000000E+00  0.00000000000E+00 -0.27151677013E+04  0.27151677013E+04  0.25500000920E-02 0.  1.
    10030    2    1    2    0    0  0.00000000000E+00  0.00000000000E+00 -0.21147953687E+04  0.33155400339E+04  0.25535164508E+04 0.  0.
        4    1    3    3  502    0 -0.36135307624E+03  0.65861771176E+03 -0.23978292149E+04  0.25127554383E+04  0.12699999809E+01 0.  1.
       -4    1    3    3    0  502  0.36135307624E+03 -0.65861771176E+03  0.28303384619E+03  0.80278459560E+03  0.12699999809E+01 0. -1.
</event>
<event>
 5   0  0.6909250E-05  0.2164083E+04  0.7818609E-02  0.8533528E-01
        2   -1    0    0  501    0  0.00000000000E+00  0.00000000000E+00  0.81540912091E+03  0.81540912091E+03  0.25500000920E-02 0. -1.
       -2   -1    0    0    0  501  0.00000000000E+00  0.00000000000E+00 -0.14358606242E+04  0.14358606242E+04  0.25500000920E-02 0.  1.
    10030    2    1    2    0    0  0.00000000000E+00  0.00000000000E+00 -0.62045150330E+03  0.22512697451E+04  0.21640830385E+04 0.  0.
        4    1    3    3  502    0 -0.79577704996E+01  0.44792543743E+03 -0.13348496657E+04  0.14080219340E+04  0.12699999809E+01 0.  1.
       -4    1    3    3    0  502  0.79577704996E+01 -0.44792543743E+03  0.71439816242E+03  0.84324781114E+03  0.12699999809E+01 0. -1.
</event>
<event>
 5   0  0.2793920E-05  0.2144619E+04  0.7818609E-02  0.8541839E-01
       -1   -1    0    0    0  501  0.00000000000E+00  0.00000000000E+00  0.78659965193E+03  0.78659965195E+03  0.50400001928E-02 0.  1.
        1   -1    0    0  501    0  0.00000000000E+00  0.00000000000E+00 -0.14617954756E+04  0.14617954756E+04  0.50400001928E-02 0. -1.
    10030    2    1    2    0    0  0.00000000000E+00  0.00000000000E+00 -0.67519582366E+03  0.22483951276E+04  0.21446191385E+04 0.  0.
        2    1    3    3  502    0 -0.79042583835E+03 -0.43624188496E+03 -0.94418660808E+03  0.13063568957E+04  0.25500000920E-02 0. -1.
       -2    1    3    3    0  502  0.79042583835E+03  0.43624188496E+03  0.26899078441E+03  0.94203823183E+03  0.25500000920E-02 0.  1.
</event>
<event>
 5   0  0.6909250E-05  0.2636254E+04  0.7818609E-02  0.8355990E-01
       -2   -1    0    0    0  501  0.00000000000E+00  0.00000000000E+00  0.86350780490E+03  0.86350780490E+03  0.25500000920E-02 0.  1.
        2   -1    0    0  501    0  0.00000000000E+00  0.00000000000E+00 -0.20120939601E+04  0.20120939601E+04  0.25500000920E-02 0. -1.
    10030    2    1    2    0    0  0.00000000000E+00  0.00000000000E+00 -0.11485861552E+04  0.28756017650E+04  0.26362540384E+04 0.  0.
        4    1    3    3  502    0 -0.60937636189E+03 -0.80351537804E+03 -0.15001687287E+04  0.18076184168E+04  0.12699999809E+01 0. -1.
       -4    1    3    3    0  502  0.60937636189E+03  0.80351537804E+03  0.35158257351E+03  0.10679833482E+04  0.12699999809E+01 0.  1.
</event>
<event>
 5   0  0.6445331E-05  0.2489828E+04  0.7818609E-02  0.8406618E-01
        2   -1    0    0  501    0  0.00000000000E+00  0.00000000000E+00  0.13567130977E+04  0.13567130977E+04  0.25500000920E-02 0. -1.
       -2   -1    0    0    0  501  0.00000000000E+00  0.00000000000E+00 -0.11423279303E+04  0.11423279303E+04  0.25500000920E-02 0.  1.
    10030    2    1    2    0    0  0.00000000000E+00  0.00000000000E+00  0.21438516738E+03  0.24990410279E+04  0.24898283192E+04 0.  0.
        1    1    3    3  502    0 -0.13404805474E+03  0.20406163552E+02  0.13492795027E+04  0.13560753920E+04  0.50400001928E-02 0. -1.
       -1    1    3    3    0  502  0.13404805474E+03 -0.20406163552E+02 -0.11348943353E+04  0.11429656359E+04  0.50400001928E-02 0.  1.
</event>
<event>
 5   0  0.6909250E-05  0.2466343E+04  0.7818609E-02  0.8415075E-01
        2   -1    0    0  501    0  0.00000000000E+00  0.00000000000E+00  0.11656755762E+04  0.11656755762E+04  0.25500000920E-02 0. -1.
       -2   -1    0    0    0  501  0.00000000000E+00  0.00000000000E+00 -0.13045752017E+04  0.13045752017E+04  0.25500000920E-02 0.  1.
    10030    2    1    2    0    0  0.00000000000E+00  0.00000000000E+00 -0.13889962544E+03  0.24702507779E+04  0.24663425958E+04 0.  0.
        4    1    3    3  502    0  0.97647036165E+03  0.41922052820E+03 -0.69611659185E+03  0.12703622085E+04  0.12699999809E+01 0.  1.
       -4    1    3    3    0  502 -0.97647036165E+03 -0.41922052820E+03  0.55721696641E+03  0.11998885694E+04  0.12699999809E+01 0. -1.
</event>
<event>
 5   0  0.2777539E-05  0.1521062E+04  0.7818609E-02  0.8870566E-01
        1   -1    0    0  501    0  0.00000000000E+00  0.00000000000E+00  0.14972227282E+04  0.14972227283E+04  0.50400001928E-02 0. -1.
       -1   -1    0    0    0  501  0.00000000000E+00  0.00000000000E+00 -0.38632031996E+03  0.38632031999E+03  0.50400001928E-02 0.  1.
    10030    2    1    2    0    0  0.00000000000E+00  0.00000000000E+00  0.11109024083E+04  0.18835430482E+04  0.15210622124E+04 0.  0.
        3    1    3    3  502    0  0.62771877750E+03 -0.38724973689E+03  0.32573150529E+03  0.80628422166E+03  0.10100000352E+00 0.  1.
       -3    1    3    3    0  502 -0.62771877750E+03  0.38724973689E+03  0.78517090299E+03  0.10772588266E+04  0.10100000352E+00 0. -1.
</event>
<event>
 5   0  0.7071821E-05  0.2308029E+04  0.7818609E-02  0.8474762E-01
        2   -1    0    0  501    0  0.00000000000E+00  0.00000000000E+00  0.20302642283E+04  0.20302642283E+04  0.25500000920E-02 0.  1.
       -2   -1    0    0    0  501  0.00000000000E+00  0.00000000000E+00 -0.65594865523E+03  0.65594865524E+03  0.25500000920E-02 0. -1.
    10030    2    1    2    0    0  0.00000000000E+00  0.00000000000E+00  0.13743155730E+04  0.26862128835E+04  0.23080286743E+04 0.  0.
        5    1    3    3  502    0 -0.67186481209E+03  0.93501973651E+03  0.77777999950E+03  0.13894704211E+04  0.46999998093E+01 0.  1.
       -5    1    3    3    0  502  0.67186481209E+03 -0.93501973651E+03  0.59653557353E+03  0.12967424624E+04  0.46999998093E+01 0. -1.
</event>
<event>
 5   0  0.2980790E-05  0.2358979E+04  0.7818609E-02  0.8455023E-01
       -1   -1    0    0    0  501  0.00000000000E+00  0.00000000000E+00  0.14604552941E+04  0.14604552941E+04  0.50400001928E-02 0.  1.
        1   -1    0    0  501    0  0.00000000000E+00  0.00000000000E+00 -0.95257665952E+03  0.95257665954E+03  0.50400001928E-02 0. -1.
    10030    2    1    2    0    0  0.00000000000E+00  0.00000000000E+00  0.50787863459E+03  0.24130319537E+04  0.23589791228E+04 0.  0.
        5    1    3    3  502    0  0.32568658747E+03 -0.56658690483E+03 -0.75043535262E+03  0.99512199375E+03  0.46999998093E+01 0. -1.
       -5    1    3    3    0  502 -0.32568658747E+03  0.56658690483E+03  0.12583139872E+04  0.14179099599E+04  0.46999998093E+01 0.  1.
</event>
<event>
 5   0  0.2777539E-05  0.1783579E+04  0.7818609E-02  0.8715081E-01
        1   -1    0    0  501    0  0.00000000000E+00  0.00000000000E+00  0.79612175901E+03  0.79612175902E+03  0.50400001928E-02 0. -1.
       -1   -1    0    0    0  501  0.00000000000E+00  0.00000000000E+00 -0.99895370167E+03  0.99895370169E+03  0.50400001928E-02 0.  1.
    10030    2    1    2    0    0  0.00000000000E+00  0.00000000000E+00 -0.20283194267E+03  0.17950754607E+04  0.17835792981E+04 0.  0.
        3    1    3    3  502    0  0.47681711132E+03  0.33853091481E+02 -0.85912188871E+03  0.98315360922E+03  0.10100000352E+00 0.  1.
       -3    1    3    3    0  502 -0.47681711132E+03 -0.33853091481E+02  0.65628994604E+03  0.81192185149E+03  0.10100000352E+00 0. -1.
</event>
<event>
 5   0  0.6827859E-05  0.2533900E+04  0.7818609E-02  0.8391007E-01
       -2   -1    0    0    0  501  0.00000000000E+00  0.00000000000E+00  0.12234292112E+04  0.12234292112E+04  0.25500000920E-02 0.  1.
        2   -1    0    0  501    0  0.00000000000E+00  0.00000000000E+00 -0.13120192814E+04  0.13120192814E+04  0.25500000920E-02 0. -1.
    10030    2    1    2    0    0  0.00000000000E+00  0.00000000000E+00 -0.88590070174E+02  0.25354484925E+04  0.25339003251E+04 0.  0.
        3    1    3    3  502    0  0.83589073262E+03 -0.91609620210E+03  0.21512604707E+03  0.12586599202E+04  0.10100000352E+00 0.  1.
       -3    1    3    3    0  502 -0.83589073262E+03  0.91609620210E+03 -0.30371611725E+03  0.12767885723E+04  0.10100000352E+00 0. -1.
</event>
<event>
 5   0  0.2977854E-05  0.2381840E+04  0.7818609E-02  0.8446334E-01
        1   -1    0    0  501    0  0.00000000000E+00  0.00000000000E+00  0.17301045938E+04  0.17301045939E+04  0.50400001928E-02 0.  1.
       -1   -1    0    0    0  501  0.00000000000E+00  0.00000000000E+00 -0.81977169271E+03  0.81977169273E+03  0.50400001928E-02 0. -1.
    10030    2    1    2    0    0  0.00000000000E+00  0.00000000000E+00  0.91033290114E+03  0.25498762866E+04  0.23818402730E+04 0.  0.
        1    1    3    3  502    0 -0.10959764234E+04  0.11673637622E+03 -0.27767446398E+02  0.11025256158E+04  0.50400001928E-02 0. -1.
       -1    1    3    3    0  502  0.10959764234E+04 -0.11673637622E+03  0.93810034753E+03  0.14473506708E+04  0.50400001928E-02 0.  1.
</event>
<event>
 5   0  0.2896652E-05  0.1583092E+04  0.7818609E-02  0.8831003E-01
       -1   -1    0    0    0  501  0.00000000000E+00  0.00000000000E+00  0.94980817481E+03  0.94980817482E+03  0.50400001928E-02 0.  1.
        1   -1    0    0  501    0  0.00000000000E+00  0.00000000000E+00 -0.65965448091E+03  0.65965448093E+03  0.50400001928E-02 0. -1.
    10030    2    1    2    0    0  0.00000000000E+00  0.00000000000E+00  0.29015369390E+03  0.16094626558E+04  0.15830921875E+04 0.  0.
        4    1    3    3  502    0 -0.74367709898E+03 -0.21663981386E+03  0.31074889251E+03  0.83459866019E+03  0.12699999809E+01 0.  1.
       -4    1    3    3    0  502  0.74367709898E+03  0.21663981386E+03 -0.20595198612E+02  0.77486399556E+03  0.12699999809E+01 0. -1.
</event>
<event>
 5   0  0.2980790E-05  0.2655813E+04  0.7818609E-02  0.8349486E-01
        1   -1    0    0  501    0  0.00000000000E+00  0.00000000000E+00  0.99824977440E+03  0.99824977442E+03  0.50400001928E-02 0.  1.
       -1   -1    0    0    0  501  0.00000000000E+00  0.00000000000E+00 -0.17664272278E+04  0.17664272278E+04  0.50400001928E-02 0. -1.
    10030    2    1    2    0    0  0.00000000000E+00  0.00000000000E+00 -0.76817745339E+03  0.27646770022E+04  0.26558129314E+04 0.  0.
        5    1    3    3  502    0 -0.13399969291E+03 -0.67112257302E+03  0.80051682901E+03  0.10531907279E+04  0.46999998093E+01 0.  1.
       -5    1    3    3    0  502  0.13399969291E+03  0.67112257302E+03 -0.15686942824E+04  0.17114862744E+04  0.46999998093E+01 0. -1.
</event>
<event>
 5   0  0.2896652E-05  0.2515188E+04  0.7818609E-02  0.8397595E-01
       -1   -1    0    0    0  501  0.00000000000E+00  0.00000000000E+00  0.91512860565E+03  0.91512860566E+03  0.50400001928E-02 0. -1.
        1   -1    0    0  501    0  0.00000000000E+00  0.00000000000E+00 -0.17282194921E+04  0.17282194921E+04  0.50400001928E-02 0.  1.
    10030    2    1    2    0    0  0.00000000000E+00  0.00000000000E+00 -0.81309088646E+03  0.26433480978E+04  0.25151883382E+04 0.  0.
        4    1    3    3  502    0 -0.83420255434E+03 -0.89384609180E+03 -0.97117028472E+02  0.12264942183E+04  0.12699999809E+01 0. -1.
       -4    1    3    3    0  502  0.83420255434E+03  0.89384609180E+03 -0.71597385799E+03  0.14168538794E+04  0.12699999809E+01 0.  1.
</event>
<event>
 5   0  0.2977854E-05  0.2385556E+04  0.7818609E-02  0.8444931E-01
       -1   -1    0    0    0  501  0.00000000000E+00  0.00000000000E+00  0.12080587215E+04  0.12080587215E+04  0.50400001928E-02 0. -1.
        1   -1    0    0  501    0  0.00000000000E+00  0.00000000000E+00 -0.11776902270E+04  0.11776902270E+04  0.50400001928E-02 0.  1.
    10030    2    1    2    0    0  0.00000000000E+00  0.00000000000E+00  0.30368494466E+02  0.23857489486E+04  0.23855556586E+04 0.  0.
        1    1    3    3  502    0 -0.11450525088E+04 -0.33361526797E+03 -0.13867961686E+01  0.11926635394E+04  0.50400001928E-02 0. -1.
       -1    1    3    3    0  502  0.11450525088E+04  0.33361526797E+03  0.31755290634E+02  0.11930854091E+04  0.50400001928E-02 0.  1.
</event>
<event>
 5   0  0.6909250E-05  0.2400619E+04  0.7818609E-02  0.8439272E-01
        2   -1    0    0  501    0  0.00000000000E+00  0.00000000000E+00  0.22329043550E+04  0.22329043550E+04  0.25500000920E-02 0.  1.
       -2   -1    0    0    0  501  0.00000000000E+00  0.00000000000E+00 -0.64523256260E+03  0.64523256261E+03  0.25500000920E-02 0. -1.
    10030    2    1    2    0    0  0.00000000000E+00  0.00000000000E+00  0.15876717924E+04  0.28781369177E+04  0.24006187528E+04 0.  0.
        4    1    3    3  502    0  0.10636916419E+04 -0.34198132852E+03  0.13196523594E+04  0.17291255306E+04  0.12699999809E+01 0. -1.
       -4    1    3    3    0  502 -0.10636916419E+04  0.34198132852E+03  0.26801943302E+03  0.11490113870E+04  0.12699999809E+01 0.  1.
</event>
<event>
 5   0  0.2896652E-05  0.2435926E+04  0.7818609E-02  0.8426175E-01
        1   -1    0    0  501    0  0.00000000000E+00  0.00000000000E+00  0.15890915221E+04  0.15890915221E+04  0.50400001928E-02 0. -1.
       -1   -1    0    0    0  501  0.00000000000E+00  0.00000000000E+00 -0.93351055126E+03  0.93351055127E+03  0.50400001928E-02 0.  1.
    10030    2    1    2    0    0  0.00000000000E+00  0.00000000000E+00  0.65558097085E+03  0.25226020734E+04  0.24359258633E+04 0.  0.
        4    1    3    3  502    0 -0.84578293167E+02 -0.54948739248E+03  0.14500208543E+04  0.15529494431E+04  0.12699999809E+01 0. -1.
       -4    1    3    3    0  502  0.84578293167E+02  0.54948739248E+03 -0.79443988340E+03  0.96965263028E+03  0.12699999809E+01 0.  1.
</event>
<event>
 5   0  0.2977854E-05  0.2470038E+04  0.7818609E-02  0.8413738E-01
       -1   -1    0    0    0  501  0.00000000000E+00  0.00000000000E+00  0.12214600331E+04  0.12214600331E+04  0.50400001928E-02 0.  1.
        1   -1    0    0  501    0  0.00000000000E+00  0.00000000000E+00 -0.12487283464E+04  0.12487283464E+04  0.50400001928E-02 0. -1.
    10030    2    1    2    0    0  0.00000000000E+00  0.00000000000E+00 -0.27268313238E+02  0.24701883795E+04  0.24700378680E+04 0.  0.
        1    1    3    3  502    0 -0.71664588894E+03  0.52770023366E+03  0.84270237829E+03  0.12256411241E+04  0.50400001928E-02 0.  1.
       -1    1    3    3    0  502  0.71664588894E+03 -0.52770023366E+03 -0.86997069153E+03  0.12445472554E+04  0.50400001928E-02 0. -1.
</event>
<event>
 5   0  0.2777539E-05  0.2462622E+04  0.7818609E-02  0.8416424E-01
        1   -1    0    0  501    0  0.00000000000E+00  0.00000000000E+00  0.14660529748E+04  0.14660529748E+04  0.50400001928E-02 0.  1.
       -1   -1    0    0    0  501  0.00000000000E+00  0.00000000000E+00 -0.10341553449E+04  0.10341553449E+04  0.50400001928E-02 0. -1.
    10030    2    1    2    0    0  0.00000000000E+00  0.00000000000E+00  0.43189762982E+03  0.25002083197E+04  0.24626217897E+04 0.  0.
        3    1    3    3  502    0 -0.55082710026E+03  0.51253023816E+03  0.12055195810E+04  0.14210472229E+04  0.10100000352E+00 0.  1.
       -3    1    3    3    0  502  0.55082710026E+03 -0.51253023816E+03 -0.77362195114E+03  0.10791610968E+04  0.10100000352E+00 0. -1.
</event>
<event>
 5   0  0.2777539E-05  0.2570656E+04  0.7818609E-02  0.8378238E-01
       -1   -1    0    0    0  501  0.00000000000E+00  0.00000000000E+00  0.10683634399E+04  0.10683634399E+04  0.50400001928E-02 0.  1.
        1   -1    0    0  501    0  0.00000000000E+00  0.00000000000E+00 -0.15463539243E+04  0.15463539243E+04  0.50400001928E-02 0. -1.
    10030    2    1    2    0    0  0.00000000000E+00  0.00000000000E+00 -0.47799048437E+03  0.26147173642E+04  0.25706559458E+04 0.  0.
        3    1    3    3  502    0  0.73218000147E+03  0.88926694206E+03 -0.81901912188E+03  0.14133915172E+04  0.10100000352E+00 0. -1.
       -3    1    3    3    0  502 -0.73218000147E+03 -0.88926694206E+03  0.34102863751E+03  0.12013258470E+04  0.10100000352E+00 0.  1.
</event>
<event>
 5   0  0.6909250E-05  0.2260911E+04  0.7818609E-02  0.8493495E-01
       -2   -1    0    0    0  501  0.00000000000E+00  0.00000000000E+00  0.61083177896E+03  0.61083177896E+03  0.25500000920E-02 0. -1.
        2   -1    0    0  501    0  0.00000000000E+00  0.00000000000E+00 -0.20921132415E+04  0.20921132415E+04  0.25500000920E-02 0.  1.
    10030    2    1    2    0    0  0.00000000000E+00  0.00000000000E+00 -0.14812814625E+04  0.27029450204E+04  0.22609106600E+04 0.  0.
        4    1    3    3  502    0  0.52161225603E+03  0.76305118021E+03  0.37453860436E+02  0.92505721651E+03  0.12699999809E+01 0.  1.
       -4    1    3    3    0  502 -0.52161225603E+03 -0.76305118021E+03 -0.15187353229E+04  0.17778878039E+04  0.12699999809E+01 0. -1.
</event>
<event>
 5   0  0.2793920E-05  0.2557312E+04  0.7818609E-02  0.8382848E-01
       -1   -1    0    0    0  501  0.00000000000E+00  0.00000000000E+00  0.10828358114E+04  0.10828358114E+04  0.50400001928E-02 0. -1.
        1   -1    0    0  501    0  0.00000000000E+00  0.00000000000E+00 -0.15098879043E+04  0.15098879043E+04  0.50400001928E-02 0.  1.
    10030    2    1    2    0    0  0.00000000000E+00  0.00000000000E+00 -0.42705209294E+03  0.25927237157E+04  0.25573116306E+04 0.  0.
        2    1    3    3  502    0 -0.12526368624E+04 -0.20383134400E+03 -0.37161593057E+03  0.13224011213E+04  0.25500000920E-02 0. -1.
       -2    1    3    3    0  502  0.12526368624E+04  0.20383134400E+03 -0.55436162370E+02  0.12703225944E+04  0.25500000920E-02 0.  1.
</event>
<event>
 5   0  0.2896652E-05  0.2306009E+04  0.7818609E-02  0.8475556E-01
       -1   -1    0    0    0  501  0.00000000000E+00  0.00000000000E+00  0.12351602099E+04  0.12351602100E+04  0.50400001928E-02 0. -1.
        1   -1    0    0  501    0  0.00000000000E+00  0.00000000000E+00 -0.10763129282E+04  0.10763129282E+04  0.50400001928E-02 0.  1.
    10030    2    1    2    0    0  0.00000000000E+00  0.00000000000E+00  0.15884728171E+03  0.23114731382E+04  0.23060085884E+04 0.  0.
        4    1    3    3  502    0  0.10542116223E+04  0.12318556754E+03 -0.37206626162E+03  0.11247096268E+04  0.12699999809E+01 0.  1.
       -4    1    3    3    0  502 -0.10542116223E+04 -0.12318556754E+03  0.53091354333E+03  0.11867635114E+04  0.12699999809E+01 0. -1.
</event>
<event>
 5   0  0.6909250E-05  0.2484161E+04  0.7818609E-02  0.8408650E-01
        2   -1    0    0  501    0  0.00000000000E+00  0.00000000000E+00  0.15878990989E+04  0.15878990989E+04  0.25500000920E-02 0. -1.
       -2   -1    0    0    0  501  0.00000000000E+00  0.00000000000E+00 -0.97157553501E+03  0.97157553501E+03  0.25500000920E-02 0.  1.
    10030    2    1    2    0    0  0.00000000000E+00  0.00000000000E+00  0.61632356391E+03  0.25594746339E+04  0.24841609582E+04 0.  0.
        4    1    3    3  502    0 -0.57397918132E+03  0.96623719005E+03 -0.23673487631E+03  0.11485257605E+04  0.12699999809E+01 0.  1.
       -4    1    3    3    0  502  0.57397918132E+03 -0.96623719005E+03  0.85305844023E+03  0.14109488734E+04  0.12699999809E+01 0. -1.
</event>
<event>
 5   0  0.7071821E-05  0.2507642E+04  0.7818609E-02  0.8400268E-01
       -2   -1    0    0    0  501  0.00000000000E+00  0.00000000000E+00  0.86353305988E+03  0.86353305988E+03  0.25500000920E-02 0. -1.
        2   -1    0    0  501    0  0.00000000000E+00  0.00000000000E+00 -0.18205058996E+04  0.18205058996E+04  0.25500000920E-02 0.  1.
    10030    2    1    2    0    0  0.00000000000E+00  0.00000000000E+00 -0.95697283970E+03  0.26840389595E+04  0.25076419441E+04 0.  0.
        5    1    3    3  502    0  0.20251108254E+03 -0.10635167784E+04 -0.11554027173E+04  0.15833686260E+04  0.46999998093E+01 0.  1.
       -5    1    3    3    0  502 -0.20251108254E+03  0.10635167784E+04  0.19842987765E+03  0.11006703334E+04  0.46999998093E+01 0. -1.
</event>
<event>
 5   0  0.2896652E-05  0.2704227E+04  0.7818609E-02  0.8333635E-01
       -1   -1    0    0    0  501  0.00000000000E+00  0.00000000000E+00  0.28799500058E+04  0.28799500058E+04  0.50400001928E-02 0. -1.
        1   -1    0    0  501    0  0.00000000000E+00  0.00000000000E+00 -0.63480626297E+03  0.63480626299E+03  0.50400001928E-02 0.  1.
    10030    2    1    2    0    0  0.00000000000E+00  0.00000000000E+00  0.22451437428E+04  0.35147562687E+04  0.27042265443E+04 0.  0.
        4    1    3    3  502    0  0.12095445601E+04 -0.56557320724E+03  0.13993178819E+04  0.19341569851E+04  0.12699999809E+01 0. -1.
       -4    1    3    3    0  502 -0.12095445601E+04  0.56557320724E+03  0.84582586084E+03  0.15805992836E+04  0.12699999809E+01 0.  1.
</event>
<event>
 5   0  0.6909250E-05  0.2098600E+04  0.7818609E-02  0.8561860E-01
        2   -1    0    0  501    0  0.00000000000E+00  0.00000000000E+00  0.16764014627E+04  0.16764014627E+04  0.25500000920E-02 0.  1.
       -2   -1    0    0    0  501  0.00000000000E+00  0.00000000000E+00 -0.65678215436E+03  0.65678215436E+03  0.25500000920E-02 0. -1.
    10030    2    1    2    0    0  0.00000000000E+00  0.00000000000E+00  0.10196193083E+04  0.23331836171E+04  0.20986000708E+04 0.  0.
        4    1    3    3  502    0 -0.63997081533E+02 -0.10270638326E+03  0.16686165213E+04  0.16729993830E+04  0.12699999809E+01 0.  1.
       -4    1    3    3    0  502  0.63997081533E+02  0.10270638326E+03 -0.64899721293E+03  0.66018423405E+03  0.12699999809E+01 0. -1.
</event>
<event>
 5   0  0.6827859E-05  0.2406973E+04  0.7818609E-02  0.8436898E-01
       -2   -1    0    0    0  501  0.00000000000E+00  0.00000000000E+00  0.12751221845E+04  0.12751221845E+04  0.25500000920E-02 0.  1.
        2   -1    0    0  501    0  0.00000000000E+00  0.00000000000E+00 -0.11358753515E+04  0.11358753515E+04  0.25500000920E-02 0. -1.
    10030    2    1    2    0    0  0.00000000000E+00  0.00000000000E+00  0.13924683305E+03  0.24109975360E+04  0.24069730863E+04 0.  0.
        3    1    3    3  502    0 -0.63325881819E+02 -0.11952424614E+04 -0.56145828261E+02  0.11982349825E+04  0.10100000352E+00 0.  1.
       -3    1    3    3    0  502  0.63325881819E+02  0.11952424614E+04  0.19539266131E+03  0.12127625535E+04  0.10100000352E+00 0. -1.
</event>
<event>
 5   0  0.2980790E-05  0.2475652E+04  0.7818609E-02  0.8411711E-01
       -1   -1    0    0    0  501  0.00000000000E+00  0.00000000000E+00  0.70061597863E+03  0.70061597865E+03  0.50400001928E-02 0.  1.
        1   -1    0    0  501    0  0.00000000000E+00  0.00000000000E+00 -0.21869515085E+04  0.21869515085E+04  0.50400001928E-02 0. -1.
    10030    2    1    2    0    0  0.00000000000E+00  0.00000000000E+00 -0.14863355299E+04  0.28875674872E+04  0.24756519718E+04 0.  0.
        5    1    3    3  502    0  0.85450611979E+03  0.54848589065E+03  0.82559538069E+02  0.10187520053E+04  0.46999998093E+01 0.  1.
       -5    1    3    3    0  502 -0.85450611979E+03 -0.54848589065E+03 -0.15688950680E+04  0.18688154819E+04  0.46999998093E+01 0. -1.
</event>
<event>
 5   0  0.6648328E-05  0.2582102E+04  0.7818609E-02  0.8374306E-01
        2   -1    0    0  501    0  0.00000000000E+00  0.00000000000E+00  0.73555273633E+03  0.73555273634E+03  0.25500000920E-02 0.  1.
       -2   -1    0    0    0  501  0.00000000000E+00  0.00000000000E+00 -0.22660683954E+04  0.22660683954E+04  0.25500000920E-02 0. -1.
    10030    2    1    2    0    0  0.00000000000E+00  0.00000000000E+00 -0.15305156591E+04  0.30016211318E+04  0.25821020963E+04 0.  0.
        2    1    3    3  502    0 -0.30839472620E+03  0.46901750062E+03  0.58627665953E+03  0.81166806304E+03  0.25500000920E-02 0.  1.
       -2    1    3    3    0  502  0.30839472620E+03 -0.46901750062E+03 -0.21167923186E+04  0.21899530687E+04  0.25500000920E-02 0. -1.
</event>
<event>
 5   0  0.2331375E-05  0.1303445E+04  0.7818609E-02  0.9026837E-01
       -3   -1    0    0    0  501  0.00000000000E+00  0.00000000000E+00  0.40171374450E+03  0.40171375720E+03  0.10100000352E+00 0. -1.
        3   -1    0    0  501    0  0.00000000000E+00  0.00000000000E+00 -0.10573263361E+04  0.10573263410E+04  0.10100000352E+00 0.  1.
    10030    2    1    2    0    0  0.00000000000E+00  0.00000000000E+00 -0.65561259163E+03  0.14590400981E+04  0.13034454870E+04 0.  0.
        2    1    3    3  502    0 -0.15780981639E+03 -0.21164648583E+03  0.33917808624E+03  0.42981385193E+03  0.25500000920E-02 0. -1.
       -2    1    3    3    0  502  0.15780981639E+03  0.21164648583E+03 -0.99479067787E+03  0.10292262462E+04  0.25500000920E-02 0.  1.
</event>
<event>
 5   0  0.6648328E-05  0.2504491E+04  0.7818609E-02  0.8401387E-01
       -2   -1    0    0    0  501  0.00000000000E+00  0.00000000000E+00  0.12028309721E+04  0.12028309721E+04  0.25500000920E-02 0.  1.
        2   -1    0    0  501    0  0.00000000000E+00  0.00000000000E+00 -0.13036898207E+04  0.13036898207E+04  0.25500000920E-02 0. -1.
    10030    2    1    2    0    0  0.00000000000E+00  0.00000000000E+00 -0.10085884864E+03  0.25065207928E+04  0.25044907621E+04 0.  0.
        2    1    3    3  502    0 -0.13717305734E+03  0.96422585130E+03 -0.83819547782E+03  0.12849589873E+04  0.25500000920E-02 0. -1.
       -2    1    3    3    0  502  0.13717305734E+03 -0.96422585130E+03  0.73733662918E+03  0.12215618055E+04  0.25500000920E-02 0.  1.
</event>
<event>
 5   0  0.2777539E-05  0.1425649E+04  0.7818609E-02  0.8935459E-01
       -1   -1    0    0    0  501  0.00000000000E+00  0.00000000000E+00  0.50661816513E+03  0.50661816515E+03  0.50400001928E-02 0. -1.
        1   -1    0    0  501    0  0.00000000000E+00  0.00000000000E+00 -0.10029626307E+04  0.10029626307E+04  0.50400001928E-02 0.  1.
    10030    2    1    2    0    0  0.00000000000E+00  0.00000000000E+00 -0.49634446560E+03  0.15095807959E+04  0.14256494488E+04 0.  0.
        3    1    3    3  502    0  0.27877804639E+03  0.35795756137E+03  0.33398444926E+03  0.56337947908E+03  0.10100000352E+00 0. -1.
       -3    1    3    3    0  502 -0.27877804639E+03 -0.35795756137E+03 -0.83032891486E+03  0.94620131682E+03  0.10100000352E+00 0.  1.
</event>
<event>
 5   0  0.6827859E-05  0.2520339E+04  0.7818609E-02  0.8395775E-01
        2   -1    0    0  501    0  0.00000000000E+00  0.00000000000E+00  0.16368849366E+04  0.16368849366E+04  0.25500000920E-02 0. -1.
       -2   -1    0    0    0  501  0.00000000000E+00  0.00000000000E+00 -0.97015202146E+03  0.97015202146E+03  0.25500000920E-02 0.  1.
    10030    2    1    2    0    0  0.00000000000E+00  0.00000000000E+00  0.66673291515E+03  0.26070369581E+04  0.25203390487E+04 0.  0.
        3    1    3    3  502    0  0.21507536749E+03  0.34337513304E+02 -0.95053550126E+03  0.97516882019E+03  0.10100000352E+00 0.  1.
       -3    1    3    3    0  502 -0.21507536749E+03 -0.34337513304E+02  0.16172684164E+04  0.16318681379E+04  0.10100000352E+00 0. -1.
</event>
<event>
 5   0  0.2896652E-05  0.1743073E+04  0.7818609E-02  0.8737172E-01
        1   -1    0    0  501    0  0.00000000000E+00  0.00000000000E+00  0.18757743918E+04  0.18757743918E+04  0.50400001928E-02 0.  1.
       -1   -1    0    0    0  501  0.00000000000E+00  0.00000000000E+00 -0.40493997270E+03  0.40493997273E+03  0.50400001928E-02 0. -1.
    10030    2    1    2    0    0  0.00000000000E+00  0.00000000000E+00  0.14708344191E+04  0.22807143645E+04  0.17430731838E+04 0.  0.
        4    1    3    3  502    0  0.52517265272E+03 -0.56350687241E+03  0.12688841450E+04  0.14843904125E+04  0.12699999809E+01 0.  1.
       -4    1    3    3    0  502 -0.52517265272E+03  0.56350687241E+03  0.20195027406E+03  0.79632395199E+03  0.12699999809E+01 0. -1.
</event>
<event>
 5   0  0.2977854E-05  0.1542563E+04  0.7818609E-02  0.8856632E-01
       -1   -1    0    0    0  501  0.00000000000E+00  0.00000000000E+00  0.33983062699E+03  0.33983062702E+03  0.50400001928E-02 0.  1.
        1   -1    0    0  501    0  0.00000000000E+00  0.00000000000E+00 -0.17505039209E+04  0.17505039209E+04  0.50400001928E-02 0. -1.
    10030    2    1    2    0    0  0.00000000000E+00  0.00000000000E+00 -0.14106732939E+04  0.20903345479E+04  0.15425626017E+04 0.  0.
        1    1    3    3  502    0  0.20128633266E+03 -0.66841667566E+03 -0.26087495032E+03  0.74521995394E+03  0.50400001928E-02 0. -1.
       -1    1    3    3    0  502 -0.20128633266E+03  0.66841667566E+03 -0.11497983436E+04  0.13451145940E+04  0.50400001928E-02 0.  1.
</event>
<event>
 5   0  0.6648328E-05  0.2516494E+04  0.7818609E-02  0.8397133E-01
       -2   -1    0    0    0  501  0.00000000000E+00  0.00000000000E+00  0.10495971255E+04  0.10495971255E+04  0.25500000920E-02 0.  1.
        2   -1    0    0  501    0  0.00000000000E+00  0.00000000000E+00 -0.15083740517E+04  0.15083740517E+04  0.25500000920E-02 0. -1.
    10030    2    1    2    0    0  0.00000000000E+00  0.00000000000E+00 -0.45877692627E+03  0.25579711772E+04  0.25164936470E+04 0.  0.
        2    1    3    3  502    0 -0.10188036580E+04 -0.63178258774E+03 -0.61788545667E+03  0.13486632527E+04  0.25500000920E-02 0. -1.
       -2    1    3    3    0  502  0.10188036580E+04  0.63178258774E+03  0.15910853040E+03  0.12093079245E+04  0.25500000920E-02 0.  1.
</event>
<event>
 5   0  0.2777539E-05  0.2484725E+04  0.7818609E-02  0.8408448E-01
       -1   -1    0    0    0  501  0.00000000000E+00  0.00000000000E+00  0.12130622373E+04  0.12130622373E+04  0.50400001928E-02 0.  1.
        1   -1    0    0  501    0  0.00000000000E+00  0.00000000000E+00 -0.12723701402E+04  0.12723701402E+04  0.50400001928E-02 0. -1.
    10030    2    1    2    0    0  0.00000000000E+00  0.00000000000E+00 -0.59307902886E+02  0.24854323775E+04  0.24847246680E+04 0.  0.
        3    1    3    3  502    0  0.47219488040E+02 -0.69546838798E+03  0.99901544247E+03  0.12181698663E+04  0.10100000352E+00 0.  1.
       -3    1    3    3    0  502 -0.47219488040E+02  0.69546838798E+03 -0.10583233454E+04  0.12672625112E+04  0.10100000352E+00 0. -1.
</event>
<event>
 5   0  0.6909250E-05  0.2525774E+04  0.7818609E-02  0.8393861E-01
        2   -1    0    0  501    0  0.00000000000E+00  0.00000000000E+00  0.15028511936E+04  0.15028511936E+04  0.25500000920E-02 0. -1.
       -2   -1    0    0    0  501  0.00000000000E+00  0.00000000000E+00 -0.10612381264E+04  0.10612381264E+04  0.25500000920E-02 0.  1.
    10030    2    1    2    0    0  0.00000000000E+00  0.00000000000E+00  0.44161306719E+03  0.25640893200E+04  0.25257735329E+04 0.  0.
        4    1    3    3  502    0 -0.12462709960E+04 -0.20083121112E+03  0.25820009558E+03  0.12884849526E+04  0.12699999809E+01 0.  1.
       -4    1    3    3    0  502  0.12462709960E+04  0.20083121112E+03  0.18341297160E+03  0.12756043673E+04  0.12699999809E+01 0. -1.
</event>
<event>
 5   0  0.6827859E-05  0.2118745E+04  0.7818609E-02  0.8553031E-01
       -2   -1    0    0    0  501  0.00000000000E+00  0.00000000000E+00  0.98251426249E+03  0.98251426249E+03  0.25500000920E-02 0.  1.
        2   -1    0    0  501    0  0.00000000000E+00  0.00000000000E+00 -0.11422431417E+04  0.11422431417E+04  0.25500000920E-02 0. -1.
    10030    2    1    2    0    0  0.00000000000E+00  0.00000000000E+00 -0.15972887926E+03  0.21247574042E+04  0.21187450795E+04 0.  0.
        3    1    3    3  502    0  0.80338390155E+03 -0.27575420154E+03 -0.71475185596E+03  0.11101064358E+04  0.10100000352E+00 0. -1.
       -3    1    3    3    0  502 -0.80338390155E+03  0.27575420154E+03  0.55502297670E+03  0.10146509685E+04  0.10100000352E+00 0.  1.
</event>
<event>
 5   0  0.7071821E-05  0.2496882E+04  0.7818609E-02  0.8404097E-01
       -2   -1    0    0    0  501  0.00000000000E+00  0.00000000000E+00  0.18341182148E+04  0.18341182148E+04  0.25500000920E-02 0.  1.
        2   -1    0    0  501    0  0.00000000000E+00  0.00000000000E+00 -0.84978404917E+03  0.84978404917E+03  0.25500000920E-02 0. -1.
    10030    2    1    2    0    0  0.00000000000E+00  0.00000000000E+00  0.98433416560E+03  0.26839022639E+04  0.24968815777E+04 0.  0.
        5    1    3    3  502    0  0.49754792741E+03  0.11449328619E+04  0.47869367146E+03  0.13370096931E+04  0.46999998093E+01 0. -1.
       -5    1    3    3    0  502 -0.49754792741E+03 -0.11449328619E+04  0.50564049414E+03  0.13468925709E+04  0.46999998093E+01 0.  1.
</event>
<event>
 5   0  0.2896652E-05  0.2463862E+04  0.7818609E-02  0.8415974E-01
       -1   -1    0    0    0  501  0.00000000000E+00  0.00000000000E+00  0.93213977884E+03  0.93213977885E+03  0.50400001928E-02 0. -1.
        1   -1    0    0  501    0  0.00000000000E+00  0.00000000000E+00 -0.16281392989E+04  0.16281392989E+04  0.50400001928E-02 0.  1.
    10030    2    1    2    0    0  0.00000000000E+00  0.00000000000E+00 -0.69599952010E+03  0.25602790778E+04  0.24638615270E+04 0.  0.
        4    1    3    3  502    0 -0.44953482322E+03  0.89948765095E+02  0.84019722997E+03  0.95713391736E+03  0.12699999809E+01 0. -1.
       -4    1    3    3    0  502  0.44953482322E+03 -0.89948765095E+02 -0.15361967501E+04  0.16031451604E+04  0.12699999809E+01 0.  1.
</event>
<event>
 5   0  0.2777539E-05  0.1693248E+04  0.7818609E-02  0.8765225E-01
        1   -1    0    0  501    0  0.00000000000E+00  0.00000000000E+00  0.56461058825E+03  0.56461058827E+03  0.50400001928E-02 0. -1.
       -1   -1    0    0    0  501  0.00000000000E+00  0.00000000000E+00 -0.12694976159E+04  0.12694976159E+04  0.50400001928E-02 0.  1.
    10030    2    1    2    0    0  0.00000000000E+00  0.00000000000E+00 -0.70488702762E+03  0.18341082041E+04  0.16932475256E+04 0.  0.
        3    1    3    3  502    0 -0.54179878671E+03  0.14843023711E+03  0.33364775802E+03  0.65337454588E+03  0.10100000352E+00 0. -1.
       -3    1    3    3    0  502  0.54179878671E+03 -0.14843023711E+03 -0.10385347856E+04  0.11807336583E+04  0.10100000352E+00 0.  1.
</event>
<event>
 5   0  0.2980790E-05  0.1963552E+04  0.7818609E-02  0.8623853E-01
       -1   -1    0    0    0  501  0.00000000000E+00  0.00000000000E+00  0.71159108673E+03  0.71159108674E+03  0.50400001928E-02 0.  1.
        1   -1    0    0  501    0  0.00000000000E+00  0.00000000000E+00 -0.13545479937E+04  0.13545479937E+04  0.50400001928E-02 0. -1.
    10030    2    1    2    0    0  0.00000000000E+00  0.00000000000E+00 -0.64295690695E+03  0.20661390804E+04  0.19635521677E+04 0.  0.
        5    1    3    3  502    0 -0.44716249334E+03 -0.12757422227E+03 -0.12313105544E+04  0.13161980280E+04  0.46999998093E+01 0. -1.
       -5    1    3    3    0  502  0.44716249334E+03  0.12757422227E+03  0.58835364743E+03  0.74994105241E+03  0.46999998093E+01 0.  1.
</event>
<event>
 5   0  0.6909250E-05  0.1702277E+04  0.7818609E-02  0.8760067E-01
       -2   -1    0    0    0  501  0.00000000000E+00  0.00000000000E+00  0.12895761072E+04  0.12895761072E+04  0.25500000920E-02 0.  1.
        2   -1    0    0  501    0  0.00000000000E+00  0.00000000000E+00 -0.56176342690E+03  0.56176342690E+03  0.25500000920E-02 0. -1.
    10030    2    1    2    0    0  0.00000000000E+00  0.00000000000E+00  0.72781268030E+03  0.18513395341E+04  0.17022769378E+04 0.  0.
        4    1    3    3  502    0  0.30675209771E+02 -0.47652666794E+03  0.11301712546E+04  0.12269096590E+04  0.12699999809E+01 0.  1.
       -4    1    3    3    0  502 -0.30675209771E+02  0.47652666794E+03 -0.40235857427E+03  0.62442987512E+03  0.12699999809E+01 0. -1.
</event>
<event>
 5   0  0.6445331E-05  0.2492927E+04  0.7818609E-02  0.8405510E-01
       -2   -1    0    0    0  501  0.00000000000E+00  0.00000000000E+00  0.68091520763E+03  0.68091520764E+03  0.25500000920E-02 0.  1.
        2   -1    0    0  501    0  0.00000000000E+00  0.00000000000E+00 -0.22817392422E+04  0.22817392422E+04  0.25500000920E-02 0. -1.
    10030    2    1    2    0    0  0.00000000000E+00  0.00000000000E+00 -0.16008240346E+04  0.29626544498E+04  0.24929267537E+04 0.  0.
        1    1    3    3  502    0 -0.81100783293E+03  0.31000386831E+03 -0.18632611990E+04  0.20556211711E+04  0.50400001928E-02 0. -1.
       -1    1    3    3    0  502  0.81100783293E+03 -0.31000386831E+03  0.26243716441E+03  0.90703327874E+03  0.50400001928E-02 0.  1.
</event>
<event>
 5   0  0.7071821E-05  0.2523598E+04  0.7818609E-02  0.8394627E-01
       -2   -1    0    0    0  501  0.00000000000E+00  0.00000000000E+00  0.20906499650E+04  0.20906499650E+04  0.25500000920E-02 0.  1.
        2   -1    0    0  501    0  0.00000000000E+00  0.00000000000E+00 -0.76155088221E+03  0.76155088222E+03  0.25500000920E-02 0. -1.
    10030    2    1    2    0    0  0.00000000000E+00  0.00000000000E+00  0.13290990827E+04  0.28522008472E+04  0.25235976900E+04 0.  0.
        5    1    3    3  502    0 -0.22748515168E+03 -0.10224308022E+04  0.14597242913E+04  0.17966444657E+04  0.46999998093E+01 0.  1.
       -5    1    3    3    0  502  0.22748515168E+03  0.10224308022E+04 -0.13062520854E+03  0.10555563815E+04  0.46999998093E+01 0. -1.
</event>
<event>
 5   0  0.6909250E-05  0.2496770E+04  0.7818609E-02  0.8404137E-01
       -2   -1    0    0    0  501  0.00000000000E+00  0.00000000000E+00  0.11554590283E+04  0.11554590283E+04  0.25500000920E-02 0.  1.
        2   -1    0    0  501    0  0.00000000000E+00  0.00000000000E+00 -0.13487847844E+04  0.13487847844E+04  0.25500000920E-02 0. -1.
    10030    2    1    2    0    0  0.00000000000E+00  0.00000000000E+00 -0.19332575611E+03  0.25042438126E+04  0.24967703589E+04 0.  0.
        4    1    3    3  502    0  0.11363515172E+04 -0.39306712048E+03  0.24000150095E+03  0.12261316672E+04  0.12699999809E+01 0.  1.
       -4    1    3    3    0  502 -0.11363515172E+04  0.39306712048E+03 -0.43332725706E+03  0.12781121455E+04  0.12699999809E+01 0. -1.
</event>
<event>
 5   0  0.6648328E-05  0.2283916E+04  0.7818609E-02  0.8484290E-01
        2   -1    0    0  501    0  0.00000000000E+00  0.00000000000E+00  0.12499558410E+04  0.12499558410E+04  0.25500000920E-02 0. -1.
       -2   -1    0    0    0  501  0.00000000000E+00  0.00000000000E+00 -0.10432910533E+04  0.10432910533E+04  0.25500000920E-02 0.  1.
    10030    2    1    2    0    0  0.00000000000E+00  0.00000000000E+00  0.20666478762E+03  0.22932468943E+04  0.22839157130E+04 0.  0.
        2    1    3    3  502    0 -0.37385549694E+03  0.22601061762E+03 -0.95607024272E+03  0.10511512931E+04  0.25500000920E-02 0.  1.
       -2    1    3    3    0  502  0.37385549694E+03 -0.22601061762E+03  0.11627350303E+04  0.12420956013E+04  0.25500000920E-02 0. -1.
</event>
<event>
 5   0  0.7071821E-05  0.2480336E+04  0.7818609E-02  0.8410025E-01
        2   -1    0    0  501    0  0.00000000000E+00  0.00000000000E+00  0.17494682436E+04  0.17494682436E+04  0.25500000920E-02 0. -1.
       -2   -1    0    0    0  501  0.00000000000E+00  0.00000000000E+00 -0.87913375854E+03  0.87913375855E+03  0.25500000920E-02 0.  1.
    10030    2    1    2    0    0  0.00000000000E+00  0.00000000000E+00  0.87033448504E+03  0.26286020021E+04  0.24803359389E+04 0.  0.
        5    1    3    3  502    0 -0.46760919367E+02  0.10410999704E+04  0.11476010472E+04  0.15501890161E+04  0.46999998093E+01 0. -1.
       -5    1    3    3    0  502  0.46760919367E+02 -0.10410999704E+04 -0.27726656215E+03  0.10784129861E+04  0.46999998093E+01 0.  1.
</event>
<event>
 5   0  0.7071821E-05  0.2416825E+04  0.7818609E-02  0.8433231E-01
       -2   -1    0    0    0  501  0.00000000000E+00  0.00000000000E+00  0.14752555863E+04  0.14752555863E+04  0.25500000920E-02 0.  1.
        2   -1    0    0  501    0  0.00000000000E+00  0.00000000000E+00 -0.98983549965E+03  0.98983549965E+03  0.25500000920E-02 0. -1.
    10030    2    1    2    0    0  0.00000000000E+00  0.00000000000E+00  0.48542008662E+03  0.24650910859E+04  0.24168246526E+04 0.  0.
        5    1    3    3  502    0  0.60553695472E+02 -0.66588940464E+03  0.12693719521E+04  0.14347134529E+04  0.46999998093E+01 0.  1.
       -5    1    3    3    0  502 -0.60553695472E+02  0.66588940464E+03 -0.78395186546E+03  0.10303776330E+04  0.46999998093E+01 0. -1.
</event>
<event>
 5   0  0.2793920E-05  0.2482069E+04  0.7818609E-02  0.8409402E-01
       -1   -1    0    0    0  501  0.00000000000E+00  0.00000000000E+00  0.16410573276E+04  0.16410573276E+04  0.50400001928E-02 0.  1.
        1   -1    0    0  501    0  0.00000000000E+00  0.00000000000E+00 -0.93852057433E+03  0.93852057434E+03  0.50400001928E-02 0. -1.
    10030    2    1    2    0    0  0.00000000000E+00  0.00000000000E+00  0.70253675324E+03  0.25795779019E+04  0.24820685451E+04 0.  0.
        2    1    3    3  502    0 -0.64011016352E+03  0.78093434120E+03  0.11011160125E+04  0.14940066732E+04  0.25500000920E-02 0.  1.
       -2    1    3    3    0  502  0.64011016352E+03 -0.78093434120E+03 -0.39857925922E+03  0.10855712287E+04  0.25500000920E-02 0. -1.
</event>
<event>
 5   0  0.2793920E-05  0.2518829E+04  0.7818609E-02  0.8396308E-01
       -1   -1    0    0    0  501  0.00000000000E+00  0.00000000000E+00  0.12979247658E+04  0.12979247658E+04  0.50400001928E-02 0.  1.
        1   -1    0    0  501    0  0.00000000000E+00  0.00000000000E+00 -0.12220466404E+04  0.12220466404E+04  0.50400001928E-02 0. -1.
    10030    2    1    2    0    0  0.00000000000E+00  0.00000000000E+00  0.75878125414E+02  0.25199714062E+04  0.25188287751E+04 0.  0.
        2    1    3    3  502    0  0.11966694695E+04 -0.13857896797E+03 -0.32951851472E+03  0.12489212950E+04  0.25500000920E-02 0. -1.
       -2    1    3    3    0  502 -0.11966694695E+04  0.13857896797E+03  0.40539664013E+03  0.12710501113E+04  0.25500000920E-02 0.  1.
</event>
<event>
 5   0  0.2793920E-05  0.2508003E+04  0.7818609E-02  0.8400140E-01
       -1   -1    0    0    0  501  0.00000000000E+00  0.00000000000E+00  0.12421043028E+04  0.12421043028E+04  0.50400001928E-02 0.  1.
        1   -1    0    0  501    0  0.00000000000E+00  0.00000000000E+00 -0.12660126896E+04  0.12660126896E+04  0.50400001928E-02 0. -1.
    10030    2    1    2    0    0  0.00000000000E+00  0.00000000000E+00 -0.23908386797E+02  0.25081169923E+04  0.25080030375E+04 0.  0.
        2    1    3    3  502    0 -0.74297015227E+03 -0.76000397208E+03 -0.67749861243E+03  0.12604027351E+04  0.25500000920E-02 0. -1.
       -2    1    3    3    0  502  0.74297015227E+03  0.76000397208E+03  0.65359022564E+03  0.12477142573E+04  0.25500000920E-02 0.  1.
</event>
<event>
 5   0  0.2980790E-05  0.2465796E+04  0.7818609E-02  0.8415273E-01
       -1   -1    0    0    0  501  0.00000000000E+00  0.00000000000E+00  0.21804862386E+04  0.21804862386E+04  0.50400001928E-02 0. -1.
        1   -1    0    0  501    0  0.00000000000E+00  0.00000000000E+00 -0.69710941811E+03  0.69710941812E+03  0.50400001928E-02 0.  1.
    10030    2    1    2    0    0  0.00000000000E+00  0.00000000000E+00  0.14833768204E+04  0.28775956567E+04  0.24657960118E+04 0.  0.
        5    1    3    3  502    0 -0.73626570447E+03  0.98113523073E+03  0.59732905276E+03  0.13643817706E+04  0.46999998093E+01 0.  1.
       -5    1    3    3    0  502  0.73626570447E+03 -0.98113523073E+03  0.88604776768E+03  0.15132138861E+04  0.46999998093E+01 0. -1.
</event>
<event>
 5   0  0.6827859E-05  0.1904226E+04  0.7818609E-02  0.8652756E-01
       -2   -1    0    0    0  501  0.00000000000E+00  0.00000000000E+00  0.10586471294E+04  0.10586471294E+04  0.25500000920E-02 0. -1.
        2   -1    0    0  501    0  0.00000000000E+00  0.00000000000E+00 -0.85629956220E+03  0.85629956220E+03  0.25500000920E-02 0.  1.
    10030    2    1    2    0    0  0.00000000000E+00  0.00000000000E+00  0.20234756725E+03  0.19149466916E+04  0.19042259041E+04 0.  0.
        3    1    3    3  502    0 -0.70944371723E+03 -0.49391045096E+03 -0.30014836827E+03  0.91506665039E+03  0.10100000352E+00 0.  1.
       -3    1    3    3    0  502  0.70944371723E+03  0.49391045096E+03  0.50249593552E+03  0.99988004126E+03  0.10100000352E+00 0. -1.
</event>
<event>
 5   0  0.2977854E-05  0.2397196E+04  0.7818609E-02  0.8440554E-01
       -1   -1    0    0    0  501  0.00000000000E+00  0.00000000000E+00  0.12442471652E+04  0.12442471652E+04  0.50400001928E-02 0. -1.
        1   -1    0    0  501    0  0.00000000000E+00  0.00000000000E+00 -0.11546234908E+04  0.11546234908E+04  0.50400001928E-02 0.  1.
    10030    2    1    2    0    0  0.00000000000E+00  0.00000000000E+00  0.89623674423E+02  0.23988706560E+04  0.23971958662E+04 0.  0.
        1    1    3    3  502    0 -0.46424743570E+02  0.25802638213E+03 -0.11255796195E+04  0.11557085924E+04  0.50400001928E-02 0.  1.
       -1    1    3    3    0  502  0.46424743570E+02 -0.25802638213E+03  0.12152032939E+04  0.12431620636E+04  0.50400001928E-02 0. -1.
</event>
<event>
 5   0  0.2793920E-05  0.1858450E+04  0.7818609E-02  0.8675819E-01
       -1   -1    0    0    0  501  0.00000000000E+00  0.00000000000E+00  0.98234102943E+03  0.98234102945E+03  0.50400001928E-02 0.  1.
        1   -1    0    0  501    0  0.00000000000E+00  0.00000000000E+00 -0.87898130588E+03  0.87898130590E+03  0.50400001928E-02 0. -1.
    10030    2    1    2    0    0  0.00000000000E+00  0.00000000000E+00  0.10335972355E+03  0.18613223353E+04  0.18584503231E+04 0.  0.
        2    1    3    3  502    0  0.61111160479E+03  0.29007139731E+03  0.68973626909E+03  0.96609260940E+03  0.25500000920E-02 0.  1.
       -2    1    3    3    0  502 -0.61111160479E+03 -0.29007139731E+03 -0.58637654554E+03  0.89522972594E+03  0.25500000920E-02 0. -1.
</event>
<event>
 5   0  0.2980790E-05  0.1309682E+04  0.7818609E-02  0.9021923E-01
       -1   -1    0    0    0  501  0.00000000000E+00  0.00000000000E+00  0.35502835400E+03  0.35502835403E+03  0.50400001928E-02 0.  1.
        1   -1    0    0  501    0  0.00000000000E+00  0.00000000000E+00 -0.12078374048E+04  0.12078374048E+04  0.50400001928E-02 0. -1.
    10030    2    1    2    0    0  0.00000000000E+00  0.00000000000E+00 -0.85280905082E+03  0.15628657589E+04  0.13096816801E+04 0.  0.
        5    1    3    3  502    0  0.39337325602E+03 -0.39769664288E+03 -0.20169291108E+02  0.55976247517E+03  0.46999998093E+01 0. -1.
       -5    1    3    3    0  502 -0.39337325602E+03  0.39769664288E+03 -0.83263975971E+03  0.10031032837E+04  0.46999998093E+01 0.  1.
</event>
<event>
 5   0  0.6648328E-05  0.2472018E+04  0.7818609E-02  0.8413023E-01
        2   -1    0    0  501    0  0.00000000000E+00  0.00000000000E+00  0.93694699374E+03  0.93694699374E+03  0.25500000920E-02 0.  1.
       -2   -1    0    0    0  501  0.00000000000E+00  0.00000000000E+00 -0.16305280894E+04  0.16305280894E+04  0.25500000920E-02 0. -1.
    10030    2    1    2    0    0  0.00000000000E+00  0.00000000000E+00 -0.69358109563E+03  0.25674750831E+04  0.24720181161E+04 0.  0.
        2    1    3    3  502    0 -0.39658041700E+03  0.38922142618E+03 -0.14934840836E+04  0.15935068414E+04  0.25500000920E-02 0. -1.
       -2    1    3    3    0  502  0.39658041700E+03 -0.38922142618E+03  0.79990298794E+03  0.97396824171E+03  0.25500000920E-02 0.  1.
</event>
<event>
 5   0  0.6909250E-05  0.2340187E+04  0.7818609E-02  0.8462242E-01
        2   -1    0    0  501    0  0.00000000000E+00  0.00000000000E+00  0.14740971167E+04  0.14740971167E+04  0.25500000920E-02 0. -1.
       -2   -1    0    0    0  501  0.00000000000E+00  0.00000000000E+00 -0.92878480612E+03  0.92878480612E+03  0.25500000920E-02 0.  1.
    10030    2    1    2    0    0  0.00000000000E+00  0.00000000000E+00  0.54531231056E+03  0.24028819228E+04  0.23401871760E+04 0.  0.
        4    1    3    3  502    0 -0.20437045903E+03 -0.39873930613E+03  0.13825198139E+04  0.14533144764E+04  0.12699999809E+01 0. -1.
       -4    1    3    3    0  502  0.20437045903E+03  0.39873930613E+03 -0.83720750329E+03  0.94956744639E+03  0.12699999809E+01 0.  1.
</event>
<event>
 5   0  0.2777539E-05  0.2472699E+04  0.7818609E-02  0.8412777E-01
       -1   -1    0    0    0  501  0.00000000000E+00  0.00000000000E+00  0.21609613140E+04  0.21609613140E+04  0.50400001928E-02 0. -1.
        1   -1    0    0  501    0  0.00000000000E+00  0.00000000000E+00 -0.70735216391E+03  0.70735216393E+03  0.50400001928E-02 0.  1.
    10030    2    1    2    0    0  0.00000000000E+00  0.00000000000E+00  0.14536091501E+04  0.28683134779E+04  0.24726994655E+04 0.  0.
        3    1    3    3  502    0 -0.68940813277E+03 -0.10124323160E+04  0.92180030117E+03  0.15329770297E+04  0.10100000352E+00 0.  1.
       -3    1    3    3    0  502  0.68940813277E+03  0.10124323160E+04  0.53180884890E+03  0.13353364482E+04  0.10100000352E+00 0. -1.
</event>
<event>
 5   0  0.6648328E-05  0.2494799E+04  0.7818609E-02  0.8404841E-01
       -2   -1    0    0    0  501  0.00000000000E+00  0.00000000000E+00  0.13699173339E+04  0.13699173339E+04  0.25500000920E-02 0.  1.
        2   -1    0    0  501    0  0.00000000000E+00  0.00000000000E+00 -0.11358389383E+04  0.11358389383E+04  0.25500000920E-02 0. -1.
    10030    2    1    2    0    0  0.00000000000E+00  0.00000000000E+00  0.23407839562E+03  0.25057562722E+04  0.24947989499E+04 0.  0.
        2    1    3    3  502    0  0.33357507485E+03 -0.11479653430E+04 -0.24076790351E+03  0.12194531326E+04  0.25500000920E-02 0. -1.
       -2    1    3    3    0  502 -0.33357507485E+03  0.11479653430E+04  0.47484629913E+03  0.12863031396E+04  0.25500000920E-02 0.  1.
</event>
<event>
 5   0  0.2980790E-05  0.2567978E+04  0.7818609E-02  0.8379161E-01
        1   -1    0    0  501    0  0.00000000000E+00  0.00000000000E+00  0.16656361244E+04  0.16656361244E+04  0.50400001928E-02 0.  1.
       -1   -1    0    0    0  501  0.00000000000E+00  0.00000000000E+00 -0.98978839681E+03  0.98978839682E+03  0.50400001928E-02 0. -1.
    10030    2    1    2    0    0  0.00000000000E+00  0.00000000000E+00  0.67584772756E+03  0.26554245212E+04  0.25679776551E+04 0.  0.
        5    1    3    3  502    0  0.14027523516E+03  0.94002629917E+03  0.12306167141E+04  0.15549167733E+04  0.46999998093E+01 0.  1.
       -5    1    3    3    0  502 -0.14027523516E+03 -0.94002629917E+03 -0.55476898659E+03  0.11005077479E+04  0.46999998093E+01 0. -1.
</event>
<event>
 5   0  0.2896652E-05  0.2424885E+04  0.7818609E-02  0.8430245E-01
       -1   -1    0    0    0  501  0.00000000000E+00  0.00000000000E+00  0.97491388800E+03  0.97491388801E+03  0.50400001928E-02 0.  1.
        1   -1    0    0  501    0  0.00000000000E+00  0.00000000000E+00 -0.15078429274E+04  0.15078429274E+04  0.50400001928E-02 0. -1.
    10030    2    1    2    0    0  0.00000000000E+00  0.00000000000E+00 -0.53292903941E+03  0.24827568154E+04  0.24248851609E+04 0.  0.
        4    1    3    3  502    0  0.53445628665E+03  0.39826293738E+03  0.77050399668E+03  0.10187909066E+04  0.12699999809E+01 0.  1.
       -4    1    3    3    0  502 -0.53445628665E+03 -0.39826293738E+03 -0.13034330361E+04  0.14639659088E+04  0.12699999809E+01 0. -1.
</event>
<event>
 5   0  0.2793920E-05  0.1617731E+04  0.7818609E-02  0.8809728E-01
        1   -1    0    0  501    0  0.00000000000E+00  0.00000000000E+00  0.85664707518E+03  0.85664707520E+03  0.50400001928E-02 0. -1.
       -1   -1    0    0    0  501  0.00000000000E+00  0.00000000000E+00 -0.76374936440E+03  0.76374936441E+03  0.50400001928E-02 0.  1.
    10030    2    1    2    0    0  0.00000000000E+00  0.00000000000E+00  0.92897710787E+02  0.16203964396E+04  0.16177313241E+04 0.  0.
        2    1    3    3  502    0  0.48223423812E+03 -0.15358361864E+03  0.67846050759E+03  0.84643159717E+03  0.25500000920E-02 0. -1.
       -2    1    3    3    0  502 -0.48223423812E+03  0.15358361864E+03 -0.58556279680E+03  0.77396484244E+03  0.25500000920E-02 0.  1.
</event>
<event>
 5   0  0.2980790E-05  0.1304311E+04  0.7818609E-02  0.9026154E-01
       -1   -1    0    0    0  501  0.00000000000E+00  0.00000000000E+00  0.51491117448E+03  0.51491117451E+03  0.50400001928E-02 0. -1.
        1   -1    0    0  501    0  0.00000000000E+00  0.00000000000E+00 -0.82598028494E+03  0.82598028496E+03  0.50400001928E-02 0.  1.
    10030    2    1    2    0    0  0.00000000000E+00  0.00000000000E+00 -0.31106911046E+03  0.13408914595E+04  0.13043105131E+04 0.  0.
        5    1    3    3  502    0  0.56417697690E+03  0.29395524104E+03 -0.80572395998E+01  0.63623294013E+03  0.46999998093E+01 0.  1.
       -5    1    3    3    0  502 -0.56417697690E+03 -0.29395524104E+03 -0.30301187086E+03  0.70465851934E+03  0.46999998093E+01 0. -1.
</event>
<event>
 5   0  0.2977854E-05  0.2405053E+04  0.7818609E-02  0.8437614E-01
       -1   -1    0    0    0  501  0.00000000000E+00  0.00000000000E+00  0.21550908194E+04  0.21550908194E+04  0.50400001928E-02 0. -1.
        1   -1    0    0  501    0  0.00000000000E+00  0.00000000000E+00 -0.67100167829E+03  0.67100167831E+03  0.50400001928E-02 0.  1.
    10030    2    1    2    0    0  0.00000000000E+00  0.00000000000E+00  0.14840891411E+04  0.28260924977E+04  0.24050526453E+04 0.  0.
        1    1    3    3  502    0  0.18216447876E+03  0.13113352898E+03  0.21302579153E+04  0.21420501127E+04  0.50400001928E-02 0. -1.
       -1    1    3    3    0  502 -0.18216447876E+03 -0.13113352898E+03 -0.64616877417E+03  0.68404238500E+03  0.50400001928E-02 0.  1.
</event>
<event>
 5   0  0.6827859E-05  0.2047876E+04  0.7818609E-02  0.8584558E-01
        2   -1    0    0  501    0  0.00000000000E+00  0.00000000000E+00  0.12696283745E+04  0.12696283745E+04  0.25500000920E-02 0.  1.
       -2   -1    0    0    0  501  0.00000000000E+00  0.00000000000E+00 -0.82579227919E+03  0.82579227919E+03  0.25500000920E-02 0. -1.
    10030    2    1    2    0    0  0.00000000000E+00  0.00000000000E+00  0.44383609528E+03  0.20954206537E+04  0.20478762747E+04 0.  0.
        3    1    3    3  502    0  0.58140899831E+03  0.40272468600E+03 -0.53569457554E+03  0.88723857248E+03  0.10100000352E+00 0. -1.
       -3    1    3    3    0  502 -0.58140899831E+03 -0.40272468600E+03  0.97953067082E+03  0.12081820812E+04  0.10100000352E+00 0.  1.
</event>
<event>
 5   0  0.6827859E-05  0.2453846E+04  0.7818609E-02  0.8419615E-01
        2   -1    0    0  501    0  0.00000000000E+00  0.00000000000E+00  0.18477975781E+04  0.18477975781E+04  0.25500000920E-02 0. -1.
       -2   -1    0    0    0  501  0.00000000000E+00  0.00000000000E+00 -0.81466692802E+03  0.81466692803E+03  0.25500000920E-02 0.  1.
    10030    2    1    2    0    0  0.00000000000E+00  0.00000000000E+00  0.10331306501E+04  0.26624645062E+04  0.24538456158E+04 0.  0.
        3    1    3    3  502    0  0.10538569554E+04  0.42964919604E+03  0.19198101358E+02  0.11382361316E+04  0.10100000352E+00 0.  1.
       -3    1    3    3    0  502 -0.10538569554E+04 -0.42964919604E+03  0.10139325488E+04  0.15242283745E+04  0.10100000352E+00 0. -1.
</event>
<event>
 5   0  0.2980790E-05  0.2547690E+04  0.7818609E-02  0.8386190E-01
       -1   -1    0    0    0  501  0.00000000000E+00  0.00000000000E+00  0.80698872905E+03  0.80698872907E+03  0.50400001928E-02 0.  1.
        1   -1    0    0  501    0  0.00000000000E+00  0.00000000000E+00 -0.20107845484E+04  0.20107845484E+04  0.50400001928E-02 0. -1.
    10030    2    1    2    0    0  0.00000000000E+00  0.00000000000E+00 -0.12037958193E+04  0.28177732775E+04  0.25476895157E+04 0.  0.
        5    1    3    3  502    0 -0.53753690046E+03  0.11147375728E+04 -0.93567261240E+03  0.15514802941E+04  0.46999998093E+01 0. -1.
       -5    1    3    3    0  502  0.53753690046E+03 -0.11147375728E+04 -0.26812320692E+03  0.12662929833E+04  0.46999998093E+01 0.  1.
</event>
<event>
 5   0  0.2777539E-05  0.2488503E+04  0.7818609E-02  0.8407093E-01
       -1   -1    0    0    0  501  0.00000000000E+00  0.00000000000E+00  0.87655250410E+03  0.87655250411E+03  0.50400001928E-02 0. -1.
        1   -1    0    0  501    0  0.00000000000E+00  0.00000000000E+00 -0.17661947184E+04  0.17661947184E+04  0.50400001928E-02 0.  1.
    10030    2    1    2    0    0  0.00000000000E+00  0.00000000000E+00 -0.88964221429E+03  0.26427472225E+04  0.24885034886E+04 0.  0.
        3    1    3    3  502    0 -0.44028844508E+03  0.64282687172E+03 -0.14750438324E+04  0.16681830294E+04  0.10100000352E+00 0.  1.
       -3    1    3    3    0  502  0.44028844508E+03 -0.64282687172E+03  0.58540161808E+03  0.97456419313E+03  0.10100000352E+00 0. -1.
</event>
<event>
 5   0  0.2777539E-05  0.2275998E+04  0.7818609E-02  0.8487445E-01
        1   -1    0    0  501    0  0.00000000000E+00  0.00000000000E+00  0.21504186201E+04  0.21504186201E+04  0.50400001928E-02 0.  1.
       -1   -1    0    0    0  501  0.00000000000E+00  0.00000000000E+00 -0.60222791679E+03  0.60222791681E+03  0.50400001928E-02 0. -1.
    10030    2    1    2    0    0  0.00000000000E+00  0.00000000000E+00  0.15481907033E+04  0.27526465369E+04  0.22759983531E+04 0.  0.
        3    1    3    3  502    0 -0.71982892946E+03 -0.48782465548E+03 -0.11375312783E+03  0.87696429031E+03  0.10100000352E+00 0. -1.
       -3    1    3    3    0  502  0.71982892946E+03  0.48782465548E+03  0.16619438312E+04  0.18756822466E+04  0.10100000352E+00 0.  1.
</event>
<event>
 5   0  0.6648328E-05  0.2533644E+04  0.7818609E-02  0.8391097E-01
        2   -1    0    0  501    0  0.00000000000E+00  0.00000000000E+00  0.26545932869E+04  0.26545932869E+04  0.25500000920E-02 0.  1.
       -2   -1    0    0    0  501  0.00000000000E+00  0.00000000000E+00 -0.60455145058E+03  0.60455145059E+03  0.25500000920E-02 0. -1.
    10030    2    1    2    0    0  0.00000000000E+00  0.00000000000E+00  0.20500418364E+04  0.32591447375E+04  0.25336441915E+04 0.  0.
        2    1    3    3  502    0 -0.62791292559E+03  0.65825016873E+03 -0.10906003841E+03  0.91622159915E+03  0.25500000920E-02 0. -1.
       -2    1    3    3    0  502  0.62791292559E+03 -0.65825016873E+03  0.21591018748E+04  0.23429231384E+04  0.25500000920E-02 0.  1.
</event>
<event>
 5   0  0.6648328E-05  0.2473072E+04  0.7818609E-02  0.8412642E-01
       -2   -1    0    0    0  501  0.00000000000E+00  0.00000000000E+00  0.10948375785E+04  0.10948375785E+04  0.25500000920E-02 0.  1.
        2   -1    0    0  501    0  0.00000000000E+00  0.00000000000E+00 -0.13965738236E+04  0.13965738236E+04  0.25500000920E-02 0. -1.
    10030    2    1    2    0    0  0.00000000000E+00  0.00000000000E+00 -0.30173624512E+03  0.24914114021E+04  0.24730721811E+04 0.  0.
        2    1    3    3  502    0  0.69449605786E+03  0.17619925393E+03  0.86440013903E+03  0.11227459872E+04  0.25500000920E-02 0.  1.
       -2    1    3    3    0  502 -0.69449605786E+03 -0.17619925393E+03 -0.11661363841E+04  0.13686654149E+04  0.25500000920E-02 0. -1.
</event>
<event>
 5   0  0.2896652E-05  0.1948078E+04  0.7818609E-02  0.8631288E-01
        1   -1    0    0  501    0  0.00000000000E+00  0.00000000000E+00  0.71524735294E+03  0.71524735296E+03  0.50400001928E-02 0.  1.
       -1   -1    0    0    0  501  0.00000000000E+00  0.00000000000E+00 -0.13264663587E+04  0.13264663587E+04  0.50400001928E-02 0. -1.
    10030    2    1    2    0    0  0.00000000000E+00  0.00000000000E+00 -0.61121900580E+03  0.20417137117E+04  0.19480775671E+04 0.  0.
        4    1    3    3  502    0  0.23097662915E+02  0.18811959695E+03  0.69573368306E+03  0.72108907593E+03  0.12699999809E+01 0.  1.
       -4    1    3    3    0  502 -0.23097662915E+02 -0.18811959695E+03 -0.13069526889E+04  0.13206246358E+04  0.12699999809E+01 0. -1.
</event>
<event>
 5   0  0.6445331E-05  0.2217476E+04  0.7818609E-02  0.8511189E-01
       -2   -1    0    0    0  501  0.00000000000E+00  0.00000000000E+00  0.11951694443E+04  0.11951694443E+04  0.25500000920E-02 0.  1.
        2   -1    0    0  501    0  0.00000000000E+00  0.00000000000E+00 -0.10285571467E+04  0.10285571467E+04  0.25500000920E-02 0. -1.
    10030    2    1    2    0    0  0.00000000000E+00  0.00000000000E+00  0.16661229764E+03  0.22237265910E+04  0.22174761090E+04 0.  0.
        1    1    3    3  502    0 -0.57125582193E+03  0.47052091798E+03 -0.74459765760E+03  0.10498327581E+04  0.50400001928E-02 0. -1.
       -1    1    3    3    0  502  0.57125582193E+03 -0.47052091798E+03  0.91120995524E+03  0.11738938329E+04  0.50400001928E-02 0.  1.
</event>
<event>
 5   0  0.7071821E-05  0.2283073E+04  0.7818609E-02  0.8484625E-01
        2   -1    0    0  501    0  0.00000000000E+00  0.00000000000E+00  0.20880231414E+04  0.20880231414E+04  0.25500000920E-02 0.  1.
       -2   -1    0    0    0  501  0.00000000000E+00  0.00000000000E+00 -0.62408589472E+03  0.62408589473E+03  0.25500000920E-02 0. -1.
    10030    2    1    2    0    0  0.00000000000E+00  0.00000000000E+00  0.14639372467E+04  0.27121090361E+04  0.22830731836E+04 0.  0.
        5    1    3    3  502    0  0.72354123386E+03  0.60374068720E+03 -0.33359097683E+02  0.94294732296E+03  0.46999998093E+01 0. -1.
       -5    1    3    3    0  502 -0.72354123386E+03 -0.60374068720E+03  0.14972963443E+04  0.17691617132E+04  0.46999998093E+01 0.  1.
</event>
<event>
 5   0  0.7071821E-05  0.2425083E+04  0.7818609E-02  0.8430172E-01
        2   -1    0    0  501    0  0.00000000000E+00  0.00000000000E+00  0.23072179054E+04  0.23072179054E+04  0.25500000920E-02 0.  1.
       -2   -1    0    0    0  501  0.00000000000E+00  0.00000000000E+00 -0.63724257949E+03  0.63724257950E+03  0.25500000920E-02 0. -1.
    10030    2    1    2    0    0  0.00000000000E+00  0.00000000000E+00  0.16699753259E+04  0.29444604849E+04  0.24250834950E+04 0.  0.
        5    1    3    3  502    0  0.21580208284E+03  0.11041672619E+04  0.28594771939E+03  0.11608376585E+04  0.46999998093E+01 0. -1.
       -5    1    3    3    0  502 -0.21580208284E+03 -0.11041672619E+04  0.13840276065E+04  0.17836228264E+04  0.46999998093E+01 0.  1.
</event>
<event>
 5   0  0.6648328E-05  0.2215487E+04  0.7818609E-02  0.8512010E-01
       -2   -1    0    0    0  501  0.00000000000E+00  0.00000000000E+00  0.93289239501E+03  0.93289239501E+03  0.25500000920E-02 0. -1.
        2   -1    0    0  501    0  0.00000000000E+00  0.00000000000E+00 -0.13153664690E+04  0.13153664690E+04  0.25500000920E-02 0.  1.
    10030    2    1    2    0    0  0.00000000000E+00  0.00000000000E+00 -0.38247407398E+03  0.22482588640E+04  0.22154867416E+04 0.  0.
        2    1    3    3  502    0 -0.61267004366E+03 -0.36474570959E+03 -0.10515339629E+04  0.12704832507E+04  0.25500000920E-02 0.  1.
       -2    1    3    3    0  502  0.61267004366E+03  0.36474570959E+03  0.66905988893E+03  0.97777561334E+03  0.25500000920E-02 0. -1.
</event>
<event>
 5   0  0.2980790E-05  0.2476307E+04  0.7818609E-02  0.8411475E-01
        1   -1    0    0  501    0  0.00000000000E+00  0.00000000000E+00  0.26056705420E+04  0.26056705420E+04  0.50400001928E-02 0.  1.
       -1   -1    0    0    0  501  0.00000000000E+00  0.00000000000E+00 -0.58834168826E+03  0.58834168828E+03  0.50400001928E-02 0. -1.
    10030    2    1    2    0    0  0.00000000000E+00  0.00000000000E+00  0.20173288538E+04  0.31940122303E+04  0.24763074169E+04 0.  0.
        5    1    3    3  502    0 -0.77058921429E+03  0.56220299927E+03 -0.95019614939E+01  0.95393517958E+03  0.46999998093E+01 0.  1.
       -5    1    3    3    0  502  0.77058921429E+03 -0.56220299927E+03  0.20268308153E+04  0.22400770507E+04  0.46999998093E+01 0. -1.
</event>
<event>
 5   0  0.6827859E-05  0.2552770E+04  0.7818609E-02  0.8384424E-01
        2   -1    0    0  501    0  0.00000000000E+00  0.00000000000E+00  0.18178087724E+04  0.18178087724E+04  0.25500000920E-02 0. -1.
       -2   -1    0    0    0  501  0.00000000000E+00  0.00000000000E+00 -0.89622099730E+03  0.89622099730E+03  0.25500000920E-02 0.  1.
    10030    2    1    2    0    0  0.00000000000E+00  0.00000000000E+00  0.92158777514E+03  0.27140297697E+04  0.25527697828E+04 0.  0.
        3    1    3    3  502    0 -0.11498093707E+03  0.41837309697E+03 -0.81541021374E+03  0.92366145910E+03  0.10100000352E+00 0.  1.
       -3    1    3    3    0  502  0.11498093707E+03 -0.41837309697E+03  0.17369979889E+04  0.17903683106E+04  0.10100000352E+00 0. -1.
</event>
<event>
 5   0  0.2777539E-05  0.1557389E+04  0.7818609E-02  0.8847162E-01
        1   -1    0    0  501    0  0.00000000000E+00  0.00000000000E+00  0.16813419341E+04  0.16813419341E+04  0.50400001928E-02 0.  1.
       -1   -1    0    0    0  501  0.00000000000E+00  0.00000000000E+00 -0.36064370720E+03  0.36064370723E+03  0.50400001928E-02 0. -1.
    10030    2    1    2    0    0  0.00000000000E+00  0.00000000000E+00  0.13206982269E+04  0.20419856413E+04  0.15573893389E+04 0.  0.
        3    1    3    3  502    0 -0.60022193181E+03 -0.46987355486E+03  0.86897534998E+03  0.11559263359E+04  0.10100000352E+00 0.  1.
       -3    1    3    3    0  502  0.60022193181E+03  0.46987355486E+03  0.45172287688E+03  0.88605930540E+03  0.10100000352E+00 0. -1.
</event>
<event>
 5   0  0.6909250E-05  0.2500236E+04  0.7818609E-02  0.8402902E-01
        2   -1    0    0  501    0  0.00000000000E+00  0.00000000000E+00  0.11945401885E+04  0.11945401885E+04  0.25500000920E-02 0.  1.
       -2   -1    0    0    0  501  0.00000000000E+00  0.00000000000E+00 -0.13082812151E+04  0.13082812151E+04  0.25500000920E-02 0. -1.
    10030    2    1    2    0    0  0.00000000000E+00  0.00000000000E+00 -0.11374102656E+03  0.25028214037E+04  0.25002355804E+04 0.  0.
        4    1    3    3  502    0 -0.71383313983E+03  0.10166115345E+04  0.83760057714E+02  0.12450197282E+04  0.12699999809E+01 0.  1.
       -4    1    3    3    0  502  0.71383313983E+03 -0.10166115345E+04 -0.19750108427E+03  0.12578016754E+04  0.12699999809E+01 0. -1.
</event>
<event>
 5   0  0.2793920E-05  0.2514228E+04  0.7818609E-02  0.8397934E-01
       -1   -1    0    0    0  501  0.00000000000E+00  0.00000000000E+00  0.11333219640E+04  0.11333219641E+04  0.50400001928E-02 0.  1.
        1   -1    0    0  501    0  0.00000000000E+00  0.00000000000E+00 -0.13944279370E+04  0.13944279370E+04  0.50400001928E-02 0. -1.
    10030    2    1    2    0    0  0.00000000000E+00  0.00000000000E+00 -0.26110597295E+03  0.25277499011E+04  0.25142281585E+04 0.  0.
        2    1    3    3  502    0 -0.11018231952E+03 -0.49948713472E+02 -0.13885621410E+04  0.13938220249E+04  0.25500000920E-02 0. -1.
       -2    1    3    3    0  502  0.11018231952E+03  0.49948713472E+02  0.11274561681E+04  0.11339278762E+04  0.25500000920E-02 0.  1.
</event>
<event>
 5   0  0.2977854E-05  0.2440608E+04  0.7818609E-02  0.8424455E-01
        1   -1    0    0  501    0  0.00000000000E+00  0.00000000000E+00  0.17521156427E+04  0.17521156427E+04  0.50400001928E-02 0.  1.
       -1   -1    0    0    0  501  0.00000000000E+00  0.00000000000E+00 -0.84991089361E+03  0.84991089363E+03  0.50400001928E-02 0. -1.
    10030    2    1    2    0    0  0.00000000000E+00  0.00000000000E+00  0.90220474905E+03  0.26020265363E+04  0.24406082616E+04 0.  0.
        1    1    3    3  502    0  0.37181073689E+02  0.48551994899E+03  0.16440490533E+04  0.17146455444E+04  0.50400001928E-02 0.  1.
       -1    1    3    3    0  502 -0.37181073689E+02 -0.48551994899E+03 -0.74184430424E+03  0.88738099195E+03  0.50400001928E-02 0. -1.
</event>
<event>
 5   0  0.7071821E-05  0.2462541E+04  0.7818609E-02  0.8416453E-01
        2   -1    0    0  501    0  0.00000000000E+00  0.00000000000E+00  0.17663093329E+04  0.17663093329E+04  0.25500000920E-02 0.  1.
       -2   -1    0    0    0  501  0.00000000000E+00  0.00000000000E+00 -0.85830190452E+03  0.85830190453E+03  0.25500000920E-02 0. -1.
    10030    2    1    2    0    0  0.00000000000E+00  0.00000000000E+00  0.90800742840E+03  0.26246112375E+04  0.24625406916E+04 0.  0.
        5    1    3    3  502    0 -0.12728616204E+03 -0.81177867710E+03  0.14313143313E+04  0.16504148547E+04  0.46999998093E+01 0.  1.
       -5    1    3    3    0  502  0.12728616204E+03  0.81177867710E+03 -0.52330690287E+03  0.97419638278E+03  0.46999998093E+01 0. -1.
</event>
<event>
 5   0  0.2980790E-05  0.2479536E+04  0.7818609E-02  0.8410312E-01
        1   -1    0    0  501    0  0.00000000000E+00  0.00000000000E+00  0.18900959545E+04  0.18900959545E+04  0.50400001928E-02 0. -1.
       -1   -1    0    0    0  501  0.00000000000E+00  0.00000000000E+00 -0.81319940645E+03  0.81319940646E+03  0.50400001928E-02 0.  1.
    10030    2    1    2    0    0  0.00000000000E+00  0.00000000000E+00  0.10768965480E+04  0.27032953609E+04  0.24795361730E+04 0.  0.
        5    1    3    3  502    0 -0.34736503842E+03  0.77629470363E+03 -0.44501250599E+03  0.95987194838E+03  0.46999998093E+01 0.  1.
       -5    1    3    3    0  502  0.34736503842E+03 -0.77629470363E+03  0.15219090540E+04  0.17434234126E+04  0.46999998093E+01 0. -1.
</event>
<event>
 5   0  0.6827859E-05  0.2590072E+04  0.7818609E-02  0.8371581E-01
        2   -1    0    0  501    0  0.00000000000E+00  0.00000000000E+00  0.15737924717E+04  0.15737924717E+04  0.25500000920E-02 0. -1.
       -2   -1    0    0    0  501  0.00000000000E+00  0.00000000000E+00 -0.10656542048E+04  0.10656542048E+04  0.25500000920E-02 0.  1.
    10030    2    1    2    0    0  0.00000000000E+00  0.00000000000E+00  0.50813826688E+03  0.26394466765E+04  0.25900722499E+04 0.  0.
        3    1    3    3  502    0 -0.10919504313E+04  0.69959219099E+02 -0.45186168666E+03  0.11838196784E+04  0.10100000352E+00 0.  1.
       -3    1    3    3    0  502  0.10919504313E+04 -0.69959219099E+02  0.95999995354E+03  0.14556269982E+04  0.10100000352E+00 0. -1.
</event>
<event>
 5   0  0.6445331E-05  0.2466370E+04  0.7818609E-02  0.8415065E-01
       -2   -1    0    0    0  501  0.00000000000E+00  0.00000000000E+00  0.13424952511E+04  0.13424952511E+04  0.25500000920E-02 0. -1.
        2   -1    0    0  501    0  0.00000000000E+00  0.00000000000E+00 -0.11327752989E+04  0.11327752989E+04  0.25500000920E-02 0.  1.
    10030    2    1    2    0    0  0.00000000000E+00  0.00000000000E+00  0.20971995221E+03  0.24752705500E+04  0.24663701745E+04 0.  0.
        1    1    3    3  502    0  0.51355021878E+03 -0.35672975913E+03 -0.96187528050E+03  0.11472549863E+04  0.50400001928E-02 0.  1.
       -1    1    3    3    0  502 -0.51355021878E+03  0.35672975913E+03  0.11715952327E+04  0.13280155638E+04  0.50400001928E-02 0. -1.
</event>
<event>
 5   0  0.2793920E-05  0.2523675E+04  0.7818609E-02  0.8394600E-01
        1   -1    0    0  501    0  0.00000000000E+00  0.00000000000E+00  0.12611526681E+04  0.12611526681E+04  0.50400001928E-02 0.  1.
       -1   -1    0    0    0  501  0.00000000000E+00  0.00000000000E+00 -0.12625222981E+04  0.12625222981E+04  0.50400001928E-02 0. -1.
    10030    2    1    2    0    0  0.00000000000E+00  0.00000000000E+00 -0.13696299554E+01  0.25236749662E+04  0.25236745946E+04 0.  0.
        2    1    3    3  502    0  0.10298075206E+04 -0.37702343429E+02  0.72753803887E+03  0.12614422675E+04  0.25500000920E-02 0.  1.
       -2    1    3    3    0  502 -0.10298075206E+04  0.37702343429E+02 -0.72890766882E+03  0.12622326988E+04  0.25500000920E-02 0. -1.
</event>
<event>
 5   0  0.2793920E-05  0.2359456E+04  0.7818609E-02  0.8454840E-01
        1   -1    0    0  501    0  0.00000000000E+00  0.00000000000E+00  0.80347744395E+03  0.80347744396E+03  0.50400001928E-02 0. -1.
       -1   -1    0    0    0  501  0.00000000000E+00  0.00000000000E+00 -0.17321687901E+04  0.17321687901E+04  0.50400001928E-02 0.  1.
    10030    2    1    2    0    0  0.00000000000E+00  0.00000000000E+00 -0.92869134619E+03  0.25356462341E+04  0.23594563374E+04 0.  0.
        2    1    3    3  502    0  0.10773230904E+04  0.31719575463E+03 -0.76091747749E+02  0.11256234459E+04  0.25500000920E-02 0. -1.
       -2    1    3    3    0  502 -0.10773230904E+04 -0.31719575463E+03 -0.85259959844E+03  0.14100227882E+04  0.25500000920E-02 0.  1.
</event>
<event>
 5   0  0.6827859E-05  0.2567041E+04  0.7818609E-02  0.8379484E-01
        2   -1    0    0  501    0  0.00000000000E+00  0.00000000000E+00  0.10278135335E+04  0.10278135335E+04  0.25500000920E-02 0.  1.
       -2   -1    0    0    0  501  0.00000000000E+00  0.00000000000E+00 -0.16028436927E+04  0.16028436927E+04  0.25500000920E-02 0. -1.
    10030    2    1    2    0    0  0.00000000000E+00  0.00000000000E+00 -0.57503015922E+03  0.26306572262E+04  0.25670406615E+04 0.  0.
        3    1    3    3  502    0 -0.11047965852E+04 -0.80883285672E+02  0.37686214873E+03  0.11701037090E+04  0.10100000352E+00 0.  1.
       -3    1    3    3    0  502  0.11047965852E+04  0.80883285672E+02 -0.95189230795E+03  0.14605535172E+04  0.10100000352E+00 0. -1.
</event>
<event>
 5   0  0.6827859E-05  0.2573434E+04  0.7818609E-02  0.8377281E-01
       -2   -1    0    0    0  501  0.00000000000E+00  0.00000000000E+00  0.17988962403E+04  0.17988962403E+04  0.25500000920E-02 0.  1.
        2   -1    0    0  501    0  0.00000000000E+00  0.00000000000E+00 -0.92036468003E+03  0.92036468004E+03  0.25500000920E-02 0. -1.
    10030    2    1    2    0    0  0.00000000000E+00  0.00000000000E+00  0.87853156024E+03  0.27192609203E+04  0.25734339413E+04 0.  0.
        3    1    3    3  502    0  0.52978105812E+03  0.20630106069E+03 -0.78044594453E+03  0.96556925165E+03  0.10100000352E+00 0. -1.
       -3    1    3    3    0  502 -0.52978105812E+03 -0.20630106069E+03  0.16589775048E+04  0.17536916687E+04  0.10100000352E+00 0.  1.
</event>
<event>
 5   0  0.2896652E-05  0.2392480E+04  0.7818609E-02  0.8442324E-01
        1   -1    0    0  501    0  0.00000000000E+00  0.00000000000E+00  0.14874871621E+04  0.14874871621E+04  0.50400001928E-02 0.  1.
       -1   -1    0    0    0  501  0.00000000000E+00  0.00000000000E+00 -0.96201830662E+03  0.96201830663E+03  0.50400001928E-02 0. -1.
    10030    2    1    2    0    0  0.00000000000E+00  0.00000000000E+00  0.52546885549E+03  0.24495054687E+04  0.23924797854E+04 0.  0.
        4    1    3    3  502    0 -0.51332712539E+03 -0.70832008485E+03  0.10981277585E+04  0.14039616331E+04  0.12699999809E+01 0.  1.
       -4    1    3    3    0  502  0.51332712539E+03  0.70832008485E+03 -0.57265890299E+03  0.10455438357E+04  0.12699999809E+01 0. -1.
</event>
<event>
 5   0  0.2896652E-05  0.2411983E+04  0.7818609E-02  0.8435031E-01
        1   -1    0    0  501    0  0.00000000000E+00  0.00000000000E+00  0.23229126897E+04  0.23229126897E+04  0.50400001928E-02 0.  1.
       -1   -1    0    0    0  501  0.00000000000E+00  0.00000000000E+00 -0.62611706097E+03  0.62611706099E+03  0.50400001928E-02 0. -1.
    10030    2    1    2    0    0  0.00000000000E+00  0.00000000000E+00  0.16967956287E+04  0.29490297507E+04  0.24119828077E+04 0.  0.
        4    1    3    3  502    0  0.19018806259E+03 -0.68919018045E+03  0.20358617708E+04  0.21577509973E+04  0.12699999809E+01 0.  1.
       -4    1    3    3    0  502 -0.19018806259E+03  0.68919018045E+03 -0.33906614201E+03  0.79127875337E+03  0.12699999809E+01 0. -1.
</event>
<event>
 5   0  0.2977854E-05  0.1379741E+04  0.7818609E-02  0.8968615E-01
        1   -1    0    0  501    0  0.00000000000E+00  0.00000000000E+00  0.46199745309E+03  0.46199745312E+03  0.50400001928E-02 0.  1.
       -1   -1    0    0    0  501  0.00000000000E+00  0.00000000000E+00 -0.10301384134E+04  0.10301384134E+04  0.50400001928E-02 0. -1.
    10030    2    1    2    0    0  0.00000000000E+00  0.00000000000E+00 -0.56814096030E+03  0.14921358665E+04  0.13797410240E+04 0.  0.
        1    1    3    3  502    0  0.16238882999E+03 -0.15967169285E+03 -0.98831337008E+03  0.10142132414E+04  0.50400001928E-02 0. -1.
       -1    1    3    3    0  502 -0.16238882999E+03  0.15967169285E+03  0.42017240978E+03  0.47792262508E+03  0.50400001928E-02 0.  1.
</event>
<event>
 5   0  0.2977854E-05  0.2507826E+04  0.7818609E-02  0.8400203E-01
       -1   -1    0    0    0  501  0.00000000000E+00  0.00000000000E+00  0.10792945293E+04  0.10792945294E+04  0.50400001928E-02 0.  1.
        1   -1    0    0  501    0  0.00000000000E+00  0.00000000000E+00 -0.14567824808E+04  0.14567824808E+04  0.50400001928E-02 0. -1.
    10030    2    1    2    0    0  0.00000000000E+00  0.00000000000E+00 -0.37748795145E+03  0.25360770102E+04  0.25078256415E+04 0.  0.
        1    1    3    3  502    0  0.60398732501E+03  0.86980123183E+03  0.49034343291E+03  0.11669582486E+04  0.50400001928E-02 0.  1.
       -1    1    3    3    0  502 -0.60398732501E+03 -0.86980123183E+03 -0.86783138437E+03  0.13691187616E+04  0.50400001928E-02 0. -1.
</event>
<event>
 5   0  0.2793920E-05  0.2363011E+04  0.7818609E-02  0.8453483E-01
        1   -1    0    0  501    0  0.00000000000E+00  0.00000000000E+00  0.99391522265E+03  0.99391522267E+03  0.50400001928E-02 0.  1.
       -1   -1    0    0    0  501  0.00000000000E+00  0.00000000000E+00 -0.14045007683E+04  0.14045007683E+04  0.50400001928E-02 0. -1.
    10030    2    1    2    0    0  0.00000000000E+00  0.00000000000E+00 -0.41058554563E+03  0.23984159910E+04  0.23630105322E+04 0.  0.
        2    1    3    3  502    0  0.30330727791E+03 -0.30661444692E+02  0.95330922250E+03  0.10008665759E+04  0.25500000920E-02 0.  1.
       -2    1    3    3    0  502 -0.30330727791E+03  0.30661444692E+02 -0.13638947681E+04  0.13975494151E+04  0.25500000920E-02 0. -1.
</event>
<event>
 5   0  0.2980790E-05  0.1720358E+04  0.7818609E-02  0.8749838E-01
       -1   -1    0    0    0  501  0.00000000000E+00  0.00000000000E+00  0.55076995146E+03  0.55076995148E+03  0.50400001928E-02 0.  1.
        1   -1    0    0  501    0  0.00000000000E+00  0.00000000000E+00 -0.13434068923E+04  0.13434068923E+04  0.50400001928E-02 0. -1.
    10030    2    1    2    0    0  0.00000000000E+00  0.00000000000E+00 -0.79263694085E+03  0.18941768438E+04  0.17203582754E+04 0.  0.
        5    1    3    3  502    0 -0.14173029340E+03 -0.41477639285E+03 -0.12112036766E+04  0.12880851557E+04  0.46999998093E+01 0. -1.
       -5    1    3    3    0  502  0.14173029340E+03  0.41477639285E+03  0.41856673574E+03  0.60609168811E+03  0.46999998093E+01 0.  1.
</event>
<event>
 5   0  0.2793920E-05  0.2484681E+04  0.7818609E-02  0.8408463E-01
        1   -1    0    0  501    0  0.00000000000E+00  0.00000000000E+00  0.13332651991E+04  0.13332651991E+04  0.50400001928E-02 0.  1.
       -1   -1    0    0    0  501  0.00000000000E+00  0.00000000000E+00 -0.11576166273E+04  0.11576166273E+04  0.50400001928E-02 0. -1.
    10030    2    1    2    0    0  0.00000000000E+00  0.00000000000E+00  0.17564857175E+03  0.24908818264E+04  0.24846810363E+04 0.  0.
        2    1    3    3  502    0  0.61220638900E+03  0.11742907396E+02 -0.99583377600E+03  0.11690250075E+04  0.25500000920E-02 0. -1.
       -2    1    3    3    0  502 -0.61220638900E+03 -0.11742907396E+02  0.11714823478E+04  0.13218568189E+04  0.25500000920E-02 0.  1.
</event>
<event>
 5   0  0.6445331E-05  0.2557798E+04  0.7818609E-02  0.8382679E-01
       -2   -1    0    0    0  501  0.00000000000E+00  0.00000000000E+00  0.11558776640E+04  0.11558776640E+04  0.25500000920E-02 0.  1.
        2   -1    0    0  501    0  0.00000000000E+00  0.00000000000E+00 -0.14150133766E+04  0.14150133766E+04  0.25500000920E-02 0. -1.
    10030    2    1    2    0    0  0.00000000000E+00  0.00000000000E+00 -0.25913571261E+03  0.25708910406E+04  0.25577977686E+04 0.  0.
        1    1    3    3  502    0 -0.58855046493E+03  0.95897660737E+03 -0.74058972915E+03  0.13470341236E+04  0.50400001928E-02 0. -1.
       -1    1    3    3    0  502  0.58855046493E+03 -0.95897660737E+03  0.48145401654E+03  0.12238569170E+04  0.50400001928E-02 0.  1.
</event>
<event>
 5   0  0.6445331E-05  0.2456494E+04  0.7818609E-02  0.8418651E-01
       -2   -1    0    0    0  501  0.00000000000E+00  0.00000000000E+00  0.88097468452E+03  0.88097468452E+03  0.25500000920E-02 0.  1.
        2   -1    0    0  501    0  0.00000000000E+00  0.00000000000E+00 -0.17124111053E+04  0.17124111053E+04  0.25500000920E-02 0. -1.
    10030    2    1    2    0    0  0.00000000000E+00  0.00000000000E+00 -0.83143642075E+03  0.25933857898E+04  0.24564941142E+04 0.  0.
        1    1    3    3  502    0 -0.98823466481E+03  0.54634692757E+03 -0.92585164515E+03  0.14602410715E+04  0.50400001928E-02 0. -1.
       -1    1    3    3    0  502  0.98823466481E+03 -0.54634692757E+03  0.94415224398E+02  0.11331447183E+04  0.50400001928E-02 0.  1.
</event>
<event>
 5   0  0.6648328E-05  0.2505454E+04  0.7818609E-02  0.8401045E-01
        2   -1    0    0  501    0  0.00000000000E+00  0.00000000000E+00  0.27612462707E+04  0.27612462707E+04  0.25500000920E-02 0. -1.
       -2   -1    0    0    0  501  0.00000000000E+00  0.00000000000E+00 -0.56833956623E+03  0.56833956623E+03  0.25500000920E-02 0.  1.
    10030    2    1    2    0    0  0.00000000000E+00  0.00000000000E+00  0.21929067044E+04  0.33295858369E+04  0.25054544560E+04 0.  0.
        2    1    3    3  502    0 -0.54138128212E+03  0.82432080831E+03  0.69876293697E+02  0.98867648099E+03  0.25500000920E-02 0.  1.
       -2    1    3    3    0  502  0.54138128212E+03 -0.82432080831E+03  0.21230304107E+04  0.23409093559E+04  0.25500000920E-02 0. -1.
</event>
<event>
 5   0  0.2896652E-05  0.2496629E+04  0.7818609E-02  0.8404188E-01
        1   -1    0    0  501    0  0.00000000000E+00  0.00000000000E+00  0.13821410218E+04  0.13821410218E+04  0.50400001928E-02 0. -1.
       -1   -1    0    0    0  501  0.00000000000E+00  0.00000000000E+00 -0.11274454392E+04  0.11274454392E+04  0.50400001928E-02 0.  1.
    10030    2    1    2    0    0  0.00000000000E+00  0.00000000000E+00  0.25469558255E+03  0.25095864610E+04  0.24966285998E+04 0.  0.
        4    1    3    3  502    0 -0.88686920480E+03  0.31790503122E+03  0.95055272763E+03  0.13383395295E+04  0.12699999809E+01 0. -1.
       -4    1    3    3    0  502  0.88686920480E+03 -0.31790503122E+03 -0.69585714508E+03  0.11712469315E+04  0.12699999809E+01 0.  1.
</event>
<event>
 5   0  0.2896652E-05  0.2483639E+04  0.7818609E-02  0.8408837E-01
       -1   -1    0    0    0  501  0.00000000000E+00  0.00000000000E+00  0.70680171852E+03  0.70680171854E+03  0.50400001928E-02 0.  1.
        1   -1    0    0  501    0  0.00000000000E+00  0.00000000000E+00 -0.21818226161E+04  0.21818226161E+04  0.50400001928E-02 0. -1.
    10030    2    1    2    0    0  0.00000000000E+00  0.00000000000E+00 -0.14750208976E+04  0.28886243347E+04  0.24836392448E+04 0.  0.
        4    1    3    3  502    0  0.89302791502E+03  0.50864636602E+02  0.26436280901E+03  0.93272470534E+03  0.12699999809E+01 0.  1.
       -4    1    3    3    0  502 -0.89302791502E+03 -0.50864636602E+02 -0.17393837066E+04  0.19558996293E+04  0.12699999809E+01 0. -1.
</event>
<event>
 5   0  0.2977854E-05  0.2513697E+04  0.7818609E-02  0.8398122E-01
        1   -1    0    0  501    0  0.00000000000E+00  0.00000000000E+00  0.11792241996E+04  0.11792241996E+04  0.50400001928E-02 0.  1.
       -1   -1    0    0    0  501  0.00000000000E+00  0.00000000000E+00 -0.13395827105E+04  0.13395827105E+04  0.50400001928E-02 0. -1.
    10030    2    1    2    0    0  0.00000000000E+00  0.00000000000E+00 -0.16035851094E+03  0.25188069101E+04  0.25136971572E+04 0.  0.
        1    1    3    3  502    0  0.89868520592E+03  0.48356647072E+03 -0.81528944871E+03  0.13062038570E+04  0.50400001928E-02 0.  1.
       -1    1    3    3    0  502 -0.89868520592E+03 -0.48356647072E+03  0.65493093777E+03  0.12126030530E+04  0.50400001928E-02 0. -1.
</event>
<event>
 5   0  0.2793920E-05  0.2628382E+04  0.7818609E-02  0.8358624E-01
       -1   -1    0    0    0  501  0.00000000000E+00  0.00000000000E+00  0.11627751898E+04  0.11627751898E+04  0.50400001928E-02 0.  1.
        1   -1    0    0  501    0  0.00000000000E+00  0.00000000000E+00 -0.14853244020E+04  0.14853244020E+04  0.50400001928E-02 0. -1.
    10030    2    1    2    0    0  0.00000000000E+00  0.00000000000E+00 -0.32254921221E+03  0.26480995919E+04  0.26283822885E+04 0.  0.
        2    1    3    3  502    0 -0.65602515656E+03 -0.11127557164E+04 -0.40496523807E+03  0.13537322979E+04  0.25500000920E-02 0. -1.
       -2    1    3    3    0  502  0.65602515656E+03  0.11127557164E+04  0.82416025860E+02  0.12943672940E+04  0.25500000920E-02 0.  1.
</event>
<event>
 5   0  0.2793920E-05  0.2454593E+04  0.7818609E-02  0.8419343E-01
        1   -1    0    0  501    0  0.00000000000E+00  0.00000000000E+00  0.27960186286E+04  0.27960186286E+04  0.50400001928E-02 0. -1.
       -1   -1    0    0    0  501  0.00000000000E+00  0.00000000000E+00 -0.53871477854E+03  0.53871477857E+03  0.50400001928E-02 0.  1.
    10030    2    1    2    0    0  0.00000000000E+00  0.00000000000E+00  0.22573038500E+04  0.33347334072E+04  0.24545928838E+04 0.  0.
        2    1    3    3  502    0 -0.18963762513E+03  0.53371251563E+03  0.26078364968E+04  0.26686368566E+04  0.25500000920E-02 0. -1.
       -2    1    3    3    0  502  0.18963762513E+03 -0.53371251563E+03 -0.35053264678E+03  0.66609655056E+03  0.25500000920E-02 0.  1.
</event>
<event>
 5   0  0.6827859E-05  0.2565214E+04  0.7818609E-02  0.8380114E-01
        2   -1    0    0  501    0  0.00000000000E+00  0.00000000000E+00  0.16528273438E+04  0.16528273438E+04  0.25500000920E-02 0.  1.
       -2   -1    0    0    0  501  0.00000000000E+00  0.00000000000E+00 -0.99531343174E+03  0.99531343174E+03  0.25500000920E-02 0. -1.
    10030    2    1    2    0    0  0.00000000000E+00  0.00000000000E+00  0.65751391203E+03  0.26481407755E+04  0.25652144204E+04 0.  0.
        3    1    3    3  502    0 -0.10620767362E+04 -0.14353011949E+03 -0.39862976662E+03  0.11434656050E+04  0.10100000352E+00 0.  1.
       -3    1    3    3    0  502  0.10620767362E+04  0.14353011949E+03  0.10561436787E+04  0.15046751706E+04  0.10100000352E+00 0. -1.
</event>
<event>
 5   0  0.6445331E-05  0.2477141E+04  0.7818609E-02  0.8411175E-01
       -2   -1    0    0    0  501  0.00000000000E+00  0.00000000000E+00  0.13052187828E+04  0.13052187828E+04  0.25500000920E-02 0. -1.
        2   -1    0    0  501    0  0.00000000000E+00  0.00000000000E+00 -0.11753251570E+04  0.11753251570E+04  0.25500000920E-02 0.  1.
    10030    2    1    2    0    0  0.00000000000E+00  0.00000000000E+00  0.12989362588E+03  0.24805439398E+04  0.24771406668E+04 0.  0.
        1    1    3    3  502    0  0.67917537528E+03 -0.52403673434E+03 -0.82968016754E+03  0.11934248488E+04  0.50400001928E-02 0.  1.
       -1    1    3    3    0  502 -0.67917537528E+03  0.52403673434E+03  0.95957379342E+03  0.12871190910E+04  0.50400001928E-02 0. -1.
</event>
<event>
 5   0  0.6827859E-05  0.2470427E+04  0.7818609E-02  0.8413598E-01
       -2   -1    0    0    0  501  0.00000000000E+00  0.00000000000E+00  0.11074370299E+04  0.11074370299E+04  0.25500000920E-02 0. -1.
        2   -1    0    0  501    0  0.00000000000E+00  0.00000000000E+00 -0.13777325252E+04  0.13777325252E+04  0.25500000920E-02 0.  1.
    10030    2    1    2    0    0  0.00000000000E+00  0.00000000000E+00 -0.27029549528E+03  0.24851695551E+04  0.24704266965E+04 0.  0.
        3    1    3    3  502    0  0.80249215027E+03  0.66095640417E+03 -0.80613274272E+03  0.13155633883E+04  0.10100000352E+00 0.  1.
       -3    1    3    3    0  502 -0.80249215027E+03 -0.66095640417E+03  0.53583724744E+03  0.11696061668E+04  0.10100000352E+00 0. -1.
</event>
<event>
 5   0  0.2977854E-05  0.2523737E+04  0.7818609E-02  0.8394578E-01
        1   -1    0    0  501    0  0.00000000000E+00  0.00000000000E+00  0.14150775388E+04  0.14150775388E+04  0.50400001928E-02 0. -1.
       -1   -1    0    0    0  501  0.00000000000E+00  0.00000000000E+00 -0.11252470272E+04  0.11252470272E+04  0.50400001928E-02 0.  1.
    10030    2    1    2    0    0  0.00000000000E+00  0.00000000000E+00  0.28983051164E+03  0.25403245660E+04  0.25237367484E+04 0.  0.
        1    1    3    3  502    0 -0.84219387234E+03  0.70362458732E+03 -0.48202177008E+03  0.11986338329E+04  0.50400001928E-02 0.  1.
       -1    1    3    3    0  502  0.84219387234E+03 -0.70362458732E+03  0.77185228173E+03  0.13416907331E+04  0.50400001928E-02 0. -1.
</event>
<event>
 5   0  0.6648328E-05  0.2324713E+04  0.7818609E-02  0.8468240E-01
        2   -1    0    0  501    0  0.00000000000E+00  0.00000000000E+00  0.11787078965E+04  0.11787078965E+04  0.25500000920E-02 0.  1.
       -2   -1    0    0    0  501  0.00000000000E+00  0.00000000000E+00 -0.11462320041E+04  0.11462320041E+04  0.25500000920E-02 0. -1.
    10030    2    1    2    0    0  0.00000000000E+00  0.00000000000E+00  0.32475892400E+02  0.23249399006E+04  0.23247130700E+04 0.  0.
        2    1    3    3  502    0  0.70078195361E+03 -0.86981353318E+03  0.33783080219E+03  0.11669621159E+04  0.25500000920E-02 0.  1.
       -2    1    3    3    0  502 -0.70078195361E+03  0.86981353318E+03 -0.30535490979E+03  0.11579777847E+04  0.25500000920E-02 0. -1.
</event>
<event>
 5   0  0.6648328E-05  0.2394143E+04  0.7818609E-02  0.8441700E-01
        2   -1    0    0  501    0  0.00000000000E+00  0.00000000000E+00  0.16558871242E+04  0.16558871242E+04  0.25500000920E-02 0. -1.
       -2   -1    0    0    0  501  0.00000000000E+00  0.00000000000E+00 -0.86538503487E+03  0.86538503487E+03  0.25500000920E-02 0.  1.
    10030    2    1    2    0    0  0.00000000000E+00  0.00000000000E+00  0.79050208930E+03  0.25212721590E+04  0.23941428000E+04 0.  0.
        2    1    3    3  502    0 -0.57599019948E+03  0.97171253078E+03 -0.22007895524E+02  0.11298116214E+04  0.25500000920E-02 0.  1.
       -2    1    3    3    0  502  0.57599019948E+03 -0.97171253078E+03  0.81250998483E+03  0.13914605376E+04  0.25500000920E-02 0. -1.
</event>
<event>
 5   0  0.2977854E-05  0.2547074E+04  0.7818609E-02  0.8386405E-01
        1   -1    0    0  501    0  0.00000000000E+00  0.00000000000E+00  0.18991543555E+04  0.18991543555E+04  0.50400001928E-02 0.  1.
       -1   -1    0    0    0  501  0.00000000000E+00  0.00000000000E+00 -0.85400953746E+03  0.85400953747E+03  0.50400001928E-02 0. -1.
    10030    2    1    2    0    0  0.00000000000E+00  0.00000000000E+00  0.10451448180E+04  0.27531638929E+04  0.25470735621E+04 0.  0.
        1    1    3    3  502    0 -0.84387798706E+03 -0.64687020879E+03 -0.23508857565E+03  0.10889617819E+04  0.50400001928E-02 0. -1.
       -1    1    3    3    0  502  0.84387798706E+03  0.64687020879E+03  0.12802333937E+04  0.16642021110E+04  0.50400001928E-02 0.  1.
</event>
<event>
 5   0  0.2896652E-05  0.2516969E+04  0.7818609E-02  0.8396965E-01
        1   -1    0    0  501    0  0.00000000000E+00  0.00000000000E+00  0.10320041972E+04  0.10320041972E+04  0.50400001928E-02 0. -1.
       -1   -1    0    0    0  501  0.00000000000E+00  0.00000000000E+00 -0.15346668954E+04  0.15346668954E+04  0.50400001928E-02 0.  1.
    10030    2    1    2    0    0  0.00000000000E+00  0.00000000000E+00 -0.50266269826E+03  0.25666710926E+04  0.25169685555E+04 0.  0.
        4    1    3    3  502    0  0.10027121458E+04 -0.70281815305E+03 -0.54757804682E+03  0.13413531727E+04  0.12699999809E+01 0. -1.
       -4    1    3    3    0  502 -0.10027121458E+04  0.70281815305E+03  0.44915348566E+02  0.12253179200E+04  0.12699999809E+01 0.  1.
</event>
<event>
 5   0  0.2980790E-05  0.2557682E+04  0.7818609E-02  0.8382719E-01
       -1   -1    0    0    0  501  0.00000000000E+00  0.00000000000E+00  0.67029662136E+03  0.67029662138E+03  0.50400001928E-02 0. -1.
        1   -1    0    0  501    0  0.00000000000E+00  0.00000000000E+00 -0.24398660008E+04  0.24398660008E+04  0.50400001928E-02 0.  1.
    10030    2    1    2    0    0  0.00000000000E+00  0.00000000000E+00 -0.17695693795E+04  0.31101626222E+04  0.25576817135E+04 0.  0.
        5    1    3    3  502    0 -0.14151822818E+03 -0.68442534458E+03 -0.21870760456E+04  0.22960377132E+04  0.46999998093E+01 0.  1.
       -5    1    3    3    0  502  0.14151822818E+03  0.68442534458E+03  0.41750666612E+03  0.81412490901E+03  0.46999998093E+01 0. -1.
</event>
<event>
 5   0  0.6909250E-05  0.2528092E+04  0.7818609E-02  0.8393046E-01
        2   -1    0    0  501    0  0.00000000000E+00  0.00000000000E+00  0.17798661776E+04  0.17798661776E+04  0.25500000920E-02 0.  1.
       -2   -1    0    0    0  501  0.00000000000E+00  0.00000000000E+00 -0.89771456495E+03  0.89771456495E+03  0.25500000920E-02 0. -1.
    10030    2    1    2    0    0  0.00000000000E+00  0.00000000000E+00  0.88215161266E+03  0.26775807426E+04  0.25280916054E+04 0.  0.
        4    1    3    3  502    0 -0.89083911913E+03 -0.82134569760E+02  0.13868922923E+04  0.16503976088E+04  0.12699999809E+01 0.  1.
       -4    1    3    3    0  502  0.89083911913E+03  0.82134569760E+02 -0.50474067965E+03  0.10271831338E+04  0.12699999809E+01 0. -1.
</event>
<event>
 5   0  0.2980790E-05  0.2507808E+04  0.7818609E-02  0.8400209E-01
        1   -1    0    0  501    0  0.00000000000E+00  0.00000000000E+00  0.15371026754E+04  0.15371026754E+04  0.50400001928E-02 0. -1.
       -1   -1    0    0    0  501  0.00000000000E+00  0.00000000000E+00 -0.10228827318E+04  0.10228827319E+04  0.50400001928E-02 0.  1.
    10030    2    1    2    0    0  0.00000000000E+00  0.00000000000E+00  0.51421994355E+03  0.25599854073E+04  0.25078084327E+04 0.  0.
        5    1    3    3  502    0 -0.54747481363E+03  0.94551940522E+03  0.88514872616E+03  0.14061457871E+04  0.46999998093E+01 0. -1.
       -5    1    3    3    0  502  0.54747481363E+03 -0.94551940522E+03 -0.37092878262E+03  0.11538396201E+04  0.46999998093E+01 0.  1.
</event>
<event>
 5   0  0.6445331E-05  0.2611302E+04  0.7818609E-02  0.8364372E-01
        2   -1    0    0  501    0  0.00000000000E+00  0.00000000000E+00  0.15423194496E+04  0.15423194496E+04  0.25500000920E-02 0.  1.
       -2   -1    0    0    0  501  0.00000000000E+00  0.00000000000E+00 -0.11052991400E+04  0.11052991400E+04  0.25500000920E-02 0. -1.
    10030    2    1    2    0    0  0.00000000000E+00  0.00000000000E+00  0.43702030958E+03  0.26476185895E+04  0.26113018678E+04 0.  0.
        1    1    3    3  502    0  0.12868707206E+04  0.95880569311E+02  0.17012709347E+02  0.12905497927E+04  0.50400001928E-02 0. -1.
       -1    1    3    3    0  502 -0.12868707206E+04 -0.95880569311E+02  0.42000760023E+03  0.13570687969E+04  0.50400001928E-02 0.  1.
</event>
<event>
 5   0  0.2980790E-05  0.1380162E+04  0.7818609E-02  0.8968305E-01
        1   -1    0    0  501    0  0.00000000000E+00  0.00000000000E+00  0.14404733068E+04  0.14404733068E+04  0.50400001928E-02 0. -1.
       -1   -1    0    0    0  501  0.00000000000E+00  0.00000000000E+00 -0.33059400025E+03  0.33059400029E+03  0.50400001928E-02 0.  1.
    10030    2    1    2    0    0  0.00000000000E+00  0.00000000000E+00  0.11098793065E+04  0.17710673071E+04  0.13801620670E+04 0.  0.
        5    1    3    3  502    0  0.23958246587E+03  0.62808856663E+03  0.75495397005E+03  0.10108771401E+04  0.46999998093E+01 0. -1.
       -5    1    3    3    0  502 -0.23958246587E+03 -0.62808856663E+03  0.35492533647E+03  0.76019016696E+03  0.46999998093E+01 0.  1.
</event>
<event>
 5   0  0.2777539E-05  0.2570055E+04  0.7818609E-02  0.8378445E-01
        1   -1    0    0  501    0  0.00000000000E+00  0.00000000000E+00  0.10236070769E+04  0.10236070769E+04  0.50400001928E-02 0. -1.
       -1   -1    0    0    0  501  0.00000000000E+00  0.00000000000E+00 -0.16132119159E+04  0.16132119159E+04  0.50400001928E-02 0.  1.
    10030    2    1    2    0    0  0.00000000000E+00  0.00000000000E+00 -0.58960483906E+03  0.26368189928E+04  0.25700545782E+04 0.  0.
        3    1    3    3  502    0  0.70855161916E+02 -0.12757006546E+04 -0.43571108649E+03  0.13499173216E+04  0.10100000352E+00 0. -1.
       -3    1    3    3    0  502 -0.70855161916E+02  0.12757006546E+04 -0.15389375257E+03  0.12869016712E+04  0.10100000352E+00 0.  1.
</event>
<event>
 5   0  0.2777539E-05  0.2706140E+04  0.7818609E-02  0.8333015E-01
       -1   -1    0    0    0  501  0.00000000000E+00  0.00000000000E+00  0.11880193824E+04  0.11880193824E+04  0.50400001928E-02 0.  1.
        1   -1    0    0  501    0  0.00000000000E+00  0.00000000000E+00 -0.15410510316E+04  0.15410510316E+04  0.50400001928E-02 0. -1.
    10030    2    1    2    0    0  0.00000000000E+00  0.00000000000E+00 -0.35303164918E+03  0.27290704140E+04  0.27061400517E+04 0.  0.
        3    1    3    3  502    0 -0.99718926217E+03 -0.89299583453E+03 -0.37559803702E+03  0.13902884164E+04  0.10100000352E+00 0.  1.
       -3    1    3    3    0  502  0.99718926217E+03  0.89299583453E+03  0.22566387845E+02  0.13387819976E+04  0.10100000352E+00 0. -1.
</event>
<event>
 5   0  0.2980790E-05  0.2559641E+04  0.7818609E-02  0.8382041E-01
       -1   -1    0    0    0  501  0.00000000000E+00  0.00000000000E+00  0.17309965459E+04  0.17309965459E+04  0.50400001928E-02 0. -1.
        1   -1    0    0  501    0  0.00000000000E+00  0.00000000000E+00 -0.94624147182E+03  0.94624147183E+03  0.50400001928E-02 0.  1.
    10030    2    1    2    0    0  0.00000000000E+00  0.00000000000E+00  0.78475507407E+03  0.26772380177E+04  0.25596411618E+04 0.  0.
        5    1    3    3  502    0 -0.32478063613E+03  0.10906806588E+04 -0.22005909306E+03  0.11591008824E+04  0.46999998093E+01 0.  1.
       -5    1    3    3    0  502  0.32478063613E+03 -0.10906806588E+04  0.10048141671E+04  0.15181371353E+04  0.46999998093E+01 0. -1.
</event>
<event>
 5   0  0.6909250E-05  0.2506092E+04  0.7818609E-02  0.8400818E-01
        2   -1    0    0  501    0  0.00000000000E+00  0.00000000000E+00  0.14344237272E+04  0.14344237272E+04  0.25500000920E-02 0. -1.
       -2   -1    0    0    0  501  0.00000000000E+00  0.00000000000E+00 -0.10946031941E+04  0.10946031941E+04  0.25500000920E-02 0.  1.
    10030    2    1    2    0    0  0.00000000000E+00  0.00000000000E+00  0.33982053311E+03  0.25290269212E+04  0.25060924112E+04 0.  0.
        4    1    3    3  502    0  0.30161789301E+03 -0.42725017526E+03  0.13190175336E+04  0.14189168166E+04  0.12699999809E+01 0. -1.
       -4    1    3    3    0  502 -0.30161789301E+03  0.42725017526E+03 -0.97919700050E+03  0.11101101046E+04  0.12699999809E+01 0.  1.
</event>
<event>
 5   0  0.6827859E-05  0.2477667E+04  0.7818609E-02  0.8410985E-01
       -2   -1    0    0    0  501  0.00000000000E+00  0.00000000000E+00  0.10878544551E+04  0.10878544551E+04  0.25500000920E-02 0. -1.
        2   -1    0    0  501    0  0.00000000000E+00  0.00000000000E+00 -0.14107658789E+04  0.14107658789E+04  0.25500000920E-02 0.  1.
    10030    2    1    2    0    0  0.00000000000E+00  0.00000000000E+00 -0.32291142378E+03  0.24986203340E+04  0.24776666010E+04 0.  0.
        3    1    3    3  502    0 -0.27017638303E+03 -0.28832867023E+03 -0.13455145120E+04  0.14023330604E+04  0.10100000352E+00 0.  1.
       -3    1    3    3    0  502  0.27017638303E+03  0.28832867023E+03  0.10226030882E+04  0.10962872736E+04  0.10100000352E+00 0. -1.
</event>
<event>
 5   0  0.6648328E-05  0.3013564E+04  0.7818609E-02  0.8239868E-01
        2   -1    0    0  501    0  0.00000000000E+00  0.00000000000E+00  0.28203672491E+04  0.28203672491E+04  0.25500000920E-02 0. -1.
       -2   -1    0    0    0  501  0.00000000000E+00  0.00000000000E+00 -0.80499866188E+03  0.80499866188E+03  0.25500000920E-02 0.  1.
    10030    2    1    2    0    0  0.00000000000E+00  0.00000000000E+00  0.20153685872E+04  0.36253659110E+04  0.30135639111E+04 0.  0.
        2    1    3    3  502    0  0.10603944623E+04 -0.87262688604E+03  0.26173886952E+03  0.13980061994E+04  0.25500000920E-02 0.  1.
       -2    1    3    3    0  502 -0.10603944623E+04  0.87262688604E+03  0.17536297177E+04  0.22273597116E+04  0.25500000920E-02 0. -1.
</event>
<event>
 5   0  0.6445331E-05  0.2503103E+04  0.7818609E-02  0.8401881E-01
       -2   -1    0    0    0  501  0.00000000000E+00  0.00000000000E+00  0.74104097863E+03  0.74104097864E+03  0.25500000920E-02 0. -1.
        2   -1    0    0  501    0  0.00000000000E+00  0.00000000000E+00 -0.21137570411E+04  0.21137570411E+04  0.25500000920E-02 0.  1.
    10030    2    1    2    0    0  0.00000000000E+00  0.00000000000E+00 -0.13727160625E+04  0.28547980198E+04  0.25031025439E+04 0.  0.
        1    1    3    3  502    0 -0.11891745161E+04 -0.10643671498E+03 -0.25822714154E+03  0.12215343059E+04  0.50400001928E-02 0. -1.
       -1    1    3    3    0  502  0.11891745161E+04  0.10643671498E+03 -0.11144889209E+04  0.16332637138E+04  0.50400001928E-02 0.  1.
</event>
<event>
 5   0  0.7071821E-05  0.2507071E+04  0.7818609E-02  0.8400471E-01
        2   -1    0    0  501    0  0.00000000000E+00  0.00000000000E+00  0.69819558609E+03  0.69819558609E+03  0.25500000920E-02 0. -1.
       -2   -1    0    0    0  501  0.00000000000E+00  0.00000000000E+00 -0.22505886728E+04  0.22505886728E+04  0.25500000920E-02 0.  1.
    10030    2    1    2    0    0  0.00000000000E+00  0.00000000000E+00 -0.15523930867E+04  0.29487842588E+04  0.25070708625E+04 0.  0.
        5    1    3    3  502    0 -0.12370760329E+04 -0.69870745089E+02 -0.55275209833E+03  0.13567593760E+04  0.46999998093E+01 0. -1.
       -5    1    3    3    0  502  0.12370760329E+04  0.69870745089E+02 -0.99964098834E+03  0.15920248829E+04  0.46999998093E+01 0.  1.
</event>
<event>
 5   0  0.6827859E-05  0.2473216E+04  0.7818609E-02  0.8412590E-01
       -2   -1    0    0    0  501  0.00000000000E+00  0.00000000000E+00  0.80393026715E+03  0.80393026716E+03  0.25500000920E-02 0.  1.
        2   -1    0    0  501    0  0.00000000000E+00  0.00000000000E+00 -0.19021542199E+04  0.19021542199E+04  0.25500000920E-02 0. -1.
    10030    2    1    2    0    0  0.00000000000E+00  0.00000000000E+00 -0.10982239527E+04  0.27060844870E+04  0.24732160036E+04 0.  0.
        3    1    3    3  502    0  0.10766664157E+04  0.44451459386E+03 -0.94812409135E+02  0.11686715526E+04  0.10100000352E+00 0.  1.
       -3    1    3    3    0  502 -0.10766664157E+04 -0.44451459386E+03 -0.10034115436E+04  0.15374129344E+04  0.10100000352E+00 0. -1.
</event>
<event>
 5   0  0.2977854E-05  0.2564319E+04  0.7818609E-02  0.8380423E-01
       -1   -1    0    0    0  501  0.00000000000E+00  0.00000000000E+00  0.94855087514E+03  0.94855087515E+03  0.50400001928E-02 0.  1.
        1   -1    0    0  501    0  0.00000000000E+00  0.00000000000E+00 -0.17330996796E+04  0.17330996796E+04  0.50400001928E-02 0. -1.
    10030    2    1    2    0    0  0.00000000000E+00  0.00000000000E+00 -0.78454880447E+03  0.26816505548E+04  0.25643191828E+04 0.  0.
        1    1    3    3  502    0  0.29904563423E+03 -0.10708624546E+04 -0.10600516695E+04  0.15361914692E+04  0.50400001928E-02 0. -1.
       -1    1    3    3    0  502 -0.29904563423E+03  0.10708624546E+04  0.27550286506E+03  0.11454590855E+04  0.50400001928E-02 0.  1.
</event>
<event>
 5   0  0.2777539E-05  0.2463083E+04  0.7818609E-02  0.8416257E-01
       -1   -1    0    0    0  501  0.00000000000E+00  0.00000000000E+00  0.49700652864E+03  0.49700652866E+03  0.50400001928E-02 0.  1.
        1   -1    0    0  501    0  0.00000000000E+00  0.00000000000E+00 -0.30516591286E+04  0.30516591286E+04  0.50400001928E-02 0. -1.
    10030    2    1    2    0    0  0.00000000000E+00  0.00000000000E+00 -0.25546525999E+04  0.35486656572E+04  0.24630830357E+04 0.  0.
        3    1    3    3  502    0 -0.35181345555E+03 -0.91557001889E+03 -0.23503191896E+04  0.25467707926E+04  0.10100000352E+00 0. -1.
       -3    1    3    3    0  502  0.35181345555E+03  0.91557001889E+03 -0.20433341037E+03  0.10018948646E+04  0.10100000352E+00 0.  1.
</event>
<event>
 5   0  0.2980790E-05  0.2416202E+04  0.7818609E-02  0.8433462E-01
       -1   -1    0    0    0  501  0.00000000000E+00  0.00000000000E+00  0.92372825654E+03  0.92372825655E+03  0.50400001928E-02 0.  1.
        1   -1    0    0  501    0  0.00000000000E+00  0.00000000000E+00 -0.15800192706E+04  0.15800192706E+04  0.50400001928E-02 0. -1.
    10030    2    1    2    0    0  0.00000000000E+00  0.00000000000E+00 -0.65629101403E+03  0.25037475271E+04  0.24162023476E+04 0.  0.
        5    1    3    3  502    0  0.97234072678E+02  0.69416757575E+03 -0.13477495108E+04  0.15191359129E+04  0.46999998093E+01 0. -1.
       -5    1    3    3    0  502 -0.97234072678E+02 -0.69416757575E+03  0.69145849675E+03  0.98461161421E+03  0.46999998093E+01 0.  1.
</event>
<event>
 5   0  0.2777539E-05  0.2499693E+04  0.7818609E-02  0.8403095E-01
       -1   -1    0    0    0  501  0.00000000000E+00  0.00000000000E+00  0.81678070399E+03  0.81678070400E+03  0.50400001928E-02 0.  1.
        1   -1    0    0  501    0  0.00000000000E+00  0.00000000000E+00 -0.19125278742E+04  0.19125278743E+04  0.50400001928E-02 0. -1.
    10030    2    1    2    0    0  0.00000000000E+00  0.00000000000E+00 -0.10957471703E+04  0.27293085783E+04  0.24996926720E+04 0.  0.
        3    1    3    3  502    0  0.30228265570E+03  0.10891896883E+03 -0.18666630442E+04  0.18941143251E+04  0.10100000352E+00 0. -1.
       -3    1    3    3    0  502 -0.30228265570E+03 -0.10891896883E+03  0.77091587392E+03  0.83519425319E+03  0.10100000352E+00 0.  1.
</event>
<event>
 5   0  0.6648328E-05  0.2597236E+04  0.7818609E-02  0.8369141E-01
        2   -1    0    0  501    0  0.00000000000E+00  0.00000000000E+00  0.11644073400E+04  0.11644073400E+04  0.25500000920E-02 0. -1.
       -2   -1    0    0    0  501  0.00000000000E+00  0.00000000000E+00 -0.14482980617E+04  0.14482980617E+04  0.25500000920E-02 0.  1.
    10030    2    1    2    0    0  0.00000000000E+00  0.00000000000E+00 -0.28389072171E+03  0.26127054017E+04  0.25972361414E+04 0.  0.
        2    1    3    3  502    0 -0.87921780329E+03  0.87416372988E+03 -0.53053971227E+03  0.13485764934E+04  0.25500000920E-02 0.  1.
       -2    1    3    3    0  502  0.87921780329E+03 -0.87416372988E+03  0.24664899056E+03  0.12641289083E+04  0.25500000920E-02 0. -1.
</event>
<event>
 5   0  0.6827859E-05  0.2507541E+04  0.7818609E-02  0.8400304E-01
       -2   -1    0    0    0  501  0.00000000000E+00  0.00000000000E+00  0.10417052442E+04  0.10417052442E+04  0.25500000920E-02 0.  1.
        2   -1    0    0  501    0  0.00000000000E+00  0.00000000000E+00 -0.15090068010E+04  0.15090068010E+04  0.25500000920E-02 0. -1.
    10030    2    1    2    0    0  0.00000000000E+00  0.00000000000E+00 -0.46730155680E+03  0.25507120453E+04  0.25075408657E+04 0.  0.
        3    1    3    3  502    0  0.93025998292E+03  0.75592169319E+02 -0.10852271863E+04  0.14313685298E+04  0.10100000352E+00 0. -1.
       -3    1    3    3    0  502 -0.93025998292E+03 -0.75592169319E+02  0.61792562953E+03  0.11193435155E+04  0.10100000352E+00 0.  1.
</event>
<event>
 5   0  0.2777539E-05  0.1264156E+04  0.7818609E-02  0.9058483E-01
        1   -1    0    0  501    0  0.00000000000E+00  0.00000000000E+00  0.17901968188E+04  0.17901968188E+04  0.50400001928E-02 0.  1.
       -1   -1    0    0    0  501  0.00000000000E+00  0.00000000000E+00 -0.22317231724E+03  0.22317231729E+03  0.50400001928E-02 0. -1.
    10030    2    1    2    0    0  0.00000000000E+00  0.00000000000E+00  0.15670245016E+04  0.20133691361E+04  0.12641556430E+04 0.  0.
        3    1    3    3  502    0 -0.63161335767E+02 -0.22381594136E+03 -0.15255880105E+03  0.27813149394E+03  0.10100000352E+00 0. -1.
       -3    1    3    3    0  502  0.63161335767E+02  0.22381594136E+03  0.17195833026E+04  0.17352376422E+04  0.10100000352E+00 0.  1.
</event>
<event>
 5   0  0.2793920E-05  0.2331329E+04  0.7818609E-02  0.8465670E-01
        1   -1    0    0  501    0  0.00000000000E+00  0.00000000000E+00  0.14913076393E+04  0.14913076393E+04  0.50400001928E-02 0.  1.
       -1   -1    0    0    0  501  0.00000000000E+00  0.00000000000E+00 -0.91112938593E+03  0.91112938595E+03  0.50400001928E-02 0. -1.
    10030    2    1    2    0    0  0.00000000000E+00  0.00000000000E+00  0.58017825333E+03  0.24024370252E+04  0.23313294178E+04 0.  0.
        2    1    3    3  502    0  0.57116999858E+03  0.10785376622E+03 -0.75112817652E+03  0.94976899283E+03  0.25500000920E-02 0. -1.
       -2    1    3    3    0  502 -0.57116999858E+03 -0.10785376622E+03  0.13313064298E+04  0.14526680324E+04  0.25500000920E-02 0.  1.
</event>
<event>
 5   0  0.6648328E-05  0.2664684E+04  0.7818609E-02  0.8346556E-01
        2   -1    0    0  501    0  0.00000000000E+00  0.00000000000E+00  0.14508139054E+04  0.14508139054E+04  0.25500000920E-02 0. -1.
       -2   -1    0    0    0  501  0.00000000000E+00  0.00000000000E+00 -0.12235444413E+04  0.12235444413E+04  0.25500000920E-02 0.  1.
    10030    2    1    2    0    0  0.00000000000E+00  0.00000000000E+00  0.22726946410E+03  0.26743583468E+04  0.26646840634E+04 0.  0.
        2    1    3    3  502    0 -0.18179223338E+02  0.12250907253E+04  0.63894451397E+03  0.13818204881E+04  0.25500000920E-02 0. -1.
       -2    1    3    3    0  502  0.18179223338E+02 -0.12250907253E+04 -0.41167504987E+03  0.12925378587E+04  0.25500000920E-02 0.  1.
</event>
<event>
 5   0  0.2896652E-05  0.2624152E+04  0.7818609E-02  0.8360043E-01
        1   -1    0    0  501    0  0.00000000000E+00  0.00000000000E+00  0.17784179895E+04  0.17784179895E+04  0.50400001928E-02 0. -1.
       -1   -1    0    0    0  501  0.00000000000E+00  0.00000000000E+00 -0.96801957369E+03  0.96801957370E+03  0.50400001928E-02 0.  1.
    10030    2    1    2    0    0  0.00000000000E+00  0.00000000000E+00  0.81039841583E+03  0.27464375632E+04  0.26241519957E+04 0.  0.
        4    1    3    3  502    0  0.58117173517E+03 -0.54001252937E+03  0.14989676953E+04  0.16959598704E+04  0.12699999809E+01 0. -1.
       -4    1    3    3    0  502 -0.58117173517E+03  0.54001252937E+03 -0.68856927944E+03  0.10504776928E+04  0.12699999809E+01 0.  1.
</event>
<event>
 5   0  0.6445331E-05  0.2386383E+04  0.7818609E-02  0.8444619E-01
        2   -1    0    0  501    0  0.00000000000E+00  0.00000000000E+00  0.16343399682E+04  0.16343399682E+04  0.25500000920E-02 0. -1.
       -2   -1    0    0    0  501  0.00000000000E+00  0.00000000000E+00 -0.87111955637E+03  0.87111955638E+03  0.25500000920E-02 0.  1.
    10030    2    1    2    0    0  0.00000000000E+00  0.00000000000E+00  0.76322041181E+03  0.25054595246E+04  0.23863826249E+04 0.  0.
        1    1    3    3  502    0 -0.25256063133E+03 -0.26384740935E+02 -0.84242127434E+03  0.87986171103E+03  0.50400001928E-02 0.  1.
       -1    1    3    3    0  502  0.25256063133E+03  0.26384740935E+02  0.16056416861E+04  0.16255978135E+04  0.50400001928E-02 0. -1.
</event>
<event>
 5   0  0.2896652E-05  0.2501105E+04  0.7818609E-02  0.8402592E-01
        1   -1    0    0  501    0  0.00000000000E+00  0.00000000000E+00  0.17747061707E+04  0.17747061707E+04  0.50400001928E-02 0. -1.
       -1   -1    0    0    0  501  0.00000000000E+00  0.00000000000E+00 -0.88120585270E+03  0.88120585272E+03  0.50400001928E-02 0.  1.
    10030    2    1    2    0    0  0.00000000000E+00  0.00000000000E+00  0.89350031804E+03  0.26559120235E+04  0.25011049274E+04 0.  0.
        4    1    3    3  502    0 -0.57539526398E+03 -0.82008386792E+03 -0.34808594518E+03  0.10605577299E+04  0.12699999809E+01 0.  1.
       -4    1    3    3    0  502  0.57539526398E+03  0.82008386792E+03  0.12415862632E+04  0.15953542936E+04  0.12699999809E+01 0. -1.
</event>
<event>
 5   0  0.2777539E-05  0.2460765E+04  0.7818609E-02  0.8417098E-01
        1   -1    0    0  501    0  0.00000000000E+00  0.00000000000E+00  0.18499426245E+04  0.18499426245E+04  0.50400001928E-02 0. -1.
       -1   -1    0    0    0  501  0.00000000000E+00  0.00000000000E+00 -0.81831817116E+03  0.81831817117E+03  0.50400001928E-02 0.  1.
    10030    2    1    2    0    0  0.00000000000E+00  0.00000000000E+00  0.10316244533E+04  0.26682607957E+04  0.24607654624E+04 0.  0.
        3    1    3    3  502    0 -0.27567050757E+03 -0.10701571714E+04  0.11023600364E+04  0.15609062305E+04  0.10100000352E+00 0. -1.
       -3    1    3    3    0  502  0.27567050757E+03  0.10701571714E+04 -0.70735583103E+02  0.11073545652E+04  0.10100000352E+00 0.  1.
</event>
<event>
 5   0  0.2793920E-05  0.2500908E+04  0.7818609E-02  0.8402662E-01
       -1   -1    0    0    0  501  0.00000000000E+00  0.00000000000E+00  0.15148104418E+04  0.15148104418E+04  0.50400001928E-02 0. -1.
        1   -1    0    0  501    0  0.00000000000E+00  0.00000000000E+00 -0.10322314464E+04  0.10322314464E+04  0.50400001928E-02 0.  1.
    10030    2    1    2    0    0  0.00000000000E+00  0.00000000000E+00  0.48257899534E+03  0.25470418882E+04  0.25009078139E+04 0.  0.
        2    1    3    3  502    0 -0.10288206264E+04  0.70474069456E+03  0.14737319685E+03  0.12557269556E+04  0.25500000920E-02 0.  1.
       -2    1    3    3    0  502  0.10288206264E+04 -0.70474069456E+03  0.33520579850E+03  0.12913149326E+04  0.25500000920E-02 0. -1.
</event>
<event>
 5   0  0.6445331E-05  0.2000712E+04  0.7818609E-02  0.8606288E-01
        2   -1    0    0  501    0  0.00000000000E+00  0.00000000000E+00  0.93250801128E+03  0.93250801128E+03  0.25500000920E-02 0.  1.
       -2   -1    0    0    0  501  0.00000000000E+00  0.00000000000E+00 -0.10731407614E+04  0.10731407614E+04  0.25500000920E-02 0. -1.
    10030    2    1    2    0    0  0.00000000000E+00  0.00000000000E+00 -0.14063275010E+03  0.20056487727E+04  0.20007122304E+04 0.  0.
        1    1    3    3  502    0 -0.27303201891E+03 -0.23888378521E+02  0.89413604346E+03  0.93519858973E+03  0.50400001928E-02 0.  1.
       -1    1    3    3    0  502  0.27303201891E+03  0.23888378521E+02 -0.10347687936E+04  0.10704501829E+04  0.50400001928E-02 0. -1.
</event>
<event>
 5   0  0.7071821E-05  0.2468754E+04  0.7818609E-02  0.8414202E-01
       -2   -1    0    0    0  501  0.00000000000E+00  0.00000000000E+00  0.87369436668E+03  0.87369436668E+03  0.25500000920E-02 0. -1.
        2   -1    0    0  501    0  0.00000000000E+00  0.00000000000E+00 -0.17439585811E+04  0.17439585811E+04  0.25500000920E-02 0.  1.
    10030    2    1    2    0    0  0.00000000000E+00  0.00000000000E+00 -0.87026421441E+03  0.26176529478E+04  0.24687541700E+04 0.  0.
        5    1    3    3  502    0 -0.99366803828E+03 -0.73050405838E+03 -0.38052495777E+03  0.12906717953E+04  0.46999998093E+01 0.  1.
       -5    1    3    3    0  502  0.99366803828E+03  0.73050405838E+03 -0.48973925663E+03  0.13269811525E+04  0.46999998093E+01 0. -1.
</event>
<event>
 5   0  0.2980790E-05  0.2499377E+04  0.7818609E-02  0.8403207E-01
       -1   -1    0    0    0  501  0.00000000000E+00  0.00000000000E+00  0.93569507312E+03  0.93569507314E+03  0.50400001928E-02 0. -1.
        1   -1    0    0  501    0  0.00000000000E+00  0.00000000000E+00 -0.16690497110E+04  0.16690497110E+04  0.50400001928E-02 0.  1.
    10030    2    1    2    0    0  0.00000000000E+00  0.00000000000E+00 -0.73335463785E+03  0.26047447841E+04  0.24993771955E+04 0.  0.
        5    1    3    3  502    0 -0.11743240289E+02 -0.12495468750E+04 -0.38120055944E+03  0.13064613477E+04  0.46999998093E+01 0. -1.
       -5    1    3    3    0  502  0.11743240289E+02  0.12495468750E+04 -0.35215407841E+03  0.12982834364E+04  0.46999998093E+01 0.  1.
</event>
<event>
 5   0  0.6909250E-05  0.1972852E+04  0.7818609E-02  0.8619419E-01
       -2   -1    0    0    0  501  0.00000000000E+00  0.00000000000E+00  0.73874057380E+03  0.73874057380E+03  0.25500000920E-02 0.  1.
        2   -1    0    0  501    0  0.00000000000E+00  0.00000000000E+00 -0.13171554360E+04  0.13171554360E+04  0.25500000920E-02 0. -1.
    10030    2    1    2    0    0  0.00000000000E+00  0.00000000000E+00 -0.57841486224E+03  0.20558960098E+04  0.19728519079E+04 0.  0.
        4    1    3    3  502    0 -0.36907687750E+02  0.97524792097E+03 -0.43864473681E+03  0.10699913564E+04  0.12699999809E+01 0. -1.
       -4    1    3    3    0  502  0.36907687750E+02 -0.97524792097E+03 -0.13977012543E+03  0.98590465342E+03  0.12699999809E+01 0.  1.
</event>
<event>
 5   0  0.2977854E-05  0.2509880E+04  0.7818609E-02  0.8399474E-01
       -1   -1    0    0    0  501  0.00000000000E+00  0.00000000000E+00  0.96363226570E+03  0.96363226572E+03  0.50400001928E-02 0.  1.
        1   -1    0    0  501    0  0.00000000000E+00  0.00000000000E+00 -0.16343104886E+04  0.16343104886E+04  0.50400001928E-02 0. -1.
    10030    2    1    2    0    0  0.00000000000E+00  0.00000000000E+00 -0.67067822288E+03  0.25979427543E+04  0.25098799326E+04 0.  0.
        1    1    3    3  502    0  0.47549650206E+03 -0.93478415668E+03  0.37801194558E+03  0.11148145021E+04  0.50400001928E-02 0.  1.
       -1    1    3    3    0  502 -0.47549650206E+03  0.93478415668E+03 -0.10486901685E+04  0.14831282522E+04  0.50400001928E-02 0. -1.
</event>
<event>
 5   0  0.2980790E-05  0.1847474E+04  0.7818609E-02  0.8681453E-01
        1   -1    0    0  501    0  0.00000000000E+00  0.00000000000E+00  0.48235428351E+03  0.48235428354E+03  0.50400001928E-02 0. -1.
       -1   -1    0    0    0  501  0.00000000000E+00  0.00000000000E+00 -0.17690101884E+04  0.17690101884E+04  0.50400001928E-02 0.  1.
    10030    2    1    2    0    0  0.00000000000E+00  0.00000000000E+00 -0.12866559049E+04  0.22513644720E+04  0.18474735635E+04 0.  0.
        5    1    3    3  502    0  0.65912324916E+03  0.38401995436E+03 -0.12781247172E+04  0.14884688998E+04  0.46999998093E+01 0.  1.
       -5    1    3    3    0  502 -0.65912324916E+03 -0.38401995436E+03 -0.85311877399E+01  0.76289557220E+03  0.46999998093E+01 0. -1.
</event>
<event>
 5   0  0.2793920E-05  0.2220829E+04  0.7818609E-02  0.8509808E-01
       -1   -1    0    0    0  501  0.00000000000E+00  0.00000000000E+00  0.16614034002E+04  0.16614034002E+04  0.50400001928E-02 0. -1.
        1   -1    0    0  501    0  0.00000000000E+00  0.00000000000E+00 -0.74215607907E+03  0.74215607909E+03  0.50400001928E-02 0.  1.
    10030    2    1    2    0    0  0.00000000000E+00  0.00000000000E+00  0.91924732114E+03  0.24035594793E+04  0.22208292445E+04 0.  0.
        2    1    3    3  502    0  0.60717683595E+02 -0.10483503652E+04  0.68958729399E+02  0.10523689618E+04  0.25500000920E-02 0.  1.
       -2    1    3    3    0  502 -0.60717683595E+02  0.10483503652E+04  0.85028859174E+03  0.13511905175E+04  0.25500000920E-02 0. -1.
</event>
<event>
 5   0  0.2793920E-05  0.2197575E+04  0.7818609E-02  0.8519438E-01
       -1   -1    0    0    0  501  0.00000000000E+00  0.00000000000E+00  0.10606944093E+04  0.10606944094E+04  0.50400001928E-02 0. -1.
        1   -1    0    0  501    0  0.00000000000E+00  0.00000000000E+00 -0.11382486016E+04  0.11382486016E+04  0.50400001928E-02 0.  1.
    10030    2    1    2    0    0  0.00000000000E+00  0.00000000000E+00 -0.77554192226E+02  0.21989430109E+04  0.21975749618E+04 0.  0.
        2    1    3    3  502    0  0.31367609344E+02 -0.10621371751E+04  0.24106577808E+03  0.10896017690E+04  0.25500000920E-02 0. -1.
       -2    1    3    3    0  502 -0.31367609344E+02  0.10621371751E+04 -0.31861997031E+03  0.11093412420E+04  0.25500000920E-02 0.  1.
</event>
<event>
 5   0  0.2980790E-05  0.2467810E+04  0.7818609E-02  0.8414544E-01
       -1   -1    0    0    0  501  0.00000000000E+00  0.00000000000E+00  0.59080375778E+03  0.59080375780E+03  0.50400001928E-02 0. -1.
        1   -1    0    0  501    0  0.00000000000E+00  0.00000000000E+00 -0.25770333099E+04  0.25770333099E+04  0.50400001928E-02 0.  1.
    10030    2    1    2    0    0  0.00000000000E+00  0.00000000000E+00 -0.19862295521E+04  0.31678370677E+04  0.24678095254E+04 0.  0.
        5    1    3    3  502    0  0.55862628993E+03 -0.10672460226E+04 -0.13361712261E+04  0.17990144635E+04  0.46999998093E+01 0.  1.
       -5    1    3    3    0  502 -0.55862628993E+03  0.10672460226E+04 -0.65005832599E+03  0.13688226042E+04  0.46999998093E+01 0. -1.
</event>
<event>
 5   0  0.2980790E-05  0.2332243E+04  0.7818609E-02  0.8465316E-01
       -1   -1    0    0    0  501  0.00000000000E+00  0.00000000000E+00  0.13817223595E+04  0.13817223595E+04  0.50400001928E-02 0. -1.
        1   -1    0    0  501    0  0.00000000000E+00  0.00000000000E+00 -0.98416256294E+03  0.98416256295E+03  0.50400001928E-02 0.  1.
    10030    2    1    2    0    0  0.00000000000E+00  0.00000000000E+00  0.39755979657E+03  0.23658849225E+04  0.23322430565E+04 0.  0.
        5    1    3    3  502    0 -0.38165490503E+03  0.52877998172E+03  0.11794450704E+04  0.13477319836E+04  0.46999998093E+01 0. -1.
       -5    1    3    3    0  502  0.38165490503E+03 -0.52877998172E+03 -0.78188527378E+03  0.10181529389E+04  0.46999998093E+01 0.  1.
</event>
<event>
 5   0  0.2793920E-05  0.2520912E+04  0.7818609E-02  0.8395573E-01
        1   -1    0    0  501    0  0.00000000000E+00  0.00000000000E+00  0.96610723850E+03  0.96610723851E+03  0.50400001928E-02 0.  1.
       -1   -1    0    0    0  501  0.00000000000E+00  0.00000000000E+00 -0.16444850390E+04  0.16444850390E+04  0.50400001928E-02 0. -1.
    10030    2    1    2    0    0  0.00000000000E+00  0.00000000000E+00 -0.67837780046E+03  0.26105922775E+04  0.25209116603E+04 0.  0.
        2    1    3    3  502    0  0.27670039812E+03  0.10732973545E+04  0.28234450553E+03  0.11437870175E+04  0.25500000920E-02 0.  1.
       -2    1    3    3    0  502 -0.27670039812E+03 -0.10732973545E+04 -0.96072230600E+03  0.14668052600E+04  0.25500000920E-02 0. -1.
</event>
<event>
 5   0  0.2793920E-05  0.2748057E+04  0.7818609E-02  0.8319579E-01
        1   -1    0    0  501    0  0.00000000000E+00  0.00000000000E+00  0.12388215776E+04  0.12388215776E+04  0.50400001928E-02 0. -1.
       -1   -1    0    0    0  501  0.00000000000E+00  0.00000000000E+00 -0.15239919135E+04  0.15239919136E+04  0.50400001928E-02 0.  1.
    10030    2    1    2    0    0  0.00000000000E+00  0.00000000000E+00 -0.28517033596E+03  0.27628134911E+04  0.27480568164E+04 0.  0.
        2    1    3    3  502    0  0.15259576362E+03  0.70633180723E+03 -0.13175197521E+04  0.15026804005E+04  0.25500000920E-02 0.  1.
       -2    1    3    3    0  502 -0.15259576362E+03 -0.70633180723E+03  0.10323494161E+04  0.12601330906E+04  0.25500000920E-02 0. -1.
</event>
<event>
 5   0  0.2793920E-05  0.2225132E+04  0.7818609E-02  0.8508040E-01
        1   -1    0    0  501    0  0.00000000000E+00  0.00000000000E+00  0.49125594402E+03  0.49125594405E+03  0.50400001928E-02 0.  1.
       -1   -1    0    0    0  501  0.00000000000E+00  0.00000000000E+00 -0.25196700380E+04  0.25196700380E+04  0.50400001928E-02 0. -1.
    10030    2    1    2    0    0  0.00000000000E+00  0.00000000000E+00 -0.20284140940E+04  0.30109259821E+04  0.22251318012E+04 0.  0.
        2    1    3    3  502    0  0.31406933510E+03 -0.10598169300E+04 -0.84330632841E+03  0.13903298299E+04  0.25500000920E-02 0.  1.
       -2    1    3    3    0  502 -0.31406933510E+03  0.10598169300E+04 -0.11851077656E+04  0.16205961522E+04  0.25500000920E-02 0. -1.
</event>
<event>
 5   0  0.6445331E-05  0.2577345E+04  0.7818609E-02  0.8375937E-01
        2   -1    0    0  501    0  0.00000000000E+00  0.00000000000E+00  0.18621186121E+04  0.18621186121E+04  0.25500000920E-02 0.  1.
       -2   -1    0    0    0  501  0.00000000000E+00  0.00000000000E+00 -0.89182124884E+03  0.89182124884E+03  0.25500000920E-02 0. -1.
    10030    2    1    2    0    0  0.00000000000E+00  0.00000000000E+00  0.97029736326E+03  0.27539398609E+04  0.25773451039E+04 0.  0.
        1    1    3    3  502    0  0.67126909037E+03  0.10294685944E+04  0.70942268877E+02  0.12310323246E+04  0.50400001928E-02 0. -1.
       -1    1    3    3    0  502 -0.67126909037E+03 -0.10294685944E+04  0.89935509438E+03  0.15229075364E+04  0.50400001928E-02 0.  1.
</event>
<event>
 5   0  0.2980790E-05  0.2499535E+04  0.7818609E-02  0.8403151E-01
       -1   -1    0    0    0  501  0.00000000000E+00  0.00000000000E+00  0.71019678676E+03  0.71019678678E+03  0.50400001928E-02 0. -1.
        1   -1    0    0  501    0  0.00000000000E+00  0.00000000000E+00 -0.21992756402E+04  0.21992756403E+04  0.50400001928E-02 0.  1.
    10030    2    1    2    0    0  0.00000000000E+00  0.00000000000E+00 -0.14890788535E+04  0.29094724270E+04  0.24995347511E+04 0.  0.
        5    1    3    3  502    0  0.59425991117E+03  0.62133555835E+03  0.31124231791E+03  0.91438317381E+03  0.46999998093E+01 0. -1.
       -5    1    3    3    0  502 -0.59425991117E+03 -0.62133555835E+03 -0.18003211714E+04  0.19950892532E+04  0.46999998093E+01 0.  1.
</event>
<event>
 5   0  0.2793920E-05  0.2503711E+04  0.7818609E-02  0.8401665E-01
       -1   -1    0    0    0  501  0.00000000000E+00  0.00000000000E+00  0.87818846670E+03  0.87818846671E+03  0.50400001928E-02 0.  1.
        1   -1    0    0  501    0  0.00000000000E+00  0.00000000000E+00 -0.17845163014E+04  0.17845163014E+04  0.50400001928E-02 0. -1.
    10030    2    1    2    0    0  0.00000000000E+00  0.00000000000E+00 -0.90632783471E+03  0.26627047681E+04  0.25037105540E+04 0.  0.
        2    1    3    3  502    0 -0.10519893033E+04  0.67404816415E+03 -0.53635689549E+03  0.13596694970E+04  0.25500000920E-02 0. -1.
       -2    1    3    3    0  502  0.10519893033E+04 -0.67404816415E+03 -0.36997093922E+03  0.13030352711E+04  0.25500000920E-02 0.  1.
</event>
<event>
 5   0  0.2977854E-05  0.1676156E+04  0.7818609E-02  0.8775082E-01
       -1   -1    0    0    0  501  0.00000000000E+00  0.00000000000E+00  0.37976167433E+03  0.37976167437E+03  0.50400001928E-02 0. -1.
        1   -1    0    0  501    0  0.00000000000E+00  0.00000000000E+00 -0.18495140670E+04  0.18495140670E+04  0.50400001928E-02 0.  1.
    10030    2    1    2    0    0  0.00000000000E+00  0.00000000000E+00 -0.14697523927E+04  0.22292757414E+04  0.16761557909E+04 0.  0.
        1    1    3    3  502    0  0.21154104861E+03 -0.37858201842E+03 -0.16886775256E+04  0.17434751921E+04  0.50400001928E-02 0.  1.
       -1    1    3    3    0  502 -0.21154104861E+03  0.37858201842E+03  0.21892513287E+03  0.48580054935E+03  0.50400001928E-02 0. -1.
</event>
<event>
 5   0  0.7071821E-05  0.2104041E+04  0.7818609E-02  0.8559465E-01
       -2   -1    0    0    0  501  0.00000000000E+00  0.00000000000E+00  0.10254407163E+04  0.10254407163E+04  0.25500000920E-02 0. -1.
        2   -1    0    0  501    0  0.00000000000E+00  0.00000000000E+00 -0.10792894231E+04  0.10792894231E+04  0.25500000920E-02 0.  1.
    10030    2    1    2    0    0  0.00000000000E+00  0.00000000000E+00 -0.53848706774E+02  0.21047301393E+04  0.21040411774E+04 0.  0.
        5    1    3    3  502    0  0.96687553681E+03 -0.66420859302E+02  0.38243476123E+03  0.10418917750E+04  0.46999998093E+01 0. -1.
       -5    1    3    3    0  502 -0.96687553681E+03  0.66420859302E+02 -0.43628346801E+03  0.10628383643E+04  0.46999998093E+01 0.  1.
</event>
<event>
 5   0  0.7071821E-05  0.2472039E+04  0.7818609E-02  0.8413015E-01
       -2   -1    0    0    0  501  0.00000000000E+00  0.00000000000E+00  0.11355101794E+04  0.11355101794E+04  0.25500000920E-02 0.  1.
        2   -1    0    0  501    0  0.00000000000E+00  0.00000000000E+00 -0.13454258593E+04  0.13454258593E+04  0.25500000920E-02 0. -1.
    10030    2    1    2    0    0  0.00000000000E+00  0.00000000000E+00 -0.20991567992E+03  0.24809360387E+04  0.24720394486E+04 0.  0.
        5    1    3    3  502    0  0.31027024446E+03 -0.61736883807E+03 -0.11334928489E+04  0.13274938928E+04  0.46999998093E+01 0. -1.
       -5    1    3    3    0  502 -0.31027024446E+03  0.61736883807E+03  0.92357716902E+03  0.11534421459E+04  0.46999998093E+01 0.  1.
</event>
<event>
 5   0  0.6909250E-05  0.2592152E+04  0.7818609E-02  0.8370872E-01
       -2   -1    0    0    0  501  0.00000000000E+00  0.00000000000E+00  0.81355697019E+03  0.81355697019E+03  0.25500000920E-02 0.  1.
        2   -1    0    0  501    0  0.00000000000E+00  0.00000000000E+00 -0.20647766092E+04  0.20647766092E+04  0.25500000920E-02 0. -1.
    10030    2    1    2    0    0  0.00000000000E+00  0.00000000000E+00 -0.12512196391E+04  0.28783335794E+04  0.25921523121E+04 0.  0.
        4    1    3    3  502    0  0.18300426296E+03  0.12339701547E+04 -0.23516636166E+03  0.12694399290E+04  0.12699999809E+01 0.  1.
       -4    1    3    3    0  502 -0.18300426296E+03 -0.12339701547E+04 -0.10160532774E+04  0.16088936504E+04  0.12699999809E+01 0. -1.
</event>
<event>
 5   0  0.2980790E-05  0.2145594E+04  0.7818609E-02  0.8541420E-01
        1   -1    0    0  501    0  0.00000000000E+00  0.00000000000E+00  0.10937936562E+04  0.10937936562E+04  0.50400001928E-02 0. -1.
       -1   -1    0    0    0  501  0.00000000000E+00  0.00000000000E+00 -0.10522038331E+04  0.10522038331E+04  0.50400001928E-02 0.  1.
    10030    2    1    2    0    0  0.00000000000E+00  0.00000000000E+00  0.41589823167E+02  0.21459974893E+04  0.21455944423E+04 0.  0.
        5    1    3    3  502    0 -0.16307305866E+03 -0.95813395173E+03 -0.43344708752E+03  0.10641954518E+04  0.46999998093E+01 0.  1.
       -5    1    3    3    0  502  0.16307305866E+03  0.95813395173E+03  0.47503691068E+03  0.10818020375E+04  0.46999998093E+01 0. -1.
</event>
<event>
 5   0  0.6648328E-05  0.2514096E+04  0.7818609E-02  0.8397981E-01
        2   -1    0    0  501    0  0.00000000000E+00  0.00000000000E+00  0.15086331760E+04  0.15086331760E+04  0.25500000920E-02 0.  1.
       -2   -1    0    0    0  501  0.00000000000E+00  0.00000000000E+00 -0.10474181896E+04  0.10474181896E+04  0.25500000920E-02 0. -1.
    10030    2    1    2    0    0  0.00000000000E+00  0.00000000000E+00  0.46121498643E+03  0.25560513656E+04  0.25140961238E+04 0.  0.
        2    1    3    3  502    0  0.11292157765E+04  0.34543955657E+03 -0.20752850422E+03  0.11989682386E+04  0.25500000920E-02 0. -1.
       -2    1    3    3    0  502 -0.11292157765E+04 -0.34543955657E+03  0.66874349066E+03  0.13570831270E+04  0.25500000920E-02 0.  1.
</event>
<event>
 5   0  0.2793920E-05  0.2048914E+04  0.7818609E-02  0.8584087E-01
        1   -1    0    0  501    0  0.00000000000E+00  0.00000000000E+00  0.78099427974E+03  0.78099427975E+03  0.50400001928E-02 0.  1.
       -1   -1    0    0    0  501  0.00000000000E+00  0.00000000000E+00 -0.13438148555E+04  0.13438148555E+04  0.50400001928E-02 0. -1.
    10030    2    1    2    0    0  0.00000000000E+00  0.00000000000E+00 -0.56282057580E+03  0.21248091353E+04  0.20489135806E+04 0.  0.
        2    1    3    3  502    0 -0.67475284950E+03  0.67852862473E+03 -0.66077376665E+03  0.11628905680E+04  0.25500000920E-02 0. -1.
       -2    1    3    3    0  502  0.67475284950E+03 -0.67852862473E+03  0.97953190855E+02  0.96191856728E+03  0.25500000920E-02 0.  1.
</event>
<event>
 5   0  0.6648328E-05  0.1931822E+04  0.7818609E-02  0.8639177E-01
       -2   -1    0    0    0  501  0.00000000000E+00  0.00000000000E+00  0.46662357567E+03  0.46662357568E+03  0.25500000920E-02 0.  1.
        2   -1    0    0  501    0  0.00000000000E+00  0.00000000000E+00 -0.19994367517E+04  0.19994367517E+04  0.25500000920E-02 0. -1.
    10030    2    1    2    0    0  0.00000000000E+00  0.00000000000E+00 -0.15328131760E+04  0.24660603274E+04  0.19318222759E+04 0.  0.
        2    1    3    3  502    0  0.71034556734E+03 -0.49417797468E+03 -0.21855908843E+03  0.89250813489E+03  0.25500000920E-02 0.  1.
       -2    1    3    3    0  502 -0.71034556734E+03  0.49417797468E+03 -0.13142540876E+04  0.15735521925E+04  0.25500000920E-02 0. -1.
</event>
<event>
 5   0  0.2980790E-05  0.2388540E+04  0.7818609E-02  0.8443807E-01
        1   -1    0    0  501    0  0.00000000000E+00  0.00000000000E+00  0.17137621927E+04  0.17137621927E+04  0.50400001928E-02 0. -1.
       -1   -1    0    0    0  501  0.00000000000E+00  0.00000000000E+00 -0.83225116516E+03  0.83225116517E+03  0.50400001928E-02 0.  1.
    10030    2    1    2    0    0  0.00000000000E+00  0.00000000000E+00  0.88151102755E+03  0.25460133579E+04  0.23885397897E+04 0.  0.
        5    1    3    3  502    0 -0.92557838958E+03  0.17977712706E+01 -0.36369234814E+03  0.99448117193E+03  0.46999998093E+01 0.  1.
       -5    1    3    3    0  502  0.92557838958E+03 -0.17977712706E+01  0.12452033757E+04  0.15515321860E+04  0.46999998093E+01 0. -1.
</event>
<event>
 5   0  0.6909250E-05  0.2509443E+04  0.7818609E-02  0.8399629E-01
       -2   -1    0    0    0  501  0.00000000000E+00  0.00000000000E+00  0.77509036669E+03  0.77509036670E+03  0.25500000920E-02 0. -1.
        2   -1    0    0  501    0  0.00000000000E+00  0.00000000000E+00 -0.20311510515E+04  0.20311510515E+04  0.25500000920E-02 0.  1.
    10030    2    1    2    0    0  0.00000000000E+00  0.00000000000E+00 -0.12560606848E+04  0.28062414182E+04  0.25094426579E+04 0.  0.
        4    1    3    3  502    0 -0.10788313223E+04  0.62354547014E+03 -0.79252680572E+03  0.14767485656E+04  0.12699999809E+01 0. -1.
       -4    1    3    3    0  502  0.10788313223E+04 -0.62354547014E+03 -0.46353387910E+03  0.13294928526E+04  0.12699999809E+01 0.  1.
</event>
<event>
 5   0  0.2977854E-05  0.2497474E+04  0.7818609E-02  0.8403886E-01
       -1   -1    0    0    0  501  0.00000000000E+00  0.00000000000E+00  0.78302481879E+03  0.78302481881E+03  0.50400001928E-02 0. -1.
        1   -1    0    0  501    0  0.00000000000E+00  0.00000000000E+00 -0.19914361281E+04  0.19914361281E+04  0.50400001928E-02 0.  1.
    10030    2    1    2    0    0  0.00000000000E+00  0.00000000000E+00 -0.12084113093E+04  0.27744609469E+04  0.24974738544E+04 0.  0.
        1    1    3    3  502    0  0.11460046924E+04 -0.42112044980E+03 -0.31308291458E+03  0.12604325050E+04  0.50400001928E-02 0. -1.
       -1    1    3    3    0  502 -0.11460046924E+04  0.42112044980E+03 -0.89532839468E+03  0.15140284418E+04  0.50400001928E-02 0.  1.
</event>
<event>
 5   0  0.2980790E-05  0.1323282E+04  0.7818609E-02  0.9011304E-01
       -1   -1    0    0    0  501  0.00000000000E+00  0.00000000000E+00  0.10969150201E+04  0.10969150201E+04  0.50400001928E-02 0. -1.
        1   -1    0    0  501    0  0.00000000000E+00  0.00000000000E+00 -0.39909080406E+03  0.39909080410E+03  0.50400001928E-02 0.  1.
    10030    2    1    2    0    0  0.00000000000E+00  0.00000000000E+00  0.69782421604E+03  0.14960058242E+04  0.13232818255E+04 0.  0.
        5    1    3    3  502    0 -0.35751456321E+03  0.11113227300E+03 -0.26780001685E+03  0.46033247119E+03  0.46999998093E+01 0.  1.
       -5    1    3    3    0  502  0.35751456321E+03 -0.11113227300E+03  0.96562423290E+03  0.10356733530E+04  0.46999998093E+01 0. -1.
</event>
<event>
 5   0  0.2977854E-05  0.2492823E+04  0.7818609E-02  0.8405547E-01
        1   -1    0    0  501    0  0.00000000000E+00  0.00000000000E+00  0.13313263788E+04  0.13313263788E+04  0.50400001928E-02 0.  1.
       -1   -1    0    0    0  501  0.00000000000E+00  0.00000000000E+00 -0.11669130095E+04  0.11669130095E+04  0.50400001928E-02 0. -1.
    10030    2    1    2    0    0  0.00000000000E+00  0.00000000000E+00  0.16441336934E+03  0.24982393883E+04  0.24928233562E+04 0.  0.
        1    1    3    3  502    0 -0.67690002656E+02 -0.10088155134E+04  0.81266020748E+03  0.12971920788E+04  0.50400001928E-02 0. -1.
       -1    1    3    3    0  502  0.67690002656E+02  0.10088155134E+04 -0.64824683814E+03  0.12010473095E+04  0.50400001928E-02 0.  1.
</event>
<event>
 5   0  0.6648328E-05  0.2413804E+04  0.7818609E-02  0.8434353E-01
       -2   -1    0    0    0  501  0.00000000000E+00  0.00000000000E+00  0.86271770931E+03  0.86271770932E+03  0.25500000920E-02 0. -1.
        2   -1    0    0  501    0  0.00000000000E+00  0.00000000000E+00 -0.16884002311E+04  0.16884002311E+04  0.25500000920E-02 0.  1.
    10030    2    1    2    0    0  0.00000000000E+00  0.00000000000E+00 -0.82568252182E+03  0.25511179404E+04  0.24138042835E+04 0.  0.
        2    1    3    3  502    0  0.85612944072E+02 -0.57826807531E+03  0.70310773202E+03  0.91437630435E+03  0.25500000920E-02 0. -1.
       -2    1    3    3    0  502 -0.85612944072E+02  0.57826807531E+03 -0.15287902538E+04  0.16367416361E+04  0.25500000920E-02 0.  1.
</event>
<event>
 5   0  0.6827859E-05  0.2541581E+04  0.7818609E-02  0.8388320E-01
        2   -1    0    0  501    0  0.00000000000E+00  0.00000000000E+00  0.13340607698E+04  0.13340607698E+04  0.25500000920E-02 0.  1.
       -2   -1    0    0    0  501  0.00000000000E+00  0.00000000000E+00 -0.12105210844E+04  0.12105210844E+04  0.25500000920E-02 0. -1.
    10030    2    1    2    0    0  0.00000000000E+00  0.00000000000E+00  0.12353968546E+03  0.25445818542E+04  0.25415811533E+04 0.  0.
        3    1    3    3  502    0  0.95089888690E+03  0.27351261451E+03  0.86013895727E+03  0.13110518218E+04  0.10100000352E+00 0.  1.
       -3    1    3    3    0  502 -0.95089888690E+03 -0.27351261451E+03 -0.73659927181E+03  0.12335300324E+04  0.10100000352E+00 0. -1.
</event>
<event>
 5   0  0.2980790E-05  0.2912682E+04  0.7818609E-02  0.8269114E-01
        1   -1    0    0  501    0  0.00000000000E+00  0.00000000000E+00  0.18904489830E+04  0.18904489830E+04  0.50400001928E-02 0.  1.
       -1   -1    0    0    0  501  0.00000000000E+00  0.00000000000E+00 -0.11219185055E+04  0.11219185055E+04  0.50400001928E-02 0. -1.
    10030    2    1    2    0    0  0.00000000000E+00  0.00000000000E+00  0.76853047747E+03  0.30123674886E+04  0.29126824048E+04 0.  0.
        5    1    3    3  502    0 -0.13723192718E+04  0.20689963064E+03 -0.72248490616E+02  0.13897156454E+04  0.46999998093E+01 0. -1.
       -5    1    3    3    0  502  0.13723192718E+04 -0.20689963064E+03  0.84077896809E+03  0.16226518431E+04  0.46999998093E+01 0.  1.
</event>
<event>
 5   0  0.7071821E-05  0.2498867E+04  0.7818609E-02  0.8403389E-01
        2   -1    0    0  501    0  0.00000000000E+00  0.00000000000E+00  0.16939080756E+04  0.16939080756E+04  0.25500000920E-02 0.  1.
       -2   -1    0    0    0  501  0.00000000000E+00  0.00000000000E+00 -0.92158688168E+03  0.92158688169E+03  0.25500000920E-02 0. -1.
    10030    2    1    2    0    0  0.00000000000E+00  0.00000000000E+00  0.77232119396E+03  0.26154949573E+04  0.24988665121E+04 0.  0.
        5    1    3    3  502    0  0.47599505005E+03 -0.34388364439E+03 -0.76814133345E+03  0.96689732997E+03  0.46999998093E+01 0. -1.
       -5    1    3    3    0  502 -0.47599505005E+03  0.34388364439E+03  0.15404625274E+04  0.16485976274E+04  0.46999998093E+01 0.  1.
</event>
<event>
 5   0  0.7071821E-05  0.2498244E+04  0.7818609E-02  0.8403611E-01
        2   -1    0    0  501    0  0.00000000000E+00  0.00000000000E+00  0.21454172170E+04  0.21454172170E+04  0.25500000920E-02 0.  1.
       -2   -1    0    0    0  501  0.00000000000E+00  0.00000000000E+00 -0.72727405740E+03  0.72727405741E+03  0.25500000920E-02 0. -1.
    10030    2    1    2    0    0  0.00000000000E+00  0.00000000000E+00  0.14181431596E+04  0.28726912744E+04  0.24982444110E+04 0.  0.
        5    1    3    3  502    0  0.68904048500E+03  0.29319220561E+03 -0.44055121367E+03  0.86881869298E+03  0.46999998093E+01 0. -1.
       -5    1    3    3    0  502 -0.68904048500E+03 -0.29319220561E+03  0.18586943733E+04  0.20038725814E+04  0.46999998093E+01 0.  1.
</event>
<event>
 5   0  0.7071821E-05  0.2438593E+04  0.7818609E-02  0.8425195E-01
       -2   -1    0    0    0  501  0.00000000000E+00  0.00000000000E+00  0.10218144310E+04  0.10218144310E+04  0.25500000920E-02 0. -1.
        2   -1    0    0  501    0  0.00000000000E+00  0.00000000000E+00 -0.14549452252E+04  0.14549452252E+04  0.25500000920E-02 0.  1.
    10030    2    1    2    0    0  0.00000000000E+00  0.00000000000E+00 -0.43313079413E+03  0.24767596562E+04  0.24385930595E+04 0.  0.
        5    1    3    3  502    0 -0.80085390625E+03 -0.48580465893E+03 -0.10093516777E+04  0.13770207134E+04  0.46999998093E+01 0.  1.
       -5    1    3    3    0  502  0.80085390625E+03  0.48580465893E+03  0.57622088354E+03  0.10997389428E+04  0.46999998093E+01 0. -1.
</event>
<event>
 5   0  0.2977854E-05  0.2519086E+04  0.7818609E-02  0.8396218E-01
        1   -1    0    0  501    0  0.00000000000E+00  0.00000000000E+00  0.21017722249E+04  0.21017722249E+04  0.50400001928E-02 0. -1.
       -1   -1    0    0    0  501  0.00000000000E+00  0.00000000000E+00 -0.75481440931E+03  0.75481440932E+03  0.50400001928E-02 0.  1.
    10030    2    1    2    0    0  0.00000000000E+00  0.00000000000E+00  0.13469578156E+04  0.28565866342E+04  0.25190855170E+04 0.  0.
        1    1    3    3  502    0 -0.83739787041E+03 -0.61918466671E+03  0.14767827052E+04  0.18070727720E+04  0.50400001928E-02 0.  1.
       -1    1    3    3    0  502  0.83739787041E+03  0.61918466671E+03 -0.12982488969E+03  0.10495138622E+04  0.50400001928E-02 0. -1.
</event>
<event>
 5   0  0.6909250E-05  0.2462323E+04  0.7818609E-02  0.8416533E-01
       -2   -1    0    0    0  501  0.00000000000E+00  0.00000000000E+00  0.96715321467E+03  0.96715321467E+03  0.25500000920E-02 0.  1.
        2   -1    0    0  501    0  0.00000000000E+00  0.00000000000E+00 -0.15672368117E+04  0.15672368117E+04  0.25500000920E-02 0. -1.
    10030    2    1    2    0    0  0.00000000000E+00  0.00000000000E+00 -0.60008359699E+03  0.25343900263E+04  0.24623225788E+04 0.  0.
        4    1    3    3  502    0 -0.81298944215E+03  0.46152289742E+03 -0.11246142024E+04  0.14624342498E+04  0.12699999809E+01 0. -1.
       -4    1    3    3    0  502  0.81298944215E+03 -0.46152289742E+03  0.52453060541E+03  0.10719557765E+04  0.12699999809E+01 0.  1.
</event>
<event>
 5   0  0.2977854E-05  0.2512088E+04  0.7818609E-02  0.8398692E-01
        1   -1    0    0  501    0  0.00000000000E+00  0.00000000000E+00  0.22236641124E+04  0.22236641125E+04  0.50400001928E-02 0.  1.
       -1   -1    0    0    0  501  0.00000000000E+00  0.00000000000E+00 -0.70948046894E+03  0.70948046896E+03  0.50400001928E-02 0. -1.
    10030    2    1    2    0    0  0.00000000000E+00  0.00000000000E+00  0.15141836435E+04  0.29331445814E+04  0.25120877829E+04 0.  0.
        1    1    3    3  502    0  0.90969526360E+02 -0.11557853468E+04  0.19284260977E+03  0.11752886857E+04  0.50400001928E-02 0. -1.
       -1    1    3    3    0  502 -0.90969526360E+02  0.11557853468E+04  0.13213410337E+04  0.17578558957E+04  0.50400001928E-02 0.  1.
</event>
<event>
 5   0  0.2777539E-05  0.2502505E+04  0.7818609E-02  0.8402094E-01
        1   -1    0    0  501    0  0.00000000000E+00  0.00000000000E+00  0.10745555902E+04  0.10745555903E+04  0.50400001928E-02 0.  1.
       -1   -1    0    0    0  501  0.00000000000E+00  0.00000000000E+00 -0.14570048245E+04  0.14570048245E+04  0.50400001928E-02 0. -1.
    10030    2    1    2    0    0  0.00000000000E+00  0.00000000000E+00 -0.38244923426E+03  0.25315604148E+04  0.25025048885E+04 0.  0.
        3    1    3    3  502    0 -0.80742312300E+03  0.60901102688E+03 -0.93653253808E+03  0.13783757599E+04  0.10100000352E+00 0. -1.
       -3    1    3    3    0  502  0.80742312300E+03 -0.60901102688E+03  0.55408330383E+03  0.11531846549E+04  0.10100000352E+00 0.  1.
</event>
<event>
 5   0  0.2793920E-05  0.2512498E+04  0.7818609E-02  0.8398547E-01
        1   -1    0    0  501    0  0.00000000000E+00  0.00000000000E+00  0.15665066962E+04  0.15665066962E+04  0.50400001928E-02 0.  1.
       -1   -1    0    0    0  501  0.00000000000E+00  0.00000000000E+00 -0.10074399825E+04  0.10074399825E+04  0.50400001928E-02 0. -1.
    10030    2    1    2    0    0  0.00000000000E+00  0.00000000000E+00  0.55906671371E+03  0.25739466788E+04  0.25124979432E+04 0.  0.
        2    1    3    3  502    0 -0.10642231999E+04 -0.11609954188E+03  0.95296213406E+03  0.14332435075E+04  0.25500000920E-02 0.  1.
       -2    1    3    3    0  502  0.10642231999E+04  0.11609954188E+03 -0.39389542035E+03  0.11407031713E+04  0.25500000920E-02 0. -1.
</event>
<event>
 5   0  0.6909250E-05  0.2449833E+04  0.7818609E-02  0.8421079E-01
        2   -1    0    0  501    0  0.00000000000E+00  0.00000000000E+00  0.11462674194E+04  0.11462674194E+04  0.25500000920E-02 0.  1.
       -2   -1    0    0    0  501  0.00000000000E+00  0.00000000000E+00 -0.13089619315E+04  0.13089619315E+04  0.25500000920E-02 0. -1.
    10030    2    1    2    0    0  0.00000000000E+00  0.00000000000E+00 -0.16269451208E+03  0.24552293508E+04  0.24498329863E+04 0.  0.
        4    1    3    3  502    0  0.60957633784E+03 -0.23415905274E+03  0.95727768327E+03  0.11587907272E+04  0.12699999809E+01 0.  1.
       -4    1    3    3    0  502 -0.60957633784E+03  0.23415905274E+03 -0.11199721954E+04  0.12964386237E+04  0.12699999809E+01 0. -1.
</event>
<event>
 5   0  0.2896652E-05  0.2313910E+04  0.7818609E-02  0.8472457E-01
       -1   -1    0    0    0  501  0.00000000000E+00  0.00000000000E+00  0.12266019728E+04  0.12266019728E+04  0.50400001928E-02 0. -1.
        1   -1    0    0  501    0  0.00000000000E+00  0.00000000000E+00 -0.10912630185E+04  0.10912630185E+04  0.50400001928E-02 0.  1.
    10030    2    1    2    0    0  0.00000000000E+00  0.00000000000E+00  0.13533895435E+03  0.23178649913E+04  0.23139104316E+04 0.  0.
        4    1    3    3  502    0  0.10542894445E+04 -0.26930669771E+03 -0.32605624308E+03  0.11359430517E+04  0.12699999809E+01 0. -1.
       -4    1    3    3    0  502 -0.10542894445E+04  0.26930669771E+03  0.46139519743E+03  0.11819219396E+04  0.12699999809E+01 0.  1.
</event>
<event>
 5   0  0.2777539E-05  0.2523833E+04  0.7818609E-02  0.8394544E-01
        1   -1    0    0  501    0  0.00000000000E+00  0.00000000000E+00  0.18042412460E+04  0.18042412460E+04  0.50400001928E-02 0. -1.
       -1   -1    0    0    0  501  0.00000000000E+00  0.00000000000E+00 -0.88260554711E+03  0.88260554712E+03  0.50400001928E-02 0.  1.
    10030    2    1    2    0    0  0.00000000000E+00  0.00000000000E+00  0.92163569893E+03  0.26868467932E+04  0.25238330627E+04 0.  0.
        3    1    3    3  502    0  0.75705203922E+03  0.17142297938E+03  0.15200283073E+04  0.17067512101E+04  0.10100000352E+00 0. -1.
       -3    1    3    3    0  502 -0.75705203922E+03 -0.17142297938E+03 -0.59839260839E+03  0.98009558306E+03  0.10100000352E+00 0.  1.
</event>
<event>
 5   0  0.6445331E-05  0.2363914E+04  0.7818609E-02  0.8453138E-01
       -2   -1    0    0    0  501  0.00000000000E+00  0.00000000000E+00  0.11077134489E+04  0.11077134489E+04  0.25500000920E-02 0. -1.
        2   -1    0    0  501    0  0.00000000000E+00  0.00000000000E+00 -0.12611770363E+04  0.12611770363E+04  0.25500000920E-02 0.  1.
    10030    2    1    2    0    0  0.00000000000E+00  0.00000000000E+00 -0.15346358741E+03  0.23688904853E+04  0.23639143509E+04 0.  0.
        1    1    3    3  502    0 -0.22564364121E+03  0.45588295304E+03 -0.11458789923E+04  0.12537076951E+04  0.50400001928E-02 0.  1.
       -1    1    3    3    0  502  0.22564364121E+03 -0.45588295304E+03  0.99241540488E+03  0.11151827902E+04  0.50400001928E-02 0. -1.
</event>
<event>
 5   0  0.7071821E-05  0.2507502E+04  0.7818609E-02  0.8400318E-01
        2   -1    0    0  501    0  0.00000000000E+00  0.00000000000E+00  0.12226691010E+04  0.12226691010E+04  0.25500000920E-02 0.  1.
       -2   -1    0    0    0  501  0.00000000000E+00  0.00000000000E+00 -0.12856231196E+04  0.12856231196E+04  0.25500000920E-02 0. -1.
    10030    2    1    2    0    0  0.00000000000E+00  0.00000000000E+00 -0.62954018669E+02  0.25082922206E+04  0.25075020749E+04 0.  0.
        5    1    3    3  502    0  0.12089928553E+04 -0.27612201380E+00 -0.36355416728E+03  0.12624807020E+04  0.46999998093E+01 0.  1.
       -5    1    3    3    0  502 -0.12089928553E+04  0.27612201380E+00  0.30060014861E+03  0.12458115186E+04  0.46999998093E+01 0. -1.
</event>
<event>
 5   0  0.2896652E-05  0.2500621E+04  0.7818609E-02  0.8402764E-01
       -1   -1    0    0    0  501  0.00000000000E+00  0.00000000000E+00  0.10435011763E+04  0.10435011763E+04  0.50400001928E-02 0. -1.
        1   -1    0    0  501    0  0.00000000000E+00  0.00000000000E+00 -0.14981074444E+04  0.14981074445E+04  0.50400001928E-02 0.  1.
    10030    2    1    2    0    0  0.00000000000E+00  0.00000000000E+00 -0.45460626818E+03  0.25416086207E+04  0.25006214271E+04 0.  0.
        4    1    3    3  502    0 -0.98568380356E+03  0.61275561319E+03  0.24532762259E+03  0.11862669419E+04  0.12699999809E+01 0.  1.
       -4    1    3    3    0  502  0.98568380356E+03 -0.61275561319E+03 -0.69993389077E+03  0.13553416789E+04  0.12699999809E+01 0. -1.
</event>
<event>
 5   0  0.6909250E-05  0.2521441E+04  0.7818609E-02  0.8395387E-01
       -2   -1    0    0    0  501  0.00000000000E+00  0.00000000000E+00  0.11041560328E+04  0.11041560328E+04  0.25500000920E-02 0.  1.
        2   -1    0    0  501    0  0.00000000000E+00  0.00000000000E+00 -0.14394847279E+04  0.14394847279E+04  0.25500000920E-02 0. -1.
    10030    2    1    2    0    0  0.00000000000E+00  0.00000000000E+00 -0.33532869511E+03  0.25436407606E+04  0.25214406567E+04 0.  0.
        4    1    3    3  502    0  0.19382663248E+03 -0.35583881378E+03  0.10366742481E+04  0.11130521706E+04  0.12699999809E+01 0.  1.
       -4    1    3    3    0  502 -0.19382663248E+03  0.35583881378E+03 -0.13720029432E+04  0.14305885900E+04  0.12699999809E+01 0. -1.
</event>
<event>
 5   0  0.6648328E-05  0.2067827E+04  0.7818609E-02  0.8575550E-01
       -2   -1    0    0    0  501  0.00000000000E+00  0.00000000000E+00  0.79133019084E+03  0.79133019084E+03  0.25500000920E-02 0.  1.
        2   -1    0    0  501    0  0.00000000000E+00  0.00000000000E+00 -0.13508614555E+04  0.13508614555E+04  0.25500000920E-02 0. -1.
    10030    2    1    2    0    0  0.00000000000E+00  0.00000000000E+00 -0.55953126467E+03  0.21421916464E+04  0.20678273172E+04 0.  0.
        2    1    3    3  502    0  0.64298830778E+03 -0.38089495085E+03  0.46039500605E+03  0.87776904088E+03  0.25500000920E-02 0.  1.
       -2    1    3    3    0  502 -0.64298830778E+03  0.38089495085E+03 -0.10199262707E+04  0.12644226055E+04  0.25500000920E-02 0. -1.
</event>
<event>
 5   0  0.2977854E-05  0.1292114E+04  0.7818609E-02  0.9035842E-01
        1   -1    0    0  501    0  0.00000000000E+00  0.00000000000E+00  0.59861340698E+03  0.59861340700E+03  0.50400001928E-02 0. -1.
       -1   -1    0    0    0  501  0.00000000000E+00  0.00000000000E+00 -0.69726119386E+03  0.69726119388E+03  0.50400001928E-02 0.  1.
    10030    2    1    2    0    0  0.00000000000E+00  0.00000000000E+00 -0.98647786885E+02  0.12958746009E+04  0.12921143894E+04 0.  0.
        1    1    3    3  502    0  0.63313285324E+03  0.12856071920E+03 -0.47119670881E+02  0.64776950513E+03  0.50400001928E-02 0. -1.
       -1    1    3    3    0  502 -0.63313285324E+03 -0.12856071920E+03 -0.51528116004E+02  0.64810509575E+03  0.50400001928E-02 0.  1.
</event>
<event>
 5   0  0.6648328E-05  0.1611376E+04  0.7818609E-02  0.8813590E-01
        2   -1    0    0  501    0  0.00000000000E+00  0.00000000000E+00  0.11714259311E+04  0.11714259311E+04  0.25500000920E-02 0. -1.
       -2   -1    0    0    0  501  0.00000000000E+00  0.00000000000E+00 -0.55413942566E+03  0.55413942567E+03  0.25500000920E-02 0.  1.
    10030    2    1    2    0    0  0.00000000000E+00  0.00000000000E+00  0.61728650548E+03  0.17255653568E+04  0.16113761730E+04 0.  0.
        2    1    3    3  502    0  0.50258515620E+03  0.39930590056E+03  0.83007421917E+03  0.10493141812E+04  0.25500000920E-02 0. -1.
       -2    1    3    3    0  502 -0.50258515620E+03 -0.39930590056E+03 -0.21278771369E+03  0.67625117564E+03  0.25500000920E-02 0.  1.
</event>
<event>
 5   0  0.2793920E-05  0.2507035E+04  0.7818609E-02  0.8400483E-01
        1   -1    0    0  501    0  0.00000000000E+00  0.00000000000E+00  0.22356154655E+04  0.22356154655E+04  0.50400001928E-02 0. -1.
       -1   -1    0    0    0  501  0.00000000000E+00  0.00000000000E+00 -0.70285181094E+03  0.70285181095E+03  0.50400001928E-02 0.  1.
    10030    2    1    2    0    0  0.00000000000E+00  0.00000000000E+00  0.15327636546E+04  0.29384672765E+04  0.25070352040E+04 0.  0.
        2    1    3    3  502    0 -0.47352392807E+03 -0.11045731449E+04  0.34868453131E+03  0.12513543244E+04  0.25500000920E-02 0.  1.
       -2    1    3    3    0  502  0.47352392807E+03  0.11045731449E+04  0.11840791232E+04  0.16871129520E+04  0.25500000920E-02 0. -1.
</event>
<event>
 5   0  0.2896652E-05  0.2233586E+04  0.7818609E-02  0.8504578E-01
        1   -1    0    0  501    0  0.00000000000E+00  0.00000000000E+00  0.96017909100E+03  0.96017909101E+03  0.50400001928E-02 0.  1.
       -1   -1    0    0    0  501  0.00000000000E+00  0.00000000000E+00 -0.12989519862E+04  0.12989519862E+04  0.50400001928E-02 0. -1.
    10030    2    1    2    0    0  0.00000000000E+00  0.00000000000E+00 -0.33877289519E+03  0.22591310772E+04  0.22335859396E+04 0.  0.
        4    1    3    3  502    0  0.65137670903E+03  0.64584688891E+03 -0.81370830768E+03  0.12261862191E+04  0.12699999809E+01 0. -1.
       -4    1    3    3    0  502 -0.65137670903E+03 -0.64584688891E+03  0.47493541250E+03  0.10329448581E+04  0.12699999809E+01 0.  1.
</event>
<event>
 5   0  0.6445331E-05  0.2549370E+04  0.7818609E-02  0.8385605E-01
        2   -1    0    0  501    0  0.00000000000E+00  0.00000000000E+00  0.23658887864E+04  0.23658887864E+04  0.25500000920E-02 0.  1.
       -2   -1    0    0    0  501  0.00000000000E+00  0.00000000000E+00 -0.68677016623E+03  0.68677016624E+03  0.25500000920E-02 0. -1.
    10030    2    1    2    0    0  0.00000000000E+00  0.00000000000E+00  0.16791186201E+04  0.30526589526E+04  0.25493699889E+04 0.  0.
        1    1    3    3  502    0 -0.95272932016E+03  0.53946157574E+03  0.57920305372E+02  0.10963880294E+04  0.50400001928E-02 0. -1.
       -1    1    3    3    0  502  0.95272932016E+03 -0.53946157574E+03  0.16211983148E+04  0.19562709232E+04  0.50400001928E-02 0.  1.
</event>
<event>
 5   0  0.6648328E-05  0.2508749E+04  0.7818609E-02  0.8399875E-01
        2   -1    0    0  501    0  0.00000000000E+00  0.00000000000E+00  0.17845394219E+04  0.17845394219E+04  0.25500000920E-02 0. -1.
       -2   -1    0    0    0  501  0.00000000000E+00  0.00000000000E+00 -0.88171501681E+03  0.88171501681E+03  0.25500000920E-02 0.  1.
    10030    2    1    2    0    0  0.00000000000E+00  0.00000000000E+00  0.90282440506E+03  0.26662544387E+04  0.25087488566E+04 0.  0.
        2    1    3    3  502    0  0.51423076546E+03  0.10919502988E+04  0.88403167362E+02  0.12102081868E+04  0.25500000920E-02 0. -1.
       -2    1    3    3    0  502 -0.51423076546E+03 -0.10919502988E+04  0.81442123770E+03  0.14560462519E+04  0.25500000920E-02 0.  1.
</event>
<event>
 5   0  0.2977854E-05  0.2484014E+04  0.7818609E-02  0.8408703E-01
       -1   -1    0    0    0  501  0.00000000000E+00  0.00000000000E+00  0.11226003745E+04  0.11226003745E+04  0.50400001928E-02 0. -1.
        1   -1    0    0  501    0  0.00000000000E+00  0.00000000000E+00 -0.13741139946E+04  0.13741139946E+04  0.50400001928E-02 0.  1.
    10030    2    1    2    0    0  0.00000000000E+00  0.00000000000E+00 -0.25151362009E+03  0.24967143691E+04  0.24840135949E+04 0.  0.
        1    1    3    3  502    0  0.10336357559E+04 -0.43796770710E+03  0.40833786138E+03  0.11945536394E+04  0.50400001928E-02 0. -1.
       -1    1    3    3    0  502 -0.10336357559E+04  0.43796770710E+03 -0.65985148147E+03  0.13021607297E+04  0.50400001928E-02 0.  1.
</event>
<event>
 5   0  0.2793920E-05  0.2551234E+04  0.7818609E-02  0.8384957E-01
       -1   -1    0    0    0  501  0.00000000000E+00  0.00000000000E+00  0.10710357796E+04  0.10710357796E+04  0.50400001928E-02 0.  1.
        1   -1    0    0  501    0  0.00000000000E+00  0.00000000000E+00 -0.15192758857E+04  0.15192758857E+04  0.50400001928E-02 0. -1.
    10030    2    1    2    0    0  0.00000000000E+00  0.00000000000E+00 -0.44824010613E+03  0.25903116653E+04  0.25512340799E+04 0.  0.
        2    1    3    3  502    0  0.85573468112E+03 -0.65845374125E+03 -0.91375560114E+03  0.14144937159E+04  0.25500000920E-02 0.  1.
       -2    1    3    3    0  502 -0.85573468112E+03  0.65845374125E+03  0.46551549502E+03  0.11758179493E+04  0.25500000920E-02 0. -1.
</event>
<event>
 5   0  0.6445331E-05  0.2537214E+04  0.7818609E-02  0.8389847E-01
        2   -1    0    0  501    0  0.00000000000E+00  0.00000000000E+00  0.17019343496E+04  0.17019343496E+04  0.25500000920E-02 0. -1.
       -2   -1    0    0    0  501  0.00000000000E+00  0.00000000000E+00 -0.94560837571E+03  0.94560837572E+03  0.25500000920E-02 0.  1.
    10030    2    1    2    0    0  0.00000000000E+00  0.00000000000E+00  0.75632597389E+03  0.26475427253E+04  0.25372137284E+04 0.  0.
        1    1    3    3  502    0 -0.95420711697E+03  0.38957325183E+03 -0.39365209901E+03  0.11032862347E+04  0.50400001928E-02 0. -1.
       -1    1    3    3    0  502  0.95420711697E+03 -0.38957325183E+03  0.11499780729E+04  0.15442564906E+04  0.50400001928E-02 0.  1.
</event>
<event>
 5   0  0.2793920E-05  0.2485271E+04  0.7818609E-02  0.8408252E-01
       -1   -1    0    0    0  501  0.00000000000E+00  0.00000000000E+00  0.15147717344E+04  0.15147717344E+04  0.50400001928E-02 0.  1.
        1   -1    0    0  501    0  0.00000000000E+00  0.00000000000E+00 -0.10193896640E+04  0.10193896640E+04  0.50400001928E-02 0. -1.
    10030    2    1    2    0    0  0.00000000000E+00  0.00000000000E+00  0.49538207041E+03  0.25341613984E+04  0.24852707292E+04 0.  0.
        2    1    3    3  502    0 -0.10969095892E+04 -0.14805082972E+03 -0.32823236678E+03  0.11544982380E+04  0.25500000920E-02 0. -1.
       -2    1    3    3    0  502  0.10969095892E+04  0.14805082972E+03  0.82361443719E+03  0.13796631604E+04  0.25500000920E-02 0.  1.
</event>
<event>
 5   0  0.2777539E-05  0.2535520E+04  0.7818609E-02  0.8390440E-01
       -1   -1    0    0    0  501  0.00000000000E+00  0.00000000000E+00  0.91430290476E+03  0.91430290477E+03  0.50400001928E-02 0.  1.
        1   -1    0    0  501    0  0.00000000000E+00  0.00000000000E+00 -0.17578586304E+04  0.17578586304E+04  0.50400001928E-02 0. -1.
    10030    2    1    2    0    0  0.00000000000E+00  0.00000000000E+00 -0.84355572562E+03  0.26721615352E+04  0.25355198693E+04 0.  0.
        3    1    3    3  502    0  0.89292955308E+03 -0.89449613298E+03 -0.52594112878E+03  0.13689633303E+04  0.10100000352E+00 0. -1.
       -3    1    3    3    0  502 -0.89292955308E+03  0.89449613298E+03 -0.31761459684E+03  0.13031982048E+04  0.10100000352E+00 0.  1.
</event>
<event>
 5   0  0.6909250E-05  0.2431881E+04  0.7818609E-02  0.8427664E-01
        2   -1    0    0  501    0  0.00000000000E+00  0.00000000000E+00  0.19598549601E+04  0.19598549601E+04  0.25500000920E-02 0. -1.
       -2   -1    0    0    0  501  0.00000000000E+00  0.00000000000E+00 -0.75439805727E+03  0.75439805727E+03  0.25500000920E-02 0.  1.
    10030    2    1    2    0    0  0.00000000000E+00  0.00000000000E+00  0.12054569029E+04  0.27142530174E+04  0.24318805682E+04 0.  0.
        4    1    3    3  502    0  0.66486500830E+03  0.63840060691E+03  0.14878476611E+04  0.17502265824E+04  0.12699999809E+01 0. -1.
       -4    1    3    3    0  502 -0.66486500830E+03 -0.63840060691E+03 -0.28239075824E+03  0.96402643501E+03  0.12699999809E+01 0.  1.
</event>
<event>
 5   0  0.6909250E-05  0.2400039E+04  0.7818609E-02  0.8439489E-01
        2   -1    0    0  501    0  0.00000000000E+00  0.00000000000E+00  0.12200805273E+04  0.12200805273E+04  0.25500000920E-02 0. -1.
       -2   -1    0    0    0  501  0.00000000000E+00  0.00000000000E+00 -0.11802885142E+04  0.11802885142E+04  0.25500000920E-02 0.  1.
    10030    2    1    2    0    0  0.00000000000E+00  0.00000000000E+00  0.39792013026E+02  0.24003690415E+04  0.24000391937E+04 0.  0.
        4    1    3    3  502    0  0.59706493858E+03 -0.34018040013E+03 -0.96402585041E+03  0.11838735991E+04  0.12699999809E+01 0.  1.
       -4    1    3    3    0  502 -0.59706493858E+03  0.34018040013E+03  0.10038178634E+04  0.12164954424E+04  0.12699999809E+01 0. -1.
</event>
<event>
 5   0  0.6909250E-05  0.2467678E+04  0.7818609E-02  0.8414592E-01
       -2   -1    0    0    0  501  0.00000000000E+00  0.00000000000E+00  0.94209734161E+03  0.94209734161E+03  0.25500000920E-02 0.  1.
        2   -1    0    0  501    0  0.00000000000E+00  0.00000000000E+00 -0.16159250763E+04  0.16159250763E+04  0.25500000920E-02 0. -1.
    10030    2    1    2    0    0  0.00000000000E+00  0.00000000000E+00 -0.67382773469E+03  0.25580224179E+04  0.24676780330E+04 0.  0.
        4    1    3    3  502    0  0.97565970979E+03  0.62928199079E+03 -0.76987669045E+03  0.13930611705E+04  0.12699999809E+01 0.  1.
       -4    1    3    3    0  502 -0.97565970979E+03 -0.62928199079E+03  0.96048955761E+02  0.11649612474E+04  0.12699999809E+01 0. -1.
</event>
<event>
 5   0  0.6827859E-05  0.2418637E+04  0.7818609E-02  0.8432559E-01
       -2   -1    0    0    0  501  0.00000000000E+00  0.00000000000E+00  0.11888026657E+04  0.11888026657E+04  0.25500000920E-02 0.  1.
        2   -1    0    0  501    0  0.00000000000E+00  0.00000000000E+00 -0.12301881680E+04  0.12301881680E+04  0.25500000920E-02 0. -1.
    10030    2    1    2    0    0  0.00000000000E+00  0.00000000000E+00 -0.41385502269E+02  0.24189908337E+04  0.24186367842E+04 0.  0.
        3    1    3    3  502    0  0.52398621511E+03 -0.76649989596E+03 -0.79563991076E+03  0.12227536636E+04  0.10100000352E+00 0. -1.
       -3    1    3    3    0  502 -0.52398621511E+03  0.76649989596E+03  0.75425440849E+03  0.11962371701E+04  0.10100000352E+00 0.  1.
</event>
<event>
 5   0  0.2977854E-05  0.1510638E+04  0.7818609E-02  0.8877409E-01
        1   -1    0    0  501    0  0.00000000000E+00  0.00000000000E+00  0.88838938512E+03  0.88838938514E+03  0.50400001928E-02 0. -1.
       -1   -1    0    0    0  501  0.00000000000E+00  0.00000000000E+00 -0.64218100793E+03  0.64218100795E+03  0.50400001928E-02 0.  1.
    10030    2    1    2    0    0  0.00000000000E+00  0.00000000000E+00  0.24620837720E+03  0.15305703931E+04  0.15106379987E+04 0.  0.
        1    1    3    3  502    0  0.53485822130E+03  0.22282697609E+03 -0.36783188406E+03  0.68631295567E+03  0.50400001928E-02 0.  1.
       -1    1    3    3    0  502 -0.53485822130E+03 -0.22282697609E+03  0.61404026125E+03  0.84425743742E+03  0.50400001928E-02 0. -1.
</event>
<event>
 5   0  0.6648328E-05  0.2935356E+04  0.7818609E-02  0.8262435E-01
        2   -1    0    0  501    0  0.00000000000E+00  0.00000000000E+00  0.19194890422E+04  0.19194890422E+04  0.25500000920E-02 0. -1.
       -2   -1    0    0    0  501  0.00000000000E+00  0.00000000000E+00 -0.11222148839E+04  0.11222148839E+04  0.25500000920E-02 0.  1.
    10030    2    1    2    0    0  0.00000000000E+00  0.00000000000E+00  0.79727415833E+03  0.30417039261E+04  0.29353563141E+04 0.  0.
        2    1    3    3  502    0 -0.12850540586E+04 -0.69182463978E+03  0.55948287938E+03  0.15630119507E+04  0.25500000920E-02 0. -1.
       -2    1    3    3    0  502  0.12850540586E+04  0.69182463978E+03  0.23779127895E+03  0.14786919754E+04  0.25500000920E-02 0.  1.
</event>
<event>
 5   0  0.6445331E-05  0.2492257E+04  0.7818609E-02  0.8405749E-01
        2   -1    0    0  501    0  0.00000000000E+00  0.00000000000E+00  0.14356843385E+04  0.14356843385E+04  0.25500000920E-02 0. -1.
       -2   -1    0    0    0  501  0.00000000000E+00  0.00000000000E+00 -0.10816003155E+04  0.10816003155E+04  0.25500000920E-02 0.  1.
    10030    2    1    2    0    0  0.00000000000E+00  0.00000000000E+00  0.35408402297E+03  0.25172846540E+04  0.24922573170E+04 0.  0.
        1    1    3    3  502    0 -0.18204988122E+03  0.91325087399E+03 -0.65932360899E+03  0.11409982206E+04  0.50400001928E-02 0.  1.
       -1    1    3    3    0  502  0.18204988122E+03 -0.91325087399E+03  0.10134076320E+04  0.13762864334E+04  0.50400001928E-02 0. -1.
</event>
<event>
 5   0  0.2793920E-05  0.1777877E+04  0.7818609E-02  0.8718153E-01
       -1   -1    0    0    0  501  0.00000000000E+00  0.00000000000E+00  0.11469499110E+04  0.11469499110E+04  0.50400001928E-02 0.  1.
        1   -1    0    0  501    0  0.00000000000E+00  0.00000000000E+00 -0.68896790410E+03  0.68896790412E+03  0.50400001928E-02 0. -1.
    10030    2    1    2    0    0  0.00000000000E+00  0.00000000000E+00  0.45798200692E+03  0.18359178151E+04  0.17778770220E+04 0.  0.
        2    1    3    3  502    0  0.19971964811E+03  0.84632028945E+03  0.41958543896E+03  0.96550396725E+03  0.25500000920E-02 0. -1.
       -2    1    3    3    0  502 -0.19971964811E+03 -0.84632028945E+03  0.38396567959E+02  0.87041384790E+03  0.25500000920E-02 0.  1.
</event>
<event>
 5   0  0.2793920E-05  0.2385526E+04  0.7818609E-02  0.8444942E-01
        1   -1    0    0  501    0  0.00000000000E+00  0.00000000000E+00  0.14413055067E+04  0.14413055067E+04  0.50400001928E-02 0.  1.
       -1   -1    0    0    0  501  0.00000000000E+00  0.00000000000E+00 -0.98707990021E+03  0.98707990022E+03  0.50400001928E-02 0. -1.
    10030    2    1    2    0    0  0.00000000000E+00  0.00000000000E+00  0.45422560645E+03  0.24283854069E+04  0.23855261019E+04 0.  0.
        2    1    3    3  502    0  0.10775467158E+04 -0.47315701912E+03  0.29461562934E+02  0.11772223551E+04  0.25500000920E-02 0. -1.
       -2    1    3    3    0  502 -0.10775467158E+04  0.47315701912E+03  0.42476404352E+03  0.12511630518E+04  0.25500000920E-02 0.  1.
</event>
<event>
 5   0  0.6445331E-05  0.2345965E+04  0.7818609E-02  0.8460015E-01
       -2   -1    0    0    0  501  0.00000000000E+00  0.00000000000E+00  0.12353008814E+04  0.12353008814E+04  0.25500000920E-02 0.  1.
        2   -1    0    0  501    0  0.00000000000E+00  0.00000000000E+00 -0.11138076942E+04  0.11138076942E+04  0.25500000920E-02 0. -1.
    10030    2    1    2    0    0  0.00000000000E+00  0.00000000000E+00  0.12149318716E+03  0.23491085756E+04  0.23459647281E+04 0.  0.
        1    1    3    3  502    0 -0.26307806754E+03  0.49209961202E+03 -0.97238968647E+03  0.11211216705E+04  0.50400001928E-02 0. -1.
       -1    1    3    3    0  502  0.26307806754E+03 -0.49209961202E+03  0.10938828736E+04  0.12279869051E+04  0.50400001928E-02 0.  1.
</event>
<event>
 5   0  0.6909250E-05  0.2458436E+04  0.7818609E-02  0.8417944E-01
        2   -1    0    0  501    0  0.00000000000E+00  0.00000000000E+00  0.12524404168E+04  0.12524404168E+04  0.25500000920E-02 0. -1.
       -2   -1    0    0    0  501  0.00000000000E+00  0.00000000000E+00 -0.12064261652E+04  0.12064261652E+04  0.25500000920E-02 0.  1.
    10030    2    1    2    0    0  0.00000000000E+00  0.00000000000E+00  0.46014251604E+02  0.24588665820E+04  0.24584359981E+04 0.  0.
        4    1    3    3  502    0  0.73558971511E+03  0.29219973931E+03  0.96365170267E+03  0.12470361396E+04  0.12699999809E+01 0. -1.
       -4    1    3    3    0  502 -0.73558971511E+03 -0.29219973931E+03 -0.91763745107E+03  0.12118304424E+04  0.12699999809E+01 0.  1.
</event>
<event>
 5   0  0.6909250E-05  0.2508399E+04  0.7818609E-02  0.8399999E-01
       -2   -1    0    0    0  501  0.00000000000E+00  0.00000000000E+00  0.57674632135E+03  0.57674632135E+03  0.25500000920E-02 0. -1.
        2   -1    0    0  501    0  0.00000000000E+00  0.00000000000E+00 -0.27273980173E+04  0.27273980173E+04  0.25500000920E-02 0.  1.
    10030    2    1    2    0    0  0.00000000000E+00  0.00000000000E+00 -0.21506516960E+04  0.33041443387E+04  0.25083993090E+04 0.  0.
        4    1    3    3  502    0  0.12242552174E+04 -0.85114986291E+02 -0.73444569433E+03  0.14301949129E+04  0.12699999809E+01 0. -1.
       -4    1    3    3    0  502 -0.12242552174E+04  0.85114986291E+02 -0.14162060016E+04  0.18739494257E+04  0.12699999809E+01 0.  1.
</event>
<event>
 5   0  0.2777539E-05  0.2428653E+04  0.7818609E-02  0.8428854E-01
        1   -1    0    0  501    0  0.00000000000E+00  0.00000000000E+00  0.20247644984E+04  0.20247644984E+04  0.50400001928E-02 0. -1.
       -1   -1    0    0    0  501  0.00000000000E+00  0.00000000000E+00 -0.72827648169E+03  0.72827648170E+03  0.50400001928E-02 0.  1.
    10030    2    1    2    0    0  0.00000000000E+00  0.00000000000E+00  0.12964880167E+04  0.27530409801E+04  0.24286526019E+04 0.  0.
        3    1    3    3  502    0  0.85345326434E+03 -0.31686405232E+03 -0.26271183469E+03  0.94752457507E+03  0.10100000352E+00 0.  1.
       -3    1    3    3    0  502 -0.85345326434E+03  0.31686405232E+03  0.15591998514E+04  0.18055164051E+04  0.10100000352E+00 0. -1.
</event>
<event>
 5   0  0.2980790E-05  0.2262759E+04  0.7818609E-02  0.8492751E-01
       -1   -1    0    0    0  501  0.00000000000E+00  0.00000000000E+00  0.13924725431E+04  0.13924725431E+04  0.50400001928E-02 0. -1.
        1   -1    0    0  501    0  0.00000000000E+00  0.00000000000E+00 -0.91924183323E+03  0.91924183324E+03  0.50400001928E-02 0.  1.
    10030    2    1    2    0    0  0.00000000000E+00  0.00000000000E+00  0.47323070985E+03  0.23117143763E+04  0.22627585052E+04 0.  0.
        5    1    3    3  502    0  0.75951031509E+03 -0.83848865702E+03  0.22760544571E+03  0.11540127710E+04  0.46999998093E+01 0. -1.
       -5    1    3    3    0  502 -0.75951031509E+03  0.83848865702E+03  0.24562526415E+03  0.11577016054E+04  0.46999998093E+01 0.  1.
</event>
<event>
 5   0  0.6648328E-05  0.2430195E+04  0.7818609E-02  0.8428285E-01
       -2   -1    0    0    0  501  0.00000000000E+00  0.00000000000E+00  0.87283774577E+03  0.87283774577E+03  0.25500000920E-02 0.  1.
        2   -1    0    0  501    0  0.00000000000E+00  0.00000000000E+00 -0.16915648675E+04  0.16915648675E+04  0.25500000920E-02 0. -1.
    10030    2    1    2    0    0  0.00000000000E+00  0.00000000000E+00 -0.81872712176E+03  0.25644026133E+04  0.24301947789E+04 0.  0.
        2    1    3    3  502    0 -0.48373146787E+02 -0.24112284169E+03 -0.16650289217E+04  0.16830928365E+04  0.25500000920E-02 0. -1.
       -2    1    3    3    0  502  0.48373146787E+02  0.24112284169E+03  0.84630179994E+03  0.88130977681E+03  0.25500000920E-02 0.  1.
</event>
<event>
 5   0  0.2793920E-05  0.2535242E+04  0.7818609E-02  0.8390537E-01
       -1   -1    0    0    0  501  0.00000000000E+00  0.00000000000E+00  0.16589435690E+04  0.16589435690E+04  0.50400001928E-02 0. -1.
        1   -1    0    0  501    0  0.00000000000E+00  0.00000000000E+00 -0.96860580639E+03  0.96860580640E+03  0.50400001928E-02 0.  1.
    10030    2    1    2    0    0  0.00000000000E+00  0.00000000000E+00  0.69033776261E+03  0.26275493754E+04  0.25352415060E+04 0.  0.
        2    1    3    3  502    0 -0.10426600803E+04 -0.18208413486E+02 -0.40175899665E+03  0.11175338387E+04  0.25500000920E-02 0.  1.
       -2    1    3    3    0  502  0.10426600803E+04  0.18208413486E+02  0.10920967593E+04  0.15100155367E+04  0.25500000920E-02 0. -1.
</event>
<event>
 5   0  0.2793920E-05  0.2080360E+04  0.7818609E-02  0.8569944E-01
       -1   -1    0    0    0  501  0.00000000000E+00  0.00000000000E+00  0.62652360350E+03  0.62652360352E+03  0.50400001928E-02 0.  1.
        1   -1    0    0  501    0  0.00000000000E+00  0.00000000000E+00 -0.17269498577E+04  0.17269498577E+04  0.50400001928E-02 0. -1.
    10030    2    1    2    0    0  0.00000000000E+00  0.00000000000E+00 -0.11004262542E+04  0.23534734612E+04  0.20803603995E+04 0.  0.
        2    1    3    3  502    0  0.77401420655E+03  0.29034780373E+03  0.16399659779E+03  0.84278984520E+03  0.25500000920E-02 0.  1.
       -2    1    3    3    0  502 -0.77401420655E+03 -0.29034780373E+03 -0.12644228520E+04  0.15106836160E+04  0.25500000920E-02 0. -1.
</event>
<event>
 5   0  0.2977854E-05  0.1768124E+04  0.7818609E-02  0.8723437E-01
       -1   -1    0    0    0  501  0.00000000000E+00  0.00000000000E+00  0.47441755443E+03  0.47441755446E+03  0.50400001928E-02 0. -1.
        1   -1    0    0  501    0  0.00000000000E+00  0.00000000000E+00 -0.16474218012E+04  0.16474218012E+04  0.50400001928E-02 0.  1.
    10030    2    1    2    0    0  0.00000000000E+00  0.00000000000E+00 -0.11730042468E+04  0.21218393557E+04  0.17681242288E+04 0.  0.
        1    1    3    3  502    0 -0.65498124338E+03 -0.58836784427E+03 -0.68242121223E+03  0.11139460760E+04  0.50400001928E-02 0.  1.
       -1    1    3    3    0  502  0.65498124338E+03  0.58836784427E+03 -0.49058303453E+03  0.10078932796E+04  0.50400001928E-02 0. -1.
</event>
<event>
 5   0  0.6648328E-05  0.2371296E+04  0.7818609E-02  0.8450329E-01
        2   -1    0    0  501    0  0.00000000000E+00  0.00000000000E+00  0.13575449005E+04  0.13575449005E+04  0.25500000920E-02 0.  1.
       -2   -1    0    0    0  501  0.00000000000E+00  0.00000000000E+00 -0.10355172009E+04  0.10355172009E+04  0.25500000920E-02 0. -1.
    10030    2    1    2    0    0  0.00000000000E+00  0.00000000000E+00  0.32202769963E+03  0.23930621014E+04  0.23712959288E+04 0.  0.
        2    1    3    3  502    0 -0.80861065174E+03  0.52867732402E+03  0.85464381192E+03  0.12898709022E+04  0.25500000920E-02 0.  1.
       -2    1    3    3    0  502  0.80861065174E+03 -0.52867732402E+03 -0.53261611229E+03  0.11031911993E+04  0.25500000920E-02 0. -1.
</event>
<event>
 5   0  0.6909250E-05  0.2520675E+04  0.7818609E-02  0.8395657E-01
        2   -1    0    0  501    0  0.00000000000E+00  0.00000000000E+00  0.13976960177E+04  0.13976960177E+04  0.25500000920E-02 0. -1.
       -2   -1    0    0    0  501  0.00000000000E+00  0.00000000000E+00 -0.11364779262E+04  0.11364779262E+04  0.25500000920E-02 0.  1.
    10030    2    1    2    0    0  0.00000000000E+00  0.00000000000E+00  0.26121809155E+03  0.25341739439E+04  0.25206750458E+04 0.  0.
        4    1    3    3  502    0 -0.59659185840E+03  0.10189921386E+04  0.57363003926E+03  0.13127527790E+04  0.12699999809E+01 0. -1.
       -4    1    3    3    0  502  0.59659185840E+03 -0.10189921386E+04 -0.31241194772E+03  0.12214211649E+04  0.12699999809E+01 0.  1.
</event>
<event>
 5   0  0.2977854E-05  0.2456478E+04  0.7818609E-02  0.8418657E-01
       -1   -1    0    0    0  501  0.00000000000E+00  0.00000000000E+00  0.62192993341E+03  0.62192993343E+03  0.50400001928E-02 0.  1.
        1   -1    0    0  501    0  0.00000000000E+00  0.00000000000E+00 -0.24256281467E+04  0.24256281467E+04  0.50400001928E-02 0. -1.
    10030    2    1    2    0    0  0.00000000000E+00  0.00000000000E+00 -0.18036982133E+04  0.30475580801E+04  0.24564777644E+04 0.  0.
        1    1    3    3  502    0  0.69841204462E+02 -0.46355594159E+03  0.50657486451E+03  0.69020286743E+03  0.50400001928E-02 0.  1.
       -1    1    3    3    0  502 -0.69841204462E+02  0.46355594159E+03 -0.23102730778E+04  0.23573552127E+04  0.50400001928E-02 0. -1.
</event>
<event>
 5   0  0.6445331E-05  0.2456707E+04  0.7818609E-02  0.8418573E-01
       -2   -1    0    0    0  501  0.00000000000E+00  0.00000000000E+00  0.17427456390E+04  0.17427456390E+04  0.25500000920E-02 0.  1.
        2   -1    0    0  501    0  0.00000000000E+00  0.00000000000E+00 -0.86579017302E+03  0.86579017303E+03  0.25500000920E-02 0. -1.
    10030    2    1    2    0    0  0.00000000000E+00  0.00000000000E+00  0.87695546593E+03  0.26085358120E+04  0.24567067780E+04 0.  0.
        1    1    3    3  502    0  0.47039288829E+02  0.30243583117E+03  0.17016078231E+04  0.17289156458E+04  0.50400001928E-02 0.  1.
       -1    1    3    3    0  502 -0.47039288829E+02 -0.30243583117E+03 -0.82465235713E+03  0.87962016621E+03  0.50400001928E-02 0. -1.
</event>
<event>
 5   0  0.2793920E-05  0.2784409E+04  0.7818609E-02  0.8308125E-01
        1   -1    0    0  501    0  0.00000000000E+00  0.00000000000E+00  0.23688130590E+04  0.23688130590E+04  0.50400001928E-02 0. -1.
       -1   -1    0    0    0  501  0.00000000000E+00  0.00000000000E+00 -0.81822969158E+03  0.81822969159E+03  0.50400001928E-02 0.  1.
    10030    2    1    2    0    0  0.00000000000E+00  0.00000000000E+00  0.15505833674E+04  0.31870427506E+04  0.27844088627E+04 0.  0.
        2    1    3    3  502    0 -0.41574955036E+03  0.29109604553E+03  0.22591530865E+04  0.23154604865E+04  0.25500000920E-02 0. -1.
       -2    1    3    3    0  502  0.41574955036E+03 -0.29109604553E+03 -0.70856971905E+03  0.87158226411E+03  0.25500000920E-02 0.  1.
</event>
<event>
 5   0  0.2977854E-05  0.2468640E+04  0.7818609E-02  0.8414244E-01
       -1   -1    0    0    0  501  0.00000000000E+00  0.00000000000E+00  0.92211208032E+03  0.92211208033E+03  0.50400001928E-02 0.  1.
        1   -1    0    0  501    0  0.00000000000E+00  0.00000000000E+00 -0.16522349286E+04  0.16522349286E+04  0.50400001928E-02 0. -1.
    10030    2    1    2    0    0  0.00000000000E+00  0.00000000000E+00 -0.73012284830E+03  0.25743470089E+04  0.24686399391E+04 0.  0.
        1    1    3    3  502    0 -0.10702881093E+04 -0.49807200103E+02  0.27399953997E+03  0.11059263728E+04  0.50400001928E-02 0.  1.
       -1    1    3    3    0  502  0.10702881093E+04  0.49807200103E+02 -0.10041223883E+04  0.14684206362E+04  0.50400001928E-02 0. -1.
</event>
<event>
 5   0  0.2777539E-05  0.2497002E+04  0.7818609E-02  0.8404054E-01
        1   -1    0    0  501    0  0.00000000000E+00  0.00000000000E+00  0.18009956112E+04  0.18009956112E+04  0.50400001928E-02 0. -1.
       -1   -1    0    0    0  501  0.00000000000E+00  0.00000000000E+00 -0.86549646458E+03  0.86549646459E+03  0.50400001928E-02 0.  1.
    10030    2    1    2    0    0  0.00000000000E+00  0.00000000000E+00  0.93549914662E+03  0.26664920758E+04  0.24970024704E+04 0.  0.
        3    1    3    3  502    0 -0.33656031205E+03 -0.94247009325E+03  0.12648987189E+04  0.16129139777E+04  0.10100000352E+00 0. -1.
       -3    1    3    3    0  502  0.33656031205E+03  0.94247009325E+03 -0.32939957227E+03  0.10535780981E+04  0.10100000352E+00 0.  1.
</event>
<event>
 5   0  0.2977854E-05  0.2431642E+04  0.7818609E-02  0.8427752E-01
       -1   -1    0    0    0  501  0.00000000000E+00  0.00000000000E+00  0.69432382105E+03  0.69432382107E+03  0.50400001928E-02 0. -1.
        1   -1    0    0  501    0  0.00000000000E+00  0.00000000000E+00 -0.21290069870E+04  0.21290069870E+04  0.50400001928E-02 0.  1.
    10030    2    1    2    0    0  0.00000000000E+00  0.00000000000E+00 -0.14346831660E+04  0.28233308081E+04  0.24316416400E+04 0.  0.
        1    1    3    3  502    0  0.65924173485E+03  0.51899997709E+03  0.30431632727E+03  0.89250718107E+03  0.50400001928E-02 0. -1.
       -1    1    3    3    0  502 -0.65924173485E+03 -0.51899997709E+03 -0.17389994933E+04  0.19308236270E+04  0.50400001928E-02 0.  1.
</event>
<event>
 5   0  0.2977854E-05  0.2440548E+04  0.7818609E-02  0.8424477E-01
        1   -1    0    0  501    0  0.00000000000E+00  0.00000000000E+00  0.25793999798E+04  0.25793999798E+04  0.50400001928E-02 0. -1.
       -1   -1    0    0    0  501  0.00000000000E+00  0.00000000000E+00 -0.57729280021E+03  0.57729280023E+03  0.50400001928E-02 0.  1.
    10030    2    1    2    0    0  0.00000000000E+00  0.00000000000E+00  0.20021071796E+04  0.31566927801E+04  0.24405483296E+04 0.  0.
        1    1    3    3  502    0  0.81177627078E+00 -0.66086287527E+02  0.25770833077E+04  0.25779306490E+04  0.50400001928E-02 0. -1.
       -1    1    3    3    0  502 -0.81177627078E+00  0.66086287527E+02 -0.57497612810E+03  0.57876213101E+03  0.50400001928E-02 0.  1.
</event>
<event>
 5   0  0.2793920E-05  0.2489722E+04  0.7818609E-02  0.8406656E-01
        1   -1    0    0  501    0  0.00000000000E+00  0.00000000000E+00  0.18821108847E+04  0.18821108847E+04  0.50400001928E-02 0.  1.
       -1   -1    0    0    0  501  0.00000000000E+00  0.00000000000E+00 -0.82337266110E+03  0.82337266112E+03  0.50400001928E-02 0. -1.
    10030    2    1    2    0    0  0.00000000000E+00  0.00000000000E+00  0.10587382236E+04  0.27054835458E+04  0.24897217898E+04 0.  0.
        2    1    3    3  502    0 -0.11587795817E+04  0.81739432691E+02  0.10156146253E+04  0.15430244719E+04  0.25500000920E-02 0. -1.
       -2    1    3    3    0  502  0.11587795817E+04 -0.81739432691E+02  0.43123598296E+02  0.11624590739E+04  0.25500000920E-02 0.  1.
</event>
<event>
 5   0  0.2977854E-05  0.2379098E+04  0.7818609E-02  0.8447371E-01
       -1   -1    0    0    0  501  0.00000000000E+00  0.00000000000E+00  0.10530058974E+04  0.10530058974E+04  0.50400001928E-02 0.  1.
        1   -1    0    0  501    0  0.00000000000E+00  0.00000000000E+00 -0.13437977481E+04  0.13437977481E+04  0.50400001928E-02 0. -1.
    10030    2    1    2    0    0  0.00000000000E+00  0.00000000000E+00 -0.29079185068E+03  0.23968036455E+04  0.23790981095E+04 0.  0.
        1    1    3    3  502    0 -0.60194095774E+03 -0.98582274348E+03 -0.43184904155E+03  0.12331557050E+04  0.50400001928E-02 0. -1.
       -1    1    3    3    0  502  0.60194095774E+03  0.98582274348E+03  0.14105719087E+03  0.11636479404E+04  0.50400001928E-02 0.  1.
</event>
<event>
 5   0  0.6648328E-05  0.2492882E+04  0.7818609E-02  0.8405526E-01
       -2   -1    0    0    0  501  0.00000000000E+00  0.00000000000E+00  0.17739732440E+04  0.17739732440E+04  0.25500000920E-02 0. -1.
        2   -1    0    0  501    0  0.00000000000E+00  0.00000000000E+00 -0.87578291588E+03  0.87578291588E+03  0.25500000920E-02 0.  1.
    10030    2    1    2    0    0  0.00000000000E+00  0.00000000000E+00  0.89819032810E+03  0.26497561599E+04  0.24928822357E+04 0.  0.
        2    1    3    3  502    0 -0.12144402013E+04  0.15764303000E+03  0.69586668455E+03  0.14085264534E+04  0.25500000920E-02 0. -1.
       -2    1    3    3    0  502  0.12144402013E+04 -0.15764303000E+03  0.20232364355E+03  0.12412297064E+04  0.25500000920E-02 0.  1.
</event>
<event>
 5   0  0.2793920E-05  0.2298304E+04  0.7818609E-02  0.8478590E-01
       -1   -1    0    0    0  501  0.00000000000E+00  0.00000000000E+00  0.81745308498E+03  0.81745308500E+03  0.50400001928E-02 0. -1.
        1   -1    0    0  501    0  0.00000000000E+00  0.00000000000E+00 -0.16154447723E+04  0.16154447723E+04  0.50400001928E-02 0.  1.
    10030    2    1    2    0    0  0.00000000000E+00  0.00000000000E+00 -0.79799168734E+03  0.24328978573E+04  0.22983039945E+04 0.  0.
        2    1    3    3  502    0  0.64255077158E+03 -0.55164781228E+03 -0.12212497110E+04  0.14861485994E+04  0.25500000920E-02 0.  1.
       -2    1    3    3    0  502 -0.64255077158E+03  0.55164781228E+03  0.42325802363E+03  0.94674925795E+03  0.25500000920E-02 0. -1.
</event>
<event>
 5   0  0.2980790E-05  0.2495509E+04  0.7818609E-02  0.8404587E-01
       -1   -1    0    0    0  501  0.00000000000E+00  0.00000000000E+00  0.10133175557E+04  0.10133175557E+04  0.50400001928E-02 0. -1.
        1   -1    0    0  501    0  0.00000000000E+00  0.00000000000E+00 -0.15364295061E+04  0.15364295061E+04  0.50400001928E-02 0.  1.
    10030    2    1    2    0    0  0.00000000000E+00  0.00000000000E+00 -0.52311195045E+03  0.25497470618E+04  0.24955087591E+04 0.  0.
        5    1    3    3  502    0  0.18222836943E+03 -0.77029180409E+03  0.72393436911E+03  0.10726880734E+04  0.46999998093E+01 0. -1.
       -5    1    3    3    0  502 -0.18222836943E+03  0.77029180409E+03 -0.12470463196E+04  0.14770589884E+04  0.46999998093E+01 0.  1.
</event>
<event>
 5   0  0.6445331E-05  0.2498371E+04  0.7818609E-02  0.8403566E-01
       -2   -1    0    0    0  501  0.00000000000E+00  0.00000000000E+00  0.69298512380E+03  0.69298512380E+03  0.25500000920E-02 0.  1.
        2   -1    0    0  501    0  0.00000000000E+00  0.00000000000E+00 -0.22518001007E+04  0.22518001007E+04  0.25500000920E-02 0. -1.
    10030    2    1    2    0    0  0.00000000000E+00  0.00000000000E+00 -0.15588149769E+04  0.29447852245E+04  0.24983706463E+04 0.  0.
        1    1    3    3  502    0  0.12462375308E+04  0.84103122300E+02 -0.79922383711E+03  0.14828823488E+04  0.50400001928E-02 0. -1.
       -1    1    3    3    0  502 -0.12462375308E+04 -0.84103122300E+02 -0.75959113976E+03  0.14619028757E+04  0.50400001928E-02 0.  1.
</event>
<event>
 5   0  0.6445331E-05  0.2534591E+04  0.7818609E-02  0.8390765E-01
        2   -1    0    0  501    0  0.00000000000E+00  0.00000000000E+00  0.79027171335E+03  0.79027171335E+03  0.25500000920E-02 0. -1.
       -2   -1    0    0    0  501  0.00000000000E+00  0.00000000000E+00 -0.20322600023E+04  0.20322600023E+04  0.25500000920E-02 0.  1.
    10030    2    1    2    0    0  0.00000000000E+00  0.00000000000E+00 -0.12419882890E+04  0.28225317157E+04  0.25345907709E+04 0.  0.
        1    1    3    3  502    0  0.95853900390E+03  0.27463059690E+03 -0.14920426140E+04  0.17945501243E+04  0.50400001928E-02 0.  1.
       -1    1    3    3    0  502 -0.95853900390E+03 -0.27463059690E+03  0.25005432498E+03  0.10279815914E+04  0.50400001928E-02 0. -1.
</event>
<event>
 5   0  0.6648328E-05  0.2654272E+04  0.7818609E-02  0.8349997E-01
       -2   -1    0    0    0  501  0.00000000000E+00  0.00000000000E+00  0.94213025563E+03  0.94213025563E+03  0.25500000920E-02 0.  1.
        2   -1    0    0  501    0  0.00000000000E+00  0.00000000000E+00 -0.18694757726E+04  0.18694757726E+04  0.25500000920E-02 0. -1.
    10030    2    1    2    0    0  0.00000000000E+00  0.00000000000E+00 -0.92734551695E+03  0.28116060282E+04  0.26542717928E+04 0.  0.
        2    1    3    3  502    0  0.27577701373E+03 -0.47619692668E+03 -0.17429312327E+04  0.18277378795E+04  0.25500000920E-02 0. -1.
       -2    1    3    3    0  502 -0.27577701373E+03  0.47619692668E+03  0.81558571575E+03  0.98386814870E+03  0.25500000920E-02 0.  1.
</event>
<event>
 5   0  0.7071821E-05  0.2458523E+04  0.7818609E-02  0.8417913E-01
        2   -1    0    0  501    0  0.00000000000E+00  0.00000000000E+00  0.10086611090E+04  0.10086611090E+04  0.25500000920E-02 0. -1.
       -2   -1    0    0    0  501  0.00000000000E+00  0.00000000000E+00 -0.14981086851E+04  0.14981086851E+04  0.25500000920E-02 0.  1.
    10030    2    1    2    0    0  0.00000000000E+00  0.00000000000E+00 -0.48944757611E+03  0.25067697941E+04  0.24585231077E+04 0.  0.
        5    1    3    3  502    0 -0.37231654587E+03 -0.20320230222E+03 -0.14211205887E+04  0.14830767355E+04  0.46999998093E+01 0.  1.
       -5    1    3    3    0  502  0.37231654587E+03  0.20320230222E+03  0.93167301255E+03  0.10236930586E+04  0.46999998093E+01 0. -1.
</event>
<event>
 5   0  0.2896652E-05  0.2443218E+04  0.7818609E-02  0.8423498E-01
       -1   -1    0    0    0  501  0.00000000000E+00  0.00000000000E+00  0.79219707444E+03  0.79219707446E+03  0.50400001928E-02 0. -1.
        1   -1    0    0  501    0  0.00000000000E+00  0.00000000000E+00 -0.18837842663E+04  0.18837842663E+04  0.50400001928E-02 0.  1.
    10030    2    1    2    0    0  0.00000000000E+00  0.00000000000E+00 -0.10915871919E+04  0.26759813408E+04  0.24432178656E+04 0.  0.
        4    1    3    3  502    0  0.63368646307E+03  0.10276761983E+04 -0.34191497405E+03  0.12548244357E+04  0.12699999809E+01 0.  1.
       -4    1    3    3    0  502 -0.63368646307E+03 -0.10276761983E+04 -0.74967221784E+03  0.14211569051E+04  0.12699999809E+01 0. -1.
</event>
<event>
 5   0  0.6445331E-05  0.2549404E+04  0.7818609E-02  0.8385594E-01
       -2   -1    0    0    0  501  0.00000000000E+00  0.00000000000E+00  0.13394261941E+04  0.13394261941E+04  0.25500000920E-02 0. -1.
        2   -1    0    0  501    0  0.00000000000E+00  0.00000000000E+00 -0.12131051558E+04  0.12131051558E+04  0.25500000920E-02 0.  1.
    10030    2    1    2    0    0  0.00000000000E+00  0.00000000000E+00  0.12632103829E+03  0.25525313500E+04  0.25494037122E+04 0.  0.
        1    1    3    3  502    0  0.81183754471E+02 -0.12414926252E+04 -0.21461466495E+03  0.12625189879E+04  0.50400001928E-02 0.  1.
       -1    1    3    3    0  502 -0.81183754471E+02  0.12414926252E+04  0.34093570323E+03  0.12900123620E+04  0.50400001928E-02 0. -1.
</event>
<event>
 5   0  0.2977854E-05  0.2520024E+04  0.7818609E-02  0.8395886E-01
       -1   -1    0    0    0  501  0.00000000000E+00  0.00000000000E+00  0.14289193330E+04  0.14289193331E+04  0.50400001928E-02 0.  1.
        1   -1    0    0  501    0  0.00000000000E+00  0.00000000000E+00 -0.11110707076E+04  0.11110707076E+04  0.50400001928E-02 0. -1.
    10030    2    1    2    0    0  0.00000000000E+00  0.00000000000E+00  0.31784862548E+03  0.25399900406E+04  0.25200241383E+04 0.  0.
        1    1    3    3  502    0  0.33588120284E+03 -0.12090209817E+04  0.43639354135E+02  0.12555685206E+04  0.50400001928E-02 0.  1.
       -1    1    3    3    0  502 -0.33588120284E+03  0.12090209817E+04  0.27420927134E+03  0.12844215200E+04  0.50400001928E-02 0. -1.
</event>
<event>
 5   0  0.2793920E-05  0.1837865E+04  0.7818609E-02  0.8686419E-01
        1   -1    0    0  501    0  0.00000000000E+00  0.00000000000E+00  0.10646612002E+04  0.10646612002E+04  0.50400001928E-02 0.  1.
       -1   -1    0    0    0  501  0.00000000000E+00  0.00000000000E+00 -0.79315079046E+03  0.79315079047E+03  0.50400001928E-02 0. -1.
    10030    2    1    2    0    0  0.00000000000E+00  0.00000000000E+00  0.27151040976E+03  0.18578119907E+04  0.18378649271E+04 0.  0.
        2    1    3    3  502    0  0.43736094753E+03 -0.77434836405E+03  0.36964685707E+03  0.96308815084E+03  0.25500000920E-02 0.  1.
       -2    1    3    3    0  502 -0.43736094753E+03  0.77434836405E+03 -0.98136447305E+02  0.89472383987E+03  0.25500000920E-02 0. -1.
</event>
<event>
 5   0  0.2977854E-05  0.1958919E+04  0.7818609E-02  0.8626072E-01
        1   -1    0    0  501    0  0.00000000000E+00  0.00000000000E+00  0.13586832031E+04  0.13586832032E+04  0.50400001928E-02 0.  1.
       -1   -1    0    0    0  501  0.00000000000E+00  0.00000000000E+00 -0.70608113050E+03  0.70608113052E+03  0.50400001928E-02 0. -1.
    10030    2    1    2    0    0  0.00000000000E+00  0.00000000000E+00  0.65260207265E+03  0.20647643337E+04  0.19589186528E+04 0.  0.
        1    1    3    3  502    0 -0.13329598605E+03  0.84087544426E+03  0.83671983296E+03  0.11937082607E+04  0.50400001928E-02 0.  1.
       -1    1    3    3    0  502  0.13329598605E+03 -0.84087544426E+03 -0.18411776031E+03  0.87105607302E+03  0.50400001928E-02 0. -1.
</event>
<event>
 5   0  0.2980790E-05  0.2515620E+04  0.7818609E-02  0.8397442E-01
       -1   -1    0    0    0  501  0.00000000000E+00  0.00000000000E+00  0.73286056524E+03  0.73286056525E+03  0.50400001928E-02 0. -1.
        1   -1    0    0  501    0  0.00000000000E+00  0.00000000000E+00 -0.21587810273E+04  0.21587810273E+04  0.50400001928E-02 0.  1.
    10030    2    1    2    0    0  0.00000000000E+00  0.00000000000E+00 -0.14259204621E+04  0.28916415926E+04  0.25156195928E+04 0.  0.
        5    1    3    3  502    0  0.85875001296E+03  0.68072549549E+03 -0.32354685345E+01  0.10958427548E+04  0.46999998093E+01 0.  1.
       -5    1    3    3    0  502 -0.85875001296E+03 -0.68072549549E+03 -0.14226849935E+04  0.17957988378E+04  0.46999998093E+01 0. -1.
</event>
<event>
 5   0  0.2793920E-05  0.2566034E+04  0.7818609E-02  0.8379831E-01
        1   -1    0    0  501    0  0.00000000000E+00  0.00000000000E+00  0.11876626046E+04  0.11876626046E+04  0.50400001928E-02 0.  1.
       -1   -1    0    0    0  501  0.00000000000E+00  0.00000000000E+00 -0.13860267009E+04  0.13860267009E+04  0.50400001928E-02 0. -1.
    10030    2    1    2    0    0  0.00000000000E+00  0.00000000000E+00 -0.19836409631E+03  0.25736893056E+04  0.25660335787E+04 0.  0.
        2    1    3    3  502    0  0.10463746125E+03 -0.76402084636E+03  0.92928214383E+03  0.12075769768E+04  0.25500000920E-02 0.  1.
       -2    1    3    3    0  502 -0.10463746125E+03  0.76402084636E+03 -0.11276462401E+04  0.13661123288E+04  0.25500000920E-02 0. -1.
</event>
<event>
 5   0  0.6445331E-05  0.2523622E+04  0.7818609E-02  0.8394618E-01
       -2   -1    0    0    0  501  0.00000000000E+00  0.00000000000E+00  0.83206633893E+03  0.83206633894E+03  0.25500000920E-02 0. -1.
        2   -1    0    0  501    0  0.00000000000E+00  0.00000000000E+00 -0.19135103343E+04  0.19135103343E+04  0.25500000920E-02 0.  1.
    10030    2    1    2    0    0  0.00000000000E+00  0.00000000000E+00 -0.10814439954E+04  0.27455766733E+04  0.25236224269E+04 0.  0.
        1    1    3    3  502    0  0.32750388197E+03  0.11536202875E+04 -0.11368372581E+03  0.12045839738E+04  0.50400001928E-02 0.  1.
       -1    1    3    3    0  502 -0.32750388197E+03 -0.11536202875E+04 -0.96776026958E+03  0.15409926995E+04  0.50400001928E-02 0. -1.
</event>
<event>
 5   0  0.6827859E-05  0.2379220E+04  0.7818609E-02  0.8447324E-01
        2   -1    0    0  501    0  0.00000000000E+00  0.00000000000E+00  0.62941617957E+03  0.62941617958E+03  0.25500000920E-02 0. -1.
       -2   -1    0    0    0  501  0.00000000000E+00  0.00000000000E+00 -0.22483885718E+04  0.22483885718E+04  0.25500000920E-02 0.  1.
    10030    2    1    2    0    0  0.00000000000E+00  0.00000000000E+00 -0.16189723923E+04  0.28778047514E+04  0.23792201622E+04 0.  0.
        3    1    3    3  502    0  0.72376487826E+03  0.49201083433E+03  0.16513677801E+03  0.89060677392E+03  0.10100000352E+00 0. -1.
       -3    1    3    3    0  502 -0.72376487826E+03 -0.49201083433E+03 -0.17841091703E+04  0.19871979775E+04  0.10100000352E+00 0.  1.
</event>
<event>
 5   0  0.2977854E-05  0.2477696E+04  0.7818609E-02  0.8410975E-01
       -1   -1    0    0    0  501  0.00000000000E+00  0.00000000000E+00  0.15332347337E+04  0.15332347337E+04  0.50400001928E-02 0. -1.
        1   -1    0    0  501    0  0.00000000000E+00  0.00000000000E+00 -0.10009844727E+04  0.10009844728E+04  0.50400001928E-02 0.  1.
    10030    2    1    2    0    0  0.00000000000E+00  0.00000000000E+00  0.53225026098E+03  0.25342192065E+04  0.24776958341E+04 0.  0.
        1    1    3    3  502    0 -0.46919677291E+03 -0.13371842301E+03 -0.89858793131E+03  0.10224903416E+04  0.50400001928E-02 0.  1.
       -1    1    3    3    0  502  0.46919677291E+03  0.13371842301E+03  0.14308381923E+04  0.15117288649E+04  0.50400001928E-02 0. -1.
</event>
<event>
 5   0  0.2793920E-05  0.2356516E+04  0.7818609E-02  0.8455965E-01
        1   -1    0    0  501    0  0.00000000000E+00  0.00000000000E+00  0.77656263054E+03  0.77656263055E+03  0.50400001928E-02 0. -1.
       -1   -1    0    0    0  501  0.00000000000E+00  0.00000000000E+00 -0.17877400375E+04  0.17877400375E+04  0.50400001928E-02 0.  1.
    10030    2    1    2    0    0  0.00000000000E+00  0.00000000000E+00 -0.10111774069E+04  0.25643026680E+04  0.23565161627E+04 0.  0.
        2    1    3    3  502    0  0.34218768141E+03  0.97158225235E+03 -0.11280664653E+04  0.15276120033E+04  0.25500000920E-02 0.  1.
       -2    1    3    3    0  502 -0.34218768141E+03 -0.97158225235E+03  0.11688905840E+03  0.10366906647E+04  0.25500000920E-02 0. -1.
</event>
<event>
 5   0  0.2977854E-05  0.2395398E+04  0.7818609E-02  0.8441229E-01
       -1   -1    0    0    0  501  0.00000000000E+00  0.00000000000E+00  0.10874218226E+04  0.10874218226E+04  0.50400001928E-02 0. -1.
        1   -1    0    0  501    0  0.00000000000E+00  0.00000000000E+00 -0.13191593473E+04  0.13191593473E+04  0.50400001928E-02 0.  1.
    10030    2    1    2    0    0  0.00000000000E+00  0.00000000000E+00 -0.23173752463E+03  0.24065811699E+04  0.23953978056E+04 0.  0.
        1    1    3    3  502    0  0.60920225968E+03  0.13671157846E+03 -0.11427292272E+04  0.13021703174E+04  0.50400001928E-02 0.  1.
       -1    1    3    3    0  502 -0.60920225968E+03 -0.13671157846E+03  0.91099170257E+03  0.11044108525E+04  0.50400001928E-02 0. -1.
</event>
<event>
 5   0  0.2793920E-05  0.2465745E+04  0.7818609E-02  0.8415292E-01
       -1   -1    0    0    0  501  0.00000000000E+00  0.00000000000E+00  0.10046389615E+04  0.10046389615E+04  0.50400001928E-02 0.  1.
        1   -1    0    0  501    0  0.00000000000E+00  0.00000000000E+00 -0.15129556168E+04  0.15129556168E+04  0.50400001928E-02 0. -1.
    10030    2    1    2    0    0  0.00000000000E+00  0.00000000000E+00 -0.50831665530E+03  0.25175945784E+04  0.24657446419E+04 0.  0.
        2    1    3    3  502    0  0.38065134773E+03 -0.68637330593E+03 -0.12249248717E+04  0.14548005723E+04  0.25500000920E-02 0. -1.
       -2    1    3    3    0  502 -0.38065134773E+03  0.68637330593E+03  0.71660821644E+03  0.10627940061E+04  0.25500000920E-02 0.  1.
</event>
<event>
 5   0  0.2777539E-05  0.1455081E+04  0.7818609E-02  0.8914886E-01
        1   -1    0    0  501    0  0.00000000000E+00  0.00000000000E+00  0.36919379411E+03  0.36919379415E+03  0.50400001928E-02 0.  1.
       -1   -1    0    0    0  501  0.00000000000E+00  0.00000000000E+00 -0.14337053572E+04  0.14337053572E+04  0.50400001928E-02 0. -1.
    10030    2    1    2    0    0  0.00000000000E+00  0.00000000000E+00 -0.10645115631E+04  0.18028991514E+04  0.14550809194E+04 0.  0.
        3    1    3    3  502    0 -0.58557615257E+03 -0.41266489518E+03 -0.37492557249E+03  0.80855484741E+03  0.10100000352E+00 0.  1.
       -3    1    3    3    0  502  0.58557615257E+03  0.41266489518E+03 -0.68958599062E+03  0.99434430397E+03  0.10100000352E+00 0. -1.
</event>
<event>
 5   0  0.6445331E-05  0.2478296E+04  0.7818609E-02  0.8410759E-01
       -2   -1    0    0    0  501  0.00000000000E+00  0.00000000000E+00  0.84094442704E+03  0.84094442705E+03  0.25500000920E-02 0. -1.
        2   -1    0    0  501    0  0.00000000000E+00  0.00000000000E+00 -0.18259082334E+04  0.18259082334E+04  0.25500000920E-02 0.  1.
    10030    2    1    2    0    0  0.00000000000E+00  0.00000000000E+00 -0.98496380639E+03  0.26668526605E+04  0.24782956669E+04 0.  0.
        1    1    3    3  502    0  0.98442442526E+03 -0.67093563300E+03 -0.12560016294E+03  0.11979238180E+04  0.50400001928E-02 0. -1.
       -1    1    3    3    0  502 -0.98442442526E+03  0.67093563300E+03 -0.85936364345E+03  0.14689288425E+04  0.50400001928E-02 0.  1.
</event>
<event>
 5   0  0.2980790E-05  0.2025027E+04  0.7818609E-02  0.8595008E-01
       -1   -1    0    0    0  501  0.00000000000E+00  0.00000000000E+00  0.14752423253E+04  0.14752423253E+04  0.50400001928E-02 0.  1.
        1   -1    0    0  501    0  0.00000000000E+00  0.00000000000E+00 -0.69492589428E+03  0.69492589430E+03  0.50400001928E-02 0. -1.
    10030    2    1    2    0    0  0.00000000000E+00  0.00000000000E+00  0.78031643101E+03  0.21701682196E+04  0.20250274983E+04 0.  0.
        5    1    3    3  502    0  0.19070520509E+03 -0.92341251861E+03 -0.52048359072E+01  0.94292541332E+03  0.46999998093E+01 0. -1.
       -5    1    3    3    0  502 -0.19070520509E+03  0.92341251861E+03  0.78552126691E+03  0.12272428063E+04  0.46999998093E+01 0.  1.
</event>
<event>
 5   0  0.6648328E-05  0.2449225E+04  0.7818609E-02  0.8421301E-01
        2   -1    0    0  501    0  0.00000000000E+00  0.00000000000E+00  0.84641113207E+03  0.84641113207E+03  0.25500000920E-02 0.  1.
       -2   -1    0    0    0  501  0.00000000000E+00  0.00000000000E+00 -0.17718050134E+04  0.17718050134E+04  0.25500000920E-02 0. -1.
    10030    2    1    2    0    0  0.00000000000E+00  0.00000000000E+00 -0.92539388136E+03  0.26182161455E+04  0.24492247649E+04 0.  0.
        2    1    3    3  502    0 -0.23656578990E+03 -0.93360608934E+03 -0.12712522068E+04  0.15948874181E+04  0.25500000920E-02 0. -1.
       -2    1    3    3    0  502  0.23656578990E+03  0.93360608934E+03  0.34585832549E+03  0.10233287274E+04  0.25500000920E-02 0.  1.
</event>
<event>
 5   0  0.2793920E-05  0.1794308E+04  0.7818609E-02  0.8709332E-01
       -1   -1    0    0    0  501  0.00000000000E+00  0.00000000000E+00  0.81503380034E+03  0.81503380036E+03  0.50400001928E-02 0. -1.
        1   -1    0    0  501    0  0.00000000000E+00  0.00000000000E+00 -0.98754849503E+03  0.98754849504E+03  0.50400001928E-02 0.  1.
    10030    2    1    2    0    0  0.00000000000E+00  0.00000000000E+00 -0.17251469469E+03  0.18025822954E+04  0.17943081151E+04 0.  0.
        2    1    3    3  502    0 -0.55477140164E+02  0.54795818974E+03 -0.79772471604E+03  0.96938156233E+03  0.25500000920E-02 0.  1.
       -2    1    3    3    0  502  0.55477140164E+02 -0.54795818974E+03  0.62521002136E+03  0.83320073308E+03  0.25500000920E-02 0. -1.
</event>
<event>
 5   0  0.6827859E-05  0.2508296E+04  0.7818609E-02  0.8400036E-01
        2   -1    0    0  501    0  0.00000000000E+00  0.00000000000E+00  0.10133214016E+04  0.10133214016E+04  0.25500000920E-02 0. -1.
       -2   -1    0    0    0  501  0.00000000000E+00  0.00000000000E+00 -0.15522091927E+04  0.15522091927E+04  0.25500000920E-02 0.  1.
    10030    2    1    2    0    0  0.00000000000E+00  0.00000000000E+00 -0.53888779113E+03  0.25655305943E+04  0.25082956721E+04 0.  0.
        3    1    3    3  502    0 -0.34359591972E+03  0.21033710850E+03 -0.14842260319E+04  0.15379293804E+04  0.10100000352E+00 0.  1.
       -3    1    3    3    0  502  0.34359591972E+03 -0.21033710850E+03  0.94533824072E+03  0.10276012139E+04  0.10100000352E+00 0. -1.
</event>
<event>
 5   0  0.2977854E-05  0.2505448E+04  0.7818609E-02  0.8401047E-01
        1   -1    0    0  501    0  0.00000000000E+00  0.00000000000E+00  0.13215584785E+04  0.13215584785E+04  0.50400001928E-02 0.  1.
       -1   -1    0    0    0  501  0.00000000000E+00  0.00000000000E+00 -0.11874746720E+04  0.11874746720E+04  0.50400001928E-02 0. -1.
    10030    2    1    2    0    0  0.00000000000E+00  0.00000000000E+00  0.13408380650E+03  0.25090331505E+04  0.25054478408E+04 0.  0.
        1    1    3    3  502    0 -0.67371746357E+03 -0.43679457000E+02  0.11237837236E+04  0.13109893109E+04  0.50400001928E-02 0.  1.
       -1    1    3    3    0  502  0.67371746357E+03  0.43679457000E+02 -0.98969991713E+03  0.11980438396E+04  0.50400001928E-02 0. -1.
</event>
<event>
 5   0  0.6827859E-05  0.2553320E+04  0.7818609E-02  0.8384233E-01
        2   -1    0    0  501    0  0.00000000000E+00  0.00000000000E+00  0.62319152481E+03  0.62319152481E+03  0.25500000920E-02 0. -1.
       -2   -1    0    0    0  501  0.00000000000E+00  0.00000000000E+00 -0.26153443716E+04  0.26153443716E+04  0.25500000920E-02 0.  1.
    10030    2    1    2    0    0  0.00000000000E+00  0.00000000000E+00 -0.19921528468E+04  0.32385358964E+04  0.25533197582E+04 0.  0.
        3    1    3    3  502    0  0.31517301208E+03 -0.74769871027E+03  0.25406425625E+03  0.85025645860E+03  0.10100000352E+00 0. -1.
       -3    1    3    3    0  502 -0.31517301208E+03  0.74769871027E+03 -0.22462171031E+04  0.23882794378E+04  0.10100000352E+00 0.  1.
</event>
<event>
 5   0  0.2777539E-05  0.2506222E+04  0.7818609E-02  0.8400772E-01
        1   -1    0    0  501    0  0.00000000000E+00  0.00000000000E+00  0.22710540904E+04  0.22710540904E+04  0.50400001928E-02 0. -1.
       -1   -1    0    0    0  501  0.00000000000E+00  0.00000000000E+00 -0.69143512529E+03  0.69143512531E+03  0.50400001928E-02 0.  1.
    10030    2    1    2    0    0  0.00000000000E+00  0.00000000000E+00  0.15796189651E+04  0.29624892157E+04  0.25062215142E+04 0.  0.
        3    1    3    3  502    0  0.40179088538E+03 -0.66932721627E+03 -0.36887585304E+03  0.86342587590E+03  0.10100000352E+00 0.  1.
       -3    1    3    3    0  502 -0.40179088538E+03  0.66932721627E+03  0.19484948181E+04  0.20990633398E+04  0.10100000352E+00 0. -1.
</event>
<event>
 5   0  0.2980790E-05  0.2445270E+04  0.7818609E-02  0.8422747E-01
        1   -1    0    0  501    0  0.00000000000E+00  0.00000000000E+00  0.14274284107E+04  0.14274284107E+04  0.50400001928E-02 0. -1.
       -1   -1    0    0    0  501  0.00000000000E+00  0.00000000000E+00 -0.10472229164E+04  0.10472229164E+04  0.50400001928E-02 0.  1.
    10030    2    1    2    0    0  0.00000000000E+00  0.00000000000E+00  0.38020549437E+03  0.24746513271E+04  0.24452695092E+04 0.  0.
        5    1    3    3  502    0  0.97341575117E+03 -0.88104140739E+02 -0.55323857636E+03  0.11231186832E+04  0.46999998093E+01 0.  1.
       -5    1    3    3    0  502 -0.97341575117E+03  0.88104140739E+02  0.93344407073E+03  0.13515326439E+04  0.46999998093E+01 0. -1.
</event>
<event>
 5   0  0.2777539E-05  0.2167782E+04  0.7818609E-02  0.8531959E-01
        1   -1    0    0  501    0  0.00000000000E+00  0.00000000000E+00  0.13926971711E+04  0.13926971711E+04  0.50400001928E-02 0. -1.
       -1   -1    0    0    0  501  0.00000000000E+00  0.00000000000E+00 -0.84355752347E+03  0.84355752349E+03  0.50400001928E-02 0.  1.
    10030    2    1    2    0    0  0.00000000000E+00  0.00000000000E+00  0.54913964764E+03  0.22362546946E+04  0.21677824399E+04 0.  0.
        3    1    3    3  502    0  0.16609636577E+03 -0.10184633160E+04 -0.67513650990E+02  0.10341245728E+04  0.10100000352E+00 0.  1.
       -3    1    3    3    0  502 -0.16609636577E+03  0.10184633160E+04  0.61665329863E+03  0.12021301218E+04  0.10100000352E+00 0. -1.
</event>
<event>
 5   0  0.7071821E-05  0.2314636E+04  0.7818609E-02  0.8472173E-01
       -2   -1    0    0    0  501  0.00000000000E+00  0.00000000000E+00  0.18282938792E+04  0.18282938792E+04  0.25500000920E-02 0.  1.
        2   -1    0    0  501    0  0.00000000000E+00  0.00000000000E+00 -0.73258719346E+03  0.73258719347E+03  0.25500000920E-02 0. -1.
    10030    2    1    2    0    0  0.00000000000E+00  0.00000000000E+00  0.10957066857E+04  0.25608810727E+04  0.23146357655E+04 0.  0.
        5    1    3    3  502    0  0.58647343959E+03  0.62395480142E+03  0.14091960711E+04  0.16489773638E+04  0.46999998093E+01 0. -1.
       -5    1    3    3    0  502 -0.58647343959E+03 -0.62395480142E+03 -0.31348938533E+03  0.91190370888E+03  0.46999998093E+01 0.  1.
</event>
<event>
 5   0  0.6445331E-05  0.2461182E+04  0.7818609E-02  0.8416947E-01
       -2   -1    0    0    0  501  0.00000000000E+00  0.00000000000E+00  0.12886602793E+04  0.12886602793E+04  0.25500000920E-02 0. -1.
        2   -1    0    0  501    0  0.00000000000E+00  0.00000000000E+00 -0.11751380715E+04  0.11751380715E+04  0.25500000920E-02 0.  1.
    10030    2    1    2    0    0  0.00000000000E+00  0.00000000000E+00  0.11352220776E+03  0.24637983508E+04  0.24611816312E+04 0.  0.
        1    1    3    3  502    0  0.78256889272E+02  0.61644967271E+03 -0.10065449333E+04  0.11829061850E+04  0.50400001928E-02 0.  1.
       -1    1    3    3    0  502 -0.78256889272E+02 -0.61644967271E+03  0.11200671411E+04  0.12808921658E+04  0.50400001928E-02 0. -1.
</event>
<event>
 5   0  0.6445331E-05  0.1549267E+04  0.7818609E-02  0.8852336E-01
       -2   -1    0    0    0  501  0.00000000000E+00  0.00000000000E+00  0.19491902260E+04  0.19491902260E+04  0.25500000920E-02 0.  1.
        2   -1    0    0  501    0  0.00000000000E+00  0.00000000000E+00 -0.30784942115E+03  0.30784942117E+03  0.25500000920E-02 0. -1.
    10030    2    1    2    0    0  0.00000000000E+00  0.00000000000E+00  0.16413408048E+04  0.22570396471E+04  0.15492670303E+04 0.  0.
        1    1    3    3  502    0 -0.36919311131E+03  0.37363155371E+03  0.16501160375E+04  0.17317006174E+04  0.50400001928E-02 0.  1.
       -1    1    3    3    0  502  0.36919311131E+03 -0.37363155371E+03 -0.87752326609E+01  0.52533902967E+03  0.50400001928E-02 0. -1.
</event>
<event>
 5   0  0.2793920E-05  0.2069277E+04  0.7818609E-02  0.8574899E-01
       -1   -1    0    0    0  501  0.00000000000E+00  0.00000000000E+00  0.99373618327E+03  0.99373618328E+03  0.50400001928E-02 0.  1.
        1   -1    0    0  501    0  0.00000000000E+00  0.00000000000E+00 -0.10772239096E+04  0.10772239096E+04  0.50400001928E-02 0. -1.
    10030    2    1    2    0    0  0.00000000000E+00  0.00000000000E+00 -0.83487726309E+02  0.20709600929E+04  0.20692765658E+04 0.  0.
        2    1    3    3  502    0  0.15705893230E+03  0.66750424879E+03  0.73364252062E+03  0.10042214788E+04  0.25500000920E-02 0.  1.
       -2    1    3    3    0  502 -0.15705893230E+03 -0.66750424879E+03 -0.81713024693E+03  0.10667386141E+04  0.25500000920E-02 0. -1.
</event>
<event>
 5   0  0.2331375E-05  0.2095539E+04  0.7818609E-02  0.8563211E-01
       -4   -1    0    0    0  501  0.00000000000E+00  0.00000000000E+00  0.14162147685E+04  0.14162153380E+04  0.12699999809E+01 0.  1.
        4   -1    0    0  501    0  0.00000000000E+00  0.00000000000E+00 -0.77517845009E+03  0.77517949043E+03  0.12699999809E+01 0. -1.
    10030    2    1    2    0    0  0.00000000000E+00  0.00000000000E+00  0.64103631842E+03  0.21913948284E+04  0.20955390076E+04 0.  0.
        5    1    3    3  502    0  0.12293256864E+03  0.14220557825E+03 -0.75739058432E+03  0.78038287406E+03  0.46999998093E+01 0. -1.
       -5    1    3    3    0  502 -0.12293256864E+03 -0.14220557825E+03  0.13984269027E+04  0.14110119543E+04  0.46999998093E+01 0.  1.
</event>
<event>
 5   0  0.6648328E-05  0.2463117E+04  0.7818609E-02  0.8416244E-01
       -2   -1    0    0    0  501  0.00000000000E+00  0.00000000000E+00  0.10519806365E+04  0.10519806365E+04  0.25500000920E-02 0. -1.
        2   -1    0    0  501    0  0.00000000000E+00  0.00000000000E+00 -0.14417910637E+04  0.14417910637E+04  0.25500000920E-02 0.  1.
    10030    2    1    2    0    0  0.00000000000E+00  0.00000000000E+00 -0.38981042715E+03  0.24937717002E+04  0.24631169528E+04 0.  0.
        2    1    3    3  502    0 -0.11354525496E+04  0.47688574818E+03 -0.18682011767E+03  0.12456220396E+04  0.25500000920E-02 0. -1.
       -2    1    3    3    0  502  0.11354525496E+04 -0.47688574818E+03 -0.20299030948E+03  0.12481496605E+04  0.25500000920E-02 0.  1.
</event>
<event>
 5   0  0.2980790E-05  0.1877264E+04  0.7818609E-02  0.8666257E-01
        1   -1    0    0  501    0  0.00000000000E+00  0.00000000000E+00  0.21382061689E+04  0.21382061689E+04  0.50400001928E-02 0.  1.
       -1   -1    0    0    0  501  0.00000000000E+00  0.00000000000E+00 -0.41204159630E+03  0.41204159633E+03  0.50400001928E-02 0. -1.
    10030    2    1    2    0    0  0.00000000000E+00  0.00000000000E+00  0.17261645726E+04  0.25502477652E+04  0.18772638420E+04 0.  0.
        5    1    3    3  502    0 -0.34465790983E+03 -0.53781764363E+03  0.17973563039E+04  0.19074980120E+04  0.46999998093E+01 0.  1.
       -5    1    3    3    0  502  0.34465790983E+03  0.53781764363E+03 -0.71191731347E+02  0.64274975319E+03  0.46999998093E+01 0. -1.
</event>
<event>
 5   0  0.2896652E-05  0.2370791E+04  0.7818609E-02  0.8450521E-01
       -1   -1    0    0    0  501  0.00000000000E+00  0.00000000000E+00  0.64148218646E+03  0.64148218648E+03  0.50400001928E-02 0. -1.
        1   -1    0    0  501    0  0.00000000000E+00  0.00000000000E+00 -0.21904935650E+04  0.21904935650E+04  0.50400001928E-02 0.  1.
    10030    2    1    2    0    0  0.00000000000E+00  0.00000000000E+00 -0.15490113786E+04  0.28319757515E+04  0.23707910929E+04 0.  0.
        4    1    3    3  502    0 -0.90736307929E+03  0.41812766956E+03 -0.12417127828E+02  0.99914678785E+03  0.12699999809E+01 0. -1.
       -4    1    3    3    0  502  0.90736307929E+03 -0.41812766956E+03 -0.15365942507E+04  0.18328289637E+04  0.12699999809E+01 0.  1.
</event>
<event>
 5   0  0.2777539E-05  0.1622666E+04  0.7818609E-02  0.8806743E-01
        1   -1    0    0  501    0  0.00000000000E+00  0.00000000000E+00  0.68689809140E+03  0.68689809142E+03  0.50400001928E-02 0.  1.
       -1   -1    0    0    0  501  0.00000000000E+00  0.00000000000E+00 -0.95831017927E+03  0.95831017928E+03  0.50400001928E-02 0. -1.
    10030    2    1    2    0    0  0.00000000000E+00  0.00000000000E+00 -0.27141208786E+03  0.16452082707E+04  0.16226662419E+04 0.  0.
        3    1    3    3  502    0 -0.21550565342E+03  0.32755149801E+03 -0.85587540957E+03  0.94141138585E+03  0.10100000352E+00 0. -1.
       -3    1    3    3    0  502  0.21550565342E+03 -0.32755149801E+03  0.58446332171E+03  0.70379688485E+03  0.10100000352E+00 0.  1.
</event>
<event>
 5   0  0.2980790E-05  0.2450459E+04  0.7818609E-02  0.8420850E-01
        1   -1    0    0  501    0  0.00000000000E+00  0.00000000000E+00  0.10783603411E+04  0.10783603412E+04  0.50400001928E-02 0.  1.
       -1   -1    0    0    0  501  0.00000000000E+00  0.00000000000E+00 -0.13921021855E+04  0.13921021856E+04  0.50400001928E-02 0. -1.
    10030    2    1    2    0    0  0.00000000000E+00  0.00000000000E+00 -0.31374184440E+03  0.24704625267E+04  0.24504593755E+04 0.  0.
        5    1    3    3  502    0  0.23456048455E+03  0.11619659501E+04  0.15546801719E+03  0.11955650900E+04  0.46999998093E+01 0.  1.
       -5    1    3    3    0  502 -0.23456048455E+03 -0.11619659501E+04 -0.46920986159E+03  0.12748974367E+04  0.46999998093E+01 0. -1.
</event>
<event>
 5   0  0.6648328E-05  0.2478454E+04  0.7818609E-02  0.8410702E-01
       -2   -1    0    0    0  501  0.00000000000E+00  0.00000000000E+00  0.34761433043E+04  0.34761433043E+04  0.25500000920E-02 0.  1.
        2   -1    0    0  501    0  0.00000000000E+00  0.00000000000E+00 -0.44177808704E+03  0.44177808705E+03  0.25500000920E-02 0. -1.
    10030    2    1    2    0    0  0.00000000000E+00  0.00000000000E+00  0.30343652172E+04  0.39179213913E+04  0.24784543080E+04 0.  0.
        2    1    3    3  502    0 -0.71369296159E+03  0.49952628911E+03  0.29104335620E+04  0.30380104798E+04  0.25500000920E-02 0.  1.
       -2    1    3    3    0  502  0.71369296159E+03 -0.49952628911E+03  0.12393165525E+03  0.87991091147E+03  0.25500000920E-02 0. -1.
</event>
<event>
 5   0  0.6648328E-05  0.2513328E+04  0.7818609E-02  0.8398253E-01
        2   -1    0    0  501    0  0.00000000000E+00  0.00000000000E+00  0.17201092754E+04  0.17201092754E+04  0.25500000920E-02 0. -1.
       -2   -1    0    0    0  501  0.00000000000E+00  0.00000000000E+00 -0.91808400270E+03  0.91808400271E+03  0.25500000920E-02 0.  1.
    10030    2    1    2    0    0  0.00000000000E+00  0.00000000000E+00  0.80202527274E+03  0.26381932782E+04  0.25133283181E+04 0.  0.
        2    1    3    3  502    0  0.12054739703E+04  0.19571814449E+03  0.71192337003E+03  0.14136152128E+04  0.25500000920E-02 0.  1.
       -2    1    3    3    0  502 -0.12054739703E+04 -0.19571814449E+03  0.90101902719E+02  0.12245780653E+04  0.25500000920E-02 0. -1.
</event>
<event>
 5   0  0.2896652E-05  0.2457117E+04  0.7818609E-02  0.8418424E-01
       -1   -1    0    0    0  501  0.00000000000E+00  0.00000000000E+00  0.10067698905E+04  0.10067698905E+04  0.50400001928E-02 0. -1.
        1   -1    0    0  501    0  0.00000000000E+00  0.00000000000E+00 -0.14992070910E+04  0.14992070910E+04  0.50400001928E-02 0.  1.
    10030    2    1    2    0    0  0.00000000000E+00  0.00000000000E+00 -0.49243720044E+03  0.25059769815E+04  0.24571174647E+04 0.  0.
        4    1    3    3  502    0  0.50209137927E+03 -0.32740558771E+02 -0.13893031348E+04  0.14776104056E+04  0.12699999809E+01 0.  1.
       -4    1    3    3    0  502 -0.50209137927E+03  0.32740558771E+02  0.89686593439E+03  0.10283665759E+04  0.12699999809E+01 0. -1.
</event>
<event>
 5   0  0.2977854E-05  0.2479485E+04  0.7818609E-02  0.8410331E-01
        1   -1    0    0  501    0  0.00000000000E+00  0.00000000000E+00  0.20131635821E+04  0.20131635821E+04  0.50400001928E-02 0.  1.
       -1   -1    0    0    0  501  0.00000000000E+00  0.00000000000E+00 -0.76345588037E+03  0.76345588038E+03  0.50400001928E-02 0. -1.
    10030    2    1    2    0    0  0.00000000000E+00  0.00000000000E+00  0.12497077018E+04  0.27766194625E+04  0.24794850876E+04 0.  0.
        1    1    3    3  502    0  0.86456166486E+03 -0.76453086664E+02 -0.36647062425E+03  0.94213197869E+03  0.50400001928E-02 0. -1.
       -1    1    3    3    0  502 -0.86456166486E+03  0.76453086664E+02  0.16161783260E+04  0.18344874838E+04  0.50400001928E-02 0.  1.
</event>
<event>
 5   0  0.2977854E-05  0.2503830E+04  0.7818609E-02  0.8401622E-01
       -1   -1    0    0    0  501  0.00000000000E+00  0.00000000000E+00  0.82594692420E+03  0.82594692422E+03  0.50400001928E-02 0. -1.
        1   -1    0    0  501    0  0.00000000000E+00  0.00000000000E+00 -0.18975689832E+04  0.18975689832E+04  0.50400001928E-02 0.  1.
    10030    2    1    2    0    0  0.00000000000E+00  0.00000000000E+00 -0.10716220590E+04  0.27235159074E+04  0.25038300782E+04 0.  0.
        1    1    3    3  502    0  0.39662571137E+03  0.11523136266E+04 -0.22403999555E+03  0.12390853758E+04  0.50400001928E-02 0. -1.
       -1    1    3    3    0  502 -0.39662571137E+03 -0.11523136266E+04 -0.84758206340E+03  0.14844305316E+04  0.50400001928E-02 0.  1.
</event>
<event>
 5   0  0.2980790E-05  0.2590749E+04  0.7818609E-02  0.8371350E-01
        1   -1    0    0  501    0  0.00000000000E+00  0.00000000000E+00  0.19913673757E+04  0.19913673757E+04  0.50400001928E-02 0. -1.
       -1   -1    0    0    0  501  0.00000000000E+00  0.00000000000E+00 -0.84263487561E+03  0.84263487563E+03  0.50400001928E-02 0.  1.
    10030    2    1    2    0    0  0.00000000000E+00  0.00000000000E+00  0.11487325001E+04  0.28340022513E+04  0.25907493904E+04 0.  0.
        5    1    3    3  502    0 -0.49955636158E+03 -0.54578445879E+03  0.17374662016E+04  0.18884512505E+04  0.46999998093E+01 0. -1.
       -5    1    3    3    0  502  0.49955636158E+03  0.54578445879E+03 -0.58873370152E+03  0.94555100082E+03  0.46999998093E+01 0.  1.
</event>
<event>
 5   0  0.6445331E-05  0.2509396E+04  0.7818609E-02  0.8399646E-01
        2   -1    0    0  501    0  0.00000000000E+00  0.00000000000E+00  0.30095693052E+04  0.30095693052E+04  0.25500000920E-02 0. -1.
       -2   -1    0    0    0  501  0.00000000000E+00  0.00000000000E+00 -0.52308731919E+03  0.52308731920E+03  0.25500000920E-02 0.  1.
    10030    2    1    2    0    0  0.00000000000E+00  0.00000000000E+00  0.24864819860E+04  0.35326566244E+04  0.25093963735E+04 0.  0.
        1    1    3    3  502    0 -0.29972387872E+03  0.59135053756E+03  0.27428564135E+04  0.28218418040E+04  0.50400001928E-02 0. -1.
       -1    1    3    3    0  502  0.29972387872E+03 -0.59135053756E+03 -0.25637442752E+03  0.71081482037E+03  0.50400001928E-02 0.  1.
</event>
<event>
 5   0  0.6827859E-05  0.2538224E+04  0.7818609E-02  0.8389493E-01
        2   -1    0    0  501    0  0.00000000000E+00  0.00000000000E+00  0.11724169403E+04  0.11724169403E+04  0.25500000920E-02 0.  1.
       -2   -1    0    0    0  501  0.00000000000E+00  0.00000000000E+00 -0.13737822042E+04  0.13737822042E+04  0.25500000920E-02 0. -1.
    10030    2    1    2    0    0  0.00000000000E+00  0.00000000000E+00 -0.20136526385E+03  0.25461991445E+04  0.25382242048E+04 0.  0.
        3    1    3    3  502    0  0.82119782153E+03  0.45090232436E+03 -0.95950732648E+03  0.13410194212E+04  0.10100000352E+00 0. -1.
       -3    1    3    3    0  502 -0.82119782153E+03 -0.45090232436E+03  0.75814206263E+03  0.12051797233E+04  0.10100000352E+00 0.  1.
</event>
<event>
 5   0  0.6445331E-05  0.2108409E+04  0.7818609E-02  0.8557548E-01
        2   -1    0    0  501    0  0.00000000000E+00  0.00000000000E+00  0.13808219262E+04  0.13808219262E+04  0.25500000920E-02 0.  1.
       -2   -1    0    0    0  501  0.00000000000E+00  0.00000000000E+00 -0.80484470210E+03  0.80484470210E+03  0.25500000920E-02 0. -1.
    10030    2    1    2    0    0  0.00000000000E+00  0.00000000000E+00  0.57597722410E+03  0.21856666283E+04  0.21084090797E+04 0.  0.
        1    1    3    3  502    0 -0.54092296754E+03  0.14287574205E+03  0.12142251766E+04  0.13369195615E+04  0.50400001928E-02 0.  1.
       -1    1    3    3    0  502  0.54092296754E+03 -0.14287574205E+03 -0.63824795250E+03  0.84874706678E+03  0.50400001928E-02 0. -1.
</event>
<event>
 5   0  0.6827859E-05  0.2489706E+04  0.7818609E-02  0.8406662E-01
       -2   -1    0    0    0  501  0.00000000000E+00  0.00000000000E+00  0.97381700262E+03  0.97381700263E+03  0.25500000920E-02 0. -1.
        2   -1    0    0  501    0  0.00000000000E+00  0.00000000000E+00 -0.15913245428E+04  0.15913245428E+04  0.25500000920E-02 0.  1.
    10030    2    1    2    0    0  0.00000000000E+00  0.00000000000E+00 -0.61750754016E+03  0.25651415454E+04  0.24897059236E+04 0.  0.
        3    1    3    3  502    0  0.21418312706E+03 -0.74927580685E+03  0.69141678148E+03  0.10417993197E+04  0.10100000352E+00 0. -1.
       -3    1    3    3    0  502 -0.21418312706E+03  0.74927580685E+03 -0.13089243216E+04  0.15233422257E+04  0.10100000352E+00 0.  1.
</event>
<event>
 5   0  0.7071821E-05  0.1293821E+04  0.7818609E-02  0.9034479E-01
       -2   -1    0    0    0  501  0.00000000000E+00  0.00000000000E+00  0.47359830339E+03  0.47359830340E+03  0.25500000920E-02 0.  1.
        2   -1    0    0  501    0  0.00000000000E+00  0.00000000000E+00 -0.88364645157E+03  0.88364645157E+03  0.25500000920E-02 0. -1.
    10030    2    1    2    0    0  0.00000000000E+00  0.00000000000E+00 -0.41004814818E+03  0.13572447550E+04  0.12938214100E+04 0.  0.
        5    1    3    3  502    0  0.23068209829E+03 -0.50280172512E+03  0.14674598055E+03  0.57234629208E+03  0.46999998093E+01 0.  1.
       -5    1    3    3    0  502 -0.23068209829E+03  0.50280172512E+03 -0.55679412874E+03  0.78489846289E+03  0.46999998093E+01 0. -1.
</event>
<event>
 5   0  0.2331375E-05  0.2640958E+04  0.7818609E-02  0.8354420E-01
        4   -1    0    0  501    0  0.00000000000E+00  0.00000000000E+00  0.19768363474E+04  0.19768367553E+04  0.12699999809E+01 0.  1.
       -4   -1    0    0    0  501  0.00000000000E+00  0.00000000000E+00 -0.88204706907E+03  0.88204798336E+03  0.12699999809E+01 0. -1.
    10030    2    1    2    0    0  0.00000000000E+00  0.00000000000E+00  0.10947892783E+04  0.28588847387E+04  0.26409578537E+04 0.  0.
        3    1    3    3  502    0  0.97002663762E+03  0.38143773403E+03 -0.33019190277E+03  0.10933769366E+04  0.10100000352E+00 0. -1.
       -3    1    3    3    0  502 -0.97002663762E+03 -0.38143773403E+03  0.14249811811E+04  0.17655078021E+04  0.10100000352E+00 0.  1.
</event>
<event>
 5   0  0.2777539E-05  0.2519898E+04  0.7818609E-02  0.8395931E-01
       -1   -1    0    0    0  501  0.00000000000E+00  0.00000000000E+00  0.12810222379E+04  0.12810222379E+04  0.50400001928E-02 0.  1.
        1   -1    0    0  501    0  0.00000000000E+00  0.00000000000E+00 -0.12392223108E+04  0.12392223108E+04  0.50400001928E-02 0. -1.
    10030    2    1    2    0    0  0.00000000000E+00  0.00000000000E+00  0.41799927079E+02  0.25202445487E+04  0.25198978851E+04 0.  0.
        3    1    3    3  502    0 -0.12093575629E+04  0.97447548286E+00  0.37439541944E+03  0.12659852309E+04  0.10100000352E+00 0.  1.
       -3    1    3    3    0  502  0.12093575629E+04 -0.97447548286E+00 -0.33259549237E+03  0.12542593178E+04  0.10100000352E+00 0. -1.
</event>
<event>
 5   0  0.6445331E-05  0.2545551E+04  0.7818609E-02  0.8386935E-01
        2   -1    0    0  501    0  0.00000000000E+00  0.00000000000E+00  0.17604375618E+04  0.17604375618E+04  0.25500000920E-02 0. -1.
       -2   -1    0    0    0  501  0.00000000000E+00  0.00000000000E+00 -0.92020175146E+03  0.92020175146E+03  0.25500000920E-02 0.  1.
    10030    2    1    2    0    0  0.00000000000E+00  0.00000000000E+00  0.84023581039E+03  0.26806393133E+04  0.25455511998E+04 0.  0.
        1    1    3    3  502    0 -0.58451279690E+03  0.45226471376E+03 -0.67109623254E+03  0.99828289297E+03  0.50400001928E-02 0.  1.
       -1    1    3    3    0  502  0.58451279690E+03 -0.45226471376E+03  0.15113320429E+04  0.16823564203E+04  0.50400001928E-02 0. -1.
</event>
<event>
 5   0  0.2777539E-05  0.2578805E+04  0.7818609E-02  0.8375436E-01
       -1   -1    0    0    0  501  0.00000000000E+00  0.00000000000E+00  0.12053950952E+04  0.12053950952E+04  0.50400001928E-02 0. -1.
        1   -1    0    0  501    0  0.00000000000E+00  0.00000000000E+00 -0.13792650488E+04  0.13792650488E+04  0.50400001928E-02 0.  1.
    10030    2    1    2    0    0  0.00000000000E+00  0.00000000000E+00 -0.17386995357E+03  0.25846601440E+04  0.25788054016E+04 0.  0.
        3    1    3    3  502    0  0.39181752157E+03 -0.12018366536E+04 -0.34173055145E+03  0.13094701571E+04  0.10100000352E+00 0. -1.
       -3    1    3    3    0  502 -0.39181752157E+03  0.12018366536E+04  0.16786059788E+03  0.12751899869E+04  0.10100000352E+00 0.  1.
</event>
<event>
 5   0  0.2793920E-05  0.2503181E+04  0.7818609E-02  0.8401853E-01
       -1   -1    0    0    0  501  0.00000000000E+00  0.00000000000E+00  0.64583160725E+03  0.64583160727E+03  0.50400001928E-02 0.  1.
        1   -1    0    0  501    0  0.00000000000E+00  0.00000000000E+00 -0.24255226839E+04  0.24255226839E+04  0.50400001928E-02 0. -1.
    10030    2    1    2    0    0  0.00000000000E+00  0.00000000000E+00 -0.17796910767E+04  0.30713542912E+04  0.25031813465E+04 0.  0.
        2    1    3    3  502    0  0.86220850343E+03 -0.89308842738E+03 -0.10856585722E+04  0.16491406786E+04  0.25500000920E-02 0. -1.
       -2    1    3    3    0  502 -0.86220850343E+03  0.89308842738E+03 -0.69403250449E+03  0.14222136126E+04  0.25500000920E-02 0.  1.
</event>
<event>
 5   0  0.2896652E-05  0.1975897E+04  0.7818609E-02  0.8617973E-01
       -1   -1    0    0    0  501  0.00000000000E+00  0.00000000000E+00  0.11796225079E+04  0.11796225079E+04  0.50400001928E-02 0. -1.
        1   -1    0    0  501    0  0.00000000000E+00  0.00000000000E+00 -0.82741926379E+03  0.82741926381E+03  0.50400001928E-02 0.  1.
    10030    2    1    2    0    0  0.00000000000E+00  0.00000000000E+00  0.35220324408E+03  0.20070417717E+04  0.19758971502E+04 0.  0.
        4    1    3    3  502    0 -0.95558947094E+03 -0.21368168249E+03  0.42770777949E+02  0.98012348750E+03  0.12699999809E+01 0. -1.
       -4    1    3    3    0  502  0.95558947094E+03  0.21368168249E+03  0.30943246613E+03  0.10269182842E+04  0.12699999809E+01 0.  1.
</event>
<event>
 5   0  0.6909250E-05  0.2490709E+04  0.7818609E-02  0.8406303E-01
        2   -1    0    0  501    0  0.00000000000E+00  0.00000000000E+00  0.23845225241E+04  0.23845225241E+04  0.25500000920E-02 0.  1.
       -2   -1    0    0    0  501  0.00000000000E+00  0.00000000000E+00 -0.65040592842E+03  0.65040592842E+03  0.25500000920E-02 0. -1.
    10030    2    1    2    0    0  0.00000000000E+00  0.00000000000E+00  0.17341165957E+04  0.30349284526E+04  0.24907088037E+04 0.  0.
        4    1    3    3  502    0 -0.89199110708E+03  0.30244645902E+03  0.18598059851E+04  0.20847066726E+04  0.12699999809E+01 0.  1.
       -4    1    3    3    0  502  0.89199110708E+03 -0.30244645902E+03 -0.12568938933E+03  0.95022177999E+03  0.12699999809E+01 0. -1.
</event>
<event>
 5   0  0.2980790E-05  0.2516330E+04  0.7818609E-02  0.8397191E-01
        1   -1    0    0  501    0  0.00000000000E+00  0.00000000000E+00  0.20804726535E+04  0.20804726535E+04  0.50400001928E-02 0.  1.
       -1   -1    0    0    0  501  0.00000000000E+00  0.00000000000E+00 -0.76087477191E+03  0.76087477192E+03  0.50400001928E-02 0. -1.
    10030    2    1    2    0    0  0.00000000000E+00  0.00000000000E+00  0.13195978816E+04  0.28413474255E+04  0.25163299909E+04 0.  0.
        5    1    3    3  502    0 -0.45160943095E+03  0.11895430383E+03  0.19789670419E+04  0.20333307276E+04  0.46999998093E+01 0.  1.
       -5    1    3    3    0  502  0.45160943095E+03 -0.11895430383E+03 -0.65936916032E+03  0.80801669791E+03  0.46999998093E+01 0. -1.
</event>
<event>
 5   0  0.2980790E-05  0.2455156E+04  0.7818609E-02  0.8419138E-01
        1   -1    0    0  501    0  0.00000000000E+00  0.00000000000E+00  0.14644428062E+04  0.14644428062E+04  0.50400001928E-02 0. -1.
       -1   -1    0    0    0  501  0.00000000000E+00  0.00000000000E+00 -0.10290250618E+04  0.10290250618E+04  0.50400001928E-02 0.  1.
    10030    2    1    2    0    0  0.00000000000E+00  0.00000000000E+00  0.43541774444E+03  0.24934678680E+04  0.24551564913E+04 0.  0.
        5    1    3    3  502    0 -0.18274299832E+02 -0.78512662207E+02 -0.10263249479E+04  0.10294965647E+04  0.46999998093E+01 0.  1.
       -5    1    3    3    0  502  0.18274299832E+02  0.78512662207E+02  0.14617426923E+04  0.14639713033E+04  0.46999998093E+01 0. -1.
</event>
<event>
 5   0  0.2980790E-05  0.2542132E+04  0.7818609E-02  0.8388128E-01
       -1   -1    0    0    0  501  0.00000000000E+00  0.00000000000E+00  0.76802043929E+03  0.76802043931E+03  0.50400001928E-02 0.  1.
        1   -1    0    0  501    0  0.00000000000E+00  0.00000000000E+00 -0.21036016936E+04  0.21036016936E+04  0.50400001928E-02 0. -1.
    10030    2    1    2    0    0  0.00000000000E+00  0.00000000000E+00 -0.13355812543E+04  0.28716221329E+04  0.25421322521E+04 0.  0.
        5    1    3    3  502    0 -0.55882744684E+03 -0.92653772958E+03 -0.14211888444E+04  0.17862139013E+04  0.46999998093E+01 0. -1.
       -5    1    3    3    0  502  0.55882744684E+03  0.92653772958E+03  0.85607590152E+02  0.10854082316E+04  0.46999998093E+01 0.  1.
</event>
<event>
 5   0  0.7071821E-05  0.1926828E+04  0.7818609E-02  0.8641617E-01
       -2   -1    0    0    0  501  0.00000000000E+00  0.00000000000E+00  0.77036688777E+03  0.77036688778E+03  0.25500000920E-02 0. -1.
        2   -1    0    0  501    0  0.00000000000E+00  0.00000000000E+00 -0.12048366524E+04  0.12048366524E+04  0.25500000920E-02 0.  1.
    10030    2    1    2    0    0  0.00000000000E+00  0.00000000000E+00 -0.43446976466E+03  0.19752035402E+04  0.19268277164E+04 0.  0.
        5    1    3    3  502    0  0.62034628772E+03 -0.40486105469E+03 -0.84865568010E+03  0.11264903655E+04  0.46999998093E+01 0.  1.
       -5    1    3    3    0  502 -0.62034628772E+03  0.40486105469E+03  0.41418591545E+03  0.84871317466E+03  0.46999998093E+01 0. -1.
</event>
<event>
 5   0  0.6445331E-05  0.2490208E+04  0.7818609E-02  0.8406482E-01
        2   -1    0    0  501    0  0.00000000000E+00  0.00000000000E+00  0.10393376293E+04  0.10393376293E+04  0.25500000920E-02 0.  1.
       -2   -1    0    0    0  501  0.00000000000E+00  0.00000000000E+00 -0.14916072123E+04  0.14916072123E+04  0.25500000920E-02 0. -1.
    10030    2    1    2    0    0  0.00000000000E+00  0.00000000000E+00 -0.45226958305E+03  0.25309448416E+04  0.24902076250E+04 0.  0.
        1    1    3    3  502    0  0.11988971184E+03 -0.77170189534E+03  0.75946416023E+03  0.10893498836E+04  0.50400001928E-02 0.  1.
       -1    1    3    3    0  502 -0.11988971184E+03  0.77170189534E+03 -0.12117337433E+04  0.14415949580E+04  0.50400001928E-02 0. -1.
</event>
<event>
 5   0  0.2793920E-05  0.2330998E+04  0.7818609E-02  0.8465799E-01
       -1   -1    0    0    0  501  0.00000000000E+00  0.00000000000E+00  0.84970658065E+03  0.84970658067E+03  0.50400001928E-02 0. -1.
        1   -1    0    0  501    0  0.00000000000E+00  0.00000000000E+00 -0.15986547003E+04  0.15986547003E+04  0.50400001928E-02 0.  1.
    10030    2    1    2    0    0  0.00000000000E+00  0.00000000000E+00 -0.74894811964E+03  0.24483612810E+04  0.23309975711E+04 0.  0.
        2    1    3    3  502    0  0.26513830174E+03 -0.10732354431E+04 -0.76218634389E+03  0.13427809420E+04  0.25500000920E-02 0.  1.
       -2    1    3    3    0  502 -0.26513830174E+03  0.10732354431E+04  0.13238224250E+02  0.11055803390E+04  0.25500000920E-02 0. -1.
</event>
<event>
 5   0  0.2331375E-05  0.2284980E+04  0.7818609E-02  0.8483867E-01
       -4   -1    0    0    0  501  0.00000000000E+00  0.00000000000E+00  0.14849137731E+04  0.14849143162E+04  0.12699999809E+01 0.  1.
        4   -1    0    0  501    0  0.00000000000E+00  0.00000000000E+00 -0.87902840901E+03  0.87902932645E+03  0.12699999809E+01 0. -1.
    10030    2    1    2    0    0  0.00000000000E+00  0.00000000000E+00  0.60588536405E+03  0.23639436426E+04  0.22849797529E+04 0.  0.
        4    1    3    3  502    0  0.10182506574E+04 -0.27728397836E+03  0.75574429876E+03  0.12980261415E+04  0.12699999809E+01 0.  1.
       -4    1    3    3    0  502 -0.10182506574E+04  0.27728397836E+03 -0.14985893471E+03  0.10659175011E+04  0.12699999809E+01 0. -1.
</event>
<event>
 5   0  0.6445331E-05  0.2406838E+04  0.7818609E-02  0.8436948E-01
       -2   -1    0    0    0  501  0.00000000000E+00  0.00000000000E+00  0.15015194034E+04  0.15015194034E+04  0.25500000920E-02 0. -1.
        2   -1    0    0  501    0  0.00000000000E+00  0.00000000000E+00 -0.96450122934E+03  0.96450122935E+03  0.25500000920E-02 0.  1.
    10030    2    1    2    0    0  0.00000000000E+00  0.00000000000E+00  0.53701817409E+03  0.24660206328E+04  0.24068380174E+04 0.  0.
        1    1    3    3  502    0 -0.18137503363E+03 -0.75782153023E+03 -0.67111641614E+03  0.10283907908E+04  0.50400001928E-02 0.  1.
       -1    1    3    3    0  502  0.18137503363E+03  0.75782153023E+03  0.12081345902E+04  0.14376298420E+04  0.50400001928E-02 0. -1.
</event>
<event>
 5   0  0.6445331E-05  0.2460302E+04  0.7818609E-02  0.8417266E-01
        2   -1    0    0  501    0  0.00000000000E+00  0.00000000000E+00  0.14659498063E+04  0.14659498063E+04  0.25500000920E-02 0. -1.
       -2   -1    0    0    0  501  0.00000000000E+00  0.00000000000E+00 -0.10322808623E+04  0.10322808623E+04  0.25500000920E-02 0.  1.
    10030    2    1    2    0    0  0.00000000000E+00  0.00000000000E+00  0.43366894398E+03  0.24982306687E+04  0.24603023637E+04 0.  0.
        1    1    3    3  502    0 -0.21145805789E+03 -0.81423344047E+03  0.11282129034E+04  0.14073219110E+04  0.50400001928E-02 0. -1.
       -1    1    3    3    0  502  0.21145805789E+03  0.81423344047E+03 -0.69454395945E+03  0.10909087576E+04  0.50400001928E-02 0.  1.
</event>
<event>
 5   0  0.6827859E-05  0.2453928E+04  0.7818609E-02  0.8419585E-01
        2   -1    0    0  501    0  0.00000000000E+00  0.00000000000E+00  0.16652957797E+04  0.16652957797E+04  0.25500000920E-02 0. -1.
       -2   -1    0    0    0  501  0.00000000000E+00  0.00000000000E+00 -0.90400776691E+03  0.90400776691E+03  0.25500000920E-02 0.  1.
    10030    2    1    2    0    0  0.00000000000E+00  0.00000000000E+00  0.76128801276E+03  0.25693035466E+04  0.24539277243E+04 0.  0.
        3    1    3    3  502    0 -0.44469060643E+03 -0.43183746903E+03  0.14892993236E+04  0.16131477988E+04  0.10100000352E+00 0. -1.
       -3    1    3    3    0  502  0.44469060643E+03  0.43183746903E+03 -0.72801131088E+03  0.95615574781E+03  0.10100000352E+00 0.  1.
</event>
<event>
 5   0  0.2896652E-05  0.2458449E+04  0.7818609E-02  0.8417940E-01
       -1   -1    0    0    0  501  0.00000000000E+00  0.00000000000E+00  0.10215361719E+04  0.10215361719E+04  0.50400001928E-02 0.  1.
        1   -1    0    0  501    0  0.00000000000E+00  0.00000000000E+00 -0.14791381531E+04  0.14791381531E+04  0.50400001928E-02 0. -1.
    10030    2    1    2    0    0  0.00000000000E+00  0.00000000000E+00 -0.45760198116E+03  0.25006743250E+04  0.24584492077E+04 0.  0.
        4    1    3    3  502    0 -0.64611217599E+03 -0.10370414202E+04 -0.36555592548E+03  0.12753621442E+04  0.12699999809E+01 0.  1.
       -4    1    3    3    0  502  0.64611217599E+03  0.10370414202E+04 -0.92046055675E+02  0.12253121808E+04  0.12699999809E+01 0. -1.
</event>
<event>
 5   0  0.2896652E-05  0.2404292E+04  0.7818609E-02  0.8437898E-01
        1   -1    0    0  501    0  0.00000000000E+00  0.00000000000E+00  0.13025821482E+04  0.13025821482E+04  0.50400001928E-02 0.  1.
       -1   -1    0    0    0  501  0.00000000000E+00  0.00000000000E+00 -0.11094542813E+04  0.11094542813E+04  0.50400001928E-02 0. -1.
    10030    2    1    2    0    0  0.00000000000E+00  0.00000000000E+00  0.19312786688E+03  0.24120364295E+04  0.24042922793E+04 0.  0.
        4    1    3    3  502    0  0.77671031213E+03  0.79998337493E+03 -0.35421777645E+03  0.11699248502E+04  0.12699999809E+01 0. -1.
       -4    1    3    3    0  502 -0.77671031213E+03 -0.79998337493E+03  0.54734564332E+03  0.12421115792E+04  0.12699999809E+01 0.  1.
</event>
<event>
 5   0  0.2977854E-05  0.2608283E+04  0.7818609E-02  0.8365393E-01
        1   -1    0    0  501    0  0.00000000000E+00  0.00000000000E+00  0.19529128762E+04  0.19529128762E+04  0.50400001928E-02 0.  1.
       -1   -1    0    0    0  501  0.00000000000E+00  0.00000000000E+00 -0.87089652236E+03  0.87089652237E+03  0.50400001928E-02 0. -1.
    10030    2    1    2    0    0  0.00000000000E+00  0.00000000000E+00  0.10820163538E+04  0.28238093986E+04  0.26082829849E+04 0.  0.
        1    1    3    3  502    0 -0.11861664158E+04  0.50600599989E+03  0.75136266007E+03  0.14925075158E+04  0.50400001928E-02 0.  1.
       -1    1    3    3    0  502  0.11861664158E+04 -0.50600599989E+03  0.33065369378E+03  0.13313018828E+04  0.50400001928E-02 0. -1.
</event>
<event>
 5   0  0.7071821E-05  0.1642338E+04  0.7818609E-02  0.8794952E-01
       -2   -1    0    0    0  501  0.00000000000E+00  0.00000000000E+00  0.59191696552E+03  0.59191696553E+03  0.25500000920E-02 0. -1.
        2   -1    0    0  501    0  0.00000000000E+00  0.00000000000E+00 -0.11392112497E+04  0.11392112498E+04  0.25500000920E-02 0.  1.
    10030    2    1    2    0    0  0.00000000000E+00  0.00000000000E+00 -0.54729428423E+03  0.17311282153E+04  0.16423379263E+04 0.  0.
        5    1    3    3  502    0 -0.44879548333E+03 -0.39853638718E+03 -0.86434384645E+03  0.10523122220E+04  0.46999998093E+01 0.  1.
       -5    1    3    3    0  502  0.44879548333E+03  0.39853638718E+03  0.31704956223E+03  0.67881599324E+03  0.46999998093E+01 0. -1.
</event>
<event>
 5   0  0.2777539E-05  0.2435556E+04  0.7818609E-02  0.8426311E-01
       -1   -1    0    0    0  501  0.00000000000E+00  0.00000000000E+00  0.81839206727E+03  0.81839206728E+03  0.50400001928E-02 0. -1.
        1   -1    0    0  501    0  0.00000000000E+00  0.00000000000E+00 -0.18120694388E+04  0.18120694388E+04  0.50400001928E-02 0.  1.
    10030    2    1    2    0    0  0.00000000000E+00  0.00000000000E+00 -0.99367737155E+03  0.26304615061E+04  0.24355559974E+04 0.  0.
        3    1    3    3  502    0 -0.43983457477E+03 -0.10460341087E+04 -0.19495180811E+02  0.11349105171E+04  0.10100000352E+00 0. -1.
       -3    1    3    3    0  502  0.43983457477E+03  0.10460341087E+04 -0.97418219074E+03  0.14955509890E+04  0.10100000352E+00 0.  1.
</event>
<event>
 5   0  0.7071821E-05  0.2264305E+04  0.7818609E-02  0.8492130E-01
        2   -1    0    0  501    0  0.00000000000E+00  0.00000000000E+00  0.11415805695E+04  0.11415805695E+04  0.25500000920E-02 0.  1.
       -2   -1    0    0    0  501  0.00000000000E+00  0.00000000000E+00 -0.11228025154E+04  0.11228025154E+04  0.25500000920E-02 0. -1.
    10030    2    1    2    0    0  0.00000000000E+00  0.00000000000E+00  0.18778054171E+02  0.22643830849E+04  0.22643052223E+04 0.  0.
        5    1    3    3  502    0  0.10651316641E+04 -0.35280579371E+03 -0.14151366015E+03  0.11309401381E+04  0.46999998093E+01 0. -1.
       -5    1    3    3    0  502 -0.10651316641E+04  0.35280579371E+03  0.16029171432E+03  0.11334429468E+04  0.46999998093E+01 0.  1.
</event>
<event>
 5   0  0.6445331E-05  0.2493569E+04  0.7818609E-02  0.8405280E-01
       -2   -1    0    0    0  501  0.00000000000E+00  0.00000000000E+00  0.66415057914E+03  0.66415057915E+03  0.25500000920E-02 0.  1.
        2   -1    0    0  501    0  0.00000000000E+00  0.00000000000E+00 -0.23405411290E+04  0.23405411290E+04  0.25500000920E-02 0. -1.
    10030    2    1    2    0    0  0.00000000000E+00  0.00000000000E+00 -0.16763905498E+04  0.30046917081E+04  0.24935691258E+04 0.  0.
        1    1    3    3  502    0  0.62634022748E+03  0.50514130432E+03  0.30938377611E+03  0.86208360316E+03  0.50400001928E-02 0.  1.
       -1    1    3    3    0  502 -0.62634022748E+03 -0.50514130432E+03 -0.19857743259E+04  0.21426081050E+04  0.50400001928E-02 0. -1.
</event>
<event>
 5   0  0.6909250E-05  0.2529661E+04  0.7818609E-02  0.8392494E-01
        2   -1    0    0  501    0  0.00000000000E+00  0.00000000000E+00  0.16765769398E+04  0.16765769398E+04  0.25500000920E-02 0.  1.
       -2   -1    0    0    0  501  0.00000000000E+00  0.00000000000E+00 -0.95420371131E+03  0.95420371132E+03  0.25500000920E-02 0. -1.
    10030    2    1    2    0    0  0.00000000000E+00  0.00000000000E+00  0.72237322851E+03  0.26307806511E+04  0.25296607980E+04 0.  0.
        4    1    3    3  502    0 -0.72559089355E+03 -0.14505826106E+02  0.14385018514E+04  0.16112050624E+04  0.12699999809E+01 0.  1.
       -4    1    3    3    0  502  0.72559089355E+03  0.14505826106E+02 -0.71612862286E+03  0.10195755887E+04  0.12699999809E+01 0. -1.
</event>
<event>
 5   0  0.7071821E-05  0.1604754E+04  0.7818609E-02  0.8817632E-01
       -2   -1    0    0    0  501  0.00000000000E+00  0.00000000000E+00  0.16004404579E+04  0.16004404579E+04  0.25500000920E-02 0.  1.
        2   -1    0    0  501    0  0.00000000000E+00  0.00000000000E+00 -0.40227001203E+03  0.40227001204E+03  0.25500000920E-02 0. -1.
    10030    2    1    2    0    0  0.00000000000E+00  0.00000000000E+00  0.11981704459E+04  0.20027104699E+04  0.16047544389E+04 0.  0.
        5    1    3    3  502    0  0.11552658331E+03 -0.68411232199E+03  0.96112873385E+02  0.70043974401E+03  0.46999998093E+01 0. -1.
       -5    1    3    3    0  502 -0.11552658331E+03  0.68411232199E+03  0.11020575725E+04  0.13022707259E+04  0.46999998093E+01 0.  1.
</event>
<event>
 5   0  0.2896652E-05  0.1757220E+04  0.7818609E-02  0.8729386E-01
       -1   -1    0    0    0  501  0.00000000000E+00  0.00000000000E+00  0.65536057470E+03  0.65536057472E+03  0.50400001928E-02 0. -1.
        1   -1    0    0  501    0  0.00000000000E+00  0.00000000000E+00 -0.11779092469E+04  0.11779092469E+04  0.50400001928E-02 0.  1.
    10030    2    1    2    0    0  0.00000000000E+00  0.00000000000E+00 -0.52254867218E+03  0.18332698216E+04  0.17572197142E+04 0.  0.
        4    1    3    3  502    0 -0.28159390520E+03 -0.26033469445E+03  0.56343357285E+03  0.68156311850E+03  0.12699999809E+01 0. -1.
       -4    1    3    3    0  502  0.28159390520E+03  0.26033469445E+03 -0.10859822450E+04  0.11517067031E+04  0.12699999809E+01 0.  1.
</event>
<event>
 5   0  0.6445331E-05  0.2440362E+04  0.7818609E-02  0.8424545E-01
       -2   -1    0    0    0  501  0.00000000000E+00  0.00000000000E+00  0.86087544688E+03  0.86087544688E+03  0.25500000920E-02 0. -1.
        2   -1    0    0  501    0  0.00000000000E+00  0.00000000000E+00 -0.17294506426E+04  0.17294506426E+04  0.25500000920E-02 0.  1.
    10030    2    1    2    0    0  0.00000000000E+00  0.00000000000E+00 -0.86857519576E+03  0.25903260895E+04  0.24403619361E+04 0.  0.
        1    1    3    3  502    0 -0.30653619428E+03  0.69723415355E+03  0.57757239246E+03  0.95587121091E+03  0.50400001928E-02 0. -1.
       -1    1    3    3    0  502  0.30653619428E+03 -0.69723415355E+03 -0.14461475882E+04  0.16344548786E+04  0.50400001928E-02 0.  1.
</event>
<event>
 5   0  0.2896652E-05  0.2458633E+04  0.7818609E-02  0.8417873E-01
        1   -1    0    0  501    0  0.00000000000E+00  0.00000000000E+00  0.90304290594E+03  0.90304290595E+03  0.50400001928E-02 0. -1.
       -1   -1    0    0    0  501  0.00000000000E+00  0.00000000000E+00 -0.16734742246E+04  0.16734742246E+04  0.50400001928E-02 0.  1.
    10030    2    1    2    0    0  0.00000000000E+00  0.00000000000E+00 -0.77043131862E+03  0.25765171305E+04  0.24586329753E+04 0.  0.
        4    1    3    3  502    0 -0.10547553422E+04 -0.22817599427E+03 -0.10022102583E+04  0.14727525695E+04  0.12699999809E+01 0.  1.
       -4    1    3    3    0  502  0.10547553422E+04  0.22817599427E+03  0.23177893967E+03  0.11037645610E+04  0.12699999809E+01 0. -1.
</event>
<event>
 5   0  0.2793920E-05  0.2371992E+04  0.7818609E-02  0.8450064E-01
        1   -1    0    0  501    0  0.00000000000E+00  0.00000000000E+00  0.73216597610E+03  0.73216597611E+03  0.50400001928E-02 0. -1.
       -1   -1    0    0    0  501  0.00000000000E+00  0.00000000000E+00 -0.19211310542E+04  0.19211310542E+04  0.50400001928E-02 0.  1.
    10030    2    1    2    0    0  0.00000000000E+00  0.00000000000E+00 -0.11889650781E+04  0.26532970303E+04  0.23719922374E+04 0.  0.
        2    1    3    3  502    0  0.10099159630E+04 -0.18220518512E+03 -0.12595127881E+04  0.16246542540E+04  0.25500000920E-02 0.  1.
       -2    1    3    3    0  502 -0.10099159630E+04  0.18220518512E+03  0.70547709971E+02  0.10286427763E+04  0.25500000920E-02 0. -1.
</event>
<event>
 5   0  0.2793920E-05  0.2463571E+04  0.7818609E-02  0.8416080E-01
       -1   -1    0    0    0  501  0.00000000000E+00  0.00000000000E+00  0.72968519439E+03  0.72968519441E+03  0.50400001928E-02 0. -1.
        1   -1    0    0  501    0  0.00000000000E+00  0.00000000000E+00 -0.20793836185E+04  0.20793836185E+04  0.50400001928E-02 0.  1.
    10030    2    1    2    0    0  0.00000000000E+00  0.00000000000E+00 -0.13496984241E+04  0.28090688129E+04  0.24635709366E+04 0.  0.
        2    1    3    3  502    0 -0.38579815936E+03 -0.33322320647E+02  0.65847674709E+03  0.76389935416E+03  0.25500000920E-02 0. -1.
       -2    1    3    3    0  502  0.38579815936E+03  0.33322320647E+02 -0.20081751712E+04  0.20451694587E+04  0.25500000920E-02 0.  1.
</event>
<event>
 5   0  0.2977854E-05  0.2516361E+04  0.7818609E-02  0.8397180E-01
       -1   -1    0    0    0  501  0.00000000000E+00  0.00000000000E+00  0.11738141810E+04  0.11738141811E+04  0.50400001928E-02 0. -1.
        1   -1    0    0  501    0  0.00000000000E+00  0.00000000000E+00 -0.13486101450E+04  0.13486101450E+04  0.50400001928E-02 0.  1.
    10030    2    1    2    0    0  0.00000000000E+00  0.00000000000E+00 -0.17479596391E+03  0.25224243260E+04  0.25163606362E+04 0.  0.
        1    1    3    3  502    0  0.34083807379E+03 -0.70625489912E+03  0.89886881591E+03  0.11928670183E+04  0.50400001928E-02 0. -1.
       -1    1    3    3    0  502 -0.34083807379E+03  0.70625489912E+03 -0.10736647798E+04  0.13295573077E+04  0.50400001928E-02 0.  1.
</event>
<event>
 5   0  0.2896652E-05  0.2465850E+04  0.7818609E-02  0.8415253E-01
       -1   -1    0    0    0  501  0.00000000000E+00  0.00000000000E+00  0.82867219177E+03  0.82867219179E+03  0.50400001928E-02 0.  1.
        1   -1    0    0  501    0  0.00000000000E+00  0.00000000000E+00 -0.18343860008E+04  0.18343860008E+04  0.50400001928E-02 0. -1.
    10030    2    1    2    0    0  0.00000000000E+00  0.00000000000E+00 -0.10057138090E+04  0.26630581926E+04  0.24658504966E+04 0.  0.
        4    1    3    3  502    0 -0.31651063189E+03  0.35336299792E+03 -0.17318760150E+04  0.17956727243E+04  0.12699999809E+01 0. -1.
       -4    1    3    3    0  502  0.31651063189E+03 -0.35336299792E+03  0.72616220598E+03  0.86738546834E+03  0.12699999809E+01 0.  1.
</event>
<event>
 5   0  0.6909250E-05  0.2556983E+04  0.7818609E-02  0.8382962E-01
        2   -1    0    0  501    0  0.00000000000E+00  0.00000000000E+00  0.22977510218E+04  0.22977510218E+04  0.25500000920E-02 0.  1.
       -2   -1    0    0    0  501  0.00000000000E+00  0.00000000000E+00 -0.71136537031E+03  0.71136537031E+03  0.25500000920E-02 0. -1.
    10030    2    1    2    0    0  0.00000000000E+00  0.00000000000E+00  0.15863856515E+04  0.30091163921E+04  0.25569829929E+04 0.  0.
        4    1    3    3  502    0  0.58092943628E+03  0.38140331097E+03 -0.46968213693E+03  0.83877912361E+03  0.12699999809E+01 0. -1.
       -4    1    3    3    0  502 -0.58092943628E+03 -0.38140331097E+03  0.20560677884E+04  0.21703372685E+04  0.12699999809E+01 0.  1.
</event>
<event>
 5   0  0.6648328E-05  0.1998392E+04  0.7818609E-02  0.8607373E-01
        2   -1    0    0  501    0  0.00000000000E+00  0.00000000000E+00  0.15086551770E+04  0.15086551770E+04  0.25500000920E-02 0.  1.
       -2   -1    0    0    0  501  0.00000000000E+00  0.00000000000E+00 -0.66177677137E+03  0.66177677138E+03  0.25500000920E-02 0. -1.
    10030    2    1    2    0    0  0.00000000000E+00  0.00000000000E+00  0.84687840567E+03  0.21704319484E+04  0.19983923060E+04 0.  0.
        2    1    3    3  502    0 -0.37374213118E+03  0.46009503681E+03 -0.45018580781E+03  0.74433721194E+03  0.25500000920E-02 0. -1.
       -2    1    3    3    0  502  0.37374213118E+03 -0.46009503681E+03  0.12970642135E+04  0.14260947365E+04  0.25500000920E-02 0.  1.
</event>
<event>
 5   0  0.2980790E-05  0.1258448E+04  0.7818609E-02  0.9063181E-01
        1   -1    0    0  501    0  0.00000000000E+00  0.00000000000E+00  0.14196877045E+04  0.14196877045E+04  0.50400001928E-02 0.  1.
       -1   -1    0    0    0  501  0.00000000000E+00  0.00000000000E+00 -0.27888041836E+03  0.27888041840E+03  0.50400001928E-02 0. -1.
    10030    2    1    2    0    0  0.00000000000E+00  0.00000000000E+00  0.11408072862E+04  0.16985681229E+04  0.12584484114E+04 0.  0.
        5    1    3    3  502    0 -0.52755056162E+03  0.21803585406E+03  0.21316605608E+03  0.60935300622E+03  0.46999998093E+01 0. -1.
       -5    1    3    3    0  502  0.52755056162E+03 -0.21803585406E+03  0.92764123007E+03  0.10892151167E+04  0.46999998093E+01 0.  1.
</event>
<event>
 5   0  0.6648328E-05  0.2489005E+04  0.7818609E-02  0.8406913E-01
        2   -1    0    0  501    0  0.00000000000E+00  0.00000000000E+00  0.10904980920E+04  0.10904980921E+04  0.25500000920E-02 0. -1.
       -2   -1    0    0    0  501  0.00000000000E+00  0.00000000000E+00 -0.14202564077E+04  0.14202564077E+04  0.25500000920E-02 0.  1.
    10030    2    1    2    0    0  0.00000000000E+00  0.00000000000E+00 -0.32975831566E+03  0.25107544998E+04  0.24890053458E+04 0.  0.
        2    1    3    3  502    0  0.61121613074E+03 -0.13454098601E+03  0.92020632920E+03  0.11128639287E+04  0.25500000920E-02 0. -1.
       -2    1    3    3    0  502 -0.61121613074E+03  0.13454098601E+03 -0.12499646449E+04  0.13978905711E+04  0.25500000920E-02 0.  1.
</event>
<event>
 5   0  0.2980790E-05  0.2013842E+04  0.7818609E-02  0.8600176E-01
        1   -1    0    0  501    0  0.00000000000E+00  0.00000000000E+00  0.80839380250E+03  0.80839380251E+03  0.50400001928E-02 0.  1.
       -1   -1    0    0    0  501  0.00000000000E+00  0.00000000000E+00 -0.12542034555E+04  0.12542034555E+04  0.50400001928E-02 0. -1.
    10030    2    1    2    0    0  0.00000000000E+00  0.00000000000E+00 -0.44580965297E+03  0.20625972580E+04  0.20138423975E+04 0.  0.
        5    1    3    3  502    0  0.30811478336E+03 -0.47014404354E+03 -0.10785327603E+04  0.12162340015E+04  0.46999998093E+01 0. -1.
       -5    1    3    3    0  502 -0.30811478336E+03  0.47014404354E+03  0.63272310731E+03  0.84636325649E+03  0.46999998093E+01 0.  1.
</event>
<event>
 5   0  0.6445331E-05  0.2087744E+04  0.7818609E-02  0.8566662E-01
        2   -1    0    0  501    0  0.00000000000E+00  0.00000000000E+00  0.57596673779E+03  0.57596673780E+03  0.25500000920E-02 0.  1.
       -2   -1    0    0    0  501  0.00000000000E+00  0.00000000000E+00 -0.18918948820E+04  0.18918948820E+04  0.25500000920E-02 0. -1.
    10030    2    1    2    0    0  0.00000000000E+00  0.00000000000E+00 -0.13159281442E+04  0.24678616198E+04  0.20877437807E+04 0.  0.
        1    1    3    3  502    0 -0.29186462337E+03 -0.99839772277E+03 -0.55433511104E+03  0.11786731466E+04  0.50400001928E-02 0.  1.
       -1    1    3    3    0  502  0.29186462337E+03  0.99839772277E+03 -0.76159303316E+03  0.12891884732E+04  0.50400001928E-02 0. -1.
</event>
<event>
 5   0  0.6909250E-05  0.2140512E+04  0.7818609E-02  0.8543605E-01
       -2   -1    0    0    0  501  0.00000000000E+00  0.00000000000E+00  0.12593621753E+04  0.12593621753E+04  0.25500000920E-02 0.  1.
        2   -1    0    0  501    0  0.00000000000E+00  0.00000000000E+00 -0.90954593848E+03  0.90954593848E+03  0.25500000920E-02 0. -1.
    10030    2    1    2    0    0  0.00000000000E+00  0.00000000000E+00  0.34981623682E+03  0.21689081138E+04  0.21405118562E+04 0.  0.
        4    1    3    3  502    0 -0.10051026862E+04  0.78458995874E+02  0.53892164361E+03  0.11431646315E+04  0.12699999809E+01 0.  1.
       -4    1    3    3    0  502  0.10051026862E+04 -0.78458995874E+02 -0.18910540678E+03  0.10257434823E+04  0.12699999809E+01 0. -1.
</event>
<event>
 5   0  0.2980790E-05  0.2503377E+04  0.7818609E-02  0.8401784E-01
       -1   -1    0    0    0  501  0.00000000000E+00  0.00000000000E+00  0.89269207502E+03  0.89269207504E+03  0.50400001928E-02 0. -1.
        1   -1    0    0  501    0  0.00000000000E+00  0.00000000000E+00 -0.17550550303E+04  0.17550550303E+04  0.50400001928E-02 0.  1.
    10030    2    1    2    0    0  0.00000000000E+00  0.00000000000E+00 -0.86236295525E+03  0.26477471053E+04  0.25033766930E+04 0.  0.
        5    1    3    3  502    0 -0.39492021293E+03  0.10845425089E+04 -0.94336828347E+03  0.14906911942E+04  0.46999998093E+01 0.  1.
       -5    1    3    3    0  502  0.39492021293E+03 -0.10845425089E+04  0.81005328221E+02  0.11570559111E+04  0.46999998093E+01 0. -1.
</event>
<event>
 5   0  0.6909250E-05  0.2534512E+04  0.7818609E-02  0.8390793E-01
        2   -1    0    0  501    0  0.00000000000E+00  0.00000000000E+00  0.20656650949E+04  0.20656650949E+04  0.25500000920E-02 0.  1.
       -2   -1    0    0    0  501  0.00000000000E+00  0.00000000000E+00 -0.77744331776E+03  0.77744331776E+03  0.25500000920E-02 0. -1.
    10030    2    1    2    0    0  0.00000000000E+00  0.00000000000E+00  0.12882217771E+04  0.28431084126E+04  0.25345118068E+04 0.  0.
        4    1    3    3  502    0 -0.79445179351E+03 -0.93631218754E+03  0.29276289917E+03  0.12623572762E+04  0.12699999809E+01 0.  1.
       -4    1    3    3    0  502  0.79445179351E+03  0.93631218754E+03  0.99545887795E+03  0.15807511364E+04  0.12699999809E+01 0. -1.
</event>
<event>
 5   0  0.7071821E-05  0.1433831E+04  0.7818609E-02  0.8929687E-01
       -2   -1    0    0    0  501  0.00000000000E+00  0.00000000000E+00  0.39049996854E+03  0.39049996855E+03  0.25500000920E-02 0. -1.
        2   -1    0    0  501    0  0.00000000000E+00  0.00000000000E+00 -0.13161791200E+04  0.13161791200E+04  0.25500000920E-02 0.  1.
    10030    2    1    2    0    0  0.00000000000E+00  0.00000000000E+00 -0.92567915149E+03  0.17066790886E+04  0.14338310988E+04 0.  0.
        5    1    3    3  502    0 -0.49487694164E+03 -0.20001169908E+03  0.10680975757E+03  0.54436961841E+03  0.46999998093E+01 0. -1.
       -5    1    3    3    0  502  0.49487694164E+03  0.20001169908E+03 -0.10324889091E+04  0.11623094702E+04  0.46999998093E+01 0.  1.
</event>
<event>
 5   0  0.6445331E-05  0.1578048E+04  0.7818609E-02  0.8834148E-01
       -2   -1    0    0    0  501  0.00000000000E+00  0.00000000000E+00  0.52383271734E+03  0.52383271734E+03  0.25500000920E-02 0.  1.
        2   -1    0    0  501    0  0.00000000000E+00  0.00000000000E+00 -0.11884692644E+04  0.11884692644E+04  0.25500000920E-02 0. -1.
    10030    2    1    2    0    0  0.00000000000E+00  0.00000000000E+00 -0.66463654704E+03  0.17123019817E+04  0.15780482683E+04 0.  0.
        1    1    3    3  502    0 -0.45279824366E+03  0.14163601579E+03  0.35177195443E+03  0.59061875892E+03  0.50400001928E-02 0.  1.
       -1    1    3    3    0  502  0.45279824366E+03 -0.14163601579E+03 -0.10164085015E+04  0.11216832228E+04  0.50400001928E-02 0. -1.
</event>
<event>
 5   0  0.2896652E-05  0.1991502E+04  0.7818609E-02  0.8610604E-01
       -1   -1    0    0    0  501  0.00000000000E+00  0.00000000000E+00  0.14618120856E+04  0.14618120856E+04  0.50400001928E-02 0.  1.
        1   -1    0    0  501    0  0.00000000000E+00  0.00000000000E+00 -0.67828119235E+03  0.67828119236E+03  0.50400001928E-02 0. -1.
    10030    2    1    2    0    0  0.00000000000E+00  0.00000000000E+00  0.78353089324E+03  0.21400932780E+04  0.19915015887E+04 0.  0.
        4    1    3    3  502    0 -0.85977737319E+03  0.49171021747E+03  0.50199560017E+03  0.11104040998E+04  0.12699999809E+01 0.  1.
       -4    1    3    3    0  502  0.85977737319E+03 -0.49171021747E+03  0.28153529307E+03  0.10296891781E+04  0.12699999809E+01 0. -1.
</event>
<event>
 5   0  0.6445331E-05  0.2525348E+04  0.7818609E-02  0.8394010E-01
       -2   -1    0    0    0  501  0.00000000000E+00  0.00000000000E+00  0.15331448490E+04  0.15331448490E+04  0.25500000920E-02 0.  1.
        2   -1    0    0  501    0  0.00000000000E+00  0.00000000000E+00 -0.10399186931E+04  0.10399186931E+04  0.25500000920E-02 0. -1.
    10030    2    1    2    0    0  0.00000000000E+00  0.00000000000E+00  0.49322615586E+03  0.25730635421E+04  0.25253482831E+04 0.  0.
        1    1    3    3  502    0  0.33538978330E+03 -0.77667602717E+03  0.12016787574E+04  0.14696066800E+04  0.50400001928E-02 0.  1.
       -1    1    3    3    0  502 -0.33538978330E+03  0.77667602717E+03 -0.70845260149E+03  0.11034568621E+04  0.50400001928E-02 0. -1.
</event>
<event>
 5   0  0.2793920E-05  0.2531071E+04  0.7818609E-02  0.8391999E-01
       -1   -1    0    0    0  501  0.00000000000E+00  0.00000000000E+00  0.81505618029E+03  0.81505618030E+03  0.50400001928E-02 0.  1.
        1   -1    0    0  501    0  0.00000000000E+00  0.00000000000E+00 -0.19649936518E+04  0.19649936518E+04  0.50400001928E-02 0. -1.
    10030    2    1    2    0    0  0.00000000000E+00  0.00000000000E+00 -0.11499374715E+04  0.27800498321E+04  0.25310710935E+04 0.  0.
        2    1    3    3  502    0  0.46516800659E+03  0.60897722638E+03 -0.16811880312E+04  0.18476005339E+04  0.25500000920E-02 0. -1.
       -2    1    3    3    0  502 -0.46516800659E+03 -0.60897722638E+03  0.53125055967E+03  0.93244929823E+03  0.25500000920E-02 0.  1.
</event>
<event>
 5   0  0.6827859E-05  0.2400198E+04  0.7818609E-02  0.8439429E-01
        2   -1    0    0  501    0  0.00000000000E+00  0.00000000000E+00  0.11810667843E+04  0.11810667843E+04  0.25500000920E-02 0.  1.
       -2   -1    0    0    0  501  0.00000000000E+00  0.00000000000E+00 -0.12194381985E+04  0.12194381985E+04  0.25500000920E-02 0. -1.
    10030    2    1    2    0    0  0.00000000000E+00  0.00000000000E+00 -0.38371414200E+02  0.24005049828E+04  0.24001982849E+04 0.  0.
        3    1    3    3  502    0 -0.51376646174E+03 -0.42312401693E+02  0.10646924216E+04  0.11829269966E+04  0.10100000352E+00 0.  1.
       -3    1    3    3    0  502  0.51376646174E+03  0.42312401693E+02 -0.11030638358E+04  0.12175779862E+04  0.10100000352E+00 0. -1.
</event>
<event>
 5   0  0.2896652E-05  0.2416240E+04  0.7818609E-02  0.8433449E-01
       -1   -1    0    0    0  501  0.00000000000E+00  0.00000000000E+00  0.12512194545E+04  0.12512194545E+04  0.50400001928E-02 0. -1.
        1   -1    0    0  501    0  0.00000000000E+00  0.00000000000E+00 -0.11665048622E+04  0.11665048622E+04  0.50400001928E-02 0.  1.
    10030    2    1    2    0    0  0.00000000000E+00  0.00000000000E+00  0.84714592287E+02  0.24177243168E+04  0.24162397045E+04 0.  0.
        4    1    3    3  502    0  0.53319594641E+03 -0.57776054927E+03  0.96022500687E+03  0.12410233061E+04  0.12699999809E+01 0. -1.
       -4    1    3    3    0  502 -0.53319594641E+03  0.57776054927E+03 -0.87551041458E+03  0.11767010107E+04  0.12699999809E+01 0.  1.
</event>
<event>
 5   0  0.2977854E-05  0.2479287E+04  0.7818609E-02  0.8410402E-01
        1   -1    0    0  501    0  0.00000000000E+00  0.00000000000E+00  0.11498750582E+04  0.11498750582E+04  0.50400001928E-02 0. -1.
       -1   -1    0    0    0  501  0.00000000000E+00  0.00000000000E+00 -0.13364204280E+04  0.13364204281E+04  0.50400001928E-02 0.  1.
    10030    2    1    2    0    0  0.00000000000E+00  0.00000000000E+00 -0.18654536987E+03  0.24862954862E+04  0.24792874117E+04 0.  0.
        1    1    3    3  502    0 -0.30221893979E+03  0.34200473295E+03  0.10625532190E+04  0.11564267673E+04  0.50400001928E-02 0. -1.
       -1    1    3    3    0  502  0.30221893979E+03 -0.34200473295E+03 -0.12490985888E+04  0.13298687189E+04  0.50400001928E-02 0.  1.
</event>
<event>
 5   0  0.6445331E-05  0.2395244E+04  0.7818609E-02  0.8441286E-01
       -2   -1    0    0    0  501  0.00000000000E+00  0.00000000000E+00  0.18808633033E+04  0.18808633033E+04  0.25500000920E-02 0.  1.
        2   -1    0    0  501    0  0.00000000000E+00  0.00000000000E+00 -0.76257483264E+03  0.76257483264E+03  0.25500000920E-02 0. -1.
    10030    2    1    2    0    0  0.00000000000E+00  0.00000000000E+00  0.11182884707E+04  0.26434381360E+04  0.23952444708E+04 0.  0.
        1    1    3    3  502    0  0.64969454011E+03  0.67286880751E+03  0.13846069404E+04  0.16709254343E+04  0.50400001928E-02 0.  1.
       -1    1    3    3    0  502 -0.64969454011E+03 -0.67286880751E+03 -0.26631846971E+03  0.97251270167E+03  0.50400001928E-02 0. -1.
</event>
<event>
 5   0  0.6909250E-05  0.2497976E+04  0.7818609E-02  0.8403707E-01
        2   -1    0    0  501    0  0.00000000000E+00  0.00000000000E+00  0.12286379714E+04  0.12286379714E+04  0.25500000920E-02 0.  1.
       -2   -1    0    0    0  501  0.00000000000E+00  0.00000000000E+00 -0.12696755930E+04  0.12696755930E+04  0.25500000920E-02 0. -1.
    10030    2    1    2    0    0  0.00000000000E+00  0.00000000000E+00 -0.41037621636E+02  0.24983135644E+04  0.24979764970E+04 0.  0.
        4    1    3    3  502    0  0.30252886296E+03 -0.52762270613E+03  0.10705273776E+04  0.12312351164E+04  0.12699999809E+01 0.  1.
       -4    1    3    3    0  502 -0.30252886296E+03  0.52762270613E+03 -0.11115649992E+04  0.12670784480E+04  0.12699999809E+01 0. -1.
</event>
<event>
 5   0  0.2980790E-05  0.2536842E+04  0.7818609E-02  0.8389977E-01
        1   -1    0    0  501    0  0.00000000000E+00  0.00000000000E+00  0.13275457709E+04  0.13275457709E+04  0.50400001928E-02 0.  1.
       -1   -1    0    0    0  501  0.00000000000E+00  0.00000000000E+00 -0.12119297380E+04  0.12119297380E+04  0.50400001928E-02 0. -1.
    10030    2    1    2    0    0  0.00000000000E+00  0.00000000000E+00  0.11561603293E+03  0.25394755089E+04  0.25368422878E+04 0.  0.
        5    1    3    3  502    0  0.81601818255E+03 -0.67757300193E+03  0.75414436310E+03  0.13014402244E+04  0.46999998093E+01 0.  1.
       -5    1    3    3    0  502 -0.81601818255E+03  0.67757300193E+03 -0.63852833018E+03  0.12380352845E+04  0.46999998093E+01 0. -1.
</event>
<event>
 5   0  0.6445331E-05  0.2344931E+04  0.7818609E-02  0.8460413E-01
       -2   -1    0    0    0  501  0.00000000000E+00  0.00000000000E+00  0.84636475769E+03  0.84636475769E+03  0.25500000920E-02 0. -1.
        2   -1    0    0  501    0  0.00000000000E+00  0.00000000000E+00 -0.16242117969E+04  0.16242117969E+04  0.25500000920E-02 0.  1.
    10030    2    1    2    0    0  0.00000000000E+00  0.00000000000E+00 -0.77784703923E+03  0.24705765546E+04  0.23449312348E+04 0.  0.
        1    1    3    3  502    0  0.55531356706E+03  0.81022979896E+03  0.28555814927E+03  0.10229315429E+04  0.50400001928E-02 0. -1.
       -1    1    3    3    0  502 -0.55531356706E+03 -0.81022979896E+03 -0.10634051885E+04  0.14476450117E+04  0.50400001928E-02 0.  1.
</event>
<event>
 5   0  0.6827859E-05  0.2509477E+04  0.7818609E-02  0.8399617E-01
        2   -1    0    0  501    0  0.00000000000E+00  0.00000000000E+00  0.18553177658E+04  0.18553177658E+04  0.25500000920E-02 0.  1.
       -2   -1    0    0    0  501  0.00000000000E+00  0.00000000000E+00 -0.84857076622E+03  0.84857076622E+03  0.25500000920E-02 0. -1.
    10030    2    1    2    0    0  0.00000000000E+00  0.00000000000E+00  0.10067469996E+04  0.27038885320E+04  0.25094767726E+04 0.  0.
        3    1    3    3  502    0  0.19913883720E+03 -0.10867052638E+03  0.18330368642E+04  0.18470218503E+04  0.10100000352E+00 0.  1.
       -3    1    3    3    0  502 -0.19913883720E+03  0.10867052638E+03 -0.82628986458E+03  0.85686668176E+03  0.10100000352E+00 0. -1.
</event>
<event>
 5   0  0.2977854E-05  0.2209938E+04  0.7818609E-02  0.8514303E-01
        1   -1    0    0  501    0  0.00000000000E+00  0.00000000000E+00  0.17368866692E+04  0.17368866692E+04  0.50400001928E-02 0.  1.
       -1   -1    0    0    0  501  0.00000000000E+00  0.00000000000E+00 -0.70295693150E+03  0.70295693152E+03  0.50400001928E-02 0. -1.
    10030    2    1    2    0    0  0.00000000000E+00  0.00000000000E+00  0.10339297377E+04  0.24398436008E+04  0.22099380294E+04 0.  0.
        1    1    3    3  502    0 -0.29273374629E+03 -0.47684743683E+03 -0.53498759910E+03  0.77413710378E+03  0.50400001928E-02 0. -1.
       -1    1    3    3    0  502  0.29273374629E+03  0.47684743683E+03  0.15689173368E+04  0.16657064970E+04  0.50400001928E-02 0.  1.
</event>
<event>
 5   0  0.2977854E-05  0.2502737E+04  0.7818609E-02  0.8402011E-01
       -1   -1    0    0    0  501  0.00000000000E+00  0.00000000000E+00  0.10567811446E+04  0.10567811446E+04  0.50400001928E-02 0. -1.
        1   -1    0    0  501    0  0.00000000000E+00  0.00000000000E+00 -0.14817859544E+04  0.14817859544E+04  0.50400001928E-02 0.  1.
    10030    2    1    2    0    0  0.00000000000E+00  0.00000000000E+00 -0.42500480982E+03  0.25385670990E+04  0.25027372670E+04 0.  0.
        1    1    3    3  502    0 -0.69615535723E+03  0.73912741569E+03  0.52939338435E+03  0.11450759684E+04  0.50400001928E-02 0. -1.
       -1    1    3    3    0  502  0.69615535723E+03 -0.73912741569E+03 -0.95439819417E+03  0.13934911306E+04  0.50400001928E-02 0.  1.
</event>
<event>
 5   0  0.2777539E-05  0.2077150E+04  0.7818609E-02  0.8571376E-01
       -1   -1    0    0    0  501  0.00000000000E+00  0.00000000000E+00  0.67857143564E+03  0.67857143566E+03  0.50400001928E-02 0.  1.
        1   -1    0    0  501    0  0.00000000000E+00  0.00000000000E+00 -0.15895718809E+04  0.15895718809E+04  0.50400001928E-02 0. -1.
    10030    2    1    2    0    0  0.00000000000E+00  0.00000000000E+00 -0.91100044530E+03  0.22681433166E+04  0.20771500411E+04 0.  0.
        3    1    3    3  502    0 -0.28881183454E+03  0.31519803205E+02  0.63329587572E+03  0.69675637791E+03  0.10100000352E+00 0.  1.
       -3    1    3    3    0  502  0.28881183454E+03 -0.31519803205E+02 -0.15442963210E+04  0.15713869387E+04  0.10100000352E+00 0. -1.
</event>
<event>
 5   0  0.2980790E-05  0.2529885E+04  0.7818609E-02  0.8392416E-01
        1   -1    0    0  501    0  0.00000000000E+00  0.00000000000E+00  0.26806233976E+04  0.26806233976E+04  0.50400001928E-02 0.  1.
       -1   -1    0    0    0  501  0.00000000000E+00  0.00000000000E+00 -0.59690572330E+03  0.59690572332E+03  0.50400001928E-02 0. -1.
    10030    2    1    2    0    0  0.00000000000E+00  0.00000000000E+00  0.20837176743E+04  0.32775291210E+04  0.25298849366E+04 0.  0.
        5    1    3    3  502    0  0.10186868522E+04  0.71421553014E+03  0.74577927558E+03  0.14505294014E+04  0.46999998093E+01 0.  1.
       -5    1    3    3    0  502 -0.10186868522E+04 -0.71421553014E+03  0.13379383988E+04  0.18269997196E+04  0.46999998093E+01 0. -1.
</event>
<event>
 5   0  0.2777539E-05  0.2482301E+04  0.7818609E-02  0.8409318E-01
        1   -1    0    0  501    0  0.00000000000E+00  0.00000000000E+00  0.21903851185E+04  0.21903851185E+04  0.50400001928E-02 0. -1.
       -1   -1    0    0    0  501  0.00000000000E+00  0.00000000000E+00 -0.70328018088E+03  0.70328018090E+03  0.50400001928E-02 0.  1.
    10030    2    1    2    0    0  0.00000000000E+00  0.00000000000E+00  0.14871049376E+04  0.28936652994E+04  0.24823009023E+04 0.  0.
        3    1    3    3  502    0  0.65527292923E+02 -0.29949445617E+03  0.21455512538E+04  0.21673442155E+04  0.10100000352E+00 0. -1.
       -3    1    3    3    0  502 -0.65527292923E+02  0.29949445617E+03 -0.65844631622E+03  0.72632108391E+03  0.10100000352E+00 0.  1.
</event>
<event>
 5   0  0.6909250E-05  0.2386071E+04  0.7818609E-02  0.8444737E-01
        2   -1    0    0  501    0  0.00000000000E+00  0.00000000000E+00  0.34704265500E+04  0.34704265500E+04  0.25500000920E-02 0.  1.
       -2   -1    0    0    0  501  0.00000000000E+00  0.00000000000E+00 -0.41013210441E+03  0.41013210442E+03  0.25500000920E-02 0. -1.
    10030    2    1    2    0    0  0.00000000000E+00  0.00000000000E+00  0.30602944456E+04  0.38805586545E+04  0.23860706982E+04 0.  0.
        4    1    3    3  502    0  0.11123842608E+04 -0.42650195224E+03  0.14269154282E+04  0.18588684491E+04  0.12699999809E+01 0. -1.
       -4    1    3    3    0  502 -0.11123842608E+04  0.42650195224E+03  0.16333790174E+04  0.20216902054E+04  0.12699999809E+01 0.  1.
</event>
<event>
 5   0  0.6445331E-05  0.2221587E+04  0.7818609E-02  0.8509497E-01
        2   -1    0    0  501    0  0.00000000000E+00  0.00000000000E+00  0.20611946570E+04  0.20611946570E+04  0.25500000920E-02 0. -1.
       -2   -1    0    0    0  501  0.00000000000E+00  0.00000000000E+00 -0.59861493415E+03  0.59861493415E+03  0.25500000920E-02 0.  1.
    10030    2    1    2    0    0  0.00000000000E+00  0.00000000000E+00  0.14625797229E+04  0.26598095912E+04  0.22215867337E+04 0.  0.
        1    1    3    3  502    0 -0.34099861741E+03  0.62503518103E+03 -0.28948144396E+03  0.76860167903E+03  0.50400001928E-02 0.  1.
       -1    1    3    3    0  502  0.34099861741E+03 -0.62503518103E+03  0.17520611668E+04  0.18912079121E+04  0.50400001928E-02 0. -1.
</event>
<event>
 5   0  0.2793920E-05  0.1560560E+04  0.7818609E-02  0.8845151E-01
        1   -1    0    0  501    0  0.00000000000E+00  0.00000000000E+00  0.95248706660E+03  0.95248706661E+03  0.50400001928E-02 0.  1.
       -1   -1    0    0    0  501  0.00000000000E+00  0.00000000000E+00 -0.63920720605E+03  0.63920720607E+03  0.50400001928E-02 0. -1.
    10030    2    1    2    0    0  0.00000000000E+00  0.00000000000E+00  0.31327986054E+03  0.15916942727E+04  0.15605596389E+04 0.  0.
        2    1    3    3  502    0  0.47977011107E+03 -0.51602299111E+03  0.49855558477E+03  0.86314353264E+03  0.25500000920E-02 0.  1.
       -2    1    3    3    0  502 -0.47977011107E+03  0.51602299111E+03 -0.18527572422E+03  0.72855074005E+03  0.25500000920E-02 0. -1.
</event>
<event>
 5   0  0.7071821E-05  0.1434130E+04  0.7818609E-02  0.8929478E-01
       -2   -1    0    0    0  501  0.00000000000E+00  0.00000000000E+00  0.39880170889E+03  0.39880170890E+03  0.25500000920E-02 0.  1.
        2   -1    0    0  501    0  0.00000000000E+00  0.00000000000E+00 -0.12893177269E+04  0.12893177269E+04  0.25500000920E-02 0. -1.
    10030    2    1    2    0    0  0.00000000000E+00  0.00000000000E+00 -0.89051601801E+03  0.16881194358E+04  0.14341298586E+04 0.  0.
        5    1    3    3  502    0 -0.23412367963E+03  0.66834191410E+03 -0.57772903866E+03  0.91394077686E+03  0.46999998093E+01 0. -1.
       -5    1    3    3    0  502  0.23412367963E+03 -0.66834191410E+03 -0.31278697935E+03  0.77417865894E+03  0.46999998093E+01 0.  1.
</event>
<event>
 5   0  0.2793920E-05  0.2553148E+04  0.7818609E-02  0.8384292E-01
        1   -1    0    0  501    0  0.00000000000E+00  0.00000000000E+00  0.15300150313E+04  0.15300150313E+04  0.50400001928E-02 0.  1.
       -1   -1    0    0    0  501  0.00000000000E+00  0.00000000000E+00 -0.10651149046E+04  0.10651149046E+04  0.50400001928E-02 0. -1.
    10030    2    1    2    0    0  0.00000000000E+00  0.00000000000E+00  0.46490012665E+03  0.25951299359E+04  0.25531484987E+04 0.  0.
        2    1    3    3  502    0  0.80223441157E+03  0.65089740965E+03  0.99471070644E+03  0.14341188509E+04  0.25500000920E-02 0.  1.
       -2    1    3    3    0  502 -0.80223441157E+03 -0.65089740965E+03 -0.52981057978E+03  0.11610110850E+04  0.25500000920E-02 0. -1.
</event>
<event>
 5   0  0.6648328E-05  0.2583005E+04  0.7818609E-02  0.8373997E-01
       -2   -1    0    0    0  501  0.00000000000E+00  0.00000000000E+00  0.10479497348E+04  0.10479497348E+04  0.25500000920E-02 0. -1.
        2   -1    0    0  501    0  0.00000000000E+00  0.00000000000E+00 -0.15916593281E+04  0.15916593281E+04  0.25500000920E-02 0.  1.
    10030    2    1    2    0    0  0.00000000000E+00  0.00000000000E+00 -0.54370959326E+03  0.26396090629E+04  0.25830052039E+04 0.  0.
        2    1    3    3  502    0 -0.82400647907E+03  0.35255269154E+03  0.67841468336E+03  0.11240669733E+04  0.25500000920E-02 0. -1.
       -2    1    3    3    0  502  0.82400647907E+03 -0.35255269154E+03 -0.12221242766E+04  0.15155420896E+04  0.25500000920E-02 0.  1.
</event>
<event>
 5   0  0.6827859E-05  0.2521264E+04  0.7818609E-02  0.8395449E-01
       -2   -1    0    0    0  501  0.00000000000E+00  0.00000000000E+00  0.13697384127E+04  0.13697384127E+04  0.25500000920E-02 0.  1.
        2   -1    0    0  501    0  0.00000000000E+00  0.00000000000E+00 -0.11602160110E+04  0.11602160110E+04  0.25500000920E-02 0. -1.
    10030    2    1    2    0    0  0.00000000000E+00  0.00000000000E+00  0.20952240170E+03  0.25299544237E+04  0.25212635223E+04 0.  0.
        3    1    3    3  502    0 -0.92712269433E+03 -0.61491248766E+03 -0.49017253038E+03  0.12157067811E+04  0.10100000352E+00 0. -1.
       -3    1    3    3    0  502  0.92712269433E+03  0.61491248766E+03  0.69969493208E+03  0.13142476426E+04  0.10100000352E+00 0.  1.
</event>
<event>
 5   0  0.6445331E-05  0.2515474E+04  0.7818609E-02  0.8397494E-01
       -2   -1    0    0    0  501  0.00000000000E+00  0.00000000000E+00  0.20541098213E+04  0.20541098213E+04  0.25500000920E-02 0. -1.
        2   -1    0    0  501    0  0.00000000000E+00  0.00000000000E+00 -0.77011548476E+03  0.77011548476E+03  0.25500000920E-02 0.  1.
    10030    2    1    2    0    0  0.00000000000E+00  0.00000000000E+00  0.12839943365E+04  0.28242253060E+04  0.25154735385E+04 0.  0.
        1    1    3    3  502    0  0.72702990515E+03  0.54749980811E+03 -0.33263855635E+03  0.96900822084E+03  0.50400001928E-02 0.  1.
       -1    1    3    3    0  502 -0.72702990515E+03 -0.54749980811E+03  0.16166328928E+04  0.18552170852E+04  0.50400001928E-02 0. -1.
</event>
<event>
 5   0  0.6909250E-05  0.2529926E+04  0.7818609E-02  0.8392401E-01
        2   -1    0    0  501    0  0.00000000000E+00  0.00000000000E+00  0.17172503160E+04  0.17172503160E+04  0.25500000920E-02 0. -1.
       -2   -1    0    0    0  501  0.00000000000E+00  0.00000000000E+00 -0.93179822893E+03  0.93179822894E+03  0.25500000920E-02 0.  1.
    10030    2    1    2    0    0  0.00000000000E+00  0.00000000000E+00  0.78545208704E+03  0.26490485449E+04  0.25299255349E+04 0.  0.
        4    1    3    3  502    0  0.10317607176E+04  0.29541112123E+03 -0.30837675294E+03  0.11166448601E+04  0.12699999809E+01 0.  1.
       -4    1    3    3    0  502 -0.10317607176E+04 -0.29541112123E+03  0.10938288400E+04  0.15324036848E+04  0.12699999809E+01 0. -1.
</event>
<event>
 5   0  0.2980790E-05  0.2354767E+04  0.7818609E-02  0.8456635E-01
        1   -1    0    0  501    0  0.00000000000E+00  0.00000000000E+00  0.16283301758E+04  0.16283301758E+04  0.50400001928E-02 0.  1.
       -1   -1    0    0    0  501  0.00000000000E+00  0.00000000000E+00 -0.85132138577E+03  0.85132138578E+03  0.50400001928E-02 0. -1.
    10030    2    1    2    0    0  0.00000000000E+00  0.00000000000E+00  0.77700879002E+03  0.24796515616E+04  0.23547673361E+04 0.  0.
        5    1    3    3  502    0 -0.72433740118E+03  0.90681377601E+03  0.59708585454E+03  0.13051856201E+04  0.46999998093E+01 0.  1.
       -5    1    3    3    0  502  0.72433740118E+03 -0.90681377601E+03  0.17992293548E+03  0.11744659415E+04  0.46999998093E+01 0. -1.
</event>
<event>
 5   0  0.2896652E-05  0.2455953E+04  0.7818609E-02  0.8418848E-01
       -1   -1    0    0    0  501  0.00000000000E+00  0.00000000000E+00  0.89629292746E+03  0.89629292747E+03  0.50400001928E-02 0. -1.
        1   -1    0    0  501    0  0.00000000000E+00  0.00000000000E+00 -0.16824037257E+04  0.16824037257E+04  0.50400001928E-02 0.  1.
    10030    2    1    2    0    0  0.00000000000E+00  0.00000000000E+00 -0.78611079826E+03  0.25786966532E+04  0.24559532247E+04 0.  0.
        4    1    3    3  502    0 -0.50590381988E+03  0.12874111677E+03 -0.15600962890E+04  0.16451185349E+04  0.12699999809E+01 0.  1.
       -4    1    3    3    0  502  0.50590381988E+03 -0.12874111677E+03  0.77398549074E+03  0.93357811826E+03  0.12699999809E+01 0. -1.
</event>
<event>
 5   0  0.2980790E-05  0.2494406E+04  0.7818609E-02  0.8404981E-01
       -1   -1    0    0    0  501  0.00000000000E+00  0.00000000000E+00  0.98378002350E+03  0.98378002352E+03  0.50400001928E-02 0. -1.
        1   -1    0    0  501    0  0.00000000000E+00  0.00000000000E+00 -0.15811611371E+04  0.15811611371E+04  0.50400001928E-02 0.  1.
    10030    2    1    2    0    0  0.00000000000E+00  0.00000000000E+00 -0.59738111357E+03  0.25649411606E+04  0.24944055329E+04 0.  0.
        5    1    3    3  502    0  0.66364179409E+03 -0.22567154401E+03  0.76205363693E+03  0.10354206450E+04  0.46999998093E+01 0. -1.
       -5    1    3    3    0  502 -0.66364179409E+03  0.22567154401E+03 -0.13594347505E+04  0.15295205156E+04  0.46999998093E+01 0.  1.
</event>
<event>
 5   0  0.6827859E-05  0.2466385E+04  0.7818609E-02  0.8415060E-01
       -2   -1    0    0    0  501  0.00000000000E+00  0.00000000000E+00  0.58834914875E+03  0.58834914875E+03  0.25500000920E-02 0. -1.
        2   -1    0    0  501    0  0.00000000000E+00  0.00000000000E+00 -0.25847979787E+04  0.25847979787E+04  0.25500000920E-02 0.  1.
    10030    2    1    2    0    0  0.00000000000E+00  0.00000000000E+00 -0.19964488300E+04  0.31731471275E+04  0.24663849582E+04 0.  0.
        3    1    3    3  502    0 -0.39840018460E+03  0.68749004101E+03 -0.22115504656E+04  0.23499618583E+04  0.10100000352E+00 0.  1.
       -3    1    3    3    0  502  0.39840018460E+03 -0.68749004101E+03  0.21510163557E+03  0.82318526919E+03  0.10100000352E+00 0. -1.
</event>
<event>
 5   0  0.6648328E-05  0.1840469E+04  0.7818609E-02  0.8685070E-01
       -2   -1    0    0    0  501  0.00000000000E+00  0.00000000000E+00  0.12973344291E+04  0.12973344291E+04  0.25500000920E-02 0.  1.
        2   -1    0    0  501    0  0.00000000000E+00  0.00000000000E+00 -0.65274730213E+03  0.65274730213E+03  0.25500000920E-02 0. -1.
    10030    2    1    2    0    0  0.00000000000E+00  0.00000000000E+00  0.64458712693E+03  0.19500817312E+04  0.18404690147E+04 0.  0.
        2    1    3    3  502    0  0.39050300419E+03 -0.89878693955E+02 -0.55545250105E+03  0.68490748049E+03  0.25500000920E-02 0. -1.
       -2    1    3    3    0  502 -0.39050300419E+03  0.89878693955E+02  0.12000396280E+04  0.12651742507E+04  0.25500000920E-02 0.  1.
</event>
<event>
 5   0  0.7071821E-05  0.2615118E+04  0.7818609E-02  0.8363084E-01
        2   -1    0    0  501    0  0.00000000000E+00  0.00000000000E+00  0.11214424670E+04  0.11214424670E+04  0.25500000920E-02 0. -1.
       -2   -1    0    0    0  501  0.00000000000E+00  0.00000000000E+00 -0.15245636596E+04  0.15245636596E+04  0.25500000920E-02 0.  1.
    10030    2    1    2    0    0  0.00000000000E+00  0.00000000000E+00 -0.40312119255E+03  0.26460061266E+04  0.26151179182E+04 0.  0.
        5    1    3    3  502    0  0.58615372503E+03 -0.48358795559E+03 -0.12782034503E+04  0.14870304806E+04  0.46999998093E+01 0.  1.
       -5    1    3    3    0  502 -0.58615372503E+03  0.48358795559E+03  0.87508225770E+03  0.11589756459E+04  0.46999998093E+01 0. -1.
</event>
<event>
 5   0  0.2896652E-05  0.2360137E+04  0.7818609E-02  0.8454580E-01
        1   -1    0    0  501    0  0.00000000000E+00  0.00000000000E+00  0.12045339125E+04  0.12045339125E+04  0.50400001928E-02 0. -1.
       -1   -1    0    0    0  501  0.00000000000E+00  0.00000000000E+00 -0.11560997027E+04  0.11560997027E+04  0.50400001928E-02 0.  1.
    10030    2    1    2    0    0  0.00000000000E+00  0.00000000000E+00  0.48434209809E+02  0.23606336152E+04  0.23601366894E+04 0.  0.
        4    1    3    3  502    0  0.29384235824E+03  0.24166000874E+03 -0.10930752936E+04  0.11573928036E+04  0.12699999809E+01 0.  1.
       -4    1    3    3    0  502 -0.29384235824E+03 -0.24166000874E+03  0.11415095035E+04  0.12032408116E+04  0.12699999809E+01 0. -1.
</event>
<event>
 5   0  0.2977854E-05  0.1341963E+04  0.7818609E-02  0.8996934E-01
        1   -1    0    0  501    0  0.00000000000E+00  0.00000000000E+00  0.64243435696E+03  0.64243435698E+03  0.50400001928E-02 0.  1.
       -1   -1    0    0    0  501  0.00000000000E+00  0.00000000000E+00 -0.70079753884E+03  0.70079753885E+03  0.50400001928E-02 0. -1.
    10030    2    1    2    0    0  0.00000000000E+00  0.00000000000E+00 -0.58363181875E+02  0.13432318958E+04  0.13419633620E+04 0.  0.
        1    1    3    3  502    0  0.12811285258E+03 -0.61754208111E+03 -0.25840743880E+03  0.68157576937E+03  0.50400001928E-02 0.  1.
       -1    1    3    3    0  502 -0.12811285258E+03  0.61754208111E+03  0.20004425693E+03  0.66165612647E+03  0.50400001928E-02 0. -1.
</event>
<event>
 5   0  0.6648328E-05  0.2511669E+04  0.7818609E-02  0.8398840E-01
        2   -1    0    0  501    0  0.00000000000E+00  0.00000000000E+00  0.12943901579E+04  0.12943901579E+04  0.25500000920E-02 0.  1.
       -2   -1    0    0    0  501  0.00000000000E+00  0.00000000000E+00 -0.12184273981E+04  0.12184273981E+04  0.25500000920E-02 0. -1.
    10030    2    1    2    0    0  0.00000000000E+00  0.00000000000E+00  0.75962759773E+02  0.25128175559E+04  0.25116691121E+04 0.  0.
        2    1    3    3  502    0  0.98573067078E+03  0.17910198601E+03 -0.71958209717E+03  0.12335075481E+04  0.25500000920E-02 0. -1.
       -2    1    3    3    0  502 -0.98573067078E+03 -0.17910198601E+03  0.79554485694E+03  0.12793100078E+04  0.25500000920E-02 0.  1.
</event>
<event>
 5   0  0.2331375E-05  0.2501012E+04  0.7818609E-02  0.8402625E-01
        3   -1    0    0  501    0  0.00000000000E+00  0.00000000000E+00  0.97403435169E+03  0.97403435693E+03  0.10100000352E+00 0. -1.
       -3   -1    0    0    0  501  0.00000000000E+00  0.00000000000E+00 -0.16054512323E+04  0.16054512355E+04  0.10100000352E+00 0.  1.
    10030    2    1    2    0    0  0.00000000000E+00  0.00000000000E+00 -0.63141688063E+03  0.25794855924E+04  0.25010115242E+04 0.  0.
        5    1    3    3  502    0  0.94800972076E+01 -0.14017414697E+03  0.96585943082E+03  0.97603544701E+03  0.46999998093E+01 0. -1.
       -5    1    3    3    0  502 -0.94800972076E+01  0.14017414697E+03 -0.15972763115E+04  0.16034501454E+04  0.46999998093E+01 0.  1.
</event>
<event>
 5   0  0.2896652E-05  0.2538896E+04  0.7818609E-02  0.8389258E-01
       -1   -1    0    0    0  501  0.00000000000E+00  0.00000000000E+00  0.14370741489E+04  0.14370741489E+04  0.50400001928E-02 0.  1.
        1   -1    0    0  501    0  0.00000000000E+00  0.00000000000E+00 -0.11213748095E+04  0.11213748095E+04  0.50400001928E-02 0. -1.
    10030    2    1    2    0    0  0.00000000000E+00  0.00000000000E+00  0.31569933943E+03  0.25584489585E+04  0.25388964138E+04 0.  0.
        4    1    3    3  502    0 -0.46396847129E+03 -0.11609973362E+04  0.37935050800E+03  0.13065565345E+04  0.12699999809E+01 0.  1.
       -4    1    3    3    0  502  0.46396847129E+03  0.11609973362E+04 -0.63651168565E+02  0.12518924240E+04  0.12699999809E+01 0. -1.
</event>
<event>
 5   0  0.6909250E-05  0.2561762E+04  0.7818609E-02  0.8381307E-01
        2   -1    0    0  501    0  0.00000000000E+00  0.00000000000E+00  0.16696276305E+04  0.16696276305E+04  0.25500000920E-02 0.  1.
       -2   -1    0    0    0  501  0.00000000000E+00  0.00000000000E+00 -0.98264809953E+03  0.98264809953E+03  0.25500000920E-02 0. -1.
    10030    2    1    2    0    0  0.00000000000E+00  0.00000000000E+00  0.68697953097E+03  0.26522757300E+04  0.25617622201E+04 0.  0.
        4    1    3    3  502    0 -0.65617343293E+02  0.42126015604E+03  0.15940107592E+04  0.16500417171E+04  0.12699999809E+01 0.  1.
       -4    1    3    3    0  502  0.65617343293E+02 -0.42126015604E+03 -0.90703122823E+03  0.10022340129E+04  0.12699999809E+01 0. -1.
</event>
<event>
 5   0  0.2980790E-05  0.2533120E+04  0.7818609E-02  0.8391280E-01
       -1   -1    0    0    0  501  0.00000000000E+00  0.00000000000E+00  0.18260844375E+04  0.18260844375E+04  0.50400001928E-02 0. -1.
        1   -1    0    0  501    0  0.00000000000E+00  0.00000000000E+00 -0.87847765537E+03  0.87847765538E+03  0.50400001928E-02 0.  1.
    10030    2    1    2    0    0  0.00000000000E+00  0.00000000000E+00  0.94760678216E+03  0.27045620929E+04  0.25331201118E+04 0.  0.
        5    1    3    3  502    0 -0.11763681514E+04 -0.46847243273E+03  0.44278847970E+03  0.13414142446E+04  0.46999998093E+01 0. -1.
       -5    1    3    3    0  502  0.11763681514E+04  0.46847243273E+03  0.50481830247E+03  0.13631478483E+04  0.46999998093E+01 0.  1.
</event>
<event>
 5   0  0.6827859E-05  0.2518006E+04  0.7818609E-02  0.8396599E-01
        2   -1    0    0  501    0  0.00000000000E+00  0.00000000000E+00  0.13436547050E+04  0.13436547050E+04  0.25500000920E-02 0. -1.
       -2   -1    0    0    0  501  0.00000000000E+00  0.00000000000E+00 -0.11796848986E+04  0.11796848986E+04  0.25500000920E-02 0.  1.
    10030    2    1    2    0    0  0.00000000000E+00  0.00000000000E+00  0.16396980637E+03  0.25233396037E+04  0.25180064849E+04 0.  0.
        3    1    3    3  502    0  0.97632295510E+03 -0.71323447674E+03 -0.26972742350E+03  0.12388150890E+04  0.10100000352E+00 0. -1.
       -3    1    3    3    0  502 -0.97632295510E+03  0.71323447674E+03  0.43369722987E+03  0.12845245147E+04  0.10100000352E+00 0.  1.
</event>
<event>
 5   0  0.6445331E-05  0.2313856E+04  0.7818609E-02  0.8472478E-01
        2   -1    0    0  501    0  0.00000000000E+00  0.00000000000E+00  0.19993374953E+04  0.19993374953E+04  0.25500000920E-02 0.  1.
       -2   -1    0    0    0  501  0.00000000000E+00  0.00000000000E+00 -0.66946273362E+03  0.66946273363E+03  0.25500000920E-02 0. -1.
    10030    2    1    2    0    0  0.00000000000E+00  0.00000000000E+00  0.13298747617E+04  0.26688002289E+04  0.23138556092E+04 0.  0.
        1    1    3    3  502    0  0.10211144396E+04  0.31765552178E+03  0.15573760936E+03  0.10806636536E+04  0.50400001928E-02 0. -1.
       -1    1    3    3    0  502 -0.10211144396E+04 -0.31765552178E+03  0.11741371523E+04  0.15881365753E+04  0.50400001928E-02 0.  1.
</event>
<event>
 5   0  0.2777539E-05  0.2463387E+04  0.7818609E-02  0.8416146E-01
        1   -1    0    0  501    0  0.00000000000E+00  0.00000000000E+00  0.15728648534E+04  0.15728648534E+04  0.50400001928E-02 0. -1.
       -1   -1    0    0    0  501  0.00000000000E+00  0.00000000000E+00 -0.96452624895E+03  0.96452624896E+03  0.50400001928E-02 0.  1.
    10030    2    1    2    0    0  0.00000000000E+00  0.00000000000E+00  0.60833860443E+03  0.25373911023E+04  0.24633874540E+04 0.  0.
        3    1    3    3  502    0 -0.62102453539E+03  0.13466649450E+03 -0.78264051632E+03  0.10081332880E+04  0.10100000352E+00 0.  1.
       -3    1    3    3    0  502  0.62102453539E+03 -0.13466649450E+03  0.13909791207E+04  0.15292578144E+04  0.10100000352E+00 0. -1.
</event>
<event>
 5   0  0.2896652E-05  0.1245895E+04  0.7818609E-02  0.9073607E-01
        1   -1    0    0  501    0  0.00000000000E+00  0.00000000000E+00  0.74968941673E+03  0.74968941675E+03  0.50400001928E-02 0.  1.
       -1   -1    0    0    0  501  0.00000000000E+00  0.00000000000E+00 -0.51763247253E+03  0.51763247256E+03  0.50400001928E-02 0. -1.
    10030    2    1    2    0    0  0.00000000000E+00  0.00000000000E+00  0.23205694420E+03  0.12673218893E+04  0.12458949979E+04 0.  0.
        4    1    3    3  502    0  0.15930668154E+03  0.14791078681E+03  0.70985412257E+03  0.74239525044E+03  0.12699999809E+01 0.  1.
       -4    1    3    3    0  502 -0.15930668154E+03 -0.14791078681E+03 -0.47779717837E+03  0.52492663887E+03  0.12699999809E+01 0. -1.
</event>
<event>
 5   0  0.2896652E-05  0.1740409E+04  0.7818609E-02  0.8738647E-01
       -1   -1    0    0    0  501  0.00000000000E+00  0.00000000000E+00  0.94967804355E+03  0.94967804356E+03  0.50400001928E-02 0.  1.
        1   -1    0    0  501    0  0.00000000000E+00  0.00000000000E+00 -0.79738155910E+03  0.79738155912E+03  0.50400001928E-02 0. -1.
    10030    2    1    2    0    0  0.00000000000E+00  0.00000000000E+00  0.15229648444E+03  0.17470596027E+04  0.17404088704E+04 0.  0.
        4    1    3    3  502    0 -0.31777117514E+03  0.44758577597E+03 -0.60166729390E+03  0.81444256522E+03  0.12699999809E+01 0. -1.
       -4    1    3    3    0  502  0.31777117514E+03 -0.44758577597E+03  0.75396377834E+03  0.93261703746E+03  0.12699999809E+01 0.  1.
</event>
<event>
 5   0  0.2896652E-05  0.2497105E+04  0.7818609E-02  0.8404017E-01
       -1   -1    0    0    0  501  0.00000000000E+00  0.00000000000E+00  0.92667741939E+03  0.92667741941E+03  0.50400001928E-02 0.  1.
        1   -1    0    0  501    0  0.00000000000E+00  0.00000000000E+00 -0.16822292043E+04  0.16822292043E+04  0.50400001928E-02 0. -1.
    10030    2    1    2    0    0  0.00000000000E+00  0.00000000000E+00 -0.75555178486E+03  0.26089066237E+04  0.24971053785E+04 0.  0.
        4    1    3    3  502    0  0.10848866672E+04  0.58000295213E+03 -0.15491907138E+03  0.12399129150E+04  0.12699999809E+01 0.  1.
       -4    1    3    3    0  502 -0.10848866672E+04 -0.58000295213E+03 -0.60063271348E+03  0.13689937087E+04  0.12699999809E+01 0. -1.
</event>
<event>
 5   0  0.2777539E-05  0.2524735E+04  0.7818609E-02  0.8394226E-01
       -1   -1    0    0    0  501  0.00000000000E+00  0.00000000000E+00  0.10293727812E+04  0.10293727812E+04  0.50400001928E-02 0.  1.
        1   -1    0    0  501    0  0.00000000000E+00  0.00000000000E+00 -0.15480995391E+04  0.15480995391E+04  0.50400001928E-02 0. -1.
    10030    2    1    2    0    0  0.00000000000E+00  0.00000000000E+00 -0.51872675792E+03  0.25774723203E+04  0.25247348598E+04 0.  0.
        3    1    3    3  502    0  0.91701371237E+03 -0.82056168830E+03  0.28186420241E+02  0.12308655968E+04  0.10100000352E+00 0.  1.
       -3    1    3    3    0  502 -0.91701371237E+03  0.82056168830E+03 -0.54691317816E+03  0.13466067234E+04  0.10100000352E+00 0. -1.
</event>
<event>
 5   0  0.7071821E-05  0.2816578E+04  0.7818609E-02  0.8298140E-01
        2   -1    0    0  501    0  0.00000000000E+00  0.00000000000E+00  0.30613009625E+04  0.30613009625E+04  0.25500000920E-02 0.  1.
       -2   -1    0    0    0  501  0.00000000000E+00  0.00000000000E+00 -0.64785447087E+03  0.64785447087E+03  0.25500000920E-02 0. -1.
    10030    2    1    2    0    0  0.00000000000E+00  0.00000000000E+00  0.24134464916E+04  0.37091554333E+04  0.28165777214E+04 0.  0.
        5    1    3    3  502    0  0.85870318328E+03 -0.36328161277E+03  0.25966070314E+04  0.27589372687E+04  0.46999998093E+01 0.  1.
       -5    1    3    3    0  502 -0.85870318328E+03  0.36328161277E+03 -0.18316053975E+03  0.95021816468E+03  0.46999998093E+01 0. -1.
</event>
<event>
 5   0  0.6648328E-05  0.2107045E+04  0.7818609E-02  0.8558146E-01
        2   -1    0    0  501    0  0.00000000000E+00  0.00000000000E+00  0.17257411810E+04  0.17257411810E+04  0.25500000920E-02 0. -1.
       -2   -1    0    0    0  501  0.00000000000E+00  0.00000000000E+00 -0.64314951727E+03  0.64314951727E+03  0.25500000920E-02 0.  1.
    10030    2    1    2    0    0  0.00000000000E+00  0.00000000000E+00  0.10825916638E+04  0.23688906983E+04  0.21070449521E+04 0.  0.
        2    1    3    3  502    0 -0.35933254814E+03 -0.57484448199E+03 -0.36536037683E+03  0.77010016465E+03  0.25500000920E-02 0.  1.
       -2    1    3    3    0  502  0.35933254814E+03  0.57484448199E+03  0.14479520406E+04  0.15987905337E+04  0.25500000920E-02 0. -1.
</event>
<event>
 5   0  0.2793920E-05  0.2545617E+04  0.7818609E-02  0.8386912E-01
        1   -1    0    0  501    0  0.00000000000E+00  0.00000000000E+00  0.27987237801E+04  0.27987237801E+04  0.50400001928E-02 0. -1.
       -1   -1    0    0    0  501  0.00000000000E+00  0.00000000000E+00 -0.57885021304E+03  0.57885021307E+03  0.50400001928E-02 0.  1.
    10030    2    1    2    0    0  0.00000000000E+00  0.00000000000E+00  0.22198735671E+04  0.33775739932E+04  0.25456172976E+04 0.  0.
        2    1    3    3  502    0 -0.82643942250E+03  0.52719421312E+03  0.32754031423E+02  0.98082041373E+03  0.25500000920E-02 0.  1.
       -2    1    3    3    0  502  0.82643942250E+03 -0.52719421312E+03  0.21871195357E+04  0.23967535795E+04  0.25500000920E-02 0. -1.
</event>
<event>
 5   0  0.2977854E-05  0.2503796E+04  0.7818609E-02  0.8401634E-01
        1   -1    0    0  501    0  0.00000000000E+00  0.00000000000E+00  0.11702502936E+04  0.11702502936E+04  0.50400001928E-02 0.  1.
       -1   -1    0    0    0  501  0.00000000000E+00  0.00000000000E+00 -0.13392425389E+04  0.13392425389E+04  0.50400001928E-02 0. -1.
    10030    2    1    2    0    0  0.00000000000E+00  0.00000000000E+00 -0.16899224531E+03  0.25094928324E+04  0.25037962971E+04 0.  0.
        1    1    3    3  502    0  0.11148964358E+04 -0.39428259367E+03 -0.49627895126E+03  0.12824763638E+04  0.50400001928E-02 0. -1.
       -1    1    3    3    0  502 -0.11148964358E+04  0.39428259367E+03  0.32728670595E+03  0.12270164686E+04  0.50400001928E-02 0.  1.
</event>
<event>
 5   0  0.2777539E-05  0.2515497E+04  0.7818609E-02  0.8397485E-01
       -1   -1    0    0    0  501  0.00000000000E+00  0.00000000000E+00  0.76661557387E+03  0.76661557388E+03  0.50400001928E-02 0. -1.
        1   -1    0    0  501    0  0.00000000000E+00  0.00000000000E+00 -0.20635267707E+04  0.20635267707E+04  0.50400001928E-02 0.  1.
    10030    2    1    2    0    0  0.00000000000E+00  0.00000000000E+00 -0.12969111969E+04  0.28301423446E+04  0.25154973739E+04 0.  0.
        3    1    3    3  502    0  0.12712705560E+03  0.12180783110E+04 -0.97073960943E+03  0.15627576458E+04  0.10100000352E+00 0.  1.
       -3    1    3    3    0  502 -0.12712705560E+03 -0.12180783110E+04 -0.32617158743E+03  0.12673846988E+04  0.10100000352E+00 0. -1.
</event>
<event>
 5   0  0.2977854E-05  0.2497758E+04  0.7818609E-02  0.8403785E-01
        1   -1    0    0  501    0  0.00000000000E+00  0.00000000000E+00  0.15491240829E+04  0.15491240830E+04  0.50400001928E-02 0. -1.
       -1   -1    0    0    0  501  0.00000000000E+00  0.00000000000E+00 -0.10068261889E+04  0.10068261889E+04  0.50400001928E-02 0.  1.
    10030    2    1    2    0    0  0.00000000000E+00  0.00000000000E+00  0.54229789401E+03  0.25559502719E+04  0.24977579520E+04 0.  0.
        1    1    3    3  502    0  0.62003332303E+02 -0.41120169896E+03  0.14761956223E+04  0.15336507965E+04  0.50400001928E-02 0. -1.
       -1    1    3    3    0  502 -0.62003332303E+02  0.41120169896E+03 -0.93389772827E+03  0.10222994754E+04  0.50400001928E-02 0.  1.
</event>
<event>
 5   0  0.2896652E-05  0.2419360E+04  0.7818609E-02  0.8432291E-01
       -1   -1    0    0    0  501  0.00000000000E+00  0.00000000000E+00  0.98075889024E+03  0.98075889025E+03  0.50400001928E-02 0. -1.
        1   -1    0    0  501    0  0.00000000000E+00  0.00000000000E+00 -0.14920335092E+04  0.14920335092E+04  0.50400001928E-02 0.  1.
    10030    2    1    2    0    0  0.00000000000E+00  0.00000000000E+00 -0.51127461895E+03  0.24727923994E+04  0.24193595257E+04 0.  0.
        4    1    3    3  502    0  0.10226267076E+04  0.56119640548E+03 -0.58305061619E+03  0.13040921833E+04  0.12699999809E+01 0.  1.
       -4    1    3    3    0  502 -0.10226267076E+04 -0.56119640548E+03  0.71775997242E+02  0.11687002162E+04  0.12699999809E+01 0. -1.
</event>
<event>
 5   0  0.2896652E-05  0.2425931E+04  0.7818609E-02  0.8429859E-01
       -1   -1    0    0    0  501  0.00000000000E+00  0.00000000000E+00  0.75880771199E+03  0.75880771201E+03  0.50400001928E-02 0. -1.
        1   -1    0    0  501    0  0.00000000000E+00  0.00000000000E+00 -0.19389442386E+04  0.19389442386E+04  0.50400001928E-02 0.  1.
    10030    2    1    2    0    0  0.00000000000E+00  0.00000000000E+00 -0.11801365266E+04  0.26977519506E+04  0.24259314429E+04 0.  0.
        4    1    3    3  502    0  0.42751198205E+03  0.64349581247E+03  0.44981893799E+03  0.89397541652E+03  0.12699999809E+01 0. -1.
       -4    1    3    3    0  502 -0.42751198205E+03 -0.64349581247E+03 -0.16299554646E+04  0.18037765341E+04  0.12699999809E+01 0.  1.
</event>
<event>
 5   0  0.2777539E-05  0.2387265E+04  0.7818609E-02  0.8444287E-01
        1   -1    0    0  501    0  0.00000000000E+00  0.00000000000E+00  0.13540513744E+04  0.13540513744E+04  0.50400001928E-02 0. -1.
       -1   -1    0    0    0  501  0.00000000000E+00  0.00000000000E+00 -0.10522192231E+04  0.10522192231E+04  0.50400001928E-02 0.  1.
    10030    2    1    2    0    0  0.00000000000E+00  0.00000000000E+00  0.30183215131E+03  0.24062705975E+04  0.23872652850E+04 0.  0.
        3    1    3    3  502    0 -0.64010844431E+03  0.92214850000E+03  0.55993248944E+03  0.12544405444E+04  0.10100000352E+00 0. -1.
       -3    1    3    3    0  502  0.64010844431E+03 -0.92214850000E+03 -0.25810033813E+03  0.11518300531E+04  0.10100000352E+00 0.  1.
</event>
<event>
 5   0  0.6648328E-05  0.2615032E+04  0.7818609E-02  0.8363113E-01
       -2   -1    0    0    0  501  0.00000000000E+00  0.00000000000E+00  0.72635781459E+03  0.72635781460E+03  0.25500000920E-02 0. -1.
        2   -1    0    0  501    0  0.00000000000E+00  0.00000000000E+00 -0.23536586326E+04  0.23536586326E+04  0.25500000920E-02 0.  1.
    10030    2    1    2    0    0  0.00000000000E+00  0.00000000000E+00 -0.16273008180E+04  0.30800164472E+04  0.26150321915E+04 0.  0.
        2    1    3    3  502    0  0.56586951332E+03  0.74688982632E+03 -0.18876868995E+04  0.21074663815E+04  0.25500000920E-02 0.  1.
       -2    1    3    3    0  502 -0.56586951332E+03 -0.74688982632E+03  0.26038608149E+03  0.97255006566E+03  0.25500000920E-02 0. -1.
</event>
<event>
 5   0  0.2980790E-05  0.2521161E+04  0.7818609E-02  0.8395486E-01
        1   -1    0    0  501    0  0.00000000000E+00  0.00000000000E+00  0.69057649062E+03  0.69057649064E+03  0.50400001928E-02 0. -1.
       -1   -1    0    0    0  501  0.00000000000E+00  0.00000000000E+00 -0.23010669558E+04  0.23010669558E+04  0.50400001928E-02 0.  1.
    10030    2    1    2    0    0  0.00000000000E+00  0.00000000000E+00 -0.16104904651E+04  0.29916434464E+04  0.25211606399E+04 0.  0.
        5    1    3    3  502    0 -0.66409538132E+03  0.42565479793E+03 -0.19720164662E+04  0.21239293103E+04  0.46999998093E+01 0.  1.
       -5    1    3    3    0  502  0.66409538132E+03 -0.42565479793E+03  0.36152600104E+03  0.86771413606E+03  0.46999998093E+01 0. -1.
</event>
<event>
 5   0  0.6445331E-05  0.2457963E+04  0.7818609E-02  0.8418116E-01
       -2   -1    0    0    0  501  0.00000000000E+00  0.00000000000E+00  0.64241846647E+03  0.64241846648E+03  0.25500000920E-02 0. -1.
        2   -1    0    0  501    0  0.00000000000E+00  0.00000000000E+00 -0.23511085374E+04  0.23511085374E+04  0.25500000920E-02 0.  1.
    10030    2    1    2    0    0  0.00000000000E+00  0.00000000000E+00 -0.17086900709E+04  0.29935270039E+04  0.24579630112E+04 0.  0.
        1    1    3    3  502    0  0.10248429382E+04  0.66089242227E+03 -0.66838764984E+03  0.13906199669E+04  0.50400001928E-02 0. -1.
       -1    1    3    3    0  502 -0.10248429382E+04 -0.66089242227E+03 -0.10403024211E+04  0.16029070370E+04  0.50400001928E-02 0.  1.
</event>
<event>
 5   0  0.2777539E-05  0.2474145E+04  0.7818609E-02  0.8412255E-01
       -1   -1    0    0    0  501  0.00000000000E+00  0.00000000000E+00  0.14259555413E+04  0.14259555414E+04  0.50400001928E-02 0.  1.
        1   -1    0    0  501    0  0.00000000000E+00  0.00000000000E+00 -0.10732086511E+04  0.10732086511E+04  0.50400001928E-02 0. -1.
    10030    2    1    2    0    0  0.00000000000E+00  0.00000000000E+00  0.35274689025E+03  0.24991641925E+04  0.24741445577E+04 0.  0.
        3    1    3    3  502    0  0.13081088880E+03  0.36668411171E+03  0.13624618566E+04  0.14169936653E+04  0.10100000352E+00 0.  1.
       -3    1    3    3    0  502 -0.13081088880E+03 -0.36668411171E+03 -0.10097149664E+04  0.10821705272E+04  0.10100000352E+00 0. -1.
</event>
<event>
 5   0  0.6445331E-05  0.2494770E+04  0.7818609E-02  0.8404851E-01
        2   -1    0    0  501    0  0.00000000000E+00  0.00000000000E+00  0.81575328685E+03  0.81575328685E+03  0.25500000920E-02 0.  1.
       -2   -1    0    0    0  501  0.00000000000E+00  0.00000000000E+00 -0.19074013968E+04  0.19074013969E+04  0.25500000920E-02 0. -1.
    10030    2    1    2    0    0  0.00000000000E+00  0.00000000000E+00 -0.10916481100E+04  0.27231546837E+04  0.24947696958E+04 0.  0.
        1    1    3    3  502    0 -0.45982764165E+03  0.22878101533E+03 -0.17866317907E+04  0.18589877268E+04  0.50400001928E-02 0. -1.
       -1    1    3    3    0  502  0.45982764165E+03 -0.22878101533E+03  0.69498368065E+03  0.86416695690E+03  0.50400001928E-02 0.  1.
</event>
<event>
 5   0  0.2977854E-05  0.2288233E+04  0.7818609E-02  0.8482575E-01
        1   -1    0    0  501    0  0.00000000000E+00  0.00000000000E+00  0.13907761982E+04  0.13907761983E+04  0.50400001928E-02 0. -1.
       -1   -1    0    0    0  501  0.00000000000E+00  0.00000000000E+00 -0.94120287014E+03  0.94120287016E+03  0.50400001928E-02 0.  1.
    10030    2    1    2    0    0  0.00000000000E+00  0.00000000000E+00  0.44957332810E+03  0.23319790684E+04  0.22882329860E+04 0.  0.
        1    1    3    3  502    0 -0.27716473521E+03 -0.13905294869E+03  0.13471341348E+04  0.13823626117E+04  0.50400001928E-02 0. -1.
       -1    1    3    3    0  502  0.27716473521E+03  0.13905294869E+03 -0.89756080675E+03  0.94961645669E+03  0.50400001928E-02 0.  1.
</event>
<event>
 5   0  0.7071821E-05  0.2524474E+04  0.7818609E-02  0.8394318E-01
        2   -1    0    0  501    0  0.00000000000E+00  0.00000000000E+00  0.23143495312E+04  0.23143495312E+04  0.25500000920E-02 0.  1.
       -2   -1    0    0    0  501  0.00000000000E+00  0.00000000000E+00 -0.68841893031E+03  0.68841893031E+03  0.25500000920E-02 0. -1.
    10030    2    1    2    0    0  0.00000000000E+00  0.00000000000E+00  0.16259306009E+04  0.30027684615E+04  0.25244738292E+04 0.  0.
        5    1    3    3  502    0 -0.11577617846E+03 -0.12186652340E+04  0.11789468064E+04  0.16995548648E+04  0.46999998093E+01 0. -1.
       -5    1    3    3    0  502  0.11577617846E+03  0.12186652340E+04  0.44698379452E+03  0.13032135967E+04  0.46999998093E+01 0.  1.
</event>
<event>
 5   0  0.2793920E-05  0.2471712E+04  0.7818609E-02  0.8413133E-01
        1   -1    0    0  501    0  0.00000000000E+00  0.00000000000E+00  0.16854271107E+04  0.16854271107E+04  0.50400001928E-02 0.  1.
       -1   -1    0    0    0  501  0.00000000000E+00  0.00000000000E+00 -0.90620338037E+03  0.90620338038E+03  0.50400001928E-02 0. -1.
    10030    2    1    2    0    0  0.00000000000E+00  0.00000000000E+00  0.77922373030E+03  0.25916304911E+04  0.24717117511E+04 0.  0.
        2    1    3    3  502    0  0.10930677591E+04 -0.56627319324E+03  0.50388231447E+03  0.13301728617E+04  0.25500000920E-02 0. -1.
       -2    1    3    3    0  502 -0.10930677591E+04  0.56627319324E+03  0.27534141583E+03  0.12614576293E+04  0.25500000920E-02 0.  1.
</event>
<event>
 5   0  0.6827859E-05  0.2556318E+04  0.7818609E-02  0.8383192E-01
       -2   -1    0    0    0  501  0.00000000000E+00  0.00000000000E+00  0.83368445508E+03  0.83368445508E+03  0.25500000920E-02 0. -1.
        2   -1    0    0  501    0  0.00000000000E+00  0.00000000000E+00 -0.19596028338E+04  0.19596028338E+04  0.25500000920E-02 0.  1.
    10030    2    1    2    0    0  0.00000000000E+00  0.00000000000E+00 -0.11259183788E+04  0.27932872889E+04  0.25563179933E+04 0.  0.
        3    1    3    3  502    0  0.46613138235E+03  0.10884140701E+04 -0.10890083114E+04  0.16086835506E+04  0.10100000352E+00 0.  1.
       -3    1    3    3    0  502 -0.46613138235E+03 -0.10884140701E+04 -0.36910067340E+02  0.11846037383E+04  0.10100000352E+00 0. -1.
</event>
<event>
 5   0  0.6648328E-05  0.2567911E+04  0.7818609E-02  0.8379184E-01
        2   -1    0    0  501    0  0.00000000000E+00  0.00000000000E+00  0.24131672643E+04  0.24131672643E+04  0.25500000920E-02 0. -1.
       -2   -1    0    0    0  501  0.00000000000E+00  0.00000000000E+00 -0.68314422445E+03  0.68314422446E+03  0.25500000920E-02 0.  1.
    10030    2    1    2    0    0  0.00000000000E+00  0.00000000000E+00  0.17300230399E+04  0.30963114888E+04  0.25679106521E+04 0.  0.
        2    1    3    3  502    0  0.92830650796E+03 -0.11301482902E+03  0.19258266172E+04  0.21408721316E+04  0.25500000920E-02 0. -1.
       -2    1    3    3    0  502 -0.92830650796E+03  0.11301482902E+03 -0.19580357736E+03  0.95543935716E+03  0.25500000920E-02 0.  1.
</event>
<event>
 5   0  0.2793920E-05  0.2454202E+04  0.7818609E-02  0.8419486E-01
        1   -1    0    0  501    0  0.00000000000E+00  0.00000000000E+00  0.11794333359E+04  0.11794333359E+04  0.50400001928E-02 0. -1.
       -1   -1    0    0    0  501  0.00000000000E+00  0.00000000000E+00 -0.12766947642E+04  0.12766947642E+04  0.50400001928E-02 0.  1.
    10030    2    1    2    0    0  0.00000000000E+00  0.00000000000E+00 -0.97261428295E+02  0.24561281001E+04  0.24542015929E+04 0.  0.
        2    1    3    3  502    0  0.50498039620E+03 -0.37461460786E+03 -0.11032297326E+04  0.12698256368E+04  0.25500000920E-02 0.  1.
       -2    1    3    3    0  502 -0.50498039620E+03  0.37461460786E+03  0.10059683043E+04  0.11863024632E+04  0.25500000920E-02 0. -1.
</event>
<event>
 5   0  0.7071821E-05  0.2529090E+04  0.7818609E-02  0.8392695E-01
       -2   -1    0    0    0  501  0.00000000000E+00  0.00000000000E+00  0.15759709484E+04  0.15759709484E+04  0.25500000920E-02 0. -1.
        2   -1    0    0  501    0  0.00000000000E+00  0.00000000000E+00 -0.10146597850E+04  0.10146597850E+04  0.25500000920E-02 0.  1.
    10030    2    1    2    0    0  0.00000000000E+00  0.00000000000E+00  0.56131116340E+03  0.25906307334E+04  0.25290902266E+04 0.  0.
        5    1    3    3  502    0  0.11045104153E+04  0.60510902574E+03  0.39723198858E+03  0.13205739409E+04  0.46999998093E+01 0. -1.
       -5    1    3    3    0  502 -0.11045104153E+04 -0.60510902574E+03  0.16407917483E+03  0.12700567925E+04  0.46999998093E+01 0.  1.
</event>
<event>
 5   0  0.7071821E-05  0.2492161E+04  0.7818609E-02  0.8405784E-01
        2   -1    0    0  501    0  0.00000000000E+00  0.00000000000E+00  0.15921753064E+04  0.15921753064E+04  0.25500000920E-02 0.  1.
       -2   -1    0    0    0  501  0.00000000000E+00  0.00000000000E+00 -0.97521680521E+03  0.97521680521E+03  0.25500000920E-02 0. -1.
    10030    2    1    2    0    0  0.00000000000E+00  0.00000000000E+00  0.61695850114E+03  0.25673921116E+04  0.24921606012E+04 0.  0.
        5    1    3    3  502    0 -0.75342336988E+03 -0.95777100306E+03  0.40389058143E+02  0.12192725022E+04  0.46999998093E+01 0.  1.
       -5    1    3    3    0  502  0.75342336988E+03  0.95777100306E+03  0.57656944300E+03  0.13481196094E+04  0.46999998093E+01 0. -1.
</event>
<event>
 5   0  0.6827859E-05  0.2556149E+04  0.7818609E-02  0.8383251E-01
        2   -1    0    0  501    0  0.00000000000E+00  0.00000000000E+00  0.22386481552E+04  0.22386481552E+04  0.25500000920E-02 0. -1.
       -2   -1    0    0    0  501  0.00000000000E+00  0.00000000000E+00 -0.72967023483E+03  0.72967023484E+03  0.25500000920E-02 0.  1.
    10030    2    1    2    0    0  0.00000000000E+00  0.00000000000E+00  0.15089779204E+04  0.29683183901E+04  0.25561493893E+04 0.  0.
        3    1    3    3  502    0 -0.39410287176E+03 -0.10810256515E+04  0.14005649622E+04  0.18125991714E+04  0.10100000352E+00 0. -1.
       -3    1    3    3    0  502  0.39410287176E+03  0.10810256515E+04  0.10841295821E+03  0.11557192187E+04  0.10100000352E+00 0.  1.
</event>
<event>
 5   0  0.6445331E-05  0.2408992E+04  0.7818609E-02  0.8436145E-01
       -2   -1    0    0    0  501  0.00000000000E+00  0.00000000000E+00  0.79197587125E+03  0.79197587125E+03  0.25500000920E-02 0.  1.
        2   -1    0    0  501    0  0.00000000000E+00  0.00000000000E+00 -0.18318877852E+04  0.18318877852E+04  0.25500000920E-02 0. -1.
    10030    2    1    2    0    0  0.00000000000E+00  0.00000000000E+00 -0.10399119140E+04  0.26238636565E+04  0.24089922580E+04 0.  0.
        1    1    3    3  502    0  0.28989493200E+03 -0.93675016553E+03  0.24191354469E+03  0.10099812411E+04  0.50400001928E-02 0.  1.
       -1    1    3    3    0  502 -0.28989493200E+03  0.93675016553E+03 -0.12818254587E+04  0.16138824154E+04  0.50400001928E-02 0. -1.
</event>
<event>
 5   0  0.2980790E-05  0.2522591E+04  0.7818609E-02  0.8394981E-01
       -1   -1    0    0    0  501  0.00000000000E+00  0.00000000000E+00  0.11672257435E+04  0.11672257435E+04  0.50400001928E-02 0.  1.
        1   -1    0    0  501    0  0.00000000000E+00  0.00000000000E+00 -0.13629464726E+04  0.13629464726E+04  0.50400001928E-02 0. -1.
    10030    2    1    2    0    0  0.00000000000E+00  0.00000000000E+00 -0.19572072907E+03  0.25301722162E+04  0.25225908982E+04 0.  0.
        5    1    3    3  502    0 -0.70433286682E+03  0.89781114652E+03 -0.63677812502E+03  0.13067739332E+04  0.46999998093E+01 0. -1.
       -5    1    3    3    0  502  0.70433286682E+03 -0.89781114652E+03  0.44105739594E+03  0.12233982829E+04  0.46999998093E+01 0.  1.
</event>
<event>
 5   0  0.2977854E-05  0.2658578E+04  0.7818609E-02  0.8348571E-01
       -1   -1    0    0    0  501  0.00000000000E+00  0.00000000000E+00  0.14729690673E+04  0.14729690673E+04  0.50400001928E-02 0. -1.
        1   -1    0    0  501    0  0.00000000000E+00  0.00000000000E+00 -0.11996243906E+04  0.11996243906E+04  0.50400001928E-02 0.  1.
    10030    2    1    2    0    0  0.00000000000E+00  0.00000000000E+00  0.27334467664E+03  0.26725934579E+04  0.26585782816E+04 0.  0.
        1    1    3    3  502    0 -0.97003818700E+03  0.65387715735E+01 -0.77696023312E+03  0.12428531867E+04  0.50400001928E-02 0.  1.
       -1    1    3    3    0  502  0.97003818700E+03 -0.65387715735E+01  0.10503049098E+04  0.14297402713E+04  0.50400001928E-02 0. -1.
</event>
<event>
 5   0  0.6648328E-05  0.2559825E+04  0.7818609E-02  0.8381977E-01
        2   -1    0    0  501    0  0.00000000000E+00  0.00000000000E+00  0.15820036058E+04  0.15820036058E+04  0.25500000920E-02 0. -1.
       -2   -1    0    0    0  501  0.00000000000E+00  0.00000000000E+00 -0.10355073494E+04  0.10355073494E+04  0.25500000920E-02 0.  1.
    10030    2    1    2    0    0  0.00000000000E+00  0.00000000000E+00  0.54649625642E+03  0.26175109551E+04  0.25598252757E+04 0.  0.
        2    1    3    3  502    0 -0.27214398570E+03 -0.54098660591E+03  0.14262430694E+04  0.15494831879E+04  0.25500000920E-02 0. -1.
       -2    1    3    3    0  502  0.27214398570E+03  0.54098660591E+03 -0.87974681293E+03  0.10680277672E+04  0.25500000920E-02 0.  1.
</event>
<event>
 5   0  0.2793920E-05  0.2534330E+04  0.7818609E-02  0.8390857E-01
       -1   -1    0    0    0  501  0.00000000000E+00  0.00000000000E+00  0.76226194296E+03  0.76226194298E+03  0.50400001928E-02 0. -1.
        1   -1    0    0  501    0  0.00000000000E+00  0.00000000000E+00 -0.21065025042E+04  0.21065025042E+04  0.50400001928E-02 0.  1.
    10030    2    1    2    0    0  0.00000000000E+00  0.00000000000E+00 -0.13442405612E+04  0.28687644471E+04  0.25343296484E+04 0.  0.
        2    1    3    3  502    0  0.74591516156E+03 -0.44540856070E+03 -0.17163073594E+04  0.19236655547E+04  0.25500000920E-02 0.  1.
       -2    1    3    3    0  502 -0.74591516156E+03  0.44540856070E+03  0.37206679823E+03  0.94509889247E+03  0.25500000920E-02 0. -1.
</event>
<event>
 5   0  0.6445331E-05  0.2525940E+04  0.7818609E-02  0.8393802E-01
        2   -1    0    0  501    0  0.00000000000E+00  0.00000000000E+00  0.12724524611E+04  0.12724524611E+04  0.25500000920E-02 0.  1.
       -2   -1    0    0    0  501  0.00000000000E+00  0.00000000000E+00 -0.12535581832E+04  0.12535581832E+04  0.25500000920E-02 0. -1.
    10030    2    1    2    0    0  0.00000000000E+00  0.00000000000E+00  0.18894277837E+02  0.25260106443E+04  0.25259399797E+04 0.  0.
        1    1    3    3  502    0  0.10487023585E+04 -0.27064618907E+03 -0.64023802657E+03  0.12581457496E+04  0.50400001928E-02 0. -1.
       -1    1    3    3    0  502 -0.10487023585E+04  0.27064618907E+03  0.65913230440E+03  0.12678648947E+04  0.50400001928E-02 0.  1.
</event>
<event>
 5   0  0.7071821E-05  0.2499974E+04  0.7818609E-02  0.8402995E-01
        2   -1    0    0  501    0  0.00000000000E+00  0.00000000000E+00  0.19432186151E+04  0.19432186151E+04  0.25500000920E-02 0. -1.
       -2   -1    0    0    0  501  0.00000000000E+00  0.00000000000E+00 -0.80406144520E+03  0.80406144520E+03  0.25500000920E-02 0.  1.
    10030    2    1    2    0    0  0.00000000000E+00  0.00000000000E+00  0.11391571699E+04  0.27472800603E+04  0.24999737342E+04 0.  0.
        5    1    3    3  502    0 -0.10569990250E+04  0.27283852210E+03  0.12387114049E+04  0.16510953433E+04  0.46999998093E+01 0. -1.
       -5    1    3    3    0  502  0.10569990250E+04 -0.27283852210E+03 -0.99554235013E+02  0.10961847170E+04  0.46999998093E+01 0.  1.
</event>
<event>
 5   0  0.2777539E-05  0.2481396E+04  0.7818609E-02  0.8409644E-01
        1   -1    0    0  501    0  0.00000000000E+00  0.00000000000E+00  0.18443203064E+04  0.18443203064E+04  0.50400001928E-02 0.  1.
       -1   -1    0    0    0  501  0.00000000000E+00  0.00000000000E+00 -0.83463330050E+03  0.83463330051E+03  0.50400001928E-02 0. -1.
    10030    2    1    2    0    0  0.00000000000E+00  0.00000000000E+00  0.10096870059E+04  0.26789536069E+04  0.24813956916E+04 0.  0.
        3    1    3    3  502    0  0.98321090276E+03 -0.75573290045E+03  0.46309659029E+03  0.13237425574E+04  0.10100000352E+00 0.  1.
       -3    1    3    3    0  502 -0.98321090276E+03  0.75573290045E+03  0.54659041564E+03  0.13552110495E+04  0.10100000352E+00 0. -1.
</event>
<event>
 5   0  0.2980790E-05  0.2502507E+04  0.7818609E-02  0.8402093E-01
       -1   -1    0    0    0  501  0.00000000000E+00  0.00000000000E+00  0.71162972751E+03  0.71162972753E+03  0.50400001928E-02 0. -1.
        1   -1    0    0  501    0  0.00000000000E+00  0.00000000000E+00 -0.22000703739E+04  0.22000703739E+04  0.50400001928E-02 0.  1.
    10030    2    1    2    0    0  0.00000000000E+00  0.00000000000E+00 -0.14884406464E+04  0.29117001014E+04  0.25025071274E+04 0.  0.
        5    1    3    3  502    0  0.11624475071E+04  0.39494914759E+03 -0.10252620073E+04  0.15995165862E+04  0.46999998093E+01 0.  1.
       -5    1    3    3    0  502 -0.11624475071E+04 -0.39494914759E+03 -0.46317863913E+03  0.13121835153E+04  0.46999998093E+01 0. -1.
</event>
<event>
 5   0  0.6445331E-05  0.2473069E+04  0.7818609E-02  0.8412643E-01
        2   -1    0    0  501    0  0.00000000000E+00  0.00000000000E+00  0.16680934093E+04  0.16680934093E+04  0.25500000920E-02 0.  1.
       -2   -1    0    0    0  501  0.00000000000E+00  0.00000000000E+00 -0.91662605978E+03  0.91662605978E+03  0.25500000920E-02 0. -1.
    10030    2    1    2    0    0  0.00000000000E+00  0.00000000000E+00  0.75146734956E+03  0.25847194691E+04  0.24730692583E+04 0.  0.
        1    1    3    3  502    0 -0.92383199419E+03 -0.37257909897E+03 -0.38996511967E+03  0.10697446111E+04  0.50400001928E-02 0.  1.
       -1    1    3    3    0  502  0.92383199419E+03  0.37257909897E+03  0.11414324692E+04  0.15149748580E+04  0.50400001928E-02 0. -1.
</event>
<event>
 5   0  0.6909250E-05  0.2555930E+04  0.7818609E-02  0.8383327E-01
       -2   -1    0    0    0  501  0.00000000000E+00  0.00000000000E+00  0.65324866449E+03  0.65324866450E+03  0.25500000920E-02 0. -1.
        2   -1    0    0  501    0  0.00000000000E+00  0.00000000000E+00 -0.25001122028E+04  0.25001122028E+04  0.25500000920E-02 0.  1.
    10030    2    1    2    0    0  0.00000000000E+00  0.00000000000E+00 -0.18468635383E+04  0.31533608673E+04  0.25559303258E+04 0.  0.
        4    1    3    3  502    0 -0.10583269002E+04  0.64024194720E+03 -0.52704155244E+03  0.13445222161E+04  0.12699999809E+01 0. -1.
       -4    1    3    3    0  502  0.10583269002E+04 -0.64024194720E+03 -0.13198219859E+04  0.18088386512E+04  0.12699999809E+01 0.  1.
</event>
<event>
 5   0  0.2793920E-05  0.2568406E+04  0.7818609E-02  0.8379013E-01
        1   -1    0    0  501    0  0.00000000000E+00  0.00000000000E+00  0.18784985035E+04  0.18784985035E+04  0.50400001928E-02 0.  1.
       -1   -1    0    0    0  501  0.00000000000E+00  0.00000000000E+00 -0.87792297730E+03  0.87792297731E+03  0.50400001928E-02 0. -1.
    10030    2    1    2    0    0  0.00000000000E+00  0.00000000000E+00  0.10005755262E+04  0.27564214809E+04  0.25684057305E+04 0.  0.
        2    1    3    3  502    0 -0.69591572946E+03 -0.94966695126E+03  0.10506757344E+04  0.15780004815E+04  0.25500000920E-02 0.  1.
       -2    1    3    3    0  502  0.69591572946E+03  0.94966695126E+03 -0.50100208130E+02  0.11784209993E+04  0.25500000920E-02 0. -1.
</event>
<event>
 5   0  0.2896652E-05  0.2509085E+04  0.7818609E-02  0.8399756E-01
       -1   -1    0    0    0  501  0.00000000000E+00  0.00000000000E+00  0.61466310423E+03  0.61466310425E+03  0.50400001928E-02 0.  1.
        1   -1    0    0  501    0  0.00000000000E+00  0.00000000000E+00 -0.25605518837E+04  0.25605518837E+04  0.50400001928E-02 0. -1.
    10030    2    1    2    0    0  0.00000000000E+00  0.00000000000E+00 -0.19458887795E+04  0.31752149879E+04  0.25090849084E+04 0.  0.
        4    1    3    3  502    0 -0.10199655414E+04 -0.49494392544E+03 -0.16527548665E+04  0.20042204112E+04  0.12699999809E+01 0. -1.
       -4    1    3    3    0  502  0.10199655414E+04  0.49494392544E+03 -0.29313391290E+03  0.11709945767E+04  0.12699999809E+01 0.  1.
</event>
<event>
 5   0  0.6827859E-05  0.2549359E+04  0.7818609E-02  0.8385609E-01
        2   -1    0    0  501    0  0.00000000000E+00  0.00000000000E+00  0.12994278485E+04  0.12994278485E+04  0.25500000920E-02 0. -1.
       -2   -1    0    0    0  501  0.00000000000E+00  0.00000000000E+00 -0.12504022034E+04  0.12504022034E+04  0.25500000920E-02 0.  1.
    10030    2    1    2    0    0  0.00000000000E+00  0.00000000000E+00  0.49025645109E+02  0.25498300519E+04  0.25493586996E+04 0.  0.
        3    1    3    3  502    0  0.11646598956E+04 -0.48142309436E+03  0.21587662289E+03  0.12785943824E+04  0.10100000352E+00 0. -1.
       -3    1    3    3    0  502 -0.11646598956E+04  0.48142309436E+03 -0.16685097778E+03  0.12712356694E+04  0.10100000352E+00 0.  1.
</event>
<event>
 5   0  0.2977854E-05  0.2476144E+04  0.7818609E-02  0.8411534E-01
        1   -1    0    0  501    0  0.00000000000E+00  0.00000000000E+00  0.20123250342E+04  0.20123250342E+04  0.50400001928E-02 0.  1.
       -1   -1    0    0    0  501  0.00000000000E+00  0.00000000000E+00 -0.76171696812E+03  0.76171696814E+03  0.50400001928E-02 0. -1.
    10030    2    1    2    0    0  0.00000000000E+00  0.00000000000E+00  0.12506080661E+04  0.27740420024E+04  0.24761438763E+04 0.  0.
        1    1    3    3  502    0 -0.19810816045E+03  0.81612101274E+03 -0.39381959701E+03  0.92757437744E+03  0.50400001928E-02 0. -1.
       -1    1    3    3    0  502  0.19810816045E+03 -0.81612101274E+03  0.16444276631E+04  0.18464676249E+04  0.50400001928E-02 0.  1.
</event>
<event>
 5   0  0.7071821E-05  0.2496911E+04  0.7818609E-02  0.8404087E-01
       -2   -1    0    0    0  501  0.00000000000E+00  0.00000000000E+00  0.76178354101E+03  0.76178354102E+03  0.25500000920E-02 0.  1.
        2   -1    0    0  501    0  0.00000000000E+00  0.00000000000E+00 -0.20460423586E+04  0.20460423586E+04  0.25500000920E-02 0. -1.
    10030    2    1    2    0    0  0.00000000000E+00  0.00000000000E+00 -0.12842588176E+04  0.28078258996E+04  0.24969112063E+04 0.  0.
        5    1    3    3  502    0 -0.13438784464E+03 -0.20014454941E+03 -0.20196093242E+04  0.20339522723E+04  0.46999998093E+01 0. -1.
       -5    1    3    3    0  502  0.13438784464E+03  0.20014454941E+03  0.73535050665E+03  0.77387362733E+03  0.46999998093E+01 0.  1.
</event>
<event>
 5   0  0.2793920E-05  0.2337457E+04  0.7818609E-02  0.8463297E-01
        1   -1    0    0  501    0  0.00000000000E+00  0.00000000000E+00  0.94694941272E+03  0.94694941274E+03  0.50400001928E-02 0.  1.
       -1   -1    0    0    0  501  0.00000000000E+00  0.00000000000E+00 -0.14424485701E+04  0.14424485701E+04  0.50400001928E-02 0. -1.
    10030    2    1    2    0    0  0.00000000000E+00  0.00000000000E+00 -0.49549915737E+03  0.23893979828E+04  0.23374565890E+04 0.  0.
        2    1    3    3  502    0 -0.27922189024E+03  0.16532503714E+03  0.89997720270E+03  0.95669023057E+03  0.25500000920E-02 0.  1.
       -2    1    3    3    0  502  0.27922189024E+03 -0.16532503714E+03 -0.13954763601E+04  0.14327077523E+04  0.25500000920E-02 0. -1.
</event>
<event>
 5   0  0.6445331E-05  0.2374276E+04  0.7818609E-02  0.8449197E-01
        2   -1    0    0  501    0  0.00000000000E+00  0.00000000000E+00  0.15307423227E+04  0.15307423227E+04  0.25500000920E-02 0.  1.
       -2   -1    0    0    0  501  0.00000000000E+00  0.00000000000E+00 -0.92066252619E+03  0.92066252619E+03  0.25500000920E-02 0. -1.
    10030    2    1    2    0    0  0.00000000000E+00  0.00000000000E+00  0.61007979651E+03  0.24514048489E+04  0.23742763898E+04 0.  0.
        1    1    3    3  502    0 -0.41602325719E+03 -0.11106375117E+04  0.35874957642E+03  0.12390691229E+04  0.50400001928E-02 0. -1.
       -1    1    3    3    0  502  0.41602325719E+03  0.11106375117E+04  0.25133022009E+03  0.12123357259E+04  0.50400001928E-02 0.  1.
</event>
<event>
 5   0  0.6648328E-05  0.2525871E+04  0.7818609E-02  0.8393826E-01
        2   -1    0    0  501    0  0.00000000000E+00  0.00000000000E+00  0.21662120389E+04  0.21662120389E+04  0.25500000920E-02 0.  1.
       -2   -1    0    0    0  501  0.00000000000E+00  0.00000000000E+00 -0.73631125853E+03  0.73631125854E+03  0.25500000920E-02 0. -1.
    10030    2    1    2    0    0  0.00000000000E+00  0.00000000000E+00  0.14299007804E+04  0.29025232975E+04  0.25258711865E+04 0.  0.
        2    1    3    3  502    0 -0.69629356391E+03 -0.88578403182E+03  0.59280066127E+02  0.11282518356E+04  0.25500000920E-02 0. -1.
       -2    1    3    3    0  502  0.69629356391E+03  0.88578403182E+03  0.13706207143E+04  0.17742714619E+04  0.25500000920E-02 0.  1.
</event>
<event>
 5   0  0.2331375E-05  0.2558782E+04  0.7818609E-02  0.8382339E-01
        3   -1    0    0  501    0  0.00000000000E+00  0.00000000000E+00  0.11568819957E+04  0.11568820001E+04  0.10100000352E+00 0.  1.
       -3   -1    0    0    0  501  0.00000000000E+00  0.00000000000E+00 -0.14148726380E+04  0.14148726416E+04  0.10100000352E+00 0. -1.
    10030    2    1    2    0    0  0.00000000000E+00  0.00000000000E+00 -0.25799064237E+03  0.25717546417E+04  0.25587815002E+04 0.  0.
        1    1    3    3  502    0  0.53508554576E+02  0.10307524654E+04 -0.88882221472E+03  0.13621008552E+04  0.50400001928E-02 0. -1.
       -1    1    3    3    0  502 -0.53508554576E+02 -0.10307524654E+04  0.63083157235E+03  0.12096537865E+04  0.50400001928E-02 0.  1.
</event>
<event>
 5   0  0.2896652E-05  0.2588092E+04  0.7818609E-02  0.8372257E-01
       -1   -1    0    0    0  501  0.00000000000E+00  0.00000000000E+00  0.16266512410E+04  0.16266512410E+04  0.50400001928E-02 0.  1.
        1   -1    0    0  501    0  0.00000000000E+00  0.00000000000E+00 -0.10294494475E+04  0.10294494475E+04  0.50400001928E-02 0. -1.
    10030    2    1    2    0    0  0.00000000000E+00  0.00000000000E+00  0.59720179352E+03  0.26561006885E+04  0.25880921323E+04 0.  0.
        4    1    3    3  502    0  0.12519374733E+04  0.30660907183E+03  0.41649801951E+03  0.13545585160E+04  0.12699999809E+01 0.  1.
       -4    1    3    3    0  502 -0.12519374733E+04 -0.30660907183E+03  0.18070377402E+03  0.13015421725E+04  0.12699999809E+01 0. -1.
</event>
<event>
 5   0  0.6909250E-05  0.1958213E+04  0.7818609E-02  0.8626410E-01
        2   -1    0    0  501    0  0.00000000000E+00  0.00000000000E+00  0.96214487922E+03  0.96214487923E+03  0.25500000920E-02 0. -1.
       -2   -1    0    0    0  501  0.00000000000E+00  0.00000000000E+00 -0.99636724008E+03  0.99636724009E+03  0.25500000920E-02 0.  1.
    10030    2    1    2    0    0  0.00000000000E+00  0.00000000000E+00 -0.34222360861E+02  0.19585121193E+04  0.19582131017E+04 0.  0.
        4    1    3    3  502    0  0.81474227056E+03 -0.51384743309E+03  0.15842594165E+03  0.97618878493E+03  0.12699999809E+01 0. -1.
       -4    1    3    3    0  502 -0.81474227056E+03  0.51384743309E+03 -0.19264830251E+03  0.98232333439E+03  0.12699999809E+01 0.  1.
</event>
<event>
 5   0  0.7071821E-05  0.2511516E+04  0.7818609E-02  0.8398894E-01
        2   -1    0    0  501    0  0.00000000000E+00  0.00000000000E+00  0.10991045517E+04  0.10991045517E+04  0.25500000920E-02 0.  1.
       -2   -1    0    0    0  501  0.00000000000E+00  0.00000000000E+00 -0.14347391767E+04  0.14347391767E+04  0.25500000920E-02 0. -1.
    10030    2    1    2    0    0  0.00000000000E+00  0.00000000000E+00 -0.33563462499E+03  0.25338437285E+04  0.25115161634E+04 0.  0.
        5    1    3    3  502    0  0.88257829082E+03  0.12525488212E+03 -0.10601422541E+04  0.13851198193E+04  0.46999998093E+01 0. -1.
       -5    1    3    3    0  502 -0.88257829082E+03 -0.12525488212E+03  0.72450762909E+03  0.11487239092E+04  0.46999998093E+01 0.  1.
</event>
<event>
 5   0  0.2977854E-05  0.2533361E+04  0.7818609E-02  0.8391196E-01
        1   -1    0    0  501    0  0.00000000000E+00  0.00000000000E+00  0.15572961909E+04  0.15572961909E+04  0.50400001928E-02 0.  1.
       -1   -1    0    0    0  501  0.00000000000E+00  0.00000000000E+00 -0.10302981587E+04  0.10302981587E+04  0.50400001928E-02 0. -1.
    10030    2    1    2    0    0  0.00000000000E+00  0.00000000000E+00  0.52699803221E+03  0.25875943497E+04  0.25333609282E+04 0.  0.
        1    1    3    3  502    0 -0.58503643280E+03  0.82059613711E+03  0.10472813550E+04  0.14534248809E+04  0.50400001928E-02 0.  1.
       -1    1    3    3    0  502  0.58503643280E+03 -0.82059613711E+03 -0.52028332275E+03  0.11341694688E+04  0.50400001928E-02 0. -1.
</event>
<event>
 5   0  0.6909250E-05  0.2535135E+04  0.7818609E-02  0.8390574E-01
       -2   -1    0    0    0  501  0.00000000000E+00  0.00000000000E+00  0.82839874291E+03  0.82839874291E+03  0.25500000920E-02 0.  1.
        2   -1    0    0  501    0  0.00000000000E+00  0.00000000000E+00 -0.19395579623E+04  0.19395579623E+04  0.25500000920E-02 0. -1.
    10030    2    1    2    0    0  0.00000000000E+00  0.00000000000E+00 -0.11111592194E+04  0.27679567052E+04  0.25351350085E+04 0.  0.
        4    1    3    3  502    0 -0.85021554463E+02  0.10536339545E+04 -0.13193611291E+04  0.16905882339E+04  0.12699999809E+01 0. -1.
       -4    1    3    3    0  502  0.85021554463E+02 -0.10536339545E+04  0.20820190976E+03  0.10773684713E+04  0.12699999809E+01 0.  1.
</event>
<event>
 5   0  0.2777539E-05  0.1365437E+04  0.7818609E-02  0.8979224E-01
       -1   -1    0    0    0  501  0.00000000000E+00  0.00000000000E+00  0.38595283155E+03  0.38595283159E+03  0.50400001928E-02 0.  1.
        1   -1    0    0  501    0  0.00000000000E+00  0.00000000000E+00 -0.12076731002E+04  0.12076731002E+04  0.50400001928E-02 0. -1.
    10030    2    1    2    0    0  0.00000000000E+00  0.00000000000E+00 -0.82172026868E+03  0.15936259318E+04  0.13654374430E+04 0.  0.
        3    1    3    3  502    0 -0.28158496584E+02  0.54550512374E+03  0.67139817320E+02  0.55034217195E+03  0.10100000352E+00 0.  1.
       -3    1    3    3    0  502  0.28158496584E+02 -0.54550512374E+03 -0.88886008601E+03  0.10432837599E+04  0.10100000352E+00 0. -1.
</event>
<event>
 5   0  0.2793920E-05  0.2560377E+04  0.7818609E-02  0.8381786E-01
       -1   -1    0    0    0  501  0.00000000000E+00  0.00000000000E+00  0.97865648190E+03  0.97865648192E+03  0.50400001928E-02 0. -1.
        1   -1    0    0  501    0  0.00000000000E+00  0.00000000000E+00 -0.16746243836E+04  0.16746243836E+04  0.50400001928E-02 0.  1.
    10030    2    1    2    0    0  0.00000000000E+00  0.00000000000E+00 -0.69596790172E+03  0.26532808655E+04  0.25603765409E+04 0.  0.
        2    1    3    3  502    0  0.52692702761E+03 -0.61138838269E+03  0.68176998271E+03  0.10565311904E+04  0.25500000920E-02 0. -1.
       -2    1    3    3    0  502 -0.52692702761E+03  0.61138838269E+03 -0.13777378844E+04  0.15967496752E+04  0.25500000920E-02 0.  1.
</event>
<event>
 5   0  0.2793920E-05  0.2468026E+04  0.7818609E-02  0.8414466E-01
       -1   -1    0    0    0  501  0.00000000000E+00  0.00000000000E+00  0.90896040258E+03  0.90896040259E+03  0.50400001928E-02 0. -1.
        1   -1    0    0  501    0  0.00000000000E+00  0.00000000000E+00 -0.16753078431E+04  0.16753078431E+04  0.50400001928E-02 0.  1.
    10030    2    1    2    0    0  0.00000000000E+00  0.00000000000E+00 -0.76634744048E+03  0.25842682457E+04  0.24680263301E+04 0.  0.
        2    1    3    3  502    0 -0.11391195749E+04 -0.47454706716E+03 -0.38360126905E+03  0.12922609096E+04  0.25500000920E-02 0. -1.
       -2    1    3    3    0  502  0.11391195749E+04  0.47454706716E+03 -0.38274617143E+03  0.12920073361E+04  0.25500000920E-02 0.  1.
</event>
<event>
 5   0  0.2977854E-05  0.2511943E+04  0.7818609E-02  0.8398743E-01
       -1   -1    0    0    0  501  0.00000000000E+00  0.00000000000E+00  0.87206272660E+03  0.87206272662E+03  0.50400001928E-02 0.  1.
        1   -1    0    0  501    0  0.00000000000E+00  0.00000000000E+00 -0.18088889084E+04  0.18088889084E+04  0.50400001928E-02 0. -1.
    10030    2    1    2    0    0  0.00000000000E+00  0.00000000000E+00 -0.93682618180E+03  0.26809516350E+04  0.25119431471E+04 0.  0.
        1    1    3    3  502    0 -0.76140305164E+02 -0.10558603205E+04 -0.11897774651E+04  0.15925478891E+04  0.50400001928E-02 0. -1.
       -1    1    3    3    0  502  0.76140305164E+02  0.10558603205E+04  0.25295128328E+03  0.10884037460E+04  0.50400001928E-02 0.  1.
</event>
<event>
 5   0  0.2980790E-05  0.2545958E+04  0.7818609E-02  0.8386793E-01
       -1   -1    0    0    0  501  0.00000000000E+00  0.00000000000E+00  0.63910093389E+03  0.63910093391E+03  0.50400001928E-02 0. -1.
        1   -1    0    0  501    0  0.00000000000E+00  0.00000000000E+00 -0.25355542182E+04  0.25355542182E+04  0.50400001928E-02 0.  1.
    10030    2    1    2    0    0  0.00000000000E+00  0.00000000000E+00 -0.18964532843E+04  0.31746551522E+04  0.25459576343E+04 0.  0.
        5    1    3    3  502    0 -0.78202592949E+03 -0.17887590350E+03  0.28422141427E+03  0.85109637855E+03  0.46999998093E+01 0. -1.
       -5    1    3    3    0  502  0.78202592949E+03  0.17887590350E+03 -0.21806746986E+04  0.23235587736E+04  0.46999998093E+01 0.  1.
</event>
<event>
 5   0  0.2793920E-05  0.2517586E+04  0.7818609E-02  0.8396747E-01
        1   -1    0    0  501    0  0.00000000000E+00  0.00000000000E+00  0.13880292438E+04  0.13880292438E+04  0.50400001928E-02 0.  1.
       -1   -1    0    0    0  501  0.00000000000E+00  0.00000000000E+00 -0.11415899279E+04  0.11415899279E+04  0.50400001928E-02 0. -1.
    10030    2    1    2    0    0  0.00000000000E+00  0.00000000000E+00  0.24643931589E+03  0.25296191718E+04  0.25175863079E+04 0.  0.
        2    1    3    3  502    0  0.28534408499E+03  0.91285677040E+03 -0.69912438618E+03  0.11846955885E+04  0.25500000920E-02 0. -1.
       -2    1    3    3    0  502 -0.28534408499E+03 -0.91285677040E+03  0.94556370207E+03  0.13449235832E+04  0.25500000920E-02 0.  1.
</event>
<event>
 5   0  0.6909250E-05  0.2464847E+04  0.7818609E-02  0.8415617E-01
       -2   -1    0    0    0  501  0.00000000000E+00  0.00000000000E+00  0.90405337671E+03  0.90405337671E+03  0.25500000920E-02 0.  1.
        2   -1    0    0  501    0  0.00000000000E+00  0.00000000000E+00 -0.16800644155E+04  0.16800644155E+04  0.25500000920E-02 0. -1.
    10030    2    1    2    0    0  0.00000000000E+00  0.00000000000E+00 -0.77601103881E+03  0.25841177922E+04  0.24648471822E+04 0.  0.
        4    1    3    3  502    0  0.44896474681E+03  0.79465055808E+02 -0.15883909466E+04  0.16525348563E+04  0.12699999809E+01 0. -1.
       -4    1    3    3    0  502 -0.44896474681E+03 -0.79465055808E+02  0.81237990784E+03  0.93158293594E+03  0.12699999809E+01 0.  1.
</event>
<event>
 5   0  0.6909250E-05  0.2442473E+04  0.7818609E-02  0.8423771E-01
       -2   -1    0    0    0  501  0.00000000000E+00  0.00000000000E+00  0.25121833651E+04  0.25121833651E+04  0.25500000920E-02 0.  1.
        2   -1    0    0  501    0  0.00000000000E+00  0.00000000000E+00 -0.59367439291E+03  0.59367439292E+03  0.25500000920E-02 0. -1.
    10030    2    1    2    0    0  0.00000000000E+00  0.00000000000E+00  0.19185089722E+04  0.31058577580E+04  0.24424732827E+04 0.  0.
        4    1    3    3  502    0 -0.29485116039E+03 -0.69088411546E+03 -0.26516126776E+03  0.79659913294E+03  0.12699999809E+01 0. -1.
       -4    1    3    3    0  502  0.29485116039E+03  0.69088411546E+03  0.21836702400E+04  0.23092586251E+04  0.12699999809E+01 0.  1.
</event>
<event>
 5   0  0.6445331E-05  0.2500605E+04  0.7818609E-02  0.8402770E-01
       -2   -1    0    0    0  501  0.00000000000E+00  0.00000000000E+00  0.69368769877E+03  0.69368769878E+03  0.25500000920E-02 0. -1.
        2   -1    0    0  501    0  0.00000000000E+00  0.00000000000E+00 -0.22535442139E+04  0.22535442139E+04  0.25500000920E-02 0.  1.
    10030    2    1    2    0    0  0.00000000000E+00  0.00000000000E+00 -0.15598565152E+04  0.29472319127E+04  0.25006046468E+04 0.  0.
        1    1    3    3  502    0  0.31218057767E+03 -0.71431754409E+03 -0.19320434466E+04  0.20833862211E+04  0.50400001928E-02 0.  1.
       -1    1    3    3    0  502 -0.31218057767E+03  0.71431754409E+03  0.37218693144E+03  0.86384569156E+03  0.50400001928E-02 0. -1.
</event>
<event>
 5   0  0.2896652E-05  0.2379423E+04  0.7818609E-02  0.8447248E-01
        1   -1    0    0  501    0  0.00000000000E+00  0.00000000000E+00  0.12892862489E+04  0.12892862489E+04  0.50400001928E-02 0. -1.
       -1   -1    0    0    0  501  0.00000000000E+00  0.00000000000E+00 -0.10978268505E+04  0.10978268505E+04  0.50400001928E-02 0.  1.
    10030    2    1    2    0    0  0.00000000000E+00  0.00000000000E+00  0.19145939838E+03  0.23871130994E+04  0.23794226712E+04 0.  0.
        4    1    3    3  502    0 -0.27895142800E+03  0.21679260709E+03 -0.10439871831E+04  0.11021450834E+04  0.12699999809E+01 0.  1.
       -4    1    3    3    0  502  0.27895142800E+03 -0.21679260709E+03  0.12354465814E+04  0.12849680160E+04  0.12699999809E+01 0. -1.
</event>
<event>
 5   0  0.2896652E-05  0.2490767E+04  0.7818609E-02  0.8406282E-01
        1   -1    0    0  501    0  0.00000000000E+00  0.00000000000E+00  0.10553953222E+04  0.10553953222E+04  0.50400001928E-02 0. -1.
       -1   -1    0    0    0  501  0.00000000000E+00  0.00000000000E+00 -0.14695726769E+04  0.14695726769E+04  0.50400001928E-02 0.  1.
    10030    2    1    2    0    0  0.00000000000E+00  0.00000000000E+00 -0.41417735473E+03  0.25249679991E+04  0.24907670536E+04 0.  0.
        4    1    3    3  502    0 -0.11883882935E+04  0.15582973779E+03  0.13582955412E+03  0.12062341912E+04  0.12699999809E+01 0.  1.
       -4    1    3    3    0  502  0.11883882935E+04 -0.15582973779E+03 -0.55000690884E+03  0.13187338079E+04  0.12699999809E+01 0. -1.
</event>
<event>
 5   0  0.7071821E-05  0.2587142E+04  0.7818609E-02  0.8372582E-01
        2   -1    0    0  501    0  0.00000000000E+00  0.00000000000E+00  0.26144917237E+04  0.26144917237E+04  0.25500000920E-02 0.  1.
       -2   -1    0    0    0  501  0.00000000000E+00  0.00000000000E+00 -0.64001935322E+03  0.64001935322E+03  0.25500000920E-02 0. -1.
    10030    2    1    2    0    0  0.00000000000E+00  0.00000000000E+00  0.19744723705E+04  0.32545110769E+04  0.25871415129E+04 0.  0.
        5    1    3    3  502    0 -0.11668479635E+04  0.60682024453E+02  0.16854719149E+04  0.20508666811E+04  0.46999998093E+01 0.  1.
       -5    1    3    3    0  502  0.11668479635E+04 -0.60682024453E+02  0.28900045559E+03  0.12036443957E+04  0.46999998093E+01 0. -1.
</event>
<event>
 5   0  0.2980790E-05  0.2177576E+04  0.7818609E-02  0.8527820E-01
        1   -1    0    0  501    0  0.00000000000E+00  0.00000000000E+00  0.16645315648E+04  0.16645315648E+04  0.50400001928E-02 0. -1.
       -1   -1    0    0    0  501  0.00000000000E+00  0.00000000000E+00 -0.71218764259E+03  0.71218764261E+03  0.50400001928E-02 0.  1.
    10030    2    1    2    0    0  0.00000000000E+00  0.00000000000E+00  0.95234392220E+03  0.23767192074E+04  0.21775755428E+04 0.  0.
        5    1    3    3  502    0  0.85380424590E+03 -0.36991926228E+03 -0.14087478473E+03  0.94111091052E+03  0.46999998093E+01 0.  1.
       -5    1    3    3    0  502 -0.85380424590E+03  0.36991926228E+03  0.10932187069E+04  0.14356082969E+04  0.46999998093E+01 0. -1.
</event>
<event>
 5   0  0.2980790E-05  0.2553963E+04  0.7818609E-02  0.8384009E-01
        1   -1    0    0  501    0  0.00000000000E+00  0.00000000000E+00  0.11700052594E+04  0.11700052594E+04  0.50400001928E-02 0. -1.
       -1   -1    0    0    0  501  0.00000000000E+00  0.00000000000E+00 -0.13937390327E+04  0.13937390327E+04  0.50400001928E-02 0.  1.
    10030    2    1    2    0    0  0.00000000000E+00  0.00000000000E+00 -0.22373377325E+03  0.25637442921E+04  0.25539631936E+04 0.  0.
        5    1    3    3  502    0 -0.80949557270E+03 -0.89773850057E+03 -0.52507718174E+03  0.13179323330E+04  0.46999998093E+01 0.  1.
       -5    1    3    3    0  502  0.80949557270E+03  0.89773850057E+03  0.30134340848E+03  0.12458119591E+04  0.46999998093E+01 0. -1.
</event>
<event>
 5   0  0.6648328E-05  0.2529641E+04  0.7818609E-02  0.8392501E-01
        2   -1    0    0  501    0  0.00000000000E+00  0.00000000000E+00  0.19795893289E+04  0.19795893289E+04  0.25500000920E-02 0. -1.
       -2   -1    0    0    0  501  0.00000000000E+00  0.00000000000E+00 -0.80813256865E+03  0.80813256865E+03  0.25500000920E-02 0.  1.
    10030    2    1    2    0    0  0.00000000000E+00  0.00000000000E+00  0.11714567602E+04  0.27877218975E+04  0.25296407723E+04 0.  0.
        2    1    3    3  502    0  0.61987700576E+03  0.71821234316E+03 -0.33608861633E+03  0.10064949231E+04  0.25500000920E-02 0.  1.
       -2    1    3    3    0  502 -0.61987700576E+03 -0.71821234316E+03  0.15075453765E+04  0.17812269744E+04  0.25500000920E-02 0. -1.
</event>
<event>
 5   0  0.2777539E-05  0.2435280E+04  0.7818609E-02  0.8426412E-01
       -1   -1    0    0    0  501  0.00000000000E+00  0.00000000000E+00  0.76795118833E+03  0.76795118835E+03  0.50400001928E-02 0. -1.
        1   -1    0    0  501    0  0.00000000000E+00  0.00000000000E+00 -0.19306523574E+04  0.19306523574E+04  0.50400001928E-02 0.  1.
    10030    2    1    2    0    0  0.00000000000E+00  0.00000000000E+00 -0.11627011691E+04  0.26986035458E+04  0.24352796736E+04 0.  0.
        3    1    3    3  502    0  0.76863243252E+03 -0.74479049685E+03 -0.12247699609E+04  0.16265208784E+04  0.10100000352E+00 0.  1.
       -3    1    3    3    0  502 -0.76863243252E+03  0.74479049685E+03  0.62068791853E+02  0.10720826674E+04  0.10100000352E+00 0. -1.
</event>
<event>
 5   0  0.6827859E-05  0.2482832E+04  0.7818609E-02  0.8409127E-01
        2   -1    0    0  501    0  0.00000000000E+00  0.00000000000E+00  0.13535675417E+04  0.13535675417E+04  0.25500000920E-02 0.  1.
       -2   -1    0    0    0  501  0.00000000000E+00  0.00000000000E+00 -0.11385568852E+04  0.11385568852E+04  0.25500000920E-02 0. -1.
    10030    2    1    2    0    0  0.00000000000E+00  0.00000000000E+00  0.21501065652E+03  0.24921244269E+04  0.24828319670E+04 0.  0.
        3    1    3    3  502    0  0.51005112831E+03  0.48773865310E+03 -0.91762631345E+03  0.11576179027E+04  0.10100000352E+00 0. -1.
       -3    1    3    3    0  502 -0.51005112831E+03 -0.48773865310E+03  0.11326369700E+04  0.13345065242E+04  0.10100000352E+00 0.  1.
</event>
<event>
 5   0  0.6909250E-05  0.2497335E+04  0.7818609E-02  0.8403936E-01
       -2   -1    0    0    0  501  0.00000000000E+00  0.00000000000E+00  0.12650464785E+04  0.12650464785E+04  0.25500000920E-02 0. -1.
        2   -1    0    0  501    0  0.00000000000E+00  0.00000000000E+00 -0.12325002205E+04  0.12325002205E+04  0.25500000920E-02 0.  1.
    10030    2    1    2    0    0  0.00000000000E+00  0.00000000000E+00  0.32546258077E+02  0.24975466990E+04  0.24973346301E+04 0.  0.
        4    1    3    3  502    0 -0.84095540014E+03 -0.79505755430E+03  0.48519027579E+03  0.12548839454E+04  0.12699999809E+01 0. -1.
       -4    1    3    3    0  502  0.84095540014E+03  0.79505755430E+03 -0.45264401772E+03  0.12426627537E+04  0.12699999809E+01 0.  1.
</event>
<event>
 5   0  0.6909250E-05  0.2537138E+04  0.7818609E-02  0.8389873E-01
        2   -1    0    0  501    0  0.00000000000E+00  0.00000000000E+00  0.18593122056E+04  0.18593122056E+04  0.25500000920E-02 0. -1.
       -2   -1    0    0    0  501  0.00000000000E+00  0.00000000000E+00 -0.86551772680E+03  0.86551772681E+03  0.25500000920E-02 0.  1.
    10030    2    1    2    0    0  0.00000000000E+00  0.00000000000E+00  0.99379447876E+03  0.27248299324E+04  0.25371382884E+04 0.  0.
        4    1    3    3  502    0 -0.98891719417E+03 -0.35708941505E+03 -0.26539696285E+03  0.10843925618E+04  0.12699999809E+01 0.  1.
       -4    1    3    3    0  502  0.98891719417E+03  0.35708941505E+03  0.12591914416E+04  0.16404373706E+04  0.12699999809E+01 0. -1.
</event>
<event>
 5   0  0.2793920E-05  0.2507401E+04  0.7818609E-02  0.8400353E-01
        1   -1    0    0  501    0  0.00000000000E+00  0.00000000000E+00  0.21046019028E+04  0.21046019028E+04  0.50400001928E-02 0.  1.
       -1   -1    0    0    0  501  0.00000000000E+00  0.00000000000E+00 -0.74682317025E+03  0.74682317027E+03  0.50400001928E-02 0. -1.
    10030    2    1    2    0    0  0.00000000000E+00  0.00000000000E+00  0.13577787325E+04  0.28514250731E+04  0.25074014160E+04 0.  0.
        2    1    3    3  502    0  0.69881963323E+02 -0.10729641677E+04  0.14120370615E+04  0.17748194999E+04  0.25500000920E-02 0.  1.
       -2    1    3    3    0  502 -0.69881963323E+02  0.10729641677E+04 -0.54258328984E+02  0.10766055732E+04  0.25500000920E-02 0. -1.
</event>
<event>
 5   0  0.6445331E-05  0.2321142E+04  0.7818609E-02  0.8469632E-01
        2   -1    0    0  501    0  0.00000000000E+00  0.00000000000E+00  0.13005307877E+04  0.13005307877E+04  0.25500000920E-02 0.  1.
       -2   -1    0    0    0  501  0.00000000000E+00  0.00000000000E+00 -0.10356732626E+04  0.10356732626E+04  0.25500000920E-02 0. -1.
    10030    2    1    2    0    0  0.00000000000E+00  0.00000000000E+00  0.26485752507E+03  0.23362040502E+04  0.23211419293E+04 0.  0.
        1    1    3    3  502    0  0.37665576640E+03 -0.21642923832E+03 -0.95075823974E+03  0.10453001540E+04  0.50400001928E-02 0. -1.
       -1    1    3    3    0  502 -0.37665576640E+03  0.21642923832E+03  0.12156157648E+04  0.12909038962E+04  0.50400001928E-02 0.  1.
</event>
<event>
 5   0  0.2977854E-05  0.1410693E+04  0.7818609E-02  0.8946115E-01
        1   -1    0    0  501    0  0.00000000000E+00  0.00000000000E+00  0.67981767410E+03  0.67981767412E+03  0.50400001928E-02 0. -1.
       -1   -1    0    0    0  501  0.00000000000E+00  0.00000000000E+00 -0.73183379977E+03  0.73183379978E+03  0.50400001928E-02 0.  1.
    10030    2    1    2    0    0  0.00000000000E+00  0.00000000000E+00 -0.52016125670E+02  0.14116514739E+04  0.14106928108E+04 0.  0.
        1    1    3    3  502    0  0.23606390085E+03 -0.12341295016E+03 -0.67956492826E+03  0.72990781151E+03  0.50400001928E-02 0.  1.
       -1    1    3    3    0  502 -0.23606390085E+03  0.12341295016E+03  0.62754880259E+03  0.68174366239E+03  0.50400001928E-02 0. -1.
</event>
<event>
 5   0  0.2980790E-05  0.2700282E+04  0.7818609E-02  0.8334913E-01
        1   -1    0    0  501    0  0.00000000000E+00  0.00000000000E+00  0.28479292214E+04  0.28479292214E+04  0.50400001928E-02 0. -1.
       -1   -1    0    0    0  501  0.00000000000E+00  0.00000000000E+00 -0.64007240213E+03  0.64007240215E+03  0.50400001928E-02 0.  1.
    10030    2    1    2    0    0  0.00000000000E+00  0.00000000000E+00  0.22078568192E+04  0.34880016235E+04  0.27002821318E+04 0.  0.
        5    1    3    3  502    0 -0.89614951507E+03  0.45696111491E+02 -0.19916212276E+03  0.91916251506E+03  0.46999998093E+01 0.  1.
       -5    1    3    3    0  502  0.89614951507E+03 -0.45696111491E+02  0.24070189420E+04  0.25688391084E+04  0.46999998093E+01 0. -1.
</event>
<event>
 5   0  0.6445331E-05  0.2487234E+04  0.7818609E-02  0.8407548E-01
       -2   -1    0    0    0  501  0.00000000000E+00  0.00000000000E+00  0.12601475451E+04  0.12601475451E+04  0.25500000920E-02 0. -1.
        2   -1    0    0  501    0  0.00000000000E+00  0.00000000000E+00 -0.12273033362E+04  0.12273033362E+04  0.25500000920E-02 0.  1.
    10030    2    1    2    0    0  0.00000000000E+00  0.00000000000E+00  0.32844208965E+02  0.24874508813E+04  0.24872340350E+04 0.  0.
        1    1    3    3  502    0  0.81714055565E+03  0.21260080579E+03  0.92955455180E+03  0.12557824076E+04  0.50400001928E-02 0. -1.
       -1    1    3    3    0  502 -0.81714055565E+03 -0.21260080579E+03 -0.89671034284E+03  0.12316684738E+04  0.50400001928E-02 0.  1.
</event>
<event>
 5   0  0.2980790E-05  0.2435838E+04  0.7818609E-02  0.8426207E-01
        1   -1    0    0  501    0  0.00000000000E+00  0.00000000000E+00  0.15040237479E+04  0.15040237479E+04  0.50400001928E-02 0. -1.
       -1   -1    0    0    0  501  0.00000000000E+00  0.00000000000E+00 -0.98623869264E+03  0.98623869265E+03  0.50400001928E-02 0.  1.
    10030    2    1    2    0    0  0.00000000000E+00  0.00000000000E+00  0.51778505525E+03  0.24902624405E+04  0.24358377736E+04 0.  0.
        5    1    3    3  502    0  0.22165948391E+03 -0.10082713598E+04 -0.40173450153E+03  0.11077710781E+04  0.46999998093E+01 0.  1.
       -5    1    3    3    0  502 -0.22165948391E+03  0.10082713598E+04  0.91951955678E+03  0.13824913624E+04  0.46999998093E+01 0. -1.
</event>
<event>
 5   0  0.2777539E-05  0.2501153E+04  0.7818609E-02  0.8402575E-01
       -1   -1    0    0    0  501  0.00000000000E+00  0.00000000000E+00  0.80396945750E+03  0.80396945752E+03  0.50400001928E-02 0.  1.
        1   -1    0    0  501    0  0.00000000000E+00  0.00000000000E+00 -0.19452749965E+04  0.19452749965E+04  0.50400001928E-02 0. -1.
    10030    2    1    2    0    0  0.00000000000E+00  0.00000000000E+00 -0.11413055390E+04  0.27492444540E+04  0.25011530810E+04 0.  0.
        3    1    3    3  502    0  0.12051861936E+03 -0.96939147692E+03  0.28762951645E+03  0.10183198525E+04  0.10100000352E+00 0.  1.
       -3    1    3    3    0  502 -0.12051861936E+03  0.96939147692E+03 -0.14289350554E+04  0.17309246014E+04  0.10100000352E+00 0. -1.
</event>
<event>
 5   0  0.2896652E-05  0.1600063E+04  0.7818609E-02  0.8820509E-01
       -1   -1    0    0    0  501  0.00000000000E+00  0.00000000000E+00  0.66587021988E+03  0.66587021990E+03  0.50400001928E-02 0. -1.
        1   -1    0    0  501    0  0.00000000000E+00  0.00000000000E+00 -0.96122437011E+03  0.96122437013E+03  0.50400001928E-02 0.  1.
    10030    2    1    2    0    0  0.00000000000E+00  0.00000000000E+00 -0.29535415023E+03  0.16270945900E+04  0.16000633521E+04 0.  0.
        4    1    3    3  502    0  0.32935714347E+03 -0.22055984325E+02 -0.88874538796E+03  0.94806780977E+03  0.12699999809E+01 0.  1.
       -4    1    3    3    0  502 -0.32935714347E+03  0.22055984325E+02  0.59339123773E+03  0.67902678026E+03  0.12699999809E+01 0. -1.
</event>
<event>
 5   0  0.7071821E-05  0.2467749E+04  0.7818609E-02  0.8414566E-01
       -2   -1    0    0    0  501  0.00000000000E+00  0.00000000000E+00  0.14382131899E+04  0.14382131899E+04  0.25500000920E-02 0.  1.
        2   -1    0    0  501    0  0.00000000000E+00  0.00000000000E+00 -0.10585676451E+04  0.10585676451E+04  0.25500000920E-02 0. -1.
    10030    2    1    2    0    0  0.00000000000E+00  0.00000000000E+00  0.37964554479E+03  0.24967808350E+04  0.24677487308E+04 0.  0.
        5    1    3    3  502    0 -0.53735980739E+03  0.51484667912E+03  0.11855766009E+04  0.13997987828E+04  0.46999998093E+01 0.  1.
       -5    1    3    3    0  502  0.53735980739E+03 -0.51484667912E+03 -0.80593105613E+03  0.10969820522E+04  0.46999998093E+01 0. -1.
</event>
<event>
 5   0  0.6445331E-05  0.2801351E+04  0.7818609E-02  0.8302849E-01
       -2   -1    0    0    0  501  0.00000000000E+00  0.00000000000E+00  0.14723970012E+04  0.14723970012E+04  0.25500000920E-02 0. -1.
        2   -1    0    0  501    0  0.00000000000E+00  0.00000000000E+00 -0.13324480008E+04  0.13324480008E+04  0.25500000920E-02 0.  1.
    10030    2    1    2    0    0  0.00000000000E+00  0.00000000000E+00  0.13994900038E+03  0.28048450020E+04  0.28013514172E+04 0.  0.
        1    1    3    3  502    0 -0.18181148741E+03  0.12932377184E+04  0.57693907071E+03  0.14277177258E+04  0.50400001928E-02 0. -1.
       -1    1    3    3    0  502  0.18181148741E+03 -0.12932377184E+04 -0.43699007034E+03  0.13771272762E+04  0.50400001928E-02 0.  1.
</event>
<event>
 5   0  0.2793920E-05  0.2482814E+04  0.7818609E-02  0.8409134E-01
        1   -1    0    0  501    0  0.00000000000E+00  0.00000000000E+00  0.15029488549E+04  0.15029488549E+04  0.50400001928E-02 0.  1.
       -1   -1    0    0    0  501  0.00000000000E+00  0.00000000000E+00 -0.10253786688E+04  0.10253786688E+04  0.50400001928E-02 0. -1.
    10030    2    1    2    0    0  0.00000000000E+00  0.00000000000E+00  0.47757018614E+03  0.25283275238E+04  0.24828142872E+04 0.  0.
        2    1    3    3  502    0  0.20204426573E+03 -0.54378057189E+03 -0.87886425417E+03  0.10530534521E+04  0.25500000920E-02 0. -1.
       -2    1    3    3    0  502 -0.20204426573E+03  0.54378057189E+03  0.13564344403E+04  0.14752740717E+04  0.25500000920E-02 0.  1.
</event>
<event>
 5   0  0.2980790E-05  0.2556290E+04  0.7818609E-02  0.8383202E-01
       -1   -1    0    0    0  501  0.00000000000E+00  0.00000000000E+00  0.18124234575E+04  0.18124234575E+04  0.50400001928E-02 0. -1.
        1   -1    0    0  501    0  0.00000000000E+00  0.00000000000E+00 -0.90136506227E+03  0.90136506228E+03  0.50400001928E-02 0.  1.
    10030    2    1    2    0    0  0.00000000000E+00  0.00000000000E+00  0.91105839521E+03  0.27137885198E+04  0.25562904238E+04 0.  0.
        5    1    3    3  502    0 -0.70159960167E+03  0.11592075476E+03 -0.67195743126E+03  0.97838055064E+03  0.46999998093E+01 0.  1.
       -5    1    3    3    0  502  0.70159960167E+03 -0.11592075476E+03  0.15830158265E+04  0.17354079691E+04  0.46999998093E+01 0. -1.
</event>
<event>
 5   0  0.6827859E-05  0.2514374E+04  0.7818609E-02  0.8397883E-01
        2   -1    0    0  501    0  0.00000000000E+00  0.00000000000E+00  0.17232581699E+04  0.17232581699E+04  0.25500000920E-02 0. -1.
       -2   -1    0    0    0  501  0.00000000000E+00  0.00000000000E+00 -0.91716900840E+03  0.91716900840E+03  0.25500000920E-02 0.  1.
    10030    2    1    2    0    0  0.00000000000E+00  0.00000000000E+00  0.80608916151E+03  0.26404271783E+04  0.25143738679E+04 0.  0.
        3    1    3    3  502    0 -0.66163051001E+03  0.34053220417E+03  0.14671573726E+04  0.16450738221E+04  0.10100000352E+00 0. -1.
       -3    1    3    3    0  502  0.66163051001E+03 -0.34053220417E+03 -0.66106821111E+03  0.99535335624E+03  0.10100000352E+00 0.  1.
</event>
<event>
 5   0  0.6445331E-05  0.2250954E+04  0.7818609E-02  0.8497514E-01
       -2   -1    0    0    0  501  0.00000000000E+00  0.00000000000E+00  0.14614694473E+04  0.14614694473E+04  0.25500000920E-02 0.  1.
        2   -1    0    0  501    0  0.00000000000E+00  0.00000000000E+00 -0.86672962949E+03  0.86672962950E+03  0.25500000920E-02 0. -1.
    10030    2    1    2    0    0  0.00000000000E+00  0.00000000000E+00  0.59473981776E+03  0.23281990767E+04  0.22509543510E+04 0.  0.
        1    1    3    3  502    0  0.94205923227E+03 -0.55602043504E+03  0.57115046249E+03  0.12340369411E+04  0.50400001928E-02 0. -1.
       -1    1    3    3    0  502 -0.94205923227E+03  0.55602043504E+03  0.23589355267E+02  0.10941621356E+04  0.50400001928E-02 0.  1.
</event>
<event>
 5   0  0.2331375E-05  0.2264138E+04  0.7818609E-02  0.8492197E-01
       -3   -1    0    0    0  501  0.00000000000E+00  0.00000000000E+00  0.69684592996E+03  0.69684593728E+03  0.10100000352E+00 0.  1.
        3   -1    0    0  501    0  0.00000000000E+00  0.00000000000E+00 -0.18391148874E+04  0.18391148902E+04  0.10100000352E+00 0. -1.
    10030    2    1    2    0    0  0.00000000000E+00  0.00000000000E+00 -0.11422689575E+04  0.25359608275E+04  0.22641375725E+04 0.  0.
        2    1    3    3  502    0 -0.29815649470E+03 -0.10895109119E+04 -0.65531333215E+03  0.13058969660E+04  0.25500000920E-02 0.  1.
       -2    1    3    3    0  502  0.29815649470E+03  0.10895109119E+04 -0.48695562533E+03  0.12300638615E+04  0.25500000920E-02 0. -1.
</event>
<event>
 5   0  0.2793920E-05  0.2501218E+04  0.7818609E-02  0.8402552E-01
        1   -1    0    0  501    0  0.00000000000E+00  0.00000000000E+00  0.85966612212E+03  0.85966612213E+03  0.50400001928E-02 0. -1.
       -1   -1    0    0    0  501  0.00000000000E+00  0.00000000000E+00 -0.18193368793E+04  0.18193368794E+04  0.50400001928E-02 0.  1.
    10030    2    1    2    0    0  0.00000000000E+00  0.00000000000E+00 -0.95967075723E+03  0.26790030015E+04  0.25012175275E+04 0.  0.
        2    1    3    3  502    0  0.26163710468E+03  0.48748491357E+03  0.72145891911E+03  0.90917461880E+03  0.25500000920E-02 0. -1.
       -2    1    3    3    0  502 -0.26163710468E+03 -0.48748491357E+03 -0.16811296763E+04  0.17698283827E+04  0.25500000920E-02 0.  1.
</event>
<event>
 5   0  0.2980790E-05  0.2439523E+04  0.7818609E-02  0.8424853E-01
        1   -1    0    0  501    0  0.00000000000E+00  0.00000000000E+00  0.12041250964E+04  0.12041250964E+04  0.50400001928E-02 0. -1.
       -1   -1    0    0    0  501  0.00000000000E+00  0.00000000000E+00 -0.12356007881E+04  0.12356007881E+04  0.50400001928E-02 0.  1.
    10030    2    1    2    0    0  0.00000000000E+00  0.00000000000E+00 -0.31475691664E+02  0.24397258845E+04  0.24395228371E+04 0.  0.
        5    1    3    3  502    0  0.64394711613E+03  0.60831314944E+03 -0.85430811451E+03  0.12306816082E+04  0.46999998093E+01 0.  1.
       -5    1    3    3    0  502 -0.64394711613E+03 -0.60831314944E+03  0.82283242285E+03  0.12090442764E+04  0.46999998093E+01 0. -1.
</event>
<event>
 5   0  0.2793920E-05  0.2432421E+04  0.7818609E-02  0.8427464E-01
       -1   -1    0    0    0  501  0.00000000000E+00  0.00000000000E+00  0.91499613909E+03  0.91499613911E+03  0.50400001928E-02 0.  1.
        1   -1    0    0  501    0  0.00000000000E+00  0.00000000000E+00 -0.16165839938E+04  0.16165839938E+04  0.50400001928E-02 0. -1.
    10030    2    1    2    0    0  0.00000000000E+00  0.00000000000E+00 -0.70158785474E+03  0.25315801329E+04  0.24324211090E+04 0.  0.
        2    1    3    3  502    0 -0.10718982044E+04  0.57417678646E+03 -0.32698403817E+03  0.12591915279E+04  0.25500000920E-02 0.  1.
       -2    1    3    3    0  502  0.10718982044E+04 -0.57417678646E+03 -0.37460381657E+03  0.12723886050E+04  0.25500000920E-02 0. -1.
</event>
<event>
 5   0  0.2980790E-05  0.2267135E+04  0.7818609E-02  0.8490993E-01
        1   -1    0    0  501    0  0.00000000000E+00  0.00000000000E+00  0.11427248430E+04  0.11427248430E+04  0.50400001928E-02 0.  1.
       -1   -1    0    0    0  501  0.00000000000E+00  0.00000000000E+00 -0.11244831207E+04  0.11244831207E+04  0.50400001928E-02 0. -1.
    10030    2    1    2    0    0  0.00000000000E+00  0.00000000000E+00  0.18241722242E+02  0.22672079637E+04  0.22671345770E+04 0.  0.
        5    1    3    3  502    0  0.91984428313E+02  0.85850575187E+03 -0.72538194451E+03  0.11276942478E+04  0.46999998093E+01 0. -1.
       -5    1    3    3    0  502 -0.91984428313E+02 -0.85850575187E+03  0.74362366675E+03  0.11395137159E+04  0.46999998093E+01 0.  1.
</event>
<event>
 5   0  0.2793920E-05  0.2473758E+04  0.7818609E-02  0.8412394E-01
        1   -1    0    0  501    0  0.00000000000E+00  0.00000000000E+00  0.21210768881E+04  0.21210768881E+04  0.50400001928E-02 0. -1.
       -1   -1    0    0    0  501  0.00000000000E+00  0.00000000000E+00 -0.72127049937E+03  0.72127049939E+03  0.50400001928E-02 0.  1.
    10030    2    1    2    0    0  0.00000000000E+00  0.00000000000E+00  0.13998063887E+04  0.28423473875E+04  0.24737584250E+04 0.  0.
        2    1    3    3  502    0 -0.10698555572E+04  0.44313002363E+03  0.20049788627E+03  0.11752253118E+04  0.25500000920E-02 0.  1.
       -2    1    3    3    0  502  0.10698555572E+04 -0.44313002363E+03  0.11993085025E+04  0.16671220757E+04  0.25500000920E-02 0. -1.
</event>
<event>
 5   0  0.6827859E-05  0.2523672E+04  0.7818609E-02  0.8394600E-01
        2   -1    0    0  501    0  0.00000000000E+00  0.00000000000E+00  0.89137704477E+03  0.89137704477E+03  0.25500000920E-02 0. -1.
       -2   -1    0    0    0  501  0.00000000000E+00  0.00000000000E+00 -0.17862594178E+04  0.17862594178E+04  0.25500000920E-02 0.  1.
    10030    2    1    2    0    0  0.00000000000E+00  0.00000000000E+00 -0.89488237301E+03  0.26776364626E+04  0.25236724360E+04 0.  0.
        3    1    3    3  502    0  0.10862528531E+04 -0.96810540398E+02  0.22603821487E+03  0.11137373238E+04  0.10100000352E+00 0. -1.
       -3    1    3    3    0  502 -0.10862528531E+04  0.96810540398E+02 -0.11209205879E+04  0.15638991387E+04  0.10100000352E+00 0.  1.
</event>
<event>
 5   0  0.6648328E-05  0.2462955E+04  0.7818609E-02  0.8416303E-01
       -2   -1    0    0    0  501  0.00000000000E+00  0.00000000000E+00  0.10106420788E+04  0.10106420788E+04  0.25500000920E-02 0. -1.
        2   -1    0    0  501    0  0.00000000000E+00  0.00000000000E+00 -0.15005676356E+04  0.15005676356E+04  0.25500000920E-02 0.  1.
    10030    2    1    2    0    0  0.00000000000E+00  0.00000000000E+00 -0.48992555679E+03  0.25112097145E+04  0.24629549689E+04 0.  0.
        2    1    3    3  502    0 -0.34721350159E+03 -0.10439584882E+04  0.31916779481E+03  0.11455455565E+04  0.25500000920E-02 0. -1.
       -2    1    3    3    0  502  0.34721350159E+03  0.10439584882E+04 -0.80909335160E+03  0.13656641580E+04  0.25500000920E-02 0.  1.
</event>
<event>
 5   0  0.6445331E-05  0.1473112E+04  0.7818609E-02  0.8902533E-01
        2   -1    0    0  501    0  0.00000000000E+00  0.00000000000E+00  0.14591992124E+04  0.14591992124E+04  0.25500000920E-02 0. -1.
       -2   -1    0    0    0  501  0.00000000000E+00  0.00000000000E+00 -0.37178915780E+03  0.37178915781E+03  0.25500000920E-02 0.  1.
    10030    2    1    2    0    0  0.00000000000E+00  0.00000000000E+00  0.10874100546E+04  0.18309883702E+04  0.14731115996E+04 0.  0.
        1    1    3    3  502    0 -0.62988111962E+03 -0.16813979344E+03  0.11765915663E+03  0.66246878580E+03  0.50400001928E-02 0.  1.
       -1    1    3    3    0  502  0.62988111962E+03  0.16813979344E+03  0.96975089794E+03  0.11685195844E+04  0.50400001928E-02 0. -1.
</event>
<event>
 5   0  0.2793920E-05  0.1341368E+04  0.7818609E-02  0.8997388E-01
       -1   -1    0    0    0  501  0.00000000000E+00  0.00000000000E+00  0.90934281571E+03  0.90934281572E+03  0.50400001928E-02 0.  1.
        1   -1    0    0  501    0  0.00000000000E+00  0.00000000000E+00 -0.49466174868E+03  0.49466174871E+03  0.50400001928E-02 0. -1.
    10030    2    1    2    0    0  0.00000000000E+00  0.00000000000E+00  0.41468106703E+03  0.14040045644E+04  0.13413681186E+04 0.  0.
        2    1    3    3  502    0 -0.31251552844E+02 -0.47555476310E+03 -0.28659362296E+03  0.55611590247E+03  0.25500000920E-02 0.  1.
       -2    1    3    3    0  502  0.31251552844E+02  0.47555476310E+03  0.70127468999E+03  0.84788866196E+03  0.25500000920E-02 0. -1.
</event>
<event>
 5   0  0.6909250E-05  0.2355717E+04  0.7818609E-02  0.8456271E-01
        2   -1    0    0  501    0  0.00000000000E+00  0.00000000000E+00  0.13187030185E+04  0.13187030185E+04  0.25500000920E-02 0.  1.
       -2   -1    0    0    0  501  0.00000000000E+00  0.00000000000E+00 -0.10520572064E+04  0.10520572064E+04  0.25500000920E-02 0. -1.
    10030    2    1    2    0    0  0.00000000000E+00  0.00000000000E+00  0.26664581211E+03  0.23707602249E+04  0.23557173122E+04 0.  0.
        4    1    3    3  502    0  0.33948272540E+03  0.14020917714E+02 -0.10016661540E+04  0.10577248243E+04  0.12699999809E+01 0. -1.
       -4    1    3    3    0  502 -0.33948272540E+03 -0.14020917714E+02  0.12683119661E+04  0.13130354006E+04  0.12699999809E+01 0.  1.
</event>
<event>
 5   0  0.2977854E-05  0.2505969E+04  0.7818609E-02  0.8400862E-01
        1   -1    0    0  501    0  0.00000000000E+00  0.00000000000E+00  0.13803967702E+04  0.13803967702E+04  0.50400001928E-02 0.  1.
       -1   -1    0    0    0  501  0.00000000000E+00  0.00000000000E+00 -0.11373324902E+04  0.11373324902E+04  0.50400001928E-02 0. -1.
    10030    2    1    2    0    0  0.00000000000E+00  0.00000000000E+00  0.24306428000E+03  0.25177292604E+04  0.25059689512E+04 0.  0.
        1    1    3    3  502    0 -0.51635547982E+03  0.72983514769E+03  0.10035402440E+04  0.13440146374E+04  0.50400001928E-02 0.  1.
       -1    1    3    3    0  502  0.51635547982E+03 -0.72983514769E+03 -0.76047596396E+03  0.11737146230E+04  0.50400001928E-02 0. -1.
</event>
<event>
 5   0  0.2896652E-05  0.2527505E+04  0.7818609E-02  0.8393252E-01
        1   -1    0    0  501    0  0.00000000000E+00  0.00000000000E+00  0.13475749290E+04  0.13475749290E+04  0.50400001928E-02 0. -1.
       -1   -1    0    0    0  501  0.00000000000E+00  0.00000000000E+00 -0.11851439429E+04  0.11851439429E+04  0.50400001928E-02 0.  1.
    10030    2    1    2    0    0  0.00000000000E+00  0.00000000000E+00  0.16243098611E+03  0.25327188720E+04  0.25275049078E+04 0.  0.
        4    1    3    3  502    0  0.36491485197E+03  0.29428732667E+03 -0.10947900650E+04  0.11909386127E+04  0.12699999809E+01 0.  1.
       -4    1    3    3    0  502 -0.36491485197E+03 -0.29428732667E+03  0.12572210511E+04  0.13417802593E+04  0.12699999809E+01 0. -1.
</event>
<event>
 5   0  0.6827859E-05  0.2508350E+04  0.7818609E-02  0.8400017E-01
        2   -1    0    0  501    0  0.00000000000E+00  0.00000000000E+00  0.18432736306E+04  0.18432736306E+04  0.25500000920E-02 0.  1.
       -2   -1    0    0    0  501  0.00000000000E+00  0.00000000000E+00 -0.85334837371E+03  0.85334837372E+03  0.25500000920E-02 0. -1.
    10030    2    1    2    0    0  0.00000000000E+00  0.00000000000E+00  0.98992525687E+03  0.26966220043E+04  0.25083497005E+04 0.  0.
        3    1    3    3  502    0 -0.72187093495E+03  0.27734656642E+03  0.15564626206E+04  0.17379858067E+04  0.10100000352E+00 0.  1.
       -3    1    3    3    0  502  0.72187093495E+03 -0.27734656642E+03 -0.56653736376E+03  0.95863619761E+03  0.10100000352E+00 0. -1.
</event>
<event>
 5   0  0.2980790E-05  0.1343357E+04  0.7818609E-02  0.8995872E-01
        1   -1    0    0  501    0  0.00000000000E+00  0.00000000000E+00  0.17533572054E+04  0.17533572055E+04  0.50400001928E-02 0. -1.
       -1   -1    0    0    0  501  0.00000000000E+00  0.00000000000E+00 -0.25730762229E+03  0.25730762234E+03  0.50400001928E-02 0.  1.
    10030    2    1    2    0    0  0.00000000000E+00  0.00000000000E+00  0.14960495832E+04  0.20106648278E+04  0.13433572475E+04 0.  0.
        5    1    3    3  502    0  0.55736631325E+02  0.16454794061E+03  0.17191206876E+04  0.17278832788E+04  0.46999998093E+01 0. -1.
       -5    1    3    3    0  502 -0.55736631325E+02 -0.16454794061E+03 -0.22307110440E+03  0.28278154898E+03  0.46999998093E+01 0.  1.
</event>
<event>
 5   0  0.6827859E-05  0.2512017E+04  0.7818609E-02  0.8398717E-01
        2   -1    0    0  501    0  0.00000000000E+00  0.00000000000E+00  0.20543894470E+04  0.20543894470E+04  0.25500000920E-02 0.  1.
       -2   -1    0    0    0  501  0.00000000000E+00  0.00000000000E+00 -0.76789584721E+03  0.76789584721E+03  0.25500000920E-02 0. -1.
    10030    2    1    2    0    0  0.00000000000E+00  0.00000000000E+00  0.12864935998E+04  0.28222852942E+04  0.25120168191E+04 0.  0.
        3    1    3    3  502    0  0.98633317476E+03 -0.62257302689E+03  0.11974872095E+03  0.11725144229E+04  0.10100000352E+00 0. -1.
       -3    1    3    3    0  502 -0.98633317476E+03  0.62257302689E+03  0.11667448788E+04  0.16497708713E+04  0.10100000352E+00 0.  1.
</event>
<event>
 5   0  0.2896652E-05  0.2528768E+04  0.7818609E-02  0.8392808E-01
       -1   -1    0    0    0  501  0.00000000000E+00  0.00000000000E+00  0.93874105087E+03  0.93874105088E+03  0.50400001928E-02 0. -1.
        1   -1    0    0  501    0  0.00000000000E+00  0.00000000000E+00 -0.17029897059E+04  0.17029897059E+04  0.50400001928E-02 0.  1.
    10030    2    1    2    0    0  0.00000000000E+00  0.00000000000E+00 -0.76424865506E+03  0.26417307568E+04  0.25287675624E+04 0.  0.
        4    1    3    3  502    0  0.70163609953E+03  0.13562016586E+03 -0.14717813815E+04  0.16361014924E+04  0.12699999809E+01 0.  1.
       -4    1    3    3    0  502 -0.70163609953E+03 -0.13562016586E+03  0.70753272646E+03  0.10056292644E+04  0.12699999809E+01 0. -1.
</event>
<event>
 5   0  0.2980790E-05  0.2450997E+04  0.7818609E-02  0.8420654E-01
       -1   -1    0    0    0  501  0.00000000000E+00  0.00000000000E+00  0.14299122990E+04  0.14299122990E+04  0.50400001928E-02 0. -1.
        1   -1    0    0  501    0  0.00000000000E+00  0.00000000000E+00 -0.10503065344E+04  0.10503065344E+04  0.50400001928E-02 0.  1.
    10030    2    1    2    0    0  0.00000000000E+00  0.00000000000E+00  0.37960576467E+03  0.24802188334E+04  0.24509967207E+04 0.  0.
        5    1    3    3  502    0  0.13332795723E+03 -0.10293428727E+04 -0.46950254960E+03  0.11392005214E+04  0.46999998093E+01 0.  1.
       -5    1    3    3    0  502 -0.13332795723E+03  0.10293428727E+04  0.84910831427E+03  0.13410183120E+04  0.46999998093E+01 0. -1.
</event>
<event>
 5   0  0.7071821E-05  0.2448068E+04  0.7818609E-02  0.8421724E-01
        2   -1    0    0  501    0  0.00000000000E+00  0.00000000000E+00  0.24594066966E+04  0.24594066966E+04  0.25500000920E-02 0.  1.
       -2   -1    0    0    0  501  0.00000000000E+00  0.00000000000E+00 -0.60919551389E+03  0.60919551390E+03  0.25500000920E-02 0. -1.
    10030    2    1    2    0    0  0.00000000000E+00  0.00000000000E+00  0.18502111828E+04  0.30686022105E+04  0.24480682396E+04 0.  0.
        5    1    3    3  502    0 -0.44305813640E+03  0.86342828094E+03  0.18601274591E+04  0.20980717725E+04  0.46999998093E+01 0.  1.
       -5    1    3    3    0  502  0.44305813640E+03 -0.86342828094E+03 -0.99162763698E+01  0.97053043800E+03  0.46999998093E+01 0. -1.
</event>
<event>
 5   0  0.2977854E-05  0.2451326E+04  0.7818609E-02  0.8420534E-01
       -1   -1    0    0    0  501  0.00000000000E+00  0.00000000000E+00  0.76005618909E+03  0.76005618911E+03  0.50400001928E-02 0. -1.
        1   -1    0    0  501    0  0.00000000000E+00  0.00000000000E+00 -0.19764989082E+04  0.19764989082E+04  0.50400001928E-02 0.  1.
    10030    2    1    2    0    0  0.00000000000E+00  0.00000000000E+00 -0.12164427191E+04  0.27365550973E+04  0.24513263577E+04 0.  0.
        1    1    3    3  502    0  0.10446731533E+03  0.10232445457E+04  0.13590182948E+03  0.10375028325E+04  0.50400001928E-02 0. -1.
       -1    1    3    3    0  502 -0.10446731533E+03 -0.10232445457E+04 -0.13523445486E+04  0.16990522648E+04  0.50400001928E-02 0.  1.
</event>
<event>
 5   0  0.7071821E-05  0.2431604E+04  0.7818609E-02  0.8427765E-01
       -2   -1    0    0    0  501  0.00000000000E+00  0.00000000000E+00  0.13858451952E+04  0.13858451952E+04  0.25500000920E-02 0. -1.
        2   -1    0    0  501    0  0.00000000000E+00  0.00000000000E+00 -0.10666234020E+04  0.10666234020E+04  0.25500000920E-02 0.  1.
    10030    2    1    2    0    0  0.00000000000E+00  0.00000000000E+00  0.31922179318E+03  0.24524685972E+04  0.24316043401E+04 0.  0.
        5    1    3    3  502    0  0.42748377732E+03  0.46499995981E+03  0.12073631241E+04  0.13626133516E+04  0.46999998093E+01 0. -1.
       -5    1    3    3    0  502 -0.42748377732E+03 -0.46499995981E+03 -0.88814133096E+03  0.10898552455E+04  0.46999998093E+01 0.  1.
</event>
<event>
 5   0  0.2793920E-05  0.1612680E+04  0.7818609E-02  0.8812796E-01
        1   -1    0    0  501    0  0.00000000000E+00  0.00000000000E+00  0.16422273773E+04  0.16422273773E+04  0.50400001928E-02 0. -1.
       -1   -1    0    0    0  501  0.00000000000E+00  0.00000000000E+00 -0.39591625694E+03  0.39591625698E+03  0.50400001928E-02 0.  1.
    10030    2    1    2    0    0  0.00000000000E+00  0.00000000000E+00  0.12463111203E+04  0.20381436343E+04  0.16126803977E+04 0.  0.
        2    1    3    3  502    0  0.32939636526E+03 -0.94134338198E+02 -0.29936756031E+03  0.45495513542E+03  0.25500000920E-02 0.  1.
       -2    1    3    3    0  502 -0.32939636526E+03  0.94134338198E+02  0.15456786806E+04  0.15831884988E+04  0.25500000920E-02 0. -1.
</event>
<event>
 5   0  0.2777539E-05  0.1772224E+04  0.7818609E-02  0.8721211E-01
       -1   -1    0    0    0  501  0.00000000000E+00  0.00000000000E+00  0.83650141396E+03  0.83650141397E+03  0.50400001928E-02 0. -1.
        1   -1    0    0  501    0  0.00000000000E+00  0.00000000000E+00 -0.93866513951E+03  0.93866513952E+03  0.50400001928E-02 0.  1.
    10030    2    1    2    0    0  0.00000000000E+00  0.00000000000E+00 -0.10216372555E+03  0.17751665535E+04  0.17722242707E+04 0.  0.
        3    1    3    3  502    0  0.59391823910E+03  0.48968348303E+03 -0.49074785506E+03  0.91288677049E+03  0.10100000352E+00 0.  1.
       -3    1    3    3    0  502 -0.59391823910E+03 -0.48968348303E+03  0.38858412950E+03  0.86227978301E+03  0.10100000352E+00 0. -1.
</event>
<event>
 5   0  0.2980790E-05  0.2407975E+04  0.7818609E-02  0.8436524E-01
       -1   -1    0    0    0  501  0.00000000000E+00  0.00000000000E+00  0.89894896765E+03  0.89894896767E+03  0.50400001928E-02 0. -1.
        1   -1    0    0  501    0  0.00000000000E+00  0.00000000000E+00 -0.16125334794E+04  0.16125334794E+04  0.50400001928E-02 0.  1.
    10030    2    1    2    0    0  0.00000000000E+00  0.00000000000E+00 -0.71358451177E+03  0.25114824471E+04  0.24079745071E+04 0.  0.
        5    1    3    3  502    0 -0.48089921164E+03 -0.50851258980E+03  0.66496846344E+03  0.96542956921E+03  0.46999998093E+01 0. -1.
       -5    1    3    3    0  502  0.48089921164E+03  0.50851258980E+03 -0.13785529752E+04  0.15460528779E+04  0.46999998093E+01 0.  1.
</event>
<event>
 5   0  0.6648328E-05  0.2228433E+04  0.7818609E-02  0.8506686E-01
       -2   -1    0    0    0  501  0.00000000000E+00  0.00000000000E+00  0.90297772562E+03  0.90297772563E+03  0.25500000920E-02 0.  1.
        2   -1    0    0  501    0  0.00000000000E+00  0.00000000000E+00 -0.13748711759E+04  0.13748711759E+04  0.25500000920E-02 0. -1.
    10030    2    1    2    0    0  0.00000000000E+00  0.00000000000E+00 -0.47189345027E+03  0.22778489015E+04  0.22284326756E+04 0.  0.
        2    1    3    3  502    0  0.35109074184E+03 -0.15550096138E+03 -0.13051014600E+04  0.13604172444E+04  0.25500000920E-02 0. -1.
       -2    1    3    3    0  502 -0.35109074184E+03  0.15550096138E+03  0.83320800973E+03  0.91743165711E+03  0.25500000920E-02 0.  1.
</event>
<event>
 5   0  0.6445331E-05  0.2478577E+04  0.7818609E-02  0.8410658E-01
       -2   -1    0    0    0  501  0.00000000000E+00  0.00000000000E+00  0.12313370247E+04  0.12313370247E+04  0.25500000920E-02 0.  1.
        2   -1    0    0  501    0  0.00000000000E+00  0.00000000000E+00 -0.12472908955E+04  0.12472908956E+04  0.25500000920E-02 0. -1.
    10030    2    1    2    0    0  0.00000000000E+00  0.00000000000E+00 -0.15953870822E+02  0.24786279203E+04  0.24785765756E+04 0.  0.
        1    1    3    3  502    0  0.16138546447E+03  0.11114733620E+04  0.51588232724E+03  0.12359421015E+04  0.50400001928E-02 0. -1.
       -1    1    3    3    0  502 -0.16138546447E+03 -0.11114733620E+04 -0.53183619807E+03  0.12426858188E+04  0.50400001928E-02 0.  1.
</event>
<event>
 5   0  0.2977854E-05  0.1433872E+04  0.7818609E-02  0.8929659E-01
       -1   -1    0    0    0  501  0.00000000000E+00  0.00000000000E+00  0.65270104637E+03  0.65270104639E+03  0.50400001928E-02 0.  1.
        1   -1    0    0  501    0  0.00000000000E+00  0.00000000000E+00 -0.78749204305E+03  0.78749204307E+03  0.50400001928E-02 0. -1.
    10030    2    1    2    0    0  0.00000000000E+00  0.00000000000E+00 -0.13479099668E+03  0.14401930895E+04  0.14338715152E+04 0.  0.
        1    1    3    3  502    0  0.15913451755E+03 -0.33923394937E+03 -0.68131310792E+03  0.77755451136E+03  0.50400001928E-02 0. -1.
       -1    1    3    3    0  502 -0.15913451755E+03  0.33923394937E+03  0.54652211124E+03  0.66263857810E+03  0.50400001928E-02 0.  1.
</event>
<event>
 5   0  0.2777539E-05  0.1671720E+04  0.7818609E-02  0.8777660E-01
        1   -1    0    0  501    0  0.00000000000E+00  0.00000000000E+00  0.10228943464E+04  0.10228943464E+04  0.50400001928E-02 0.  1.
       -1   -1    0    0    0  501  0.00000000000E+00  0.00000000000E+00 -0.68302489107E+03  0.68302489109E+03  0.50400001928E-02 0. -1.
    10030    2    1    2    0    0  0.00000000000E+00  0.00000000000E+00  0.33986945536E+03  0.17059192375E+04  0.16717204307E+04 0.  0.
        3    1    3    3  502    0 -0.45697866649E+03 -0.15123897041E+03 -0.52738901567E+03  0.71403215043E+03  0.10100000352E+00 0. -1.
       -3    1    3    3    0  502  0.45697866649E+03  0.15123897041E+03  0.86725847103E+03  0.99188708711E+03  0.10100000352E+00 0.  1.
</event>
<event>
 5   0  0.2777539E-05  0.1486787E+04  0.7818609E-02  0.8893287E-01
       -1   -1    0    0    0  501  0.00000000000E+00  0.00000000000E+00  0.79513078714E+03  0.79513078716E+03  0.50400001928E-02 0.  1.
        1   -1    0    0  501    0  0.00000000000E+00  0.00000000000E+00 -0.69502248828E+03  0.69502248830E+03  0.50400001928E-02 0. -1.
    10030    2    1    2    0    0  0.00000000000E+00  0.00000000000E+00  0.10010829886E+03  0.14901532755E+04  0.14867868418E+04 0.  0.
        3    1    3    3  502    0  0.66081581447E+03 -0.10858490864E+03  0.37353179841E+03  0.76680782316E+03  0.10100000352E+00 0.  1.
       -3    1    3    3    0  502 -0.66081581447E+03  0.10858490864E+03 -0.27342349955E+03  0.72334545229E+03  0.10100000352E+00 0. -1.
</event>
<event>
 5   0  0.2793920E-05  0.2392858E+04  0.7818609E-02  0.8442182E-01
       -1   -1    0    0    0  501  0.00000000000E+00  0.00000000000E+00  0.54463156925E+03  0.54463156928E+03  0.50400001928E-02 0. -1.
        1   -1    0    0  501    0  0.00000000000E+00  0.00000000000E+00 -0.26282767813E+04  0.26282767813E+04  0.50400001928E-02 0.  1.
    10030    2    1    2    0    0  0.00000000000E+00  0.00000000000E+00 -0.20836452121E+04  0.31729083506E+04  0.23928581303E+04 0.  0.
        2    1    3    3  502    0  0.81314487189E+03 -0.25179035486E+03 -0.21566329652E+04  0.23185488375E+04  0.25500000920E-02 0.  1.
       -2    1    3    3    0  502 -0.81314487189E+03  0.25179035486E+03  0.72987753112E+02  0.85435951308E+03  0.25500000920E-02 0. -1.
</event>
<event>
 5   0  0.6445331E-05  0.2458109E+04  0.7818609E-02  0.8418063E-01
        2   -1    0    0  501    0  0.00000000000E+00  0.00000000000E+00  0.21958588013E+04  0.21958588013E+04  0.25500000920E-02 0.  1.
       -2   -1    0    0    0  501  0.00000000000E+00  0.00000000000E+00 -0.68792001981E+03  0.68792001981E+03  0.25500000920E-02 0. -1.
    10030    2    1    2    0    0  0.00000000000E+00  0.00000000000E+00  0.15079387815E+04  0.28837788211E+04  0.24581092165E+04 0.  0.
        1    1    3    3  502    0 -0.10438272050E+04  0.27811528638E+03  0.66235957996E+02  0.10822710144E+04  0.50400001928E-02 0. -1.
       -1    1    3    3    0  502  0.10438272050E+04 -0.27811528638E+03  0.14417028235E+04  0.18015078067E+04  0.50400001928E-02 0.  1.
</event>
<event>
 5   0  0.6827859E-05  0.2404203E+04  0.7818609E-02  0.8437932E-01
       -2   -1    0    0    0  501  0.00000000000E+00  0.00000000000E+00  0.16981116644E+04  0.16981116644E+04  0.25500000920E-02 0.  1.
        2   -1    0    0  501    0  0.00000000000E+00  0.00000000000E+00 -0.85097322826E+03  0.85097322826E+03  0.25500000920E-02 0. -1.
    10030    2    1    2    0    0  0.00000000000E+00  0.00000000000E+00  0.84713843613E+03  0.25490848927E+04  0.24042026246E+04 0.  0.
        3    1    3    3  502    0 -0.51394113551E+03  0.66868193696E+03 -0.48465931335E+03  0.97271048303E+03  0.10100000352E+00 0. -1.
       -3    1    3    3    0  502  0.51394113551E+03 -0.66868193696E+03  0.13317977495E+04  0.15763744096E+04  0.10100000352E+00 0.  1.
</event>
<event>
 5   0  0.2777539E-05  0.2383861E+04  0.7818609E-02  0.8445570E-01
       -1   -1    0    0    0  501  0.00000000000E+00  0.00000000000E+00  0.12513571143E+04  0.12513571143E+04  0.50400001928E-02 0. -1.
        1   -1    0    0  501    0  0.00000000000E+00  0.00000000000E+00 -0.11353263653E+04  0.11353263654E+04  0.50400001928E-02 0.  1.
    10030    2    1    2    0    0  0.00000000000E+00  0.00000000000E+00  0.11603074898E+03  0.23866834797E+04  0.23838613419E+04 0.  0.
        3    1    3    3  502    0  0.72118256172E+03  0.71173735677E+03  0.68647209272E+03  0.12238947245E+04  0.10100000352E+00 0. -1.
       -3    1    3    3    0  502 -0.72118256172E+03 -0.71173735677E+03 -0.57044134375E+03  0.11627887552E+04  0.10100000352E+00 0.  1.
</event>
<event>
 5   0  0.6909250E-05  0.1939279E+04  0.7818609E-02  0.8635548E-01
        2   -1    0    0  501    0  0.00000000000E+00  0.00000000000E+00  0.18274837668E+04  0.18274837668E+04  0.25500000920E-02 0. -1.
       -2   -1    0    0    0  501  0.00000000000E+00  0.00000000000E+00 -0.51447846744E+03  0.51447846745E+03  0.25500000920E-02 0.  1.
    10030    2    1    2    0    0  0.00000000000E+00  0.00000000000E+00  0.13130052994E+04  0.23419622342E+04  0.19392792967E+04 0.  0.
        4    1    3    3  502    0  0.30692598349E+03  0.77310591146E+03  0.54732530386E+02  0.83360276658E+03  0.12699999809E+01 0.  1.
       -4    1    3    3    0  502 -0.30692598349E+03 -0.77310591146E+03  0.12582727690E+04  0.15083594677E+04  0.12699999809E+01 0. -1.
</event>
<event>
 5   0  0.2777539E-05  0.2184109E+04  0.7818609E-02  0.8525071E-01
       -1   -1    0    0    0  501  0.00000000000E+00  0.00000000000E+00  0.61606372106E+03  0.61606372108E+03  0.50400001928E-02 0.  1.
        1   -1    0    0  501    0  0.00000000000E+00  0.00000000000E+00 -0.19358118780E+04  0.19358118780E+04  0.50400001928E-02 0. -1.
    10030    2    1    2    0    0  0.00000000000E+00  0.00000000000E+00 -0.13197481570E+04  0.25518755991E+04  0.21841094010E+04 0.  0.
        3    1    3    3  502    0 -0.42998821434E+03  0.19457534885E+03 -0.18104991158E+04  0.18710041394E+04  0.10100000352E+00 0. -1.
       -3    1    3    3    0  502  0.42998821434E+03 -0.19457534885E+03  0.49075095888E+03  0.68087145974E+03  0.10100000352E+00 0.  1.
</event>
<event>
 5   0  0.2777539E-05  0.2513317E+04  0.7818609E-02  0.8398256E-01
        1   -1    0    0  501    0  0.00000000000E+00  0.00000000000E+00  0.19140582811E+04  0.19140582811E+04  0.50400001928E-02 0. -1.
       -1   -1    0    0    0  501  0.00000000000E+00  0.00000000000E+00 -0.82504865453E+03  0.82504865455E+03  0.50400001928E-02 0.  1.
    10030    2    1    2    0    0  0.00000000000E+00  0.00000000000E+00  0.10890096266E+04  0.27391069357E+04  0.25133174965E+04 0.  0.
        3    1    3    3  502    0  0.39654433242E+03  0.29450178549E+03 -0.71481729021E+03  0.86887425892E+03  0.10100000352E+00 0.  1.
       -3    1    3    3    0  502 -0.39654433242E+03 -0.29450178549E+03  0.18038269168E+04  0.18702326768E+04  0.10100000352E+00 0. -1.
</event>
<event>
 5   0  0.6827859E-05  0.1959917E+04  0.7818609E-02  0.8625594E-01
        2   -1    0    0  501    0  0.00000000000E+00  0.00000000000E+00  0.23967014297E+04  0.23967014297E+04  0.25500000920E-02 0.  1.
       -2   -1    0    0    0  501  0.00000000000E+00  0.00000000000E+00 -0.40068341742E+03  0.40068341743E+03  0.25500000920E-02 0. -1.
    10030    2    1    2    0    0  0.00000000000E+00  0.00000000000E+00  0.19960180123E+04  0.27973848472E+04  0.19599168548E+04 0.  0.
        3    1    3    3  502    0 -0.78374358240E+03  0.22351894540E+03  0.22133896819E+03  0.84451505076E+03  0.10100000352E+00 0. -1.
       -3    1    3    3    0  502  0.78374358240E+03 -0.22351894540E+03  0.17746790441E+04  0.19528697964E+04  0.10100000352E+00 0.  1.
</event>
<event>
 5   0  0.2896652E-05  0.2470975E+04  0.7818609E-02  0.8413399E-01
        1   -1    0    0  501    0  0.00000000000E+00  0.00000000000E+00  0.21268580801E+04  0.21268580801E+04  0.50400001928E-02 0.  1.
       -1   -1    0    0    0  501  0.00000000000E+00  0.00000000000E+00 -0.71769241025E+03  0.71769241027E+03  0.50400001928E-02 0. -1.
    10030    2    1    2    0    0  0.00000000000E+00  0.00000000000E+00  0.14091656699E+04  0.28445504904E+04  0.24709754364E+04 0.  0.
        4    1    3    3  502    0  0.10834217592E+04  0.44539620075E+03  0.25246179797E+03  0.11982984003E+04  0.12699999809E+01 0. -1.
       -4    1    3    3    0  502 -0.10834217592E+04 -0.44539620075E+03  0.11567038719E+04  0.16462520901E+04  0.12699999809E+01 0.  1.
</event>
<event>
 5   0  0.2777539E-05  0.2466232E+04  0.7818609E-02  0.8415115E-01
        1   -1    0    0  501    0  0.00000000000E+00  0.00000000000E+00  0.15173497578E+04  0.15173497578E+04  0.50400001928E-02 0. -1.
       -1   -1    0    0    0  501  0.00000000000E+00  0.00000000000E+00 -0.10021254107E+04  0.10021254107E+04  0.50400001928E-02 0.  1.
    10030    2    1    2    0    0  0.00000000000E+00  0.00000000000E+00  0.51522434712E+03  0.25194751685E+04  0.24662317403E+04 0.  0.
        3    1    3    3  502    0 -0.84173925200E+03 -0.19207349973E+03  0.11570500822E+04  0.14436696647E+04  0.10100000352E+00 0. -1.
       -3    1    3    3    0  502  0.84173925200E+03  0.19207349973E+03 -0.64182573513E+03  0.10758055039E+04  0.10100000352E+00 0.  1.
</event>
<event>
 5   0  0.6648328E-05  0.2470441E+04  0.7818609E-02  0.8413592E-01
       -2   -1    0    0    0  501  0.00000000000E+00  0.00000000000E+00  0.87461286430E+03  0.87461286430E+03  0.25500000920E-02 0.  1.
        2   -1    0    0  501    0  0.00000000000E+00  0.00000000000E+00 -0.17445088057E+04  0.17445088057E+04  0.25500000920E-02 0. -1.
    10030    2    1    2    0    0  0.00000000000E+00  0.00000000000E+00 -0.86989594135E+03  0.26191216700E+04  0.24704411293E+04 0.  0.
        2    1    3    3  502    0  0.86126374276E+03 -0.41886754834E+02 -0.13726205259E+04  0.16209925487E+04  0.25500000920E-02 0. -1.
       -2    1    3    3    0  502 -0.86126374276E+03  0.41886754834E+02  0.50272458453E+03  0.99812912127E+03  0.25500000920E-02 0.  1.
</event>
<event>
 5   0  0.2896652E-05  0.2515565E+04  0.7818609E-02  0.8397461E-01
        1   -1    0    0  501    0  0.00000000000E+00  0.00000000000E+00  0.57257923760E+03  0.57257923763E+03  0.50400001928E-02 0. -1.
       -1   -1    0    0    0  501  0.00000000000E+00  0.00000000000E+00 -0.27629663531E+04  0.27629663531E+04  0.50400001928E-02 0.  1.
    10030    2    1    2    0    0  0.00000000000E+00  0.00000000000E+00 -0.21903871155E+04  0.33355455907E+04  0.25155652788E+04 0.  0.
        4    1    3    3  502    0  0.72290047764E+03  0.76189080404E+03 -0.17754228029E+03  0.10651692692E+04  0.12699999809E+01 0. -1.
       -4    1    3    3    0  502 -0.72290047764E+03 -0.76189080404E+03 -0.20128448352E+04  0.22703763215E+04  0.12699999809E+01 0.  1.
</event>
<event>
 5   0  0.6445331E-05  0.2549460E+04  0.7818609E-02  0.8385574E-01
       -2   -1    0    0    0  501  0.00000000000E+00  0.00000000000E+00  0.54739844448E+03  0.54739844448E+03  0.25500000920E-02 0.  1.
        2   -1    0    0  501    0  0.00000000000E+00  0.00000000000E+00 -0.29684720370E+04  0.29684720370E+04  0.25500000920E-02 0. -1.
    10030    2    1    2    0    0  0.00000000000E+00  0.00000000000E+00 -0.24210735925E+04  0.35158704814E+04  0.25494603158E+04 0.  0.
        1    1    3    3  502    0 -0.92383099229E+02 -0.40474563679E+03 -0.28726290919E+04  0.29024733534E+04  0.50400001928E-02 0. -1.
       -1    1    3    3    0  502  0.92383099229E+02  0.40474563679E+03  0.45155549946E+03  0.61339712800E+03  0.50400001928E-02 0.  1.
</event>
<event>
 5   0  0.2793920E-05  0.2508769E+04  0.7818609E-02  0.8399868E-01
        1   -1    0    0  501    0  0.00000000000E+00  0.00000000000E+00  0.83320574884E+03  0.83320574885E+03  0.50400001928E-02 0. -1.
       -1   -1    0    0    0  501  0.00000000000E+00  0.00000000000E+00 -0.18884662741E+04  0.18884662741E+04  0.50400001928E-02 0.  1.
    10030    2    1    2    0    0  0.00000000000E+00  0.00000000000E+00 -0.10552605252E+04  0.27216720229E+04  0.25087693844E+04 0.  0.
        2    1    3    3  502    0 -0.10177202352E+04 -0.65697280300E+03 -0.17423576400E+03  0.12238160983E+04  0.25500000920E-02 0.  1.
       -2    1    3    3    0  502  0.10177202352E+04  0.65697280300E+03 -0.88102476125E+03  0.14978559246E+04  0.25500000920E-02 0. -1.
</event>
<event>
 5   0  0.2896652E-05  0.2520079E+04  0.7818609E-02  0.8395867E-01
        1   -1    0    0  501    0  0.00000000000E+00  0.00000000000E+00  0.15384876140E+04  0.15384876140E+04  0.50400001928E-02 0.  1.
       -1   -1    0    0    0  501  0.00000000000E+00  0.00000000000E+00 -0.10319871856E+04  0.10319871856E+04  0.50400001928E-02 0. -1.
    10030    2    1    2    0    0  0.00000000000E+00  0.00000000000E+00  0.50650042839E+03  0.25704747996E+04  0.25200789693E+04 0.  0.
        4    1    3    3  502    0 -0.62730378984E+03 -0.66121972669E+03  0.11406929665E+04  0.14601039786E+04  0.12699999809E+01 0.  1.
       -4    1    3    3    0  502  0.62730378984E+03  0.66121972669E+03 -0.63419253811E+03  0.11103708209E+04  0.12699999809E+01 0. -1.
</event>
<event>
 5   0  0.6827859E-05  0.2510423E+04  0.7818609E-02  0.8399282E-01
       -2   -1    0    0    0  501  0.00000000000E+00  0.00000000000E+00  0.13244168052E+04  0.13244168052E+04  0.25500000920E-02 0.  1.
        2   -1    0    0  501    0  0.00000000000E+00  0.00000000000E+00 -0.11896226568E+04  0.11896226568E+04  0.25500000920E-02 0. -1.
    10030    2    1    2    0    0  0.00000000000E+00  0.00000000000E+00  0.13479414838E+03  0.25140394620E+04  0.25104232619E+04 0.  0.
        3    1    3    3  502    0 -0.88332918367E+03 -0.40504344241E+02 -0.82475385326E+03  0.12091856670E+04  0.10100000352E+00 0. -1.
       -3    1    3    3    0  502  0.88332918367E+03  0.40504344241E+02  0.95954800164E+03  0.13048537950E+04  0.10100000352E+00 0.  1.
</event>
<event>
 5   0  0.2777539E-05  0.1386510E+04  0.7818609E-02  0.8963641E-01
       -1   -1    0    0    0  501  0.00000000000E+00  0.00000000000E+00  0.60576191266E+03  0.60576191269E+03  0.50400001928E-02 0. -1.
        1   -1    0    0  501    0  0.00000000000E+00  0.00000000000E+00 -0.79338560367E+03  0.79338560369E+03  0.50400001928E-02 0.  1.
    10030    2    1    2    0    0  0.00000000000E+00  0.00000000000E+00 -0.18762369101E+03  0.13991475164E+04  0.13865104122E+04 0.  0.
        3    1    3    3  502    0 -0.41338775185E+03  0.49286405594E+03  0.16699757201E+03  0.66459958642E+03  0.10100000352E+00 0. -1.
       -3    1    3    3    0  502  0.41338775185E+03 -0.49286405594E+03 -0.35462126302E+03  0.73454792995E+03  0.10100000352E+00 0.  1.
</event>
<event>
 5   0  0.6648328E-05  0.2489309E+04  0.7818609E-02  0.8406804E-01
        2   -1    0    0  501    0  0.00000000000E+00  0.00000000000E+00  0.14359673677E+04  0.14359673677E+04  0.25500000920E-02 0.  1.
       -2   -1    0    0    0  501  0.00000000000E+00  0.00000000000E+00 -0.10788300684E+04  0.10788300684E+04  0.25500000920E-02 0. -1.
    10030    2    1    2    0    0  0.00000000000E+00  0.00000000000E+00  0.35713729932E+03  0.25147974360E+04  0.24893089591E+04 0.  0.
        2    1    3    3  502    0 -0.28673041866E+03  0.34739233686E+03  0.13507373764E+04  0.14238634867E+04  0.25500000920E-02 0.  1.
       -2    1    3    3    0  502  0.28673041866E+03 -0.34739233686E+03 -0.99360007708E+03  0.10909339494E+04  0.25500000920E-02 0. -1.
</event>
<event>
 5   0  0.6827859E-05  0.2442923E+04  0.7818609E-02  0.8423607E-01
       -2   -1    0    0    0  501  0.00000000000E+00  0.00000000000E+00  0.11440787357E+04  0.11440787357E+04  0.25500000920E-02 0. -1.
        2   -1    0    0  501    0  0.00000000000E+00  0.00000000000E+00 -0.13040777470E+04  0.13040777470E+04  0.25500000920E-02 0.  1.
    10030    2    1    2    0    0  0.00000000000E+00  0.00000000000E+00 -0.15999901135E+03  0.24481564827E+04  0.24429225285E+04 0.  0.
        3    1    3    3  502    0  0.76267637389E+03 -0.56098085566E+03  0.69340057441E+03  0.11735327599E+04  0.10100000352E+00 0. -1.
       -3    1    3    3    0  502 -0.76267637389E+03  0.56098085566E+03 -0.85339958577E+03  0.12746237229E+04  0.10100000352E+00 0.  1.
</event>
<event>
 5   0  0.6648328E-05  0.2572140E+04  0.7818609E-02  0.8377727E-01
        2   -1    0    0  501    0  0.00000000000E+00  0.00000000000E+00  0.16362399354E+04  0.16362399354E+04  0.25500000920E-02 0.  1.
       -2   -1    0    0    0  501  0.00000000000E+00  0.00000000000E+00 -0.10108392217E+04  0.10108392217E+04  0.25500000920E-02 0. -1.
    10030    2    1    2    0    0  0.00000000000E+00  0.00000000000E+00  0.62540071374E+03  0.26470791571E+04  0.25721395785E+04 0.  0.
        2    1    3    3  502    0  0.70455760559E+03  0.10053498461E+04 -0.81668958924E+02  0.12303656170E+04  0.25500000920E-02 0. -1.
       -2    1    3    3    0  502 -0.70455760559E+03 -0.10053498461E+04  0.70706967266E+03  0.14167135401E+04  0.25500000920E-02 0.  1.
</event>
<event>
 5   0  0.6648328E-05  0.2496197E+04  0.7818609E-02  0.8404342E-01
        2   -1    0    0  501    0  0.00000000000E+00  0.00000000000E+00  0.10881613258E+04  0.10881613258E+04  0.25500000920E-02 0. -1.
       -2   -1    0    0    0  501  0.00000000000E+00  0.00000000000E+00 -0.14315430996E+04  0.14315430996E+04  0.25500000920E-02 0.  1.
    10030    2    1    2    0    0  0.00000000000E+00  0.00000000000E+00 -0.34338177381E+03  0.25197044254E+04  0.24961969771E+04 0.  0.
        2    1    3    3  502    0 -0.32891589383E+03  0.30697651297E+03 -0.13468406199E+04  0.14199999648E+04  0.25500000920E-02 0.  1.
       -2    1    3    3    0  502  0.32891589383E+03 -0.30697651297E+03  0.10034588461E+04  0.10997044605E+04  0.25500000920E-02 0. -1.
</event>
<event>
 5   0  0.2980790E-05  0.2378925E+04  0.7818609E-02  0.8447436E-01
        1   -1    0    0  501    0  0.00000000000E+00  0.00000000000E+00  0.11922411719E+04  0.11922411719E+04  0.50400001928E-02 0.  1.
       -1   -1    0    0    0  501  0.00000000000E+00  0.00000000000E+00 -0.11866901798E+04  0.11866901799E+04  0.50400001928E-02 0. -1.
    10030    2    1    2    0    0  0.00000000000E+00  0.00000000000E+00  0.55509920637E+01  0.23789313518E+04  0.23789248754E+04 0.  0.
        5    1    3    3  502    0  0.73700662691E+03  0.79676016850E+03 -0.48383991249E+03  0.11883302088E+04  0.46999998093E+01 0.  1.
       -5    1    3    3    0  502 -0.73700662691E+03 -0.79676016850E+03  0.48939090455E+03  0.11906011430E+04  0.46999998093E+01 0. -1.
</event>
<event>
 5   0  0.2896652E-05  0.2436691E+04  0.7818609E-02  0.8425893E-01
        1   -1    0    0  501    0  0.00000000000E+00  0.00000000000E+00  0.99359334163E+03  0.99359334164E+03  0.50400001928E-02 0.  1.
       -1   -1    0    0    0  501  0.00000000000E+00  0.00000000000E+00 -0.14939373760E+04  0.14939373760E+04  0.50400001928E-02 0. -1.
    10030    2    1    2    0    0  0.00000000000E+00  0.00000000000E+00 -0.50034403432E+03  0.24875307176E+04  0.24366913876E+04 0.  0.
        4    1    3    3  502    0  0.74625952462E+02 -0.63709661773E+03  0.80724976369E+03  0.10310746467E+04  0.12699999809E+01 0.  1.
       -4    1    3    3    0  502 -0.74625952462E+02  0.63709661773E+03 -0.13075937980E+04  0.14564560709E+04  0.12699999809E+01 0. -1.
</event>
<event>
 5   0  0.6648328E-05  0.2611327E+04  0.7818609E-02  0.8364364E-01
        2   -1    0    0  501    0  0.00000000000E+00  0.00000000000E+00  0.20317764172E+04  0.20317764172E+04  0.25500000920E-02 0.  1.
       -2   -1    0    0    0  501  0.00000000000E+00  0.00000000000E+00 -0.83904773165E+03  0.83904773165E+03  0.25500000920E-02 0. -1.
    10030    2    1    2    0    0  0.00000000000E+00  0.00000000000E+00  0.11927286855E+04  0.28708241488E+04  0.26113271676E+04 0.  0.
        2    1    3    3  502    0 -0.82066638812E+03  0.90499752615E+03  0.11028446400E+04  0.16458372164E+04  0.25500000920E-02 0.  1.
       -2    1    3    3    0  502  0.82066638812E+03 -0.90499752615E+03  0.89884045508E+02  0.12249869324E+04  0.25500000920E-02 0. -1.
</event>
<event>
 5   0  0.6648328E-05  0.2499885E+04  0.7818609E-02  0.8403027E-01
       -2   -1    0    0    0  501  0.00000000000E+00  0.00000000000E+00  0.90863502965E+03  0.90863502965E+03  0.25500000920E-02 0. -1.
        2   -1    0    0  501    0  0.00000000000E+00  0.00000000000E+00 -0.17194540223E+04  0.17194540223E+04  0.25500000920E-02 0.  1.
    10030    2    1    2    0    0  0.00000000000E+00  0.00000000000E+00 -0.81081899264E+03  0.26280890519E+04  0.24998849226E+04 0.  0.
        2    1    3    3  502    0  0.39303015287E+03 -0.66329283431E+03 -0.14396967053E+04  0.16331431928E+04  0.25500000920E-02 0.  1.
       -2    1    3    3    0  502 -0.39303015287E+03  0.66329283431E+03  0.62887771263E+03  0.99494585911E+03  0.25500000920E-02 0. -1.
</event>
<event>
 5   0  0.2331375E-05  0.2583404E+04  0.7818609E-02  0.8373860E-01
       -3   -1    0    0    0  501  0.00000000000E+00  0.00000000000E+00  0.13677824008E+04  0.13677824045E+04  0.10100000352E+00 0.  1.
        3   -1    0    0  501    0  0.00000000000E+00  0.00000000000E+00 -0.12198537953E+04  0.12198537995E+04  0.10100000352E+00 0. -1.
    10030    2    1    2    0    0  0.00000000000E+00  0.00000000000E+00  0.14792860545E+03  0.25876362040E+04  0.25834043919E+04 0.  0.
        5    1    3    3  502    0 -0.39174817439E+03  0.25015202200E+03 -0.11331778116E+04  0.12248088459E+04  0.46999998093E+01 0. -1.
       -5    1    3    3    0  502  0.39174817439E+03 -0.25015202200E+03  0.12811064171E+04  0.13628273581E+04  0.46999998093E+01 0.  1.
</event>
<event>
 5   0  0.6827859E-05  0.2509423E+04  0.7818609E-02  0.8399636E-01
        2   -1    0    0  501    0  0.00000000000E+00  0.00000000000E+00  0.18309481057E+04  0.18309481057E+04  0.25500000920E-02 0.  1.
       -2   -1    0    0    0  501  0.00000000000E+00  0.00000000000E+00 -0.85982854727E+03  0.85982854727E+03  0.25500000920E-02 0. -1.
    10030    2    1    2    0    0  0.00000000000E+00  0.00000000000E+00  0.97111955841E+03  0.26907766529E+04  0.25094233998E+04 0.  0.
        3    1    3    3  502    0  0.82045527949E+03  0.83335206664E+03 -0.19145894913E+01  0.11694555180E+04  0.10100000352E+00 0. -1.
       -3    1    3    3    0  502 -0.82045527949E+03 -0.83335206664E+03  0.97303414790E+03  0.15213211350E+04  0.10100000352E+00 0.  1.
</event>
<event>
 5   0  0.2793920E-05  0.2490164E+04  0.7818609E-02  0.8406498E-01
       -1   -1    0    0    0  501  0.00000000000E+00  0.00000000000E+00  0.78717934742E+03  0.78717934744E+03  0.50400001928E-02 0. -1.
        1   -1    0    0  501    0  0.00000000000E+00  0.00000000000E+00 -0.19693463676E+04  0.19693463676E+04  0.50400001928E-02 0.  1.
    10030    2    1    2    0    0  0.00000000000E+00  0.00000000000E+00 -0.11821670202E+04  0.27565257151E+04  0.24901636802E+04 0.  0.
        2    1    3    3  502    0  0.74491674097E+03 -0.66017747721E+03 -0.14190860910E+04  0.17333610663E+04  0.25500000920E-02 0.  1.
       -2    1    3    3    0  502 -0.74491674097E+03  0.66017747721E+03  0.23691907082E+03  0.10231646488E+04  0.25500000920E-02 0. -1.
</event>
<event>
 5   0  0.2977854E-05  0.2433078E+04  0.7818609E-02  0.8427222E-01
       -1   -1    0    0    0  501  0.00000000000E+00  0.00000000000E+00  0.16584190432E+04  0.16584190432E+04  0.50400001928E-02 0.  1.
        1   -1    0    0  501    0  0.00000000000E+00  0.00000000000E+00 -0.89239656535E+03  0.89239656537E+03  0.50400001928E-02 0. -1.
    10030    2    1    2    0    0  0.00000000000E+00  0.00000000000E+00  0.76602247781E+03  0.25508156085E+04  0.24330782627E+04 0.  0.
        1    1    3    3  502    0  0.11231825744E+04 -0.27404302163E+03  0.77991909625E+03  0.13946011867E+04  0.50400001928E-02 0.  1.
       -1    1    3    3    0  502 -0.11231825744E+04  0.27404302163E+03 -0.13896618439E+02  0.11562144218E+04  0.50400001928E-02 0. -1.
</event>
<event>
 5   0  0.6648328E-05  0.2405689E+04  0.7818609E-02  0.8437377E-01
        2   -1    0    0  501    0  0.00000000000E+00  0.00000000000E+00  0.14950759770E+04  0.14950759770E+04  0.25500000920E-02 0.  1.
       -2   -1    0    0    0  501  0.00000000000E+00  0.00000000000E+00 -0.96773368766E+03  0.96773368766E+03  0.25500000920E-02 0. -1.
    10030    2    1    2    0    0  0.00000000000E+00  0.00000000000E+00  0.52734228933E+03  0.24628096647E+04  0.24056894135E+04 0.  0.
        2    1    3    3  502    0  0.18567397879E+03 -0.11412692545E+04 -0.75657929774E+02  0.11587469353E+04  0.25500000920E-02 0. -1.
       -2    1    3    3    0  502 -0.18567397879E+03  0.11412692545E+04  0.60300021910E+03  0.13040627293E+04  0.25500000920E-02 0.  1.
</event>
<event>
 5   0  0.7071821E-05  0.2658031E+04  0.7818609E-02  0.8348752E-01
        2   -1    0    0  501    0  0.00000000000E+00  0.00000000000E+00  0.14481677875E+04  0.14481677875E+04  0.25500000920E-02 0. -1.
       -2   -1    0    0    0  501  0.00000000000E+00  0.00000000000E+00 -0.12196669887E+04  0.12196669887E+04  0.25500000920E-02 0.  1.
    10030    2    1    2    0    0  0.00000000000E+00  0.00000000000E+00  0.22850079878E+03  0.26678347761E+04  0.26580311845E+04 0.  0.
        5    1    3    3  502    0 -0.91651574900E+03  0.55466766714E+03  0.90366448967E+03  0.14015309269E+04  0.46999998093E+01 0. -1.
       -5    1    3    3    0  502  0.91651574900E+03 -0.55466766714E+03 -0.67516369089E+03  0.12663038492E+04  0.46999998093E+01 0.  1.
</event>
<event>
 5   0  0.2793920E-05  0.2514455E+04  0.7818609E-02  0.8397854E-01
       -1   -1    0    0    0  501  0.00000000000E+00  0.00000000000E+00  0.22117800141E+04  0.22117800141E+04  0.50400001928E-02 0.  1.
        1   -1    0    0  501    0  0.00000000000E+00  0.00000000000E+00 -0.71463761038E+03  0.71463761040E+03  0.50400001928E-02 0. -1.
    10030    2    1    2    0    0  0.00000000000E+00  0.00000000000E+00  0.14971424037E+04  0.29264176245E+04  0.25144551569E+04 0.  0.
        2    1    3    3  502    0 -0.12330805523E+04 -0.49523933537E+02  0.10280883659E+04  0.16062085657E+04  0.25500000920E-02 0.  1.
       -2    1    3    3    0  502  0.12330805523E+04  0.49523933537E+02  0.46905403776E+03  0.13202090588E+04  0.25500000920E-02 0. -1.
</event>
<event>
 5   0  0.2980790E-05  0.2496293E+04  0.7818609E-02  0.8404307E-01
       -1   -1    0    0    0  501  0.00000000000E+00  0.00000000000E+00  0.96800658408E+03  0.96800658409E+03  0.50400001928E-02 0.  1.
        1   -1    0    0  501    0  0.00000000000E+00  0.00000000000E+00 -0.16093581053E+04  0.16093581053E+04  0.50400001928E-02 0. -1.
    10030    2    1    2    0    0  0.00000000000E+00  0.00000000000E+00 -0.64135152124E+03  0.25773646894E+04  0.24962926448E+04 0.  0.
        5    1    3    3  502    0  0.85276276848E+03  0.69276428116E+03 -0.93212573399E+03  0.14408355779E+04  0.46999998093E+01 0. -1.
       -5    1    3    3    0  502 -0.85276276848E+03 -0.69276428116E+03  0.29077421274E+03  0.11365291115E+04  0.46999998093E+01 0.  1.
</event>
<event>
 5   0  0.6909250E-05  0.2233485E+04  0.7818609E-02  0.8504619E-01
       -2   -1    0    0    0  501  0.00000000000E+00  0.00000000000E+00  0.10178047242E+04  0.10178047242E+04  0.25500000920E-02 0.  1.
        2   -1    0    0  501    0  0.00000000000E+00  0.00000000000E+00 -0.12252980315E+04  0.12252980315E+04  0.25500000920E-02 0. -1.
    10030    2    1    2    0    0  0.00000000000E+00  0.00000000000E+00 -0.20749330727E+03  0.22431027557E+04  0.22334852809E+04 0.  0.
        4    1    3    3  502    0 -0.39227147653E+02  0.94099948102E+03  0.49891540071E+03  0.10658034445E+04  0.12699999809E+01 0.  1.
       -4    1    3    3    0  502  0.39227147653E+02 -0.94099948102E+03 -0.70640870798E+03  0.11772993111E+04  0.12699999809E+01 0. -1.
</event>
<event>
 5   0  0.2777539E-05  0.2587670E+04  0.7818609E-02  0.8372401E-01
        1   -1    0    0  501    0  0.00000000000E+00  0.00000000000E+00  0.15899206460E+04  0.15899206460E+04  0.50400001928E-02 0.  1.
       -1   -1    0    0    0  501  0.00000000000E+00  0.00000000000E+00 -0.10528885653E+04  0.10528885653E+04  0.50400001928E-02 0. -1.
    10030    2    1    2    0    0  0.00000000000E+00  0.00000000000E+00  0.53703208071E+03  0.26428092113E+04  0.25876702015E+04 0.  0.
        3    1    3    3  502    0  0.94291275898E+02  0.60600324428E+03  0.14320361748E+04  0.15578377300E+04  0.10100000352E+00 0.  1.
       -3    1    3    3    0  502 -0.94291275898E+02 -0.60600324428E+03 -0.89500409409E+03  0.10849714814E+04  0.10100000352E+00 0. -1.
</event>
<event>
 5   0  0.2793920E-05  0.2095014E+04  0.7818609E-02  0.8563443E-01
        1   -1    0    0  501    0  0.00000000000E+00  0.00000000000E+00  0.89169544473E+03  0.89169544474E+03  0.50400001928E-02 0. -1.
       -1   -1    0    0    0  501  0.00000000000E+00  0.00000000000E+00 -0.12305444534E+04  0.12305444534E+04  0.50400001928E-02 0.  1.
    10030    2    1    2    0    0  0.00000000000E+00  0.00000000000E+00 -0.33884900866E+03  0.21222398981E+04  0.20950139700E+04 0.  0.
        2    1    3    3  502    0 -0.24581772021E+03 -0.51056338260E+03 -0.10618785368E+04  0.12036142846E+04  0.25500000920E-02 0.  1.
       -2    1    3    3    0  502  0.24581772021E+03  0.51056338260E+03  0.72302952815E+03  0.91862561351E+03  0.25500000920E-02 0. -1.
</event>
<event>
 5   0  0.6648328E-05  0.2356647E+04  0.7818609E-02  0.8455915E-01
       -2   -1    0    0    0  501  0.00000000000E+00  0.00000000000E+00  0.68873496773E+03  0.68873496774E+03  0.25500000920E-02 0.  1.
        2   -1    0    0  501    0  0.00000000000E+00  0.00000000000E+00 -0.20159364609E+04  0.20159364610E+04  0.25500000920E-02 0. -1.
    10030    2    1    2    0    0  0.00000000000E+00  0.00000000000E+00 -0.13272014932E+04  0.27046714287E+04  0.23566467138E+04 0.  0.
        2    1    3    3  502    0  0.75790697082E+03 -0.88002003336E+03 -0.89195029373E+03  0.14643884601E+04  0.25500000920E-02 0.  1.
       -2    1    3    3    0  502 -0.75790697082E+03  0.88002003336E+03 -0.43525119949E+03  0.12402829686E+04  0.25500000920E-02 0. -1.
</event>
<event>
 5   0  0.6827859E-05  0.2517401E+04  0.7818609E-02  0.8396813E-01
       -2   -1    0    0    0  501  0.00000000000E+00  0.00000000000E+00  0.12079415026E+04  0.12079415026E+04  0.25500000920E-02 0.  1.
        2   -1    0    0  501    0  0.00000000000E+00  0.00000000000E+00 -0.13115919767E+04  0.13115919767E+04  0.25500000920E-02 0. -1.
    10030    2    1    2    0    0  0.00000000000E+00  0.00000000000E+00 -0.10365047409E+03  0.25195334793E+04  0.25174005507E+04 0.  0.
        3    1    3    3  502    0 -0.51284053271E+03 -0.77495521239E+03  0.79787310297E+03  0.12248112066E+04  0.10100000352E+00 0.  1.
       -3    1    3    3    0  502  0.51284053271E+03  0.77495521239E+03 -0.90152357706E+03  0.12947222727E+04  0.10100000352E+00 0. -1.
</event>
<event>
 5   0  0.2896652E-05  0.2521796E+04  0.7818609E-02  0.8395262E-01
       -1   -1    0    0    0  501  0.00000000000E+00  0.00000000000E+00  0.12072804929E+04  0.12072804929E+04  0.50400001928E-02 0. -1.
        1   -1    0    0  501    0  0.00000000000E+00  0.00000000000E+00 -0.13168965078E+04  0.13168965078E+04  0.50400001928E-02 0.  1.
    10030    2    1    2    0    0  0.00000000000E+00  0.00000000000E+00 -0.10961601492E+03  0.25241770006E+04  0.25217957609E+04 0.  0.
        4    1    3    3  502    0 -0.52243376034E+03  0.14797120457E+03 -0.11938761324E+04  0.13115541711E+04  0.12699999809E+01 0.  1.
       -4    1    3    3    0  502  0.52243376034E+03 -0.14797120457E+03  0.10842601175E+04  0.12126228295E+04  0.12699999809E+01 0. -1.
</event>
<event>
 5   0  0.6827859E-05  0.2494866E+04  0.7818609E-02  0.8404817E-01
        2   -1    0    0  501    0  0.00000000000E+00  0.00000000000E+00  0.11044984845E+04  0.11044984845E+04  0.25500000920E-02 0. -1.
       -2   -1    0    0    0  501  0.00000000000E+00  0.00000000000E+00 -0.14088645207E+04  0.14088645207E+04  0.25500000920E-02 0.  1.
    10030    2    1    2    0    0  0.00000000000E+00  0.00000000000E+00 -0.30436603621E+03  0.25133630052E+04  0.24948657102E+04 0.  0.
        3    1    3    3  502    0 -0.24326725146E+03  0.37299733902E+01  0.10803649678E+04  0.11074210320E+04  0.10100000352E+00 0. -1.
       -3    1    3    3    0  502  0.24326725146E+03 -0.37299733902E+01 -0.13847310040E+04  0.14059419732E+04  0.10100000352E+00 0.  1.
</event>
<event>
 5   0  0.2777539E-05  0.2530365E+04  0.7818609E-02  0.8392247E-01
       -1   -1    0    0    0  501  0.00000000000E+00  0.00000000000E+00  0.13014371848E+04  0.13014371848E+04  0.50400001928E-02 0. -1.
        1   -1    0    0  501    0  0.00000000000E+00  0.00000000000E+00 -0.12299381683E+04  0.12299381683E+04  0.50400001928E-02 0.  1.
    10030    2    1    2    0    0  0.00000000000E+00  0.00000000000E+00  0.71499016450E+02  0.25313753531E+04  0.25303654023E+04 0.  0.
        3    1    3    3  502    0  0.49863063098E+03 -0.69066363278E+03  0.97155779473E+03  0.12921196998E+04  0.10100000352E+00 0. -1.
       -3    1    3    3    0  502 -0.49863063098E+03  0.69066363278E+03 -0.90005877828E+03  0.12392556533E+04  0.10100000352E+00 0.  1.
</event>
<event>
 5   0  0.6648328E-05  0.2593273E+04  0.7818609E-02  0.8370490E-01
       -2   -1    0    0    0  501  0.00000000000E+00  0.00000000000E+00  0.85150782939E+03  0.85150782939E+03  0.25500000920E-02 0. -1.
        2   -1    0    0  501    0  0.00000000000E+00  0.00000000000E+00 -0.19744582739E+04  0.19744582739E+04  0.25500000920E-02 0.  1.
    10030    2    1    2    0    0  0.00000000000E+00  0.00000000000E+00 -0.11229504445E+04  0.28259661033E+04  0.25932733593E+04 0.  0.
        2    1    3    3  502    0 -0.12090907420E+04 -0.46824262954E+03 -0.54978427009E+03  0.14083374333E+04  0.25500000920E-02 0.  1.
       -2    1    3    3    0  502  0.12090907420E+04  0.46824262954E+03 -0.57316617443E+03  0.14176286700E+04  0.25500000920E-02 0. -1.
</event>
<event>
 5   0  0.6827859E-05  0.2578184E+04  0.7818609E-02  0.8375650E-01
        2   -1    0    0  501    0  0.00000000000E+00  0.00000000000E+00  0.20190384518E+04  0.20190384518E+04  0.25500000920E-02 0.  1.
       -2   -1    0    0    0  501  0.00000000000E+00  0.00000000000E+00 -0.82304435839E+03  0.82304435839E+03  0.25500000920E-02 0. -1.
    10030    2    1    2    0    0  0.00000000000E+00  0.00000000000E+00  0.11959940934E+04  0.28420828102E+04  0.25781840176E+04 0.  0.
        3    1    3    3  502    0  0.11417913288E+04  0.54509260414E+03  0.32585779620E+03  0.13065208376E+04  0.10100000352E+00 0.  1.
       -3    1    3    3    0  502 -0.11417913288E+04 -0.54509260414E+03  0.87013629723E+03  0.15355619726E+04  0.10100000352E+00 0. -1.
</event>
<event>
 5   0  0.6445331E-05  0.2287806E+04  0.7818609E-02  0.8482745E-01
       -2   -1    0    0    0  501  0.00000000000E+00  0.00000000000E+00  0.10608187831E+04  0.10608187831E+04  0.25500000920E-02 0.  1.
        2   -1    0    0  501    0  0.00000000000E+00  0.00000000000E+00 -0.12334943438E+04  0.12334943438E+04  0.25500000920E-02 0. -1.
    10030    2    1    2    0    0  0.00000000000E+00  0.00000000000E+00 -0.17267556070E+03  0.22943131269E+04  0.22878059085E+04 0.  0.
        1    1    3    3  502    0 -0.25930572713E+03  0.97215235549E+03  0.45944755898E+03  0.11060794374E+04  0.50400001928E-02 0. -1.
       -1    1    3    3    0  502  0.25930572713E+03 -0.97215235549E+03 -0.63212311968E+03  0.11882336895E+04  0.50400001928E-02 0.  1.
</event>
<event>
 5   0  0.2977854E-05  0.2488074E+04  0.7818609E-02  0.8407246E-01
       -1   -1    0    0    0  501  0.00000000000E+00  0.00000000000E+00  0.10006009155E+04  0.10006009155E+04  0.50400001928E-02 0.  1.
        1   -1    0    0  501    0  0.00000000000E+00  0.00000000000E+00 -0.15466992380E+04  0.15466992380E+04  0.50400001928E-02 0. -1.
    10030    2    1    2    0    0  0.00000000000E+00  0.00000000000E+00 -0.54609832249E+03  0.25473001535E+04  0.24880744953E+04 0.  0.
        1    1    3    3  502    0  0.57002092652E+03  0.79122861550E+03 -0.10638752113E+04  0.14431898849E+04  0.50400001928E-02 0. -1.
       -1    1    3    3    0  502 -0.57002092652E+03 -0.79122861550E+03  0.51777688878E+03  0.11041102686E+04  0.50400001928E-02 0.  1.
</event>
<event>
 5   0  0.6827859E-05  0.2534539E+04  0.7818609E-02  0.8390783E-01
        2   -1    0    0  501    0  0.00000000000E+00  0.00000000000E+00  0.12738584834E+04  0.12738584834E+04  0.25500000920E-02 0. -1.
       -2   -1    0    0    0  501  0.00000000000E+00  0.00000000000E+00 -0.12607141078E+04  0.12607141078E+04  0.25500000920E-02 0.  1.
    10030    2    1    2    0    0  0.00000000000E+00  0.00000000000E+00  0.13144375657E+02  0.25345725912E+04  0.25345385074E+04 0.  0.
        3    1    3    3  502    0 -0.93826625657E+03  0.85045606817E+03 -0.41928557913E+02  0.12670347692E+04  0.10100000352E+00 0.  1.
       -3    1    3    3    0  502  0.93826625657E+03 -0.85045606817E+03  0.55072933569E+02  0.12675378220E+04  0.10100000352E+00 0. -1.
</event>
<event>
 5   0  0.2896652E-05  0.2474443E+04  0.7818609E-02  0.8412147E-01
        1   -1    0    0  501    0  0.00000000000E+00  0.00000000000E+00  0.16325205725E+04  0.16325205725E+04  0.50400001928E-02 0. -1.
       -1   -1    0    0    0  501  0.00000000000E+00  0.00000000000E+00 -0.93764064212E+03  0.93764064213E+03  0.50400001928E-02 0.  1.
    10030    2    1    2    0    0  0.00000000000E+00  0.00000000000E+00  0.69487993041E+03  0.25701612147E+04  0.24744434832E+04 0.  0.
        4    1    3    3  502    0  0.74099002873E+03 -0.17820850899E+03 -0.66488473641E+03  0.10113841115E+04  0.12699999809E+01 0.  1.
       -4    1    3    3    0  502 -0.74099002873E+03  0.17820850899E+03  0.13597646668E+04  0.15587771032E+04  0.12699999809E+01 0. -1.
</event>
<event>
 5   0  0.7071821E-05  0.2556824E+04  0.7818609E-02  0.8383017E-01
        2   -1    0    0  501    0  0.00000000000E+00  0.00000000000E+00  0.21150406684E+04  0.21150406684E+04  0.25500000920E-02 0. -1.
       -2   -1    0    0    0  501  0.00000000000E+00  0.00000000000E+00 -0.77272158366E+03  0.77272158366E+03  0.25500000920E-02 0.  1.
    10030    2    1    2    0    0  0.00000000000E+00  0.00000000000E+00  0.13423190847E+04  0.28877622521E+04  0.25568242605E+04 0.  0.
        5    1    3    3  502    0  0.81343549265E+03  0.96559033760E+03  0.44450200937E+03  0.13385238612E+04  0.46999998093E+01 0.  1.
       -5    1    3    3    0  502 -0.81343549265E+03 -0.96559033760E+03  0.89781707538E+03  0.15492383908E+04  0.46999998093E+01 0. -1.
</event>
<event>
 5   0  0.2896652E-05  0.1770223E+04  0.7818609E-02  0.8722297E-01
       -1   -1    0    0    0  501  0.00000000000E+00  0.00000000000E+00  0.76893763553E+03  0.76893763554E+03  0.50400001928E-02 0.  1.
        1   -1    0    0  501    0  0.00000000000E+00  0.00000000000E+00 -0.10188370806E+04  0.10188370806E+04  0.50400001928E-02 0. -1.
    10030    2    1    2    0    0  0.00000000000E+00  0.00000000000E+00 -0.24989944506E+03  0.17877747161E+04  0.17702227834E+04 0.  0.
        4    1    3    3  502    0  0.63201666695E+03  0.61965101008E+03 -0.12207168279E+03  0.89348505876E+03  0.12699999809E+01 0.  1.
       -4    1    3    3    0  502 -0.63201666695E+03 -0.61965101008E+03 -0.12782776227E+03  0.89428965738E+03  0.12699999809E+01 0. -1.
</event>
<event>
 5   0  0.2777539E-05  0.2469107E+04  0.7818609E-02  0.8414075E-01
       -1   -1    0    0    0  501  0.00000000000E+00  0.00000000000E+00  0.12831087534E+04  0.12831087535E+04  0.50400001928E-02 0.  1.
        1   -1    0    0  501    0  0.00000000000E+00  0.00000000000E+00 -0.11878353993E+04  0.11878353994E+04  0.50400001928E-02 0. -1.
    10030    2    1    2    0    0  0.00000000000E+00  0.00000000000E+00  0.95273354096E+02  0.24709441528E+04  0.24691067199E+04 0.  0.
        3    1    3    3  502    0 -0.82528079538E+03  0.89980142671E+03 -0.13523132239E+03  0.12284211491E+04  0.10100000352E+00 0.  1.
       -3    1    3    3    0  502  0.82528079538E+03 -0.89980142671E+03  0.23050467649E+03  0.12425230037E+04  0.10100000352E+00 0. -1.
</event>
<event>
 5   0  0.6445331E-05  0.2622334E+04  0.7818609E-02  0.8360654E-01
       -2   -1    0    0    0  501  0.00000000000E+00  0.00000000000E+00  0.92033661797E+03  0.92033661797E+03  0.25500000920E-02 0. -1.
        2   -1    0    0  501    0  0.00000000000E+00  0.00000000000E+00 -0.18679672363E+04  0.18679672363E+04  0.25500000920E-02 0.  1.
    10030    2    1    2    0    0  0.00000000000E+00  0.00000000000E+00 -0.94763061836E+03  0.27883038543E+04  0.26223338069E+04 0.  0.
        1    1    3    3  502    0 -0.38799920797E+03 -0.12408348060E+04 -0.29291752085E+03  0.13326721559E+04  0.50400001928E-02 0. -1.
       -1    1    3    3    0  502  0.38799920797E+03  0.12408348060E+04 -0.65471309751E+03  0.14556316984E+04  0.50400001928E-02 0.  1.
</event>
<event>
 5   0  0.6909250E-05  0.2470338E+04  0.7818609E-02  0.8413630E-01
        2   -1    0    0  501    0  0.00000000000E+00  0.00000000000E+00  0.20966801989E+04  0.20966801989E+04  0.25500000920E-02 0. -1.
       -2   -1    0    0    0  501  0.00000000000E+00  0.00000000000E+00 -0.72764642829E+03  0.72764642830E+03  0.25500000920E-02 0.  1.
    10030    2    1    2    0    0  0.00000000000E+00  0.00000000000E+00  0.13690337706E+04  0.28243266272E+04  0.24703375138E+04 0.  0.
        4    1    3    3  502    0  0.53282010588E+02 -0.10989973158E+04  0.42837394482E+02  0.11011224855E+04  0.12699999809E+01 0.  1.
       -4    1    3    3    0  502 -0.53282010588E+02  0.10989973158E+04  0.13261963761E+04  0.17232041417E+04  0.12699999809E+01 0. -1.
</event>
<event>
 5   0  0.6827859E-05  0.2517758E+04  0.7818609E-02  0.8396686E-01
        2   -1    0    0  501    0  0.00000000000E+00  0.00000000000E+00  0.19814115318E+04  0.19814115318E+04  0.25500000920E-02 0.  1.
       -2   -1    0    0    0  501  0.00000000000E+00  0.00000000000E+00 -0.79982206635E+03  0.79982206635E+03  0.25500000920E-02 0. -1.
    10030    2    1    2    0    0  0.00000000000E+00  0.00000000000E+00  0.11815894655E+04  0.27812335982E+04  0.25177582614E+04 0.  0.
        3    1    3    3  502    0  0.10942400215E+04  0.61668260749E+03  0.49759767518E+03  0.13510226199E+04  0.10100000352E+00 0.  1.
       -3    1    3    3    0  502 -0.10942400215E+04 -0.61668260749E+03  0.68399179027E+03  0.14302109783E+04  0.10100000352E+00 0. -1.
</event>
<event>
 5   0  0.2896652E-05  0.2322537E+04  0.7818609E-02  0.8469088E-01
        1   -1    0    0  501    0  0.00000000000E+00  0.00000000000E+00  0.96862083144E+03  0.96862083146E+03  0.50400001928E-02 0.  1.
       -1   -1    0    0    0  501  0.00000000000E+00  0.00000000000E+00 -0.13922314436E+04  0.13922314436E+04  0.50400001928E-02 0. -1.
    10030    2    1    2    0    0  0.00000000000E+00  0.00000000000E+00 -0.42361061214E+03  0.23608522750E+04  0.23225368703E+04 0.  0.
        4    1    3    3  502    0  0.45177516559E+03  0.10695562003E+04 -0.18926977492E+03  0.11763825596E+04  0.12699999809E+01 0.  1.
       -4    1    3    3    0  502 -0.45177516559E+03 -0.10695562003E+04 -0.23434083722E+03  0.11844697154E+04  0.12699999809E+01 0. -1.
</event>
<event>
 5   0  0.2793920E-05  0.2455301E+04  0.7818609E-02  0.8419085E-01
        1   -1    0    0  501    0  0.00000000000E+00  0.00000000000E+00  0.16857118804E+04  0.16857118804E+04  0.50400001928E-02 0.  1.
       -1   -1    0    0    0  501  0.00000000000E+00  0.00000000000E+00 -0.89405904568E+03  0.89405904569E+03  0.50400001928E-02 0. -1.
    10030    2    1    2    0    0  0.00000000000E+00  0.00000000000E+00  0.79165283474E+03  0.25797709261E+04  0.24553011670E+04 0.  0.
        2    1    3    3  502    0  0.23004036527E+03 -0.10864314998E+04 -0.15403311903E+03  0.11211503803E+04  0.25500000920E-02 0. -1.
       -2    1    3    3    0  502 -0.23004036527E+03  0.10864314998E+04  0.94568595377E+03  0.14586205458E+04  0.25500000920E-02 0.  1.
</event>
<event>
 5   0  0.7071821E-05  0.2579079E+04  0.7818609E-02  0.8375343E-01
        2   -1    0    0  501    0  0.00000000000E+00  0.00000000000E+00  0.97276399276E+03  0.97276399277E+03  0.25500000920E-02 0.  1.
       -2   -1    0    0    0  501  0.00000000000E+00  0.00000000000E+00 -0.17094707090E+04  0.17094707090E+04  0.25500000920E-02 0. -1.
    10030    2    1    2    0    0  0.00000000000E+00  0.00000000000E+00 -0.73670671625E+03  0.26822347018E+04  0.25790785583E+04 0.  0.
        5    1    3    3  502    0  0.30213626179E+02 -0.20231978936E+03  0.95577325424E+03  0.97743069519E+03  0.46999998093E+01 0.  1.
       -5    1    3    3    0  502 -0.30213626179E+02  0.20231978936E+03 -0.16924799705E+04  0.17048040066E+04  0.46999998093E+01 0. -1.
</event>
<event>
 5   0  0.2977854E-05  0.2494371E+04  0.7818609E-02  0.8404994E-01
       -1   -1    0    0    0  501  0.00000000000E+00  0.00000000000E+00  0.67930932189E+03  0.67930932191E+03  0.50400001928E-02 0. -1.
        1   -1    0    0  501    0  0.00000000000E+00  0.00000000000E+00 -0.22897832968E+04  0.22897832968E+04  0.50400001928E-02 0.  1.
    10030    2    1    2    0    0  0.00000000000E+00  0.00000000000E+00 -0.16104739749E+04  0.29690926187E+04  0.24943705728E+04 0.  0.
        1    1    3    3  502    0  0.86822196747E+02  0.30772667203E+02 -0.22857286808E+04  0.22875840210E+04  0.50400001928E-02 0.  1.
       -1    1    3    3    0  502 -0.86822196747E+02 -0.30772667203E+02  0.67525470589E+03  0.68150859771E+03  0.50400001928E-02 0. -1.
</event>
<event>
 5   0  0.6827859E-05  0.2520276E+04  0.7818609E-02  0.8395798E-01
        2   -1    0    0  501    0  0.00000000000E+00  0.00000000000E+00  0.86225584743E+03  0.86225584744E+03  0.25500000920E-02 0.  1.
       -2   -1    0    0    0  501  0.00000000000E+00  0.00000000000E+00 -0.18416202354E+04  0.18416202354E+04  0.25500000920E-02 0. -1.
    10030    2    1    2    0    0  0.00000000000E+00  0.00000000000E+00 -0.97936438798E+03  0.27038760828E+04  0.25202760299E+04 0.  0.
        3    1    3    3  502    0 -0.40855743281E+03 -0.56174456011E+03 -0.16176909893E+04  0.17605113671E+04  0.10100000352E+00 0. -1.
       -3    1    3    3    0  502  0.40855743281E+03  0.56174456011E+03  0.63832660132E+03  0.94336471572E+03  0.10100000352E+00 0.  1.
</event>
<event>
 5   0  0.2793920E-05  0.2427281E+04  0.7818609E-02  0.8429360E-01
        1   -1    0    0  501    0  0.00000000000E+00  0.00000000000E+00  0.24426085034E+04  0.24426085034E+04  0.50400001928E-02 0.  1.
       -1   -1    0    0    0  501  0.00000000000E+00  0.00000000000E+00 -0.60301241789E+03  0.60301241792E+03  0.50400001928E-02 0. -1.
    10030    2    1    2    0    0  0.00000000000E+00  0.00000000000E+00  0.18395960855E+04  0.30456209213E+04  0.24272809970E+04 0.  0.
        2    1    3    3  502    0 -0.22064746668E+03  0.92575978294E+03  0.18647864869E+04  0.20935962175E+04  0.25500000920E-02 0.  1.
       -2    1    3    3    0  502  0.22064746668E+03 -0.92575978294E+03 -0.25190401427E+02  0.95202470378E+03  0.25500000920E-02 0. -1.
</event>
<event>
 5   0  0.2896652E-05  0.2501372E+04  0.7818609E-02  0.8402497E-01
       -1   -1    0    0    0  501  0.00000000000E+00  0.00000000000E+00  0.12673782920E+04  0.12673782920E+04  0.50400001928E-02 0. -1.
        1   -1    0    0  501    0  0.00000000000E+00  0.00000000000E+00 -0.12342135859E+04  0.12342135859E+04  0.50400001928E-02 0.  1.
    10030    2    1    2    0    0  0.00000000000E+00  0.00000000000E+00  0.33164706101E+02  0.25015918780E+04  0.25013720287E+04 0.  0.
        4    1    3    3  502    0  0.24363913001E+03  0.70878137361E+03  0.10179110001E+04  0.12640709942E+04  0.12699999809E+01 0. -1.
       -4    1    3    3    0  502 -0.24363913001E+03 -0.70878137361E+03 -0.98474629403E+03  0.12375208838E+04  0.12699999809E+01 0.  1.
</event>
<event>
 5   0  0.2331375E-05  0.1579620E+04  0.7818609E-02  0.8833167E-01
        3   -1    0    0  501    0  0.00000000000E+00  0.00000000000E+00  0.69193945441E+03  0.69193946178E+03  0.10100000352E+00 0.  1.
       -3   -1    0    0    0  501  0.00000000000E+00  0.00000000000E+00 -0.90152407088E+03  0.90152407654E+03  0.10100000352E+00 0. -1.
    10030    2    1    2    0    0  0.00000000000E+00  0.00000000000E+00 -0.20958461648E+03  0.15934635383E+04  0.15796203140E+04 0.  0.
        4    1    3    3  502    0  0.79504826413E+02  0.75839844266E+03  0.10270244249E+03  0.76944045894E+03  0.12699999809E+01 0. -1.
       -4    1    3    3    0  502 -0.79504826413E+02 -0.75839844266E+03 -0.31228705896E+03  0.82402307938E+03  0.12699999809E+01 0.  1.
</event>
<event>
 5   0  0.6909250E-05  0.2484310E+04  0.7818609E-02  0.8408597E-01
       -2   -1    0    0    0  501  0.00000000000E+00  0.00000000000E+00  0.84219180671E+03  0.84219180671E+03  0.25500000920E-02 0. -1.
        2   -1    0    0  501    0  0.00000000000E+00  0.00000000000E+00 -0.18320634939E+04  0.18320634939E+04  0.25500000920E-02 0.  1.
    10030    2    1    2    0    0  0.00000000000E+00  0.00000000000E+00 -0.98987168720E+03  0.26742553006E+04  0.24843098550E+04 0.  0.
        4    1    3    3  502    0 -0.17973008961E+03  0.10888565213E+04  0.11877347347E+03  0.11099640444E+04  0.12699999809E+01 0. -1.
       -4    1    3    3    0  502  0.17973008961E+03 -0.10888565213E+04 -0.11086451607E+04  0.15642912562E+04  0.12699999809E+01 0.  1.
</event>
<event>
 5   0  0.2980790E-05  0.1735842E+04  0.7818609E-02  0.8741182E-01
        1   -1    0    0  501    0  0.00000000000E+00  0.00000000000E+00  0.88978701826E+03  0.88978701828E+03  0.50400001928E-02 0.  1.
       -1   -1    0    0    0  501  0.00000000000E+00  0.00000000000E+00 -0.84659204240E+03  0.84659204241E+03  0.50400001928E-02 0. -1.
    10030    2    1    2    0    0  0.00000000000E+00  0.00000000000E+00  0.43194975866E+02  0.17363790607E+04  0.17358417084E+04 0.  0.
        5    1    3    3  502    0 -0.15102917920E+03 -0.84136642304E+03  0.17183468795E+03  0.87192690105E+03  0.46999998093E+01 0. -1.
       -5    1    3    3    0  502  0.15102917920E+03  0.84136642304E+03 -0.12863971208E+03  0.86445215964E+03  0.46999998093E+01 0.  1.
</event>
<event>
 5   0  0.6648328E-05  0.2445272E+04  0.7818609E-02  0.8422746E-01
       -2   -1    0    0    0  501  0.00000000000E+00  0.00000000000E+00  0.56711900478E+03  0.56711900479E+03  0.25500000920E-02 0. -1.
        2   -1    0    0  501    0  0.00000000000E+00  0.00000000000E+00 -0.26358463101E+04  0.26358463101E+04  0.25500000920E-02 0.  1.
    10030    2    1    2    0    0  0.00000000000E+00  0.00000000000E+00 -0.20687273053E+04  0.32029653149E+04  0.24452717936E+04 0.  0.
        2    1    3    3  502    0  0.36910725906E+03 -0.11041460511E+04 -0.54520502472E+03  0.12855454834E+04  0.25500000920E-02 0.  1.
       -2    1    3    3    0  502 -0.36910725906E+03  0.11041460511E+04 -0.15235222806E+04  0.19174198315E+04  0.25500000920E-02 0. -1.
</event>
<event>
 5   0  0.2896652E-05  0.2506370E+04  0.7818609E-02  0.8400720E-01
        1   -1    0    0  501    0  0.00000000000E+00  0.00000000000E+00  0.14932847435E+04  0.14932847435E+04  0.50400001928E-02 0.  1.
       -1   -1    0    0    0  501  0.00000000000E+00  0.00000000000E+00 -0.10516898700E+04  0.10516898700E+04  0.50400001928E-02 0. -1.
    10030    2    1    2    0    0  0.00000000000E+00  0.00000000000E+00  0.44159487348E+03  0.25449746135E+04  0.25063698353E+04 0.  0.
        4    1    3    3  502    0  0.91914482958E+03  0.75958973833E+03 -0.17071507157E+03  0.12045534595E+04  0.12699999809E+01 0. -1.
       -4    1    3    3    0  502 -0.91914482958E+03 -0.75958973833E+03  0.61230994505E+03  0.13404211540E+04  0.12699999809E+01 0.  1.
</event>
<event>
 5   0  0.2977854E-05  0.2422921E+04  0.7818609E-02  0.8430972E-01
       -1   -1    0    0    0  501  0.00000000000E+00  0.00000000000E+00  0.13163084109E+04  0.13163084109E+04  0.50400001928E-02 0.  1.
        1   -1    0    0  501    0  0.00000000000E+00  0.00000000000E+00 -0.11149637452E+04  0.11149637452E+04  0.50400001928E-02 0. -1.
    10030    2    1    2    0    0  0.00000000000E+00  0.00000000000E+00  0.20134466566E+03  0.24312721561E+04  0.24229206802E+04 0.  0.
        1    1    3    3  502    0  0.46018533352E+03  0.77998542107E+03 -0.70676785539E+03  0.11487682968E+04  0.50400001928E-02 0. -1.
       -1    1    3    3    0  502 -0.46018533352E+03 -0.77998542107E+03  0.90811252105E+03  0.12825038593E+04  0.50400001928E-02 0.  1.
</event>
<event>
 5   0  0.6648328E-05  0.2371351E+04  0.7818609E-02  0.8450308E-01
        2   -1    0    0  501    0  0.00000000000E+00  0.00000000000E+00  0.24573765392E+04  0.24573765392E+04  0.25500000920E-02 0. -1.
       -2   -1    0    0    0  501  0.00000000000E+00  0.00000000000E+00 -0.57208428123E+03  0.57208428124E+03  0.25500000920E-02 0.  1.
    10030    2    1    2    0    0  0.00000000000E+00  0.00000000000E+00  0.18852922580E+04  0.30294608204E+04  0.23713510842E+04 0.  0.
        2    1    3    3  502    0  0.38805487984E+03 -0.24219104716E+03  0.23401112254E+04  0.23844000588E+04  0.25500000920E-02 0. -1.
       -2    1    3    3    0  502 -0.38805487984E+03  0.24219104716E+03 -0.45481896742E+03  0.64506076166E+03  0.25500000920E-02 0.  1.
</event>
<event>
 5   0  0.6445331E-05  0.2208750E+04  0.7818609E-02  0.8514795E-01
       -2   -1    0    0    0  501  0.00000000000E+00  0.00000000000E+00  0.84332965789E+03  0.84332965789E+03  0.25500000920E-02 0.  1.
        2   -1    0    0  501    0  0.00000000000E+00  0.00000000000E+00 -0.14462249318E+04  0.14462249318E+04  0.25500000920E-02 0. -1.
    10030    2    1    2    0    0  0.00000000000E+00  0.00000000000E+00 -0.60289527393E+03  0.22895545897E+04  0.22087502140E+04 0.  0.
        1    1    3    3  502    0  0.83238897411E+03 -0.34637808743E+03 -0.96258591843E+03  0.13188710453E+04  0.50400001928E-02 0. -1.
       -1    1    3    3    0  502 -0.83238897411E+03  0.34637808743E+03  0.35969064450E+03  0.97068354444E+03  0.50400001928E-02 0.  1.
</event>
<event>
 5   0  0.2793920E-05  0.2510760E+04  0.7818609E-02  0.8399162E-01
       -1   -1    0    0    0  501  0.00000000000E+00  0.00000000000E+00  0.11855398797E+04  0.11855398797E+04  0.50400001928E-02 0.  1.
        1   -1    0    0  501    0  0.00000000000E+00  0.00000000000E+00 -0.13293346407E+04  0.13293346407E+04  0.50400001928E-02 0. -1.
    10030    2    1    2    0    0  0.00000000000E+00  0.00000000000E+00 -0.14379476098E+03  0.25148745204E+04  0.25107602275E+04 0.  0.
        2    1    3    3  502    0  0.51362598282E+03 -0.10271962457E+04 -0.57971480071E+03  0.12864730964E+04  0.25500000920E-02 0. -1.
       -2    1    3    3    0  502 -0.51362598282E+03  0.10271962457E+04  0.43592003973E+03  0.12284014240E+04  0.25500000920E-02 0.  1.
</event>
<event>
 5   0  0.2977854E-05  0.2512640E+04  0.7818609E-02  0.8398496E-01
       -1   -1    0    0    0  501  0.00000000000E+00  0.00000000000E+00  0.13606686010E+04  0.13606686010E+04  0.50400001928E-02 0. -1.
        1   -1    0    0  501    0  0.00000000000E+00  0.00000000000E+00 -0.11599741223E+04  0.11599741223E+04  0.50400001928E-02 0.  1.
    10030    2    1    2    0    0  0.00000000000E+00  0.00000000000E+00  0.20069447871E+03  0.25206427233E+04  0.25126403373E+04 0.  0.
        1    1    3    3  502    0 -0.94145380247E+03 -0.47743062252E+03 -0.58304559683E+03  0.12059093787E+04  0.50400001928E-02 0.  1.
       -1    1    3    3    0  502  0.94145380247E+03  0.47743062252E+03  0.78374007555E+03  0.13147333447E+04  0.50400001928E-02 0. -1.
</event>
<event>
 5   0  0.2896652E-05  0.2437163E+04  0.7818609E-02  0.8425720E-01
        1   -1    0    0  501    0  0.00000000000E+00  0.00000000000E+00  0.21400511654E+04  0.21400511654E+04  0.50400001928E-02 0.  1.
       -1   -1    0    0    0  501  0.00000000000E+00  0.00000000000E+00 -0.69388124457E+03  0.69388124459E+03  0.50400001928E-02 0. -1.
    10030    2    1    2    0    0  0.00000000000E+00  0.00000000000E+00  0.14461699208E+04  0.28339324100E+04  0.24371634054E+04 0.  0.
        4    1    3    3  502    0  0.57687885010E+03  0.10620291184E+04  0.90414108600E+03  0.15093600539E+04  0.12699999809E+01 0.  1.
       -4    1    3    3    0  502 -0.57687885010E+03 -0.10620291184E+04  0.54202883485E+03  0.13245723561E+04  0.12699999809E+01 0. -1.
</event>
<event>
 5   0  0.6909250E-05  0.2200078E+04  0.7818609E-02  0.8518396E-01
       -2   -1    0    0    0  501  0.00000000000E+00  0.00000000000E+00  0.87894277727E+03  0.87894277727E+03  0.25500000920E-02 0.  1.
        2   -1    0    0  501    0  0.00000000000E+00  0.00000000000E+00 -0.13767516163E+04  0.13767516163E+04  0.25500000920E-02 0. -1.
    10030    2    1    2    0    0  0.00000000000E+00  0.00000000000E+00 -0.49780883902E+03  0.22556943936E+04  0.22000780797E+04 0.  0.
        4    1    3    3  502    0  0.35466056705E+03 -0.46658805188E+03 -0.12033483996E+04  0.13384832878E+04  0.12699999809E+01 0. -1.
       -4    1    3    3    0  502 -0.35466056705E+03  0.46658805188E+03  0.70553956062E+03  0.91721110573E+03  0.12699999809E+01 0.  1.
</event>
<event>
 5   0  0.2777539E-05  0.2507180E+04  0.7818609E-02  0.8400432E-01
        1   -1    0    0  501    0  0.00000000000E+00  0.00000000000E+00  0.18232570272E+04  0.18232570272E+04  0.50400001928E-02 0.  1.
       -1   -1    0    0    0  501  0.00000000000E+00  0.00000000000E+00 -0.86191250338E+03  0.86191250339E+03  0.50400001928E-02 0. -1.
    10030    2    1    2    0    0  0.00000000000E+00  0.00000000000E+00  0.96134452383E+03  0.26851695306E+04  0.25071801121E+04 0.  0.
        3    1    3    3  502    0  0.38998196460E+03 -0.11348098734E+04  0.92138849760E+02  0.12034820145E+04  0.10100000352E+00 0.  1.
       -3    1    3    3    0  502 -0.38998196460E+03  0.11348098734E+04  0.86920567407E+03  0.14816875161E+04  0.10100000352E+00 0. -1.
</event>
<event>
 5   0  0.2977854E-05  0.2392386E+04  0.7818609E-02  0.8442360E-01
        1   -1    0    0  501    0  0.00000000000E+00  0.00000000000E+00  0.10136622495E+04  0.10136622495E+04  0.50400001928E-02 0. -1.
       -1   -1    0    0    0  501  0.00000000000E+00  0.00000000000E+00 -0.14115919371E+04  0.14115919371E+04  0.50400001928E-02 0.  1.
    10030    2    1    2    0    0  0.00000000000E+00  0.00000000000E+00 -0.39792968757E+03  0.24252541866E+04  0.23923858036E+04 0.  0.
        1    1    3    3  502    0 -0.96050521032E+02  0.10899670767E+04  0.29102190469E+03  0.11322312837E+04  0.50400001928E-02 0. -1.
       -1    1    3    3    0  502  0.96050521032E+02 -0.10899670767E+04 -0.68895159225E+03  0.12930229029E+04  0.50400001928E-02 0.  1.
</event>
<event>
 5   0  0.2977854E-05  0.2455232E+04  0.7818609E-02  0.8419110E-01
       -1   -1    0    0    0  501  0.00000000000E+00  0.00000000000E+00  0.12200313980E+04  0.12200313980E+04  0.50400001928E-02 0.  1.
        1   -1    0    0  501    0  0.00000000000E+00  0.00000000000E+00 -0.12352475155E+04  0.12352475155E+04  0.50400001928E-02 0. -1.
    10030    2    1    2    0    0  0.00000000000E+00  0.00000000000E+00 -0.15216117473E+02  0.24552789136E+04  0.24552317636E+04 0.  0.
        1    1    3    3  502    0  0.35820331418E+03  0.11299243899E+04  0.31177561307E+03  0.12256601381E+04  0.50400001928E-02 0. -1.
       -1    1    3    3    0  502 -0.35820331418E+03 -0.11299243899E+04 -0.32699173055E+03  0.12296187755E+04  0.50400001928E-02 0.  1.
</event>
<event>
 5   0  0.6909250E-05  0.2472223E+04  0.7818609E-02  0.8412949E-01
       -2   -1    0    0    0  501  0.00000000000E+00  0.00000000000E+00  0.13553354585E+04  0.13553354585E+04  0.25500000920E-02 0. -1.
        2   -1    0    0  501    0  0.00000000000E+00  0.00000000000E+00 -0.11273748793E+04  0.11273748793E+04  0.25500000920E-02 0.  1.
    10030    2    1    2    0    0  0.00000000000E+00  0.00000000000E+00  0.22796057917E+03  0.24827103377E+04  0.24722226023E+04 0.  0.
        4    1    3    3  502    0 -0.46629356222E+03 -0.15826816468E+03  0.12525850797E+04  0.13459009966E+04  0.12699999809E+01 0. -1.
       -4    1    3    3    0  502  0.46629356222E+03  0.15826816468E+03 -0.10246245005E+04  0.11368093411E+04  0.12699999809E+01 0.  1.
</event>
<event>
 5   0  0.6827859E-05  0.2569865E+04  0.7818609E-02  0.8378510E-01
       -2   -1    0    0    0  501  0.00000000000E+00  0.00000000000E+00  0.86618412984E+03  0.86618412984E+03  0.25500000920E-02 0.  1.
        2   -1    0    0  501    0  0.00000000000E+00  0.00000000000E+00 -0.19061201381E+04  0.19061201381E+04  0.25500000920E-02 0. -1.
    10030    2    1    2    0    0  0.00000000000E+00  0.00000000000E+00 -0.10399360082E+04  0.27723042679E+04  0.25698645981E+04 0.  0.
        3    1    3    3  502    0  0.41932203865E+03  0.46512914629E+03 -0.17303485660E+04  0.18401853887E+04  0.10100000352E+00 0. -1.
       -3    1    3    3    0  502 -0.41932203865E+03 -0.46512914629E+03  0.69041255776E+03  0.93211887919E+03  0.10100000352E+00 0.  1.
</event>
<event>
 5   0  0.7071821E-05  0.2501896E+04  0.7818609E-02  0.8402310E-01
        2   -1    0    0  501    0  0.00000000000E+00  0.00000000000E+00  0.19872611248E+04  0.19872611248E+04  0.25500000920E-02 0.  1.
       -2   -1    0    0    0  501  0.00000000000E+00  0.00000000000E+00 -0.78745113982E+03  0.78745113983E+03  0.25500000920E-02 0. -1.
    10030    2    1    2    0    0  0.00000000000E+00  0.00000000000E+00  0.11998099850E+04  0.27747122647E+04  0.25018961113E+04 0.  0.
        5    1    3    3  502    0 -0.83004061038E+03  0.81227350391E+03  0.11154532465E+04  0.16102837313E+04  0.46999998093E+01 0.  1.
       -5    1    3    3    0  502  0.83004061038E+03 -0.81227350391E+03  0.84356738486E+02  0.11644285334E+04  0.46999998093E+01 0. -1.
</event>
<event>
 5   0  0.6827859E-05  0.2370821E+04  0.7818609E-02  0.8450509E-01
       -2   -1    0    0    0  501  0.00000000000E+00  0.00000000000E+00  0.99065053020E+03  0.99065053020E+03  0.25500000920E-02 0. -1.
        2   -1    0    0  501    0  0.00000000000E+00  0.00000000000E+00 -0.14184603173E+04  0.14184603173E+04  0.25500000920E-02 0.  1.
    10030    2    1    2    0    0  0.00000000000E+00  0.00000000000E+00 -0.42780978714E+03  0.24091108475E+04  0.23708213475E+04 0.  0.
        3    1    3    3  502    0  0.10314193797E+04 -0.38630669964E+03 -0.65932155074E+03  0.12836524921E+04  0.10100000352E+00 0.  1.
       -3    1    3    3    0  502 -0.10314193797E+04  0.38630669964E+03  0.23151176360E+03  0.11254583555E+04  0.10100000352E+00 0. -1.
</event>
<event>
 5   0  0.2980790E-05  0.2468043E+04  0.7818609E-02  0.8414459E-01
        1   -1    0    0  501    0  0.00000000000E+00  0.00000000000E+00  0.12290072088E+04  0.12290072088E+04  0.50400001928E-02 0.  1.
       -1   -1    0    0    0  501  0.00000000000E+00  0.00000000000E+00 -0.12390566345E+04  0.12390566345E+04  0.50400001928E-02 0. -1.
    10030    2    1    2    0    0  0.00000000000E+00  0.00000000000E+00 -0.10049425657E+02  0.24680638433E+04  0.24680433837E+04 0.  0.
        5    1    3    3  502    0 -0.28329937547E+03 -0.99481718359E+03  0.66793530788E+03  0.12312917731E+04  0.46999998093E+01 0.  1.
       -5    1    3    3    0  502  0.28329937547E+03  0.99481718359E+03 -0.67798473353E+03  0.12367720703E+04  0.46999998093E+01 0. -1.
</event>
<event>
 5   0  0.7071821E-05  0.2478648E+04  0.7818609E-02  0.8410632E-01
        2   -1    0    0  501    0  0.00000000000E+00  0.00000000000E+00  0.74791938246E+03  0.74791938246E+03  0.25500000920E-02 0. -1.
       -2   -1    0    0    0  501  0.00000000000E+00  0.00000000000E+00 -0.20535955636E+04  0.20535955636E+04  0.25500000920E-02 0.  1.
    10030    2    1    2    0    0  0.00000000000E+00  0.00000000000E+00 -0.13056761811E+04  0.28015149461E+04  0.24786479587E+04 0.  0.
        5    1    3    3  502    0  0.89452723512E+03 -0.36858258553E+03  0.22256197002E+03  0.99276785667E+03  0.46999998093E+01 0. -1.
       -5    1    3    3    0  502 -0.89452723512E+03  0.36858258553E+03 -0.15282381511E+04  0.18087470894E+04  0.46999998093E+01 0.  1.
</event>
<event>
 5   0  0.6648328E-05  0.2386347E+04  0.7818609E-02  0.8444633E-01
        2   -1    0    0  501    0  0.00000000000E+00  0.00000000000E+00  0.15114730430E+04  0.15114730430E+04  0.25500000920E-02 0. -1.
       -2   -1    0    0    0  501  0.00000000000E+00  0.00000000000E+00 -0.94190458598E+03  0.94190458598E+03  0.25500000920E-02 0.  1.
    10030    2    1    2    0    0  0.00000000000E+00  0.00000000000E+00  0.56956845704E+03  0.24533776290E+04  0.23863473266E+04 0.  0.
        2    1    3    3  502    0 -0.10813389204E+04  0.40395127699E+03  0.59524822957E+03  0.12987651634E+04  0.25500000920E-02 0. -1.
       -2    1    3    3    0  502  0.10813389204E+04 -0.40395127699E+03 -0.25679772537E+02  0.11546124656E+04  0.25500000920E-02 0.  1.
</event>
<event>
 5   0  0.7071821E-05  0.1816219E+04  0.7818609E-02  0.8697722E-01
        2   -1    0    0  501    0  0.00000000000E+00  0.00000000000E+00  0.98716623609E+03  0.98716623609E+03  0.25500000920E-02 0.  1.
       -2   -1    0    0    0  501  0.00000000000E+00  0.00000000000E+00 -0.83538361739E+03  0.83538361739E+03  0.25500000920E-02 0. -1.
    10030    2    1    2    0    0  0.00000000000E+00  0.00000000000E+00  0.15178261870E+03  0.18225498535E+04  0.18162186006E+04 0.  0.
        5    1    3    3  502    0 -0.52620351363E+03 -0.67431800514E+03 -0.23020563060E+03  0.88578306158E+03  0.46999998093E+01 0. -1.
       -5    1    3    3    0  502  0.52620351363E+03  0.67431800514E+03  0.38198824930E+03  0.93676679191E+03  0.46999998093E+01 0.  1.
</event>
<event>
 5   0  0.2977854E-05  0.2553731E+04  0.7818609E-02  0.8384090E-01
        1   -1    0    0  501    0  0.00000000000E+00  0.00000000000E+00  0.11746650968E+04  0.11746650968E+04  0.50400001928E-02 0. -1.
       -1   -1    0    0    0  501  0.00000000000E+00  0.00000000000E+00 -0.13879577172E+04  0.13879577172E+04  0.50400001928E-02 0.  1.
    10030    2    1    2    0    0  0.00000000000E+00  0.00000000000E+00 -0.21329262040E+03  0.25626228139E+04  0.25537309852E+04 0.  0.
        1    1    3    3  502    0 -0.57257118349E+03  0.77706811151E+03  0.73215464340E+03  0.12114961956E+04  0.50400001928E-02 0. -1.
       -1    1    3    3    0  502  0.57257118349E+03 -0.77706811151E+03 -0.94544726379E+03  0.13511266183E+04  0.50400001928E-02 0.  1.
</event>
<event>
 5   0  0.6648328E-05  0.2518120E+04  0.7818609E-02  0.8396559E-01
       -2   -1    0    0    0  501  0.00000000000E+00  0.00000000000E+00  0.89670512536E+03  0.89670512536E+03  0.25500000920E-02 0. -1.
        2   -1    0    0  501    0  0.00000000000E+00  0.00000000000E+00 -0.17678404681E+04  0.17678404681E+04  0.25500000920E-02 0.  1.
    10030    2    1    2    0    0  0.00000000000E+00  0.00000000000E+00 -0.87113534269E+03  0.26645455934E+04  0.25181196227E+04 0.  0.
        2    1    3    3  502    0 -0.74416460643E+03  0.72913547922E+03 -0.11836513533E+04  0.15768481330E+04  0.25500000920E-02 0.  1.
       -2    1    3    3    0  502  0.74416460643E+03 -0.72913547922E+03  0.31251601056E+03  0.10876974604E+04  0.25500000920E-02 0. -1.
</event>
<event>
 5   0  0.2980790E-05  0.2416902E+04  0.7818609E-02  0.8433203E-01
        1   -1    0    0  501    0  0.00000000000E+00  0.00000000000E+00  0.19525074509E+04  0.19525074509E+04  0.50400001928E-02 0.  1.
       -1   -1    0    0    0  501  0.00000000000E+00  0.00000000000E+00 -0.74793779821E+03  0.74793779823E+03  0.50400001928E-02 0. -1.
    10030    2    1    2    0    0  0.00000000000E+00  0.00000000000E+00  0.12045696527E+04  0.27004452491E+04  0.24169022519E+04 0.  0.
        5    1    3    3  502    0  0.57580178279E+03 -0.75640392114E+02 -0.58178775620E+03  0.82205124247E+03  0.46999998093E+01 0. -1.
       -5    1    3    3    0  502 -0.57580178279E+03  0.75640392114E+02  0.17863574089E+04  0.18783940067E+04  0.46999998093E+01 0.  1.
</event>
<event>
 5   0  0.2777539E-05  0.2507552E+04  0.7818609E-02  0.8400300E-01
        1   -1    0    0  501    0  0.00000000000E+00  0.00000000000E+00  0.11065618877E+04  0.11065618877E+04  0.50400001928E-02 0.  1.
       -1   -1    0    0    0  501  0.00000000000E+00  0.00000000000E+00 -0.14205753694E+04  0.14205753694E+04  0.50400001928E-02 0. -1.
    10030    2    1    2    0    0  0.00000000000E+00  0.00000000000E+00 -0.31401348170E+03  0.25271372570E+04  0.25075522426E+04 0.  0.
        3    1    3    3  502    0  0.11693289666E+04  0.24766569978E+03  0.22448114555E+03  0.12161662411E+04  0.10100000352E+00 0.  1.
       -3    1    3    3    0  502 -0.11693289666E+04 -0.24766569978E+03 -0.53849462725E+03  0.13109710160E+04  0.10100000352E+00 0. -1.
</event>
<event>
 5   0  0.6909250E-05  0.2038105E+04  0.7818609E-02  0.8589010E-01
        2   -1    0    0  501    0  0.00000000000E+00  0.00000000000E+00  0.12838472717E+04  0.12838472717E+04  0.25500000920E-02 0.  1.
       -2   -1    0    0    0  501  0.00000000000E+00  0.00000000000E+00 -0.80887163536E+03  0.80887163537E+03  0.25500000920E-02 0. -1.
    10030    2    1    2    0    0  0.00000000000E+00  0.00000000000E+00  0.47497563632E+03  0.20927189071E+04  0.20381046511E+04 0.  0.
        4    1    3    3  502    0 -0.20527080713E+03  0.98436497728E+03  0.67660763362E+02  0.10078145189E+04  0.12699999809E+01 0.  1.
       -4    1    3    3    0  502  0.20527080713E+03 -0.98436497728E+03  0.40731487296E+03  0.10849043881E+04  0.12699999809E+01 0. -1.
</event>
<event>
 5   0  0.2980790E-05  0.2453326E+04  0.7818609E-02  0.8419805E-01
        1   -1    0    0  501    0  0.00000000000E+00  0.00000000000E+00  0.10681235470E+04  0.10681235470E+04  0.50400001928E-02 0. -1.
       -1   -1    0    0    0  501  0.00000000000E+00  0.00000000000E+00 -0.14087343315E+04  0.14087343315E+04  0.50400001928E-02 0.  1.
    10030    2    1    2    0    0  0.00000000000E+00  0.00000000000E+00 -0.34061078449E+03  0.24768578786E+04  0.24533261594E+04 0.  0.
        5    1    3    3  502    0  0.12449854561E+03  0.50802555248E+03  0.94988221888E+03  0.10843837741E+04  0.46999998093E+01 0. -1.
       -5    1    3    3    0  502 -0.12449854561E+03 -0.50802555248E+03 -0.12904930034E+04  0.13924741045E+04  0.46999998093E+01 0.  1.
</event>
<event>
 5   0  0.2977854E-05  0.2401372E+04  0.7818609E-02  0.8438990E-01
       -1   -1    0    0    0  501  0.00000000000E+00  0.00000000000E+00  0.90182885873E+03  0.90182885875E+03  0.50400001928E-02 0. -1.
        1   -1    0    0  501    0  0.00000000000E+00  0.00000000000E+00 -0.15985808637E+04  0.15985808637E+04  0.50400001928E-02 0.  1.
    10030    2    1    2    0    0  0.00000000000E+00  0.00000000000E+00 -0.69675200492E+03  0.25004097224E+04  0.24013715713E+04 0.  0.
        1    1    3    3  502    0 -0.31307223957E+03 -0.65632481564E+01 -0.15553142280E+04  0.15865243935E+04  0.50400001928E-02 0.  1.
       -1    1    3    3    0  502  0.31307223957E+03  0.65632481564E+01  0.85856222308E+03  0.91388532888E+03  0.50400001928E-02 0. -1.
</event>
<event>
 5   0  0.2777539E-05  0.2551535E+04  0.7818609E-02  0.8384852E-01
       -1   -1    0    0    0  501  0.00000000000E+00  0.00000000000E+00  0.90375495555E+03  0.90375495556E+03  0.50400001928E-02 0. -1.
        1   -1    0    0  501    0  0.00000000000E+00  0.00000000000E+00 -0.18009119986E+04  0.18009119986E+04  0.50400001928E-02 0.  1.
    10030    2    1    2    0    0  0.00000000000E+00  0.00000000000E+00 -0.89715704301E+03  0.27046669541E+04  0.25515353364E+04 0.  0.
        3    1    3    3  502    0 -0.29709923016E+03 -0.11060490272E+04  0.14726968197E+03  0.11546864390E+04  0.10100000352E+00 0. -1.
       -3    1    3    3    0  502  0.29709923016E+03  0.11060490272E+04 -0.10444267250E+04  0.15499805151E+04  0.10100000352E+00 0.  1.
</event>
<event>
 5   0  0.7071821E-05  0.2572331E+04  0.7818609E-02  0.8377661E-01
        2   -1    0    0  501    0  0.00000000000E+00  0.00000000000E+00  0.19607092297E+04  0.19607092297E+04  0.25500000920E-02 0.  1.
       -2   -1    0    0    0  501  0.00000000000E+00  0.00000000000E+00 -0.84368547382E+03  0.84368547382E+03  0.25500000920E-02 0. -1.
    10030    2    1    2    0    0  0.00000000000E+00  0.00000000000E+00  0.11170237559E+04  0.28043947036E+04  0.25723311572E+04 0.  0.
        5    1    3    3  502    0  0.11586719290E+04  0.64971118037E+02  0.11630241234E+04  0.16429817671E+04  0.46999998093E+01 0.  1.
       -5    1    3    3    0  502 -0.11586719290E+04 -0.64971118037E+02 -0.46000367463E+02  0.11614129365E+04  0.46999998093E+01 0. -1.
</event>
<event>
 5   0  0.2896652E-05  0.2501980E+04  0.7818609E-02  0.8402281E-01
       -1   -1    0    0    0  501  0.00000000000E+00  0.00000000000E+00  0.93323402970E+03  0.93323402971E+03  0.50400001928E-02 0. -1.
        1   -1    0    0  501    0  0.00000000000E+00  0.00000000000E+00 -0.16769378846E+04  0.16769378846E+04  0.50400001928E-02 0.  1.
    10030    2    1    2    0    0  0.00000000000E+00  0.00000000000E+00 -0.74370385485E+03  0.26101719143E+04  0.25019796159E+04 0.  0.
        4    1    3    3  502    0 -0.48162815736E+03  0.36226896905E+03 -0.15155092521E+04  0.16309427930E+04  0.12699999809E+01 0.  1.
       -4    1    3    3    0  502  0.48162815736E+03 -0.36226896905E+03  0.77180539723E+03  0.97922912130E+03  0.12699999809E+01 0. -1.
</event>
<event>
 5   0  0.2980790E-05  0.2520112E+04  0.7818609E-02  0.8395855E-01
       -1   -1    0    0    0  501  0.00000000000E+00  0.00000000000E+00  0.11600790450E+04  0.11600790450E+04  0.50400001928E-02 0. -1.
        1   -1    0    0  501    0  0.00000000000E+00  0.00000000000E+00 -0.13686487729E+04  0.13686487730E+04  0.50400001928E-02 0.  1.
    10030    2    1    2    0    0  0.00000000000E+00  0.00000000000E+00 -0.20856972796E+03  0.25287278179E+04  0.25201117130E+04 0.  0.
        5    1    3    3  502    0 -0.11382619871E+04  0.27322338362E+02 -0.64588185990E+03  0.13090348844E+04  0.46999998093E+01 0.  1.
       -5    1    3    3    0  502  0.11382619871E+04 -0.27322338362E+02  0.43731213194E+03  0.12196929336E+04  0.46999998093E+01 0. -1.
</event>
<event>
 5   0  0.7071821E-05  0.2510795E+04  0.7818609E-02  0.8399150E-01
        2   -1    0    0  501    0  0.00000000000E+00  0.00000000000E+00  0.18776480117E+04  0.18776480117E+04  0.25500000920E-02 0.  1.
       -2   -1    0    0    0  501  0.00000000000E+00  0.00000000000E+00 -0.83936005990E+03  0.83936005990E+03  0.25500000920E-02 0. -1.
    10030    2    1    2    0    0  0.00000000000E+00  0.00000000000E+00  0.10382879518E+04  0.27170080716E+04  0.25107948921E+04 0.  0.
        5    1    3    3  502    0  0.36967317774E+03 -0.74867097461E+03 -0.49531189439E+03  0.97083595385E+03  0.46999998093E+01 0. -1.
       -5    1    3    3    0  502 -0.36967317774E+03  0.74867097461E+03  0.15335998461E+04  0.17461721177E+04  0.46999998093E+01 0.  1.
</event>
<event>
 5   0  0.2980790E-05  0.2433901E+04  0.7818609E-02  0.8426919E-01
        1   -1    0    0  501    0  0.00000000000E+00  0.00000000000E+00  0.15435513369E+04  0.15435513369E+04  0.50400001928E-02 0. -1.
       -1   -1    0    0    0  501  0.00000000000E+00  0.00000000000E+00 -0.95945542131E+03  0.95945542132E+03  0.50400001928E-02 0.  1.
    10030    2    1    2    0    0  0.00000000000E+00  0.00000000000E+00  0.58409591558E+03  0.25030067582E+04  0.24339011469E+04 0.  0.
        5    1    3    3  502    0 -0.29817543083E+03 -0.40446027305E+03  0.14318719992E+04  0.15174901028E+04  0.46999998093E+01 0. -1.
       -5    1    3    3    0  502  0.29817543083E+03  0.40446027305E+03 -0.84777608365E+03  0.98551665538E+03  0.46999998093E+01 0.  1.
</event>
<event>
 5   0  0.6909250E-05  0.2603039E+04  0.7818609E-02  0.8367170E-01
        2   -1    0    0  501    0  0.00000000000E+00  0.00000000000E+00  0.17282524759E+04  0.17282524759E+04  0.25500000920E-02 0.  1.
       -2   -1    0    0    0  501  0.00000000000E+00  0.00000000000E+00 -0.98015389727E+03  0.98015389727E+03  0.25500000920E-02 0. -1.
    10030    2    1    2    0    0  0.00000000000E+00  0.00000000000E+00  0.74809857864E+03  0.27084063732E+04  0.26030393003E+04 0.  0.
        4    1    3    3  502    0 -0.38191302941E+03  0.33468626273E+03  0.16209225676E+04  0.16986064994E+04  0.12699999809E+01 0.  1.
       -4    1    3    3    0  502  0.38191302941E+03 -0.33468626273E+03 -0.87282398900E+03  0.10097998738E+04  0.12699999809E+01 0. -1.
</event>
<event>
 5   0  0.2896652E-05  0.2494180E+04  0.7818609E-02  0.8405062E-01
        1   -1    0    0  501    0  0.00000000000E+00  0.00000000000E+00  0.78305732834E+03  0.78305732836E+03  0.50400001928E-02 0. -1.
       -1   -1    0    0    0  501  0.00000000000E+00  0.00000000000E+00 -0.19861046770E+04  0.19861046770E+04  0.50400001928E-02 0.  1.
    10030    2    1    2    0    0  0.00000000000E+00  0.00000000000E+00 -0.12030473486E+04  0.27691620053E+04  0.24941802839E+04 0.  0.
        4    1    3    3  502    0 -0.69730153464E+03 -0.45730492689E+03 -0.16310517137E+04  0.18318538512E+04  0.12699999809E+01 0.  1.
       -4    1    3    3    0  502  0.69730153464E+03  0.45730492689E+03  0.42800436510E+03  0.93730815414E+03  0.12699999809E+01 0. -1.
</event>
<event>
 5   0  0.2793920E-05  0.2514984E+04  0.7818609E-02  0.8397667E-01
        1   -1    0    0  501    0  0.00000000000E+00  0.00000000000E+00  0.12667652786E+04  0.12667652786E+04  0.50400001928E-02 0.  1.
       -1   -1    0    0    0  501  0.00000000000E+00  0.00000000000E+00 -0.12482867372E+04  0.12482867372E+04  0.50400001928E-02 0. -1.
    10030    2    1    2    0    0  0.00000000000E+00  0.00000000000E+00  0.18478541415E+02  0.25150520158E+04  0.25149841323E+04 0.  0.
        2    1    3    3  502    0 -0.20652148336E+03 -0.66968264619E+03  0.10533748835E+04  0.12651974608E+04  0.25500000920E-02 0.  1.
       -2    1    3    3    0  502  0.20652148336E+03  0.66968264619E+03 -0.10348963421E+04  0.12498545550E+04  0.25500000920E-02 0. -1.
</event>
<event>
 5   0  0.2777539E-05  0.2526486E+04  0.7818609E-02  0.8393610E-01
       -1   -1    0    0    0  501  0.00000000000E+00  0.00000000000E+00  0.12153788059E+04  0.12153788059E+04  0.50400001928E-02 0.  1.
        1   -1    0    0  501    0  0.00000000000E+00  0.00000000000E+00 -0.13129918595E+04  0.13129918595E+04  0.50400001928E-02 0. -1.
    10030    2    1    2    0    0  0.00000000000E+00  0.00000000000E+00 -0.97613053599E+02  0.25283706654E+04  0.25264856844E+04 0.  0.
        3    1    3    3  502    0 -0.88416416887E+03  0.74877952668E+02  0.85099136836E+03  0.12294467473E+04  0.10100000352E+00 0.  1.
       -3    1    3    3    0  502  0.88416416887E+03 -0.74877952668E+02 -0.94860442196E+03  0.12989239180E+04  0.10100000352E+00 0. -1.
</event>
<event>
 5   0  0.6827859E-05  0.2366085E+04  0.7818609E-02  0.8452311E-01
        2   -1    0    0  501    0  0.00000000000E+00  0.00000000000E+00  0.25614426305E+04  0.25614426305E+04  0.25500000920E-02 0.  1.
       -2   -1    0    0    0  501  0.00000000000E+00  0.00000000000E+00 -0.54640681621E+03  0.54640681622E+03  0.25500000920E-02 0. -1.
    10030    2    1    2    0    0  0.00000000000E+00  0.00000000000E+00  0.20150358143E+04  0.31078494467E+04  0.23660851317E+04 0.  0.
        3    1    3    3  502    0 -0.11422507378E+03  0.10735850270E+04  0.37218973354E+03  0.11419971041E+04  0.10100000352E+00 0. -1.
       -3    1    3    3    0  502  0.11422507378E+03 -0.10735850270E+04  0.16428460807E+04  0.19658523426E+04  0.10100000352E+00 0.  1.
</event>
<event>
 5   0  0.2793920E-05  0.2211862E+04  0.7818609E-02  0.8513507E-01
       -1   -1    0    0    0  501  0.00000000000E+00  0.00000000000E+00  0.11184107686E+04  0.11184107686E+04  0.50400001928E-02 0. -1.
        1   -1    0    0  501    0  0.00000000000E+00  0.00000000000E+00 -0.10935905855E+04  0.10935905855E+04  0.50400001928E-02 0.  1.
    10030    2    1    2    0    0  0.00000000000E+00  0.00000000000E+00  0.24820183122E+02  0.22120013541E+04  0.22118620999E+04 0.  0.
        2    1    3    3  502    0 -0.60955571971E+03  0.83447873013E+03 -0.38153165516E+03  0.11015803785E+04  0.25500000920E-02 0.  1.
       -2    1    3    3    0  502  0.60955571971E+03 -0.83447873013E+03  0.40635183829E+03  0.11104209756E+04  0.25500000920E-02 0. -1.
</event>
<event>
 5   0  0.2793920E-05  0.2478369E+04  0.7818609E-02  0.8410733E-01
        1   -1    0    0  501    0  0.00000000000E+00  0.00000000000E+00  0.18160201910E+04  0.18160201910E+04  0.50400001928E-02 0.  1.
       -1   -1    0    0    0  501  0.00000000000E+00  0.00000000000E+00 -0.84557300418E+03  0.84557300419E+03  0.50400001928E-02 0. -1.
    10030    2    1    2    0    0  0.00000000000E+00  0.00000000000E+00  0.97044718680E+03  0.26615931952E+04  0.24783685348E+04 0.  0.
        2    1    3    3  502    0 -0.88771753889E+03 -0.39892954136E+03 -0.33855138234E+03  0.10304388610E+04  0.25500000920E-02 0.  1.
       -2    1    3    3    0  502  0.88771753889E+03  0.39892954136E+03  0.13089985691E+04  0.16311543342E+04  0.25500000920E-02 0. -1.
</event>
<event>
 5   0  0.7071821E-05  0.2395795E+04  0.7818609E-02  0.8441079E-01
        2   -1    0    0  501    0  0.00000000000E+00  0.00000000000E+00  0.15319957539E+04  0.15319957539E+04  0.25500000920E-02 0. -1.
       -2   -1    0    0    0  501  0.00000000000E+00  0.00000000000E+00 -0.93665980853E+03  0.93665980853E+03  0.25500000920E-02 0.  1.
    10030    2    1    2    0    0  0.00000000000E+00  0.00000000000E+00  0.59533594540E+03  0.24686555625E+04  0.23957953582E+04 0.  0.
        5    1    3    3  502    0  0.45738496365E+03  0.10739711071E+04  0.57477366114E+03  0.13011540244E+04  0.46999998093E+01 0. -1.
       -5    1    3    3    0  502 -0.45738496365E+03 -0.10739711071E+04  0.20562284258E+02  0.11675015380E+04  0.46999998093E+01 0.  1.
</event>
<event>
 5   0  0.6909250E-05  0.2586414E+04  0.7818609E-02  0.8372831E-01
       -2   -1    0    0    0  501  0.00000000000E+00  0.00000000000E+00  0.13989865903E+04  0.13989865903E+04  0.25500000920E-02 0.  1.
        2   -1    0    0  501    0  0.00000000000E+00  0.00000000000E+00 -0.11954257528E+04  0.11954257528E+04  0.25500000920E-02 0. -1.
    10030    2    1    2    0    0  0.00000000000E+00  0.00000000000E+00  0.20356083753E+03  0.25944123431E+04  0.25864141957E+04 0.  0.
        4    1    3    3  502    0  0.82186139362E+03  0.57801441771E+03  0.91843941272E+03  0.13612822577E+04  0.12699999809E+01 0.  1.
       -4    1    3    3    0  502 -0.82186139362E+03 -0.57801441771E+03 -0.71487857519E+03  0.12331300854E+04  0.12699999809E+01 0. -1.
</event>
<event>
 5   0  0.2793920E-05  0.2414286E+04  0.7818609E-02  0.8434174E-01
       -1   -1    0    0    0  501  0.00000000000E+00  0.00000000000E+00  0.14382374505E+04  0.14382374505E+04  0.50400001928E-02 0. -1.
        1   -1    0    0  501    0  0.00000000000E+00  0.00000000000E+00 -0.10131804119E+04  0.10131804120E+04  0.50400001928E-02 0.  1.
    10030    2    1    2    0    0  0.00000000000E+00  0.00000000000E+00  0.42505703852E+03  0.24514178624E+04  0.24142858261E+04 0.  0.
        2    1    3    3  502    0 -0.13599650957E+03  0.60371670031E+03 -0.83986050737E+03  0.10432327529E+04  0.25500000920E-02 0.  1.
       -2    1    3    3    0  502  0.13599650957E+03 -0.60371670031E+03  0.12649175459E+04  0.14081851096E+04  0.25500000920E-02 0. -1.
</event>
<event>
 5   0  0.2777539E-05  0.1554158E+04  0.7818609E-02  0.8849216E-01
       -1   -1    0    0    0  501  0.00000000000E+00  0.00000000000E+00  0.13150131346E+04  0.13150131346E+04  0.50400001928E-02 0.  1.
        1   -1    0    0  501    0  0.00000000000E+00  0.00000000000E+00 -0.45919824387E+03  0.45919824390E+03  0.50400001928E-02 0. -1.
    10030    2    1    2    0    0  0.00000000000E+00  0.00000000000E+00  0.85581489070E+03  0.17742113785E+04  0.15541579355E+04 0.  0.
        3    1    3    3  502    0  0.70942173864E+02  0.71168871647E+03  0.77476696384E+03  0.10544180763E+04  0.10100000352E+00 0.  1.
       -3    1    3    3    0  502 -0.70942173864E+02 -0.71168871647E+03  0.81047926857E+02  0.71979330216E+03  0.10100000352E+00 0. -1.
</event>
<event>
 5   0  0.2777539E-05  0.2517120E+04  0.7818609E-02  0.8396912E-01
       -1   -1    0    0    0  501  0.00000000000E+00  0.00000000000E+00  0.14729895451E+04  0.14729895451E+04  0.50400001928E-02 0.  1.
        1   -1    0    0  501    0  0.00000000000E+00  0.00000000000E+00 -0.10753456565E+04  0.10753456565E+04  0.50400001928E-02 0. -1.
    10030    2    1    2    0    0  0.00000000000E+00  0.00000000000E+00  0.39764388865E+03  0.25483352016E+04  0.25171197106E+04 0.  0.
        3    1    3    3  502    0 -0.22429336400E+03 -0.80186054411E+03  0.11542869057E+04  0.14232589772E+04  0.10100000352E+00 0.  1.
       -3    1    3    3    0  502  0.22429336400E+03  0.80186054411E+03 -0.75664301705E+03  0.11250762244E+04  0.10100000352E+00 0. -1.
</event>
<event>
 5   0  0.6648328E-05  0.2437969E+04  0.7818609E-02  0.8425424E-01
        2   -1    0    0  501    0  0.00000000000E+00  0.00000000000E+00  0.75224608174E+03  0.75224608175E+03  0.25500000920E-02 0. -1.
       -2   -1    0    0    0  501  0.00000000000E+00  0.00000000000E+00 -0.19753153044E+04  0.19753153044E+04  0.25500000920E-02 0.  1.
    10030    2    1    2    0    0  0.00000000000E+00  0.00000000000E+00 -0.12230692227E+04  0.27275613862E+04  0.24379689891E+04 0.  0.
        2    1    3    3  502    0  0.89909264879E+03 -0.80742053968E+03 -0.79063684157E+03  0.14440921488E+04  0.25500000920E-02 0. -1.
       -2    1    3    3    0  502 -0.89909264879E+03  0.80742053968E+03 -0.43243238111E+03  0.12834692374E+04  0.25500000920E-02 0.  1.
</event>
<event>
 5   0  0.2977854E-05  0.2449806E+04  0.7818609E-02  0.8421089E-01
        1   -1    0    0  501    0  0.00000000000E+00  0.00000000000E+00  0.17188424018E+04  0.17188424018E+04  0.50400001928E-02 0. -1.
       -1   -1    0    0    0  501  0.00000000000E+00  0.00000000000E+00 -0.87290549128E+03  0.87290549129E+03  0.50400001928E-02 0.  1.
    10030    2    1    2    0    0  0.00000000000E+00  0.00000000000E+00  0.84593691054E+03  0.25917478931E+04  0.24498056831E+04 0.  0.
        1    1    3    3  502    0  0.16223012445E+03  0.45000618700E+03 -0.77000291579E+03  0.90649251071E+03  0.50400001928E-02 0.  1.
       -1    1    3    3    0  502 -0.16223012445E+03 -0.45000618700E+03  0.16159398263E+04  0.16852553824E+04  0.50400001928E-02 0. -1.
</event>
<event>
 5   0  0.7071821E-05  0.2631636E+04  0.7818609E-02  0.8357534E-01
       -2   -1    0    0    0  501  0.00000000000E+00  0.00000000000E+00  0.17371015494E+04  0.17371015494E+04  0.25500000920E-02 0.  1.
        2   -1    0    0  501    0  0.00000000000E+00  0.00000000000E+00 -0.99670428156E+03  0.99670428156E+03  0.25500000920E-02 0. -1.
    10030    2    1    2    0    0  0.00000000000E+00  0.00000000000E+00  0.74039726785E+03  0.27338058310E+04  0.26316356525E+04 0.  0.
        5    1    3    3  502    0 -0.14990357899E+03  0.17778680461E+03  0.17155758569E+04  0.17312717411E+04  0.46999998093E+01 0.  1.
       -5    1    3    3    0  502  0.14990357899E+03 -0.17778680461E+03 -0.97517858902E+03  0.10025340899E+04  0.46999998093E+01 0. -1.
</event>
<event>
 5   0  0.2777539E-05  0.2527738E+04  0.7818609E-02  0.8393170E-01
        1   -1    0    0  501    0  0.00000000000E+00  0.00000000000E+00  0.24938774313E+04  0.24938774314E+04  0.50400001928E-02 0.  1.
       -1   -1    0    0    0  501  0.00000000000E+00  0.00000000000E+00 -0.64051476625E+03  0.64051476627E+03  0.50400001928E-02 0. -1.
    10030    2    1    2    0    0  0.00000000000E+00  0.00000000000E+00  0.18533626651E+04  0.31343921976E+04  0.25277383726E+04 0.  0.
        3    1    3    3  502    0  0.10885972630E+04  0.56641891881E+03  0.55161316471E+03  0.13454187030E+04  0.10100000352E+00 0. -1.
       -3    1    3    3    0  502 -0.10885972630E+04 -0.56641891881E+03  0.13017495004E+04  0.17889734947E+04  0.10100000352E+00 0.  1.
</event>
<event>
 5   0  0.6648328E-05  0.2413377E+04  0.7818609E-02  0.8434512E-01
        2   -1    0    0  501    0  0.00000000000E+00  0.00000000000E+00  0.16402078327E+04  0.16402078327E+04  0.25500000920E-02 0. -1.
       -2   -1    0    0    0  501  0.00000000000E+00  0.00000000000E+00 -0.88775188223E+03  0.88775188223E+03  0.25500000920E-02 0.  1.
    10030    2    1    2    0    0  0.00000000000E+00  0.00000000000E+00  0.75245595047E+03  0.25279597149E+04  0.24133773768E+04 0.  0.
        2    1    3    3  502    0  0.11729331085E+04 -0.27998992143E+02  0.67164940212E+03  0.13519130667E+04  0.25500000920E-02 0. -1.
       -2    1    3    3    0  502 -0.11729331085E+04  0.27998992143E+02  0.80806548354E+02  0.11760466482E+04  0.25500000920E-02 0.  1.
</event>
<event>
 5   0  0.2331375E-05  0.1945604E+04  0.7818609E-02  0.8632484E-01
        3   -1    0    0  501    0  0.00000000000E+00  0.00000000000E+00  0.15979653090E+04  0.15979653122E+04  0.10100000352E+00 0. -1.
       -3   -1    0    0    0  501  0.00000000000E+00  0.00000000000E+00 -0.59221792311E+03  0.59221793172E+03  0.10100000352E+00 0.  1.
    10030    2    1    2    0    0  0.00000000000E+00  0.00000000000E+00  0.10057473859E+04  0.21901832439E+04  0.19456039776E+04 0.  0.
        5    1    3    3  502    0  0.46394203958E+03  0.72355886805E+03  0.10157102450E+04  0.13305897352E+04  0.46999998093E+01 0. -1.
       -5    1    3    3    0  502 -0.46394203958E+03 -0.72355886805E+03 -0.99628591437E+01  0.85959350869E+03  0.46999998093E+01 0.  1.
</event>
<event>
 5   0  0.7071821E-05  0.2676501E+04  0.7818609E-02  0.8342670E-01
        2   -1    0    0  501    0  0.00000000000E+00  0.00000000000E+00  0.14286574634E+04  0.14286574634E+04  0.25500000920E-02 0. -1.
       -2   -1    0    0    0  501  0.00000000000E+00  0.00000000000E+00 -0.12535644172E+04  0.12535644172E+04  0.25500000920E-02 0.  1.
    10030    2    1    2    0    0  0.00000000000E+00  0.00000000000E+00  0.17509304624E+03  0.26822218805E+04  0.26765008204E+04 0.  0.
        5    1    3    3  502    0  0.67156210333E+03  0.21878940442E+03 -0.10515570577E+04  0.12667512770E+04  0.46999998093E+01 0.  1.
       -5    1    3    3    0  502 -0.67156210333E+03 -0.21878940442E+03  0.12266501039E+04  0.14154706036E+04  0.46999998093E+01 0. -1.
</event>
<event>
 5   0  0.2977854E-05  0.2394132E+04  0.7818609E-02  0.8441704E-01
       -1   -1    0    0    0  501  0.00000000000E+00  0.00000000000E+00  0.67989896235E+03  0.67989896237E+03  0.50400001928E-02 0.  1.
        1   -1    0    0  501    0  0.00000000000E+00  0.00000000000E+00 -0.21076179002E+04  0.21076179002E+04  0.50400001928E-02 0. -1.
    10030    2    1    2    0    0  0.00000000000E+00  0.00000000000E+00 -0.14277189378E+04  0.27875168625E+04  0.23941321796E+04 0.  0.
        1    1    3    3  502    0 -0.67540529050E+03  0.97210148898E+03 -0.50618846159E+03  0.12873928577E+04  0.50400001928E-02 0. -1.
       -1    1    3    3    0  502  0.67540529050E+03 -0.97210148898E+03 -0.92153047621E+03  0.15001240049E+04  0.50400001928E-02 0.  1.
</event>
<event>
 5   0  0.2896652E-05  0.2467436E+04  0.7818609E-02  0.8414679E-01
        1   -1    0    0  501    0  0.00000000000E+00  0.00000000000E+00  0.17340589519E+04  0.17340589519E+04  0.50400001928E-02 0. -1.
       -1   -1    0    0    0  501  0.00000000000E+00  0.00000000000E+00 -0.87774384907E+03  0.87774384908E+03  0.50400001928E-02 0.  1.
    10030    2    1    2    0    0  0.00000000000E+00  0.00000000000E+00  0.85631510284E+03  0.26118028010E+04  0.24674355748E+04 0.  0.
        4    1    3    3  502    0 -0.43243083942E+03 -0.84573219230E+03 -0.40517789407E+03  0.10326810305E+04  0.12699999809E+01 0.  1.
       -4    1    3    3    0  502  0.43243083942E+03  0.84573219230E+03  0.12614929969E+04  0.15791217705E+04  0.12699999809E+01 0. -1.
</event>
<event>
 5   0  0.6827859E-05  0.2555501E+04  0.7818609E-02  0.8383476E-01
        2   -1    0    0  501    0  0.00000000000E+00  0.00000000000E+00  0.17503730655E+04  0.17503730655E+04  0.25500000920E-02 0.  1.
       -2   -1    0    0    0  501  0.00000000000E+00  0.00000000000E+00 -0.93274185389E+03  0.93274185389E+03  0.25500000920E-02 0. -1.
    10030    2    1    2    0    0  0.00000000000E+00  0.00000000000E+00  0.81763121161E+03  0.26831149194E+04  0.25555009044E+04 0.  0.
        3    1    3    3  502    0 -0.57940107966E+03 -0.85493592152E+03 -0.38110074923E+03  0.11008445995E+04  0.10100000352E+00 0. -1.
       -3    1    3    3    0  502  0.57940107966E+03  0.85493592152E+03  0.11987319608E+04  0.15822703199E+04  0.10100000352E+00 0.  1.
</event>
<event>
 5   0  0.2980790E-05  0.2467105E+04  0.7818609E-02  0.8414799E-01
       -1   -1    0    0    0  501  0.00000000000E+00  0.00000000000E+00  0.73460623111E+03  0.73460623113E+03  0.50400001928E-02 0.  1.
        1   -1    0    0  501    0  0.00000000000E+00  0.00000000000E+00 -0.20713837016E+04  0.20713837016E+04  0.50400001928E-02 0. -1.
    10030    2    1    2    0    0  0.00000000000E+00  0.00000000000E+00 -0.13367774705E+04  0.28059899327E+04  0.24671046790E+04 0.  0.
        5    1    3    3  502    0  0.60779760945E+03  0.30418477221E+02  0.55197742329E+03  0.82161084683E+03  0.46999998093E+01 0.  1.
       -5    1    3    3    0  502 -0.60779760945E+03 -0.30418477221E+02 -0.18887548938E+04  0.19843790859E+04  0.46999998093E+01 0. -1.
</event>
<event>
 5   0  0.6445331E-05  0.2477821E+04  0.7818609E-02  0.8410930E-01
        2   -1    0    0  501    0  0.00000000000E+00  0.00000000000E+00  0.15699706295E+04  0.15699706295E+04  0.25500000920E-02 0.  1.
       -2   -1    0    0    0  501  0.00000000000E+00  0.00000000000E+00 -0.97766097374E+03  0.97766097375E+03  0.25500000920E-02 0. -1.
    10030    2    1    2    0    0  0.00000000000E+00  0.00000000000E+00  0.59230965579E+03  0.25476316033E+04  0.24778208284E+04 0.  0.
        1    1    3    3  502    0 -0.10172713973E+04  0.37244046534E+03 -0.32190193825E+03  0.11301211678E+04  0.50400001928E-02 0. -1.
       -1    1    3    3    0  502  0.10172713973E+04 -0.37244046534E+03  0.91421159405E+03  0.14175104355E+04  0.50400001928E-02 0.  1.
</event>
<event>
 5   0  0.2977854E-05  0.2496820E+04  0.7818609E-02  0.8404119E-01
       -1   -1    0    0    0  501  0.00000000000E+00  0.00000000000E+00  0.67522616767E+03  0.67522616769E+03  0.50400001928E-02 0.  1.
        1   -1    0    0  501    0  0.00000000000E+00  0.00000000000E+00 -0.23081564659E+04  0.23081564659E+04  0.50400001928E-02 0. -1.
    10030    2    1    2    0    0  0.00000000000E+00  0.00000000000E+00 -0.16329302982E+04  0.29833826336E+04  0.24968200936E+04 0.  0.
        1    1    3    3  502    0 -0.47987437604E+03 -0.81169662243E+03 -0.17940704088E+04  0.20267756302E+04  0.50400001928E-02 0. -1.
       -1    1    3    3    0  502  0.47987437604E+03  0.81169662243E+03  0.16114011054E+03  0.95660700337E+03  0.50400001928E-02 0.  1.
</event>
<event>
 5   0  0.6648328E-05  0.2568054E+04  0.7818609E-02  0.8379134E-01
       -2   -1    0    0    0  501  0.00000000000E+00  0.00000000000E+00  0.74947881073E+03  0.74947881073E+03  0.25500000920E-02 0. -1.
        2   -1    0    0  501    0  0.00000000000E+00  0.00000000000E+00 -0.21998287293E+04  0.21998287293E+04  0.25500000920E-02 0.  1.
    10030    2    1    2    0    0  0.00000000000E+00  0.00000000000E+00 -0.14503499186E+04  0.29493075400E+04  0.25680537532E+04 0.  0.
        2    1    3    3  502    0 -0.36774833357E+03  0.13287434542E+03  0.67943957045E+03  0.78392127055E+03  0.25500000920E-02 0. -1.
       -2    1    3    3    0  502  0.36774833357E+03 -0.13287434542E+03 -0.21297894890E+04  0.21653862695E+04  0.25500000920E-02 0.  1.
</event>
<event>
 5   0  0.2777539E-05  0.2478333E+04  0.7818609E-02  0.8410745E-01
       -1   -1    0    0    0  501  0.00000000000E+00  0.00000000000E+00  0.11649147064E+04  0.11649147065E+04  0.50400001928E-02 0.  1.
        1   -1    0    0  501    0  0.00000000000E+00  0.00000000000E+00 -0.13181511539E+04  0.13181511540E+04  0.50400001928E-02 0. -1.
    10030    2    1    2    0    0  0.00000000000E+00  0.00000000000E+00 -0.15323644750E+03  0.24830658604E+04  0.24783330402E+04 0.  0.
        3    1    3    3  502    0 -0.10396311700E+04 -0.65540752610E+03  0.82245794085E+02  0.12317290188E+04  0.10100000352E+00 0. -1.
       -3    1    3    3    0  502  0.10396311700E+04  0.65540752610E+03 -0.23548224159E+03  0.12513368416E+04  0.10100000352E+00 0.  1.
</event>
<event>
 5   0  0.6909250E-05  0.2716081E+04  0.7818609E-02  0.8329806E-01
        2   -1    0    0  501    0  0.00000000000E+00  0.00000000000E+00  0.22920818856E+04  0.22920818856E+04  0.25500000920E-02 0.  1.
       -2   -1    0    0    0  501  0.00000000000E+00  0.00000000000E+00 -0.80462808688E+03  0.80462808688E+03  0.25500000920E-02 0. -1.
    10030    2    1    2    0    0  0.00000000000E+00  0.00000000000E+00  0.14874537987E+04  0.30967099725E+04  0.27160806046E+04 0.  0.
        4    1    3    3  502    0  0.98864859792E+03  0.23736485918E+03 -0.28271739629E+03  0.10553193193E+04  0.12699999809E+01 0. -1.
       -4    1    3    3    0  502 -0.98864859792E+03 -0.23736485918E+03  0.17701711950E+04  0.20413906533E+04  0.12699999809E+01 0.  1.
</event>
<event>
 5   0  0.6445331E-05  0.2419844E+04  0.7818609E-02  0.8432111E-01
        2   -1    0    0  501    0  0.00000000000E+00  0.00000000000E+00  0.12422146055E+04  0.12422146055E+04  0.25500000920E-02 0. -1.
       -2   -1    0    0    0  501  0.00000000000E+00  0.00000000000E+00 -0.11784691201E+04  0.11784691201E+04  0.25500000920E-02 0.  1.
    10030    2    1    2    0    0  0.00000000000E+00  0.00000000000E+00  0.63745485409E+02  0.24206837257E+04  0.24198442539E+04 0.  0.
        1    1    3    3  502    0  0.25878498121E+03  0.20519652885E+03 -0.11325053964E+04  0.11796795137E+04  0.50400001928E-02 0.  1.
       -1    1    3    3    0  502 -0.25878498121E+03 -0.20519652885E+03  0.11962508818E+04  0.12410042120E+04  0.50400001928E-02 0. -1.
</event>
<event>
 5   0  0.2777539E-05  0.2559901E+04  0.7818609E-02  0.8381951E-01
        1   -1    0    0  501    0  0.00000000000E+00  0.00000000000E+00  0.17569911386E+04  0.17569911386E+04  0.50400001928E-02 0. -1.
       -1   -1    0    0    0  501  0.00000000000E+00  0.00000000000E+00 -0.93243149112E+03  0.93243149114E+03  0.50400001928E-02 0.  1.
    10030    2    1    2    0    0  0.00000000000E+00  0.00000000000E+00  0.82455964750E+03  0.26894226298E+04  0.25599014569E+04 0.  0.
        3    1    3    3  502    0  0.54247118520E+03 -0.55637044370E+03  0.14808196832E+04  0.16723187501E+04  0.10100000352E+00 0. -1.
       -3    1    3    3    0  502 -0.54247118520E+03  0.55637044370E+03 -0.65626003573E+03  0.10171038797E+04  0.10100000352E+00 0.  1.
</event>
<event>
 5   0  0.2980790E-05  0.2431170E+04  0.7818609E-02  0.8427925E-01
       -1   -1    0    0    0  501  0.00000000000E+00  0.00000000000E+00  0.97745426857E+03  0.97745426858E+03  0.50400001928E-02 0.  1.
        1   -1    0    0  501    0  0.00000000000E+00  0.00000000000E+00 -0.15117298474E+04  0.15117298474E+04  0.50400001928E-02 0. -1.
    10030    2    1    2    0    0  0.00000000000E+00  0.00000000000E+00 -0.53427557880E+03  0.24891841160E+04  0.24311699178E+04 0.  0.
        5    1    3    3  502    0 -0.10690496051E+04 -0.38894083445E+03 -0.70570810663E+03  0.13387262799E+04  0.46999998093E+01 0. -1.
       -5    1    3    3    0  502  0.10690496051E+04  0.38894083445E+03  0.17143252784E+03  0.11504578360E+04  0.46999998093E+01 0.  1.
</event>
<event>
 5   0  0.2777539E-05  0.1852250E+04  0.7818609E-02  0.8678997E-01
        1   -1    0    0  501    0  0.00000000000E+00  0.00000000000E+00  0.81085381391E+03  0.81085381392E+03  0.50400001928E-02 0. -1.
       -1   -1    0    0    0  501  0.00000000000E+00  0.00000000000E+00 -0.10577826900E+04  0.10577826900E+04  0.50400001928E-02 0.  1.
    10030    2    1    2    0    0  0.00000000000E+00  0.00000000000E+00 -0.24692887606E+03  0.18686365039E+04  0.18522495820E+04 0.  0.
        3    1    3    3  502    0 -0.49725659652E+03 -0.50086776528E+03 -0.72841481537E+03  0.10142587414E+04  0.10100000352E+00 0.  1.
       -3    1    3    3    0  502  0.49725659652E+03  0.50086776528E+03  0.48148593931E+03  0.85437776249E+03  0.10100000352E+00 0. -1.
</event>
<event>
 5   0  0.2980790E-05  0.1403561E+04  0.7818609E-02  0.8951245E-01
       -1   -1    0    0    0  501  0.00000000000E+00  0.00000000000E+00  0.35360631669E+03  0.35360631672E+03  0.50400001928E-02 0. -1.
        1   -1    0    0  501    0  0.00000000000E+00  0.00000000000E+00 -0.13927793543E+04  0.13927793543E+04  0.50400001928E-02 0.  1.
    10030    2    1    2    0    0  0.00000000000E+00  0.00000000000E+00 -0.10391730376E+04  0.17463856710E+04  0.14035605829E+04 0.  0.
        5    1    3    3  502    0 -0.28436566684E+02 -0.54439341891E+03  0.30284519099E+02  0.54599640564E+03  0.46999998093E+01 0. -1.
       -5    1    3    3    0  502  0.28436566684E+02  0.54439341891E+03 -0.10694575567E+04  0.12003892654E+04  0.46999998093E+01 0.  1.
</event>
<event>
 5   0  0.6648328E-05  0.2530628E+04  0.7818609E-02  0.8392155E-01
        2   -1    0    0  501    0  0.00000000000E+00  0.00000000000E+00  0.12197748613E+04  0.12197748613E+04  0.25500000920E-02 0. -1.
       -2   -1    0    0    0  501  0.00000000000E+00  0.00000000000E+00 -0.13125531334E+04  0.13125531334E+04  0.25500000920E-02 0.  1.
    10030    2    1    2    0    0  0.00000000000E+00  0.00000000000E+00 -0.92778272101E+02  0.25323279946E+04  0.25306278400E+04 0.  0.
        2    1    3    3  502    0 -0.86146051047E+03 -0.34397493416E+03 -0.90754056406E+03  0.12977144685E+04  0.25500000920E-02 0.  1.
       -2    1    3    3    0  502  0.86146051047E+03  0.34397493416E+03  0.81476229195E+03  0.12346135261E+04  0.25500000920E-02 0. -1.
</event>
<event>
 5   0  0.2777539E-05  0.2080308E+04  0.7818609E-02  0.8569968E-01
        1   -1    0    0  501    0  0.00000000000E+00  0.00000000000E+00  0.78554469272E+03  0.78554469273E+03  0.50400001928E-02 0.  1.
       -1   -1    0    0    0  501  0.00000000000E+00  0.00000000000E+00 -0.13772870260E+04  0.13772870260E+04  0.50400001928E-02 0. -1.
    10030    2    1    2    0    0  0.00000000000E+00  0.00000000000E+00 -0.59174233324E+03  0.21628317187E+04  0.20803081633E+04 0.  0.
        3    1    3    3  502    0  0.80724485992E+03 -0.30888008576E+03 -0.89750568374E+03  0.12460207197E+04  0.10100000352E+00 0. -1.
       -3    1    3    3    0  502 -0.80724485992E+03  0.30888008576E+03  0.30576335051E+03  0.91681099904E+03  0.10100000352E+00 0.  1.
</event>
<event>
 5   0  0.6445331E-05  0.1251694E+04  0.7818609E-02  0.9068774E-01
       -2   -1    0    0    0  501  0.00000000000E+00  0.00000000000E+00  0.52291264392E+03  0.52291264392E+03  0.25500000920E-02 0.  1.
        2   -1    0    0  501    0  0.00000000000E+00  0.00000000000E+00 -0.74904415673E+03  0.74904415674E+03  0.25500000920E-02 0. -1.
    10030    2    1    2    0    0  0.00000000000E+00  0.00000000000E+00 -0.22613151282E+03  0.12719568007E+04  0.12516943084E+04 0.  0.
        1    1    3    3  502    0 -0.60956991454E+03 -0.13950331669E+03 -0.87197745869E+02  0.63137952374E+03  0.50400001928E-02 0. -1.
       -1    1    3    3    0  502  0.60956991454E+03  0.13950331669E+03 -0.13893376695E+03  0.64057727692E+03  0.50400001928E-02 0.  1.
</event>
<event>
 5   0  0.6909250E-05  0.2481703E+04  0.7818609E-02  0.8409533E-01
       -2   -1    0    0    0  501  0.00000000000E+00  0.00000000000E+00  0.63451012068E+03  0.63451012068E+03  0.25500000920E-02 0. -1.
        2   -1    0    0  501    0  0.00000000000E+00  0.00000000000E+00 -0.24266154111E+04  0.24266154111E+04  0.25500000920E-02 0.  1.
    10030    2    1    2    0    0  0.00000000000E+00  0.00000000000E+00 -0.17921052904E+04  0.30611255317E+04  0.24817026714E+04 0.  0.
        4    1    3    3  502    0  0.63938188981E+02 -0.11339230833E+04 -0.27951010220E+03  0.11696141077E+04  0.12699999809E+01 0. -1.
       -4    1    3    3    0  502 -0.63938188981E+02  0.11339230833E+04 -0.15125951882E+04  0.18915114240E+04  0.12699999809E+01 0.  1.
</event>
<event>
 5   0  0.2777539E-05  0.2451947E+04  0.7818609E-02  0.8420308E-01
        1   -1    0    0  501    0  0.00000000000E+00  0.00000000000E+00  0.13692895218E+04  0.13692895218E+04  0.50400001928E-02 0. -1.
       -1   -1    0    0    0  501  0.00000000000E+00  0.00000000000E+00 -0.10976571993E+04  0.10976571993E+04  0.50400001928E-02 0.  1.
    10030    2    1    2    0    0  0.00000000000E+00  0.00000000000E+00  0.27163232245E+03  0.24669467211E+04  0.24519465749E+04 0.  0.
        3    1    3    3  502    0  0.10333338086E+04  0.22728009419E+03 -0.48730742639E+03  0.11648620258E+04  0.10100000352E+00 0.  1.
       -3    1    3    3    0  502 -0.10333338086E+04 -0.22728009419E+03  0.75893974884E+03  0.13020846953E+04  0.10100000352E+00 0. -1.
</event>
<event>
 5   0  0.6827859E-05  0.1435609E+04  0.7818609E-02  0.8928438E-01
        2   -1    0    0  501    0  0.00000000000E+00  0.00000000000E+00  0.38706814318E+03  0.38706814319E+03  0.25500000920E-02 0. -1.
       -2   -1    0    0    0  501  0.00000000000E+00  0.00000000000E+00 -0.13311443948E+04  0.13311443948E+04  0.25500000920E-02 0.  1.
    10030    2    1    2    0    0  0.00000000000E+00  0.00000000000E+00 -0.94407625164E+03  0.17182125380E+04  0.14356094026E+04 0.  0.
        3    1    3    3  502    0 -0.84836192022E+02  0.39870621042E+03 -0.11791740848E+04  0.12476439213E+04  0.10100000352E+00 0.  1.
       -3    1    3    3    0  502  0.84836192022E+02 -0.39870621042E+03  0.23509783319E+03  0.47056861676E+03  0.10100000352E+00 0. -1.
</event>
<event>
 5   0  0.6445331E-05  0.2482915E+04  0.7818609E-02  0.8409097E-01
       -2   -1    0    0    0  501  0.00000000000E+00  0.00000000000E+00  0.14708681511E+04  0.14708681511E+04  0.25500000920E-02 0. -1.
        2   -1    0    0  501    0  0.00000000000E+00  0.00000000000E+00 -0.10478282459E+04  0.10478282459E+04  0.25500000920E-02 0.  1.
    10030    2    1    2    0    0  0.00000000000E+00  0.00000000000E+00  0.42303990523E+03  0.25186963971E+04  0.24829153790E+04 0.  0.
        1    1    3    3  502    0 -0.46923976198E+03  0.11405408332E+04  0.35568714994E+03  0.12835625014E+04  0.50400001928E-02 0. -1.
       -1    1    3    3    0  502  0.46923976198E+03 -0.11405408332E+04  0.67352755289E+02  0.12351338956E+04  0.50400001928E-02 0.  1.
</event>
<event>
 5   0  0.2793920E-05  0.2505649E+04  0.7818609E-02  0.8400976E-01
        1   -1    0    0  501    0  0.00000000000E+00  0.00000000000E+00  0.80410081575E+03  0.80410081576E+03  0.50400001928E-02 0.  1.
       -1   -1    0    0    0  501  0.00000000000E+00  0.00000000000E+00 -0.19519557238E+04  0.19519557238E+04  0.50400001928E-02 0. -1.
    10030    2    1    2    0    0  0.00000000000E+00  0.00000000000E+00 -0.11478549080E+04  0.27560565395E+04  0.25056489697E+04 0.  0.
        2    1    3    3  502    0  0.84711066124E+03  0.92080166202E+03 -0.64433217130E+03  0.14073507452E+04  0.25500000920E-02 0.  1.
       -2    1    3    3    0  502 -0.84711066124E+03 -0.92080166202E+03 -0.50352273674E+03  0.13487057943E+04  0.25500000920E-02 0. -1.
</event>
<event>
 5   0  0.2980790E-05  0.2508337E+04  0.7818609E-02  0.8400021E-01
        1   -1    0    0  501    0  0.00000000000E+00  0.00000000000E+00  0.19515512323E+04  0.19515512323E+04  0.50400001928E-02 0.  1.
       -1   -1    0    0    0  501  0.00000000000E+00  0.00000000000E+00 -0.80599400695E+03  0.80599400697E+03  0.50400001928E-02 0. -1.
    10030    2    1    2    0    0  0.00000000000E+00  0.00000000000E+00  0.11455572254E+04  0.27575452393E+04  0.25083369770E+04 0.  0.
        5    1    3    3  502    0  0.47488262655E+02 -0.10772073084E+04  0.12769526391E+04  0.16713051346E+04  0.46999998093E+01 0.  1.
       -5    1    3    3    0  502 -0.47488262655E+02  0.10772073084E+04 -0.13139541377E+03  0.10862401047E+04  0.46999998093E+01 0. -1.
</event>
<event>
 5   0  0.2977854E-05  0.2541602E+04  0.7818609E-02  0.8388313E-01
        1   -1    0    0  501    0  0.00000000000E+00  0.00000000000E+00  0.22119677707E+04  0.22119677707E+04  0.50400001928E-02 0. -1.
       -1   -1    0    0    0  501  0.00000000000E+00  0.00000000000E+00 -0.73008966374E+03  0.73008966376E+03  0.50400001928E-02 0.  1.
    10030    2    1    2    0    0  0.00000000000E+00  0.00000000000E+00  0.14818781070E+04  0.29420574345E+04  0.25416017044E+04 0.  0.
        1    1    3    3  502    0 -0.85262954084E+03 -0.14753205469E+03 -0.33639584672E+03  0.92838839221E+03  0.50400001928E-02 0.  1.
       -1    1    3    3    0  502  0.85262954084E+03  0.14753205469E+03  0.18182739537E+04  0.20136690423E+04  0.50400001928E-02 0. -1.
</event>
<event>
 5   0  0.7071821E-05  0.2463354E+04  0.7818609E-02  0.8416159E-01
        2   -1    0    0  501    0  0.00000000000E+00  0.00000000000E+00  0.10067332579E+04  0.10067332579E+04  0.25500000920E-02 0.  1.
       -2   -1    0    0    0  501  0.00000000000E+00  0.00000000000E+00 -0.15068813957E+04  0.15068813957E+04  0.25500000920E-02 0. -1.
    10030    2    1    2    0    0  0.00000000000E+00  0.00000000000E+00 -0.50014813775E+03  0.25136146536E+04  0.24633535002E+04 0.  0.
        5    1    3    3  502    0 -0.19845616791E+03  0.59511278211E+02  0.98881480395E+03  0.10102985941E+04  0.46999998093E+01 0.  1.
       -5    1    3    3    0  502  0.19845616791E+03 -0.59511278211E+02 -0.14889629417E+04  0.15033160594E+04  0.46999998093E+01 0. -1.
</event>
<event>
 5   0  0.6827859E-05  0.1835384E+04  0.7818609E-02  0.8687706E-01
       -2   -1    0    0    0  501  0.00000000000E+00  0.00000000000E+00  0.53385215504E+03  0.53385215505E+03  0.25500000920E-02 0. -1.
        2   -1    0    0  501    0  0.00000000000E+00  0.00000000000E+00 -0.15775134487E+04  0.15775134487E+04  0.25500000920E-02 0.  1.
    10030    2    1    2    0    0  0.00000000000E+00  0.00000000000E+00 -0.10436612936E+04  0.21113656037E+04  0.18353843785E+04 0.  0.
        3    1    3    3  502    0 -0.61412781186E+03  0.14524587822E+03 -0.12882803926E+04  0.14345437304E+04  0.10100000352E+00 0.  1.
       -3    1    3    3    0  502  0.61412781186E+03 -0.14524587822E+03  0.24461909892E+03  0.67682187331E+03  0.10100000352E+00 0. -1.
</event>
<event>
 5   0  0.6909250E-05  0.2297139E+04  0.7818609E-02  0.8479050E-01
       -2   -1    0    0    0  501  0.00000000000E+00  0.00000000000E+00  0.67558967464E+03  0.67558967464E+03  0.25500000920E-02 0.  1.
        2   -1    0    0  501    0  0.00000000000E+00  0.00000000000E+00 -0.19526817182E+04  0.19526817182E+04  0.25500000920E-02 0. -1.
    10030    2    1    2    0    0  0.00000000000E+00  0.00000000000E+00 -0.12770920435E+04  0.26282713928E+04  0.22971387478E+04 0.  0.
        4    1    3    3  502    0  0.22173279025E+03 -0.37911896250E+03  0.57571652986E+03  0.72411860469E+03  0.12699999809E+01 0.  1.
       -4    1    3    3    0  502 -0.22173279025E+03  0.37911896250E+03 -0.18528085734E+04  0.19041527881E+04  0.12699999809E+01 0. -1.
</event>
<event>
 5   0  0.6827859E-05  0.2532981E+04  0.7818609E-02  0.8391329E-01
        2   -1    0    0  501    0  0.00000000000E+00  0.00000000000E+00  0.20036001319E+04  0.20036001319E+04  0.25500000920E-02 0. -1.
       -2   -1    0    0    0  501  0.00000000000E+00  0.00000000000E+00 -0.80055800886E+03  0.80055800886E+03  0.25500000920E-02 0.  1.
    10030    2    1    2    0    0  0.00000000000E+00  0.00000000000E+00  0.12030421231E+04  0.28041581408E+04  0.25329809570E+04 0.  0.
        3    1    3    3  502    0  0.97897718315E+01 -0.10283685170E+04  0.14198166588E+04  0.17531448888E+04  0.10100000352E+00 0. -1.
       -3    1    3    3    0  502 -0.97897718315E+01  0.10283685170E+04 -0.21677453574E+03  0.10510132520E+04  0.10100000352E+00 0.  1.
</event>
<event>
 5   0  0.2980790E-05  0.2415552E+04  0.7818609E-02  0.8433704E-01
       -1   -1    0    0    0  501  0.00000000000E+00  0.00000000000E+00  0.85745568126E+03  0.85745568128E+03  0.50400001928E-02 0.  1.
        1   -1    0    0  501    0  0.00000000000E+00  0.00000000000E+00 -0.17012220914E+04  0.17012220914E+04  0.50400001928E-02 0. -1.
    10030    2    1    2    0    0  0.00000000000E+00  0.00000000000E+00 -0.84376641013E+03  0.25586777727E+04  0.24155517360E+04 0.  0.
        5    1    3    3  502    0 -0.11282840827E+04 -0.32633372158E+03 -0.12381757128E+03  0.11810468026E+04  0.46999998093E+01 0.  1.
       -5    1    3    3    0  502  0.11282840827E+04  0.32633372158E+03 -0.71994883884E+03  0.13776309700E+04  0.46999998093E+01 0. -1.
</event>
<event>
 5   0  0.2896652E-05  0.2228082E+04  0.7818609E-02  0.8506830E-01
        1   -1    0    0  501    0  0.00000000000E+00  0.00000000000E+00  0.15672645621E+04  0.15672645621E+04  0.50400001928E-02 0.  1.
       -1   -1    0    0    0  501  0.00000000000E+00  0.00000000000E+00 -0.79188091465E+03  0.79188091466E+03  0.50400001928E-02 0. -1.
    10030    2    1    2    0    0  0.00000000000E+00  0.00000000000E+00  0.77538364748E+03  0.23591454768E+04  0.22280815918E+04 0.  0.
        4    1    3    3  502    0 -0.60995829246E+03  0.82269524209E+03 -0.76513540875E+02  0.10270017112E+04  0.12699999809E+01 0. -1.
       -4    1    3    3    0  502  0.60995829246E+03 -0.82269524209E+03  0.85189718836E+03  0.13321437656E+04  0.12699999809E+01 0.  1.
</event>
<event>
 5   0  0.2980790E-05  0.2100016E+04  0.7818609E-02  0.8561236E-01
       -1   -1    0    0    0  501  0.00000000000E+00  0.00000000000E+00  0.23277523746E+04  0.23277523746E+04  0.50400001928E-02 0. -1.
        1   -1    0    0  501    0  0.00000000000E+00  0.00000000000E+00 -0.47364007749E+03  0.47364007752E+03  0.50400001928E-02 0.  1.
    10030    2    1    2    0    0  0.00000000000E+00  0.00000000000E+00  0.18541122971E+04  0.28013924521E+04  0.21000160144E+04 0.  0.
        5    1    3    3  502    0 -0.74400669717E+03  0.27835793026E+03  0.18430158420E+04  0.20069276486E+04  0.46999998093E+01 0. -1.
       -5    1    3    3    0  502  0.74400669717E+03 -0.27835793026E+03  0.11096455110E+02  0.79446480355E+03  0.46999998093E+01 0.  1.
</event>
<event>
 5   0  0.2896652E-05  0.2563577E+04  0.7818609E-02  0.8380680E-01
       -1   -1    0    0    0  501  0.00000000000E+00  0.00000000000E+00  0.91802511907E+03  0.91802511908E+03  0.50400001928E-02 0.  1.
        1   -1    0    0  501    0  0.00000000000E+00  0.00000000000E+00 -0.17896909196E+04  0.17896909196E+04  0.50400001928E-02 0. -1.
    10030    2    1    2    0    0  0.00000000000E+00  0.00000000000E+00 -0.87166580049E+03  0.27077160386E+04  0.25635765794E+04 0.  0.
        4    1    3    3  502    0 -0.11836978681E+04  0.42182716342E+03 -0.70283212275E+03  0.14398101974E+04  0.12699999809E+01 0. -1.
       -4    1    3    3    0  502  0.11836978681E+04 -0.42182716342E+03 -0.16883367774E+03  0.12679058413E+04  0.12699999809E+01 0.  1.
</event>
<event>
 5   0  0.6827859E-05  0.2493208E+04  0.7818609E-02  0.8405409E-01
        2   -1    0    0  501    0  0.00000000000E+00  0.00000000000E+00  0.18397747495E+04  0.18397747495E+04  0.25500000920E-02 0. -1.
       -2   -1    0    0    0  501  0.00000000000E+00  0.00000000000E+00 -0.84468024343E+03  0.84468024344E+03  0.25500000920E-02 0.  1.
    10030    2    1    2    0    0  0.00000000000E+00  0.00000000000E+00  0.99509450604E+03  0.26844549929E+04  0.24932078800E+04 0.  0.
        3    1    3    3  502    0  0.36754752728E+03 -0.12053315171E+03 -0.77843122074E+03  0.86923794274E+03  0.10100000352E+00 0.  1.
       -3    1    3    3    0  502 -0.36754752728E+03  0.12053315171E+03  0.17735257268E+04  0.18152170502E+04  0.10100000352E+00 0. -1.
</event>
<event>
 5   0  0.2777539E-05  0.2529756E+04  0.7818609E-02  0.8392461E-01
        1   -1    0    0  501    0  0.00000000000E+00  0.00000000000E+00  0.17606458301E+04  0.17606458301E+04  0.50400001928E-02 0. -1.
       -1   -1    0    0    0  501  0.00000000000E+00  0.00000000000E+00 -0.90871004944E+03  0.90871004946E+03  0.50400001928E-02 0.  1.
    10030    2    1    2    0    0  0.00000000000E+00  0.00000000000E+00  0.85193578061E+03  0.26693558795E+04  0.25297561616E+04 0.  0.
        3    1    3    3  502    0  0.63393672873E+03  0.82351923006E+03 -0.33483070376E+03  0.10918659756E+04  0.10100000352E+00 0.  1.
       -3    1    3    3    0  502 -0.63393672873E+03 -0.82351923006E+03  0.11867664844E+04  0.15774899039E+04  0.10100000352E+00 0. -1.
</event>
<event>
 5   0  0.7071821E-05  0.2520245E+04  0.7818609E-02  0.8395808E-01
        2   -1    0    0  501    0  0.00000000000E+00  0.00000000000E+00  0.21705545185E+04  0.21705545185E+04  0.25500000920E-02 0. -1.
       -2   -1    0    0    0  501  0.00000000000E+00  0.00000000000E+00 -0.73156827703E+03  0.73156827704E+03  0.25500000920E-02 0.  1.
    10030    2    1    2    0    0  0.00000000000E+00  0.00000000000E+00  0.14389862415E+04  0.29021227955E+04  0.25202450907E+04 0.  0.
        5    1    3    3  502    0 -0.88680847383E+03 -0.88911581782E+03  0.59910221873E+03  0.13913668694E+04  0.46999998093E+01 0.  1.
       -5    1    3    3    0  502  0.88680847383E+03  0.88911581782E+03  0.83988402274E+03  0.15107559261E+04  0.46999998093E+01 0. -1.
</event>
<event>
 5   0  0.6827859E-05  0.2440903E+04  0.7818609E-02  0.8424347E-01
        2   -1    0    0  501    0  0.00000000000E+00  0.00000000000E+00  0.16879618873E+04  0.16879618873E+04  0.25500000920E-02 0. -1.
       -2   -1    0    0    0  501  0.00000000000E+00  0.00000000000E+00 -0.88242632592E+03  0.88242632593E+03  0.25500000920E-02 0.  1.
    10030    2    1    2    0    0  0.00000000000E+00  0.00000000000E+00  0.80553556138E+03  0.25703882132E+04  0.24409031169E+04 0.  0.
        3    1    3    3  502    0 -0.53384795013E+03  0.95036152051E+02  0.15541478287E+04  0.16460258162E+04  0.10100000352E+00 0. -1.
       -3    1    3    3    0  502  0.53384795013E+03 -0.95036152051E+02 -0.74861226730E+03  0.92436239701E+03  0.10100000352E+00 0.  1.
</event>
<event>
 5   0  0.2777539E-05  0.1730060E+04  0.7818609E-02  0.8744403E-01
        1   -1    0    0  501    0  0.00000000000E+00  0.00000000000E+00  0.13290178334E+04  0.13290178334E+04  0.50400001928E-02 0. -1.
       -1   -1    0    0    0  501  0.00000000000E+00  0.00000000000E+00 -0.56303029858E+03  0.56303029861E+03  0.50400001928E-02 0.  1.
    10030    2    1    2    0    0  0.00000000000E+00  0.00000000000E+00  0.76598753485E+03  0.18920481321E+04  0.17300604702E+04 0.  0.
        3    1    3    3  502    0 -0.55746461391E+03 -0.16250201066E+03  0.10842012408E+04  0.12299048907E+04  0.10100000352E+00 0. -1.
       -3    1    3    3    0  502  0.55746461391E+03  0.16250201066E+03 -0.31821370599E+03  0.66214324139E+03  0.10100000352E+00 0.  1.
</event>
<event>
 5   0  0.6909250E-05  0.2445370E+04  0.7818609E-02  0.8422710E-01
        2   -1    0    0  501    0  0.00000000000E+00  0.00000000000E+00  0.78461404122E+03  0.78461404122E+03  0.25500000920E-02 0.  1.
       -2   -1    0    0    0  501  0.00000000000E+00  0.00000000000E+00 -0.19053434438E+04  0.19053434438E+04  0.25500000920E-02 0. -1.
    10030    2    1    2    0    0  0.00000000000E+00  0.00000000000E+00 -0.11207294025E+04  0.26899574850E+04  0.24453704990E+04 0.  0.
        4    1    3    3  502    0 -0.41521281558E+03  0.23080707027E+03  0.67894586858E+03  0.82863905971E+03  0.12699999809E+01 0.  1.
       -4    1    3    3    0  502  0.41521281558E+03 -0.23080707027E+03 -0.17996752711E+04  0.18613184253E+04  0.12699999809E+01 0. -1.
</event>
<event>
 5   0  0.2331375E-05  0.2494072E+04  0.7818609E-02  0.8405101E-01
       -4   -1    0    0    0  501  0.00000000000E+00  0.00000000000E+00  0.14692899185E+04  0.14692904674E+04  0.12699999809E+01 0. -1.
        4   -1    0    0  501    0  0.00000000000E+00  0.00000000000E+00 -0.10584000531E+04  0.10584008150E+04  0.12699999809E+01 0.  1.
    10030    2    1    2    0    0  0.00000000000E+00  0.00000000000E+00  0.41088986543E+03  0.25276912824E+04  0.24940715182E+04 0.  0.
        4    1    3    3  502    0 -0.11481972037E+04  0.24124095009E+03  0.63368372231E+03  0.13334581686E+04  0.12699999809E+01 0. -1.
       -4    1    3    3    0  502  0.11481972037E+04 -0.24124095009E+03 -0.22279385688E+03  0.11942331138E+04  0.12699999809E+01 0.  1.
</event>
<event>
 5   0  0.2793920E-05  0.1688476E+04  0.7818609E-02  0.8767965E-01
       -1   -1    0    0    0  501  0.00000000000E+00  0.00000000000E+00  0.25435206431E+04  0.25435206431E+04  0.50400001928E-02 0. -1.
        1   -1    0    0  501    0  0.00000000000E+00  0.00000000000E+00 -0.28021691823E+03  0.28021691828E+03  0.50400001928E-02 0.  1.
    10030    2    1    2    0    0  0.00000000000E+00  0.00000000000E+00  0.22633037249E+04  0.28237375614E+04  0.16884756630E+04 0.  0.
        2    1    3    3  502    0 -0.31815363374E+03 -0.20463324622E+03 -0.13055388027E+03  0.40017598102E+03  0.25500000920E-02 0.  1.
       -2    1    3    3    0  502  0.31815363374E+03  0.20463324622E+03  0.23938576052E+04  0.24235615804E+04  0.25500000920E-02 0. -1.
</event>
<event>
 5   0  0.2896652E-05  0.2481553E+04  0.7818609E-02  0.8409587E-01
       -1   -1    0    0    0  501  0.00000000000E+00  0.00000000000E+00  0.16157457115E+04  0.16157457115E+04  0.50400001928E-02 0. -1.
        1   -1    0    0  501    0  0.00000000000E+00  0.00000000000E+00 -0.95282683521E+03  0.95282683522E+03  0.50400001928E-02 0.  1.
    10030    2    1    2    0    0  0.00000000000E+00  0.00000000000E+00  0.66291887626E+03  0.25685725467E+04  0.24815526372E+04 0.  0.
        4    1    3    3  502    0  0.89634350844E+03 -0.30289187797E+03  0.11623215456E+04  0.14987221768E+04  0.12699999809E+01 0. -1.
       -4    1    3    3    0  502 -0.89634350844E+03  0.30289187797E+03 -0.49940266939E+03  0.10698503699E+04  0.12699999809E+01 0.  1.
</event>
<event>
 5   0  0.2777539E-05  0.2498389E+04  0.7818609E-02  0.8403560E-01
       -1   -1    0    0    0  501  0.00000000000E+00  0.00000000000E+00  0.11079454205E+04  0.11079454205E+04  0.50400001928E-02 0.  1.
        1   -1    0    0  501    0  0.00000000000E+00  0.00000000000E+00 -0.14084508549E+04  0.14084508549E+04  0.50400001928E-02 0. -1.
    10030    2    1    2    0    0  0.00000000000E+00  0.00000000000E+00 -0.30050543442E+03  0.25163962755E+04  0.24983888206E+04 0.  0.
        3    1    3    3  502    0  0.10300020982E+03  0.10349017458E+04 -0.84723457162E+03  0.13414309882E+04  0.10100000352E+00 0. -1.
       -3    1    3    3    0  502 -0.10300020982E+03 -0.10349017458E+04  0.54672913720E+03  0.11749652872E+04  0.10100000352E+00 0.  1.
</event>
<event>
 5   0  0.2980790E-05  0.1622484E+04  0.7818609E-02  0.8806853E-01
        1   -1    0    0  501    0  0.00000000000E+00  0.00000000000E+00  0.61058036421E+03  0.61058036423E+03  0.50400001928E-02 0. -1.
       -1   -1    0    0    0  501  0.00000000000E+00  0.00000000000E+00 -0.10778495742E+04  0.10778495742E+04  0.50400001928E-02 0.  1.
    10030    2    1    2    0    0  0.00000000000E+00  0.00000000000E+00 -0.46726921001E+03  0.16884299385E+04  0.16224842503E+04 0.  0.
        5    1    3    3  502    0  0.74507223032E+03 -0.16929522030E+03 -0.51729041791E+03  0.92271608118E+03  0.46999998093E+01 0. -1.
       -5    1    3    3    0  502 -0.74507223032E+03  0.16929522030E+03  0.50021207897E+02  0.76571385729E+03  0.46999998093E+01 0.  1.
</event>
<event>
 5   0  0.6445331E-05  0.2427830E+04  0.7818609E-02  0.8429158E-01
       -2   -1    0    0    0  501  0.00000000000E+00  0.00000000000E+00  0.10232295926E+04  0.10232295926E+04  0.25500000920E-02 0.  1.
        2   -1    0    0  501    0  0.00000000000E+00  0.00000000000E+00 -0.14401353310E+04  0.14401353310E+04  0.25500000920E-02 0. -1.
    10030    2    1    2    0    0  0.00000000000E+00  0.00000000000E+00 -0.41690573839E+03  0.24633649237E+04  0.24278295559E+04 0.  0.
        1    1    3    3  502    0  0.62019072495E+03 -0.26980260485E+03 -0.12312545097E+04  0.14047838440E+04  0.50400001928E-02 0. -1.
       -1    1    3    3    0  502 -0.62019072495E+03  0.26980260485E+03  0.81434877127E+03  0.10585810796E+04  0.50400001928E-02 0.  1.
</event>
<event>
 5   0  0.2977854E-05  0.2475569E+04  0.7818609E-02  0.8411741E-01
        1   -1    0    0  501    0  0.00000000000E+00  0.00000000000E+00  0.81007789470E+03  0.81007789472E+03  0.50400001928E-02 0.  1.
       -1   -1    0    0    0  501  0.00000000000E+00  0.00000000000E+00 -0.18913127970E+04  0.18913127970E+04  0.50400001928E-02 0. -1.
    10030    2    1    2    0    0  0.00000000000E+00  0.00000000000E+00 -0.10812349023E+04  0.27013906918E+04  0.24755691781E+04 0.  0.
        1    1    3    3  502    0 -0.11936845687E+04 -0.24868650162E+03 -0.30815207457E+03  0.12576507968E+04  0.50400001928E-02 0.  1.
       -1    1    3    3    0  502  0.11936845687E+04  0.24868650162E+03 -0.77308282776E+03  0.14437398949E+04  0.50400001928E-02 0. -1.
</event>
<event>
 5   0  0.6445331E-05  0.2499351E+04  0.7818609E-02  0.8403217E-01
       -2   -1    0    0    0  501  0.00000000000E+00  0.00000000000E+00  0.73224841391E+03  0.73224841392E+03  0.25500000920E-02 0. -1.
        2   -1    0    0  501    0  0.00000000000E+00  0.00000000000E+00 -0.21327313122E+04  0.21327313122E+04  0.25500000920E-02 0.  1.
    10030    2    1    2    0    0  0.00000000000E+00  0.00000000000E+00 -0.14004828983E+04  0.28649797261E+04  0.24993512123E+04 0.  0.
        1    1    3    3  502    0  0.38930900678E+03 -0.97079170613E+03  0.83682277066E+02  0.10492858347E+04  0.50400001928E-02 0.  1.
       -1    1    3    3    0  502 -0.38930900678E+03  0.97079170613E+03 -0.14841651753E+04  0.18156938914E+04  0.50400001928E-02 0. -1.
</event>
<event>
 5   0  0.2777539E-05  0.2480541E+04  0.7818609E-02  0.8409951E-01
       -1   -1    0    0    0  501  0.00000000000E+00  0.00000000000E+00  0.14568533106E+04  0.14568533106E+04  0.50400001928E-02 0.  1.
        1   -1    0    0  501    0  0.00000000000E+00  0.00000000000E+00 -0.10558856438E+04  0.10558856439E+04  0.50400001928E-02 0. -1.
    10030    2    1    2    0    0  0.00000000000E+00  0.00000000000E+00  0.40096766670E+03  0.25127389544E+04  0.24805406635E+04 0.  0.
        3    1    3    3  502    0 -0.79969790829E+03  0.92622059117E+03 -0.43015072383E+01  0.12236910726E+04  0.10100000352E+00 0.  1.
       -3    1    3    3    0  502  0.79969790829E+03 -0.92622059117E+03  0.40526917394E+03  0.12890478818E+04  0.10100000352E+00 0. -1.
</event>
<event>
 5   0  0.2793920E-05  0.2463041E+04  0.7818609E-02  0.8416272E-01
        1   -1    0    0  501    0  0.00000000000E+00  0.00000000000E+00  0.93883939580E+03  0.93883939581E+03  0.50400001928E-02 0.  1.
       -1   -1    0    0    0  501  0.00000000000E+00  0.00000000000E+00 -0.16154446971E+04  0.16154446971E+04  0.50400001928E-02 0. -1.
    10030    2    1    2    0    0  0.00000000000E+00  0.00000000000E+00 -0.67660530130E+03  0.25542840929E+04  0.24630413098E+04 0.  0.
        2    1    3    3  502    0  0.54500086192E+03  0.69485523053E+03 -0.12284673427E+04  0.15129381160E+04  0.25500000920E-02 0. -1.
       -2    1    3    3    0  502 -0.54500086192E+03 -0.69485523053E+03  0.55186204138E+03  0.10413459769E+04  0.25500000920E-02 0.  1.
</event>
<event>
 5   0  0.2980790E-05  0.2422681E+04  0.7818609E-02  0.8431060E-01
       -1   -1    0    0    0  501  0.00000000000E+00  0.00000000000E+00  0.84362022231E+03  0.84362022233E+03  0.50400001928E-02 0.  1.
        1   -1    0    0  501    0  0.00000000000E+00  0.00000000000E+00 -0.17393447094E+04  0.17393447094E+04  0.50400001928E-02 0. -1.
    10030    2    1    2    0    0  0.00000000000E+00  0.00000000000E+00 -0.89572448709E+03  0.25829649317E+04  0.24226814652E+04 0.  0.
        5    1    3    3  502    0  0.60141640112E+03 -0.92991345423E+03 -0.97113216832E+03  0.14729428021E+04  0.46999998093E+01 0. -1.
       -5    1    3    3    0  502 -0.60141640112E+03  0.92991345423E+03  0.75407681232E+02  0.11100221296E+04  0.46999998093E+01 0.  1.
</event>
<event>
 5   0  0.7071821E-05  0.2492963E+04  0.7818609E-02  0.8405497E-01
        2   -1    0    0  501    0  0.00000000000E+00  0.00000000000E+00  0.17359204301E+04  0.17359204301E+04  0.25500000920E-02 0.  1.
       -2   -1    0    0    0  501  0.00000000000E+00  0.00000000000E+00 -0.89503878886E+03  0.89503878887E+03  0.25500000920E-02 0. -1.
    10030    2    1    2    0    0  0.00000000000E+00  0.00000000000E+00  0.84088164121E+03  0.26309592189E+04  0.24929629915E+04 0.  0.
        5    1    3    3  502    0 -0.11394085456E+03  0.45793551793E+03  0.16379952501E+04  0.17046225348E+04  0.46999998093E+01 0.  1.
       -5    1    3    3    0  502  0.11394085456E+03 -0.45793551793E+03 -0.79711360887E+03  0.92633668413E+03  0.46999998093E+01 0. -1.
</event>
<event>
 5   0  0.7071821E-05  0.2321494E+04  0.7818609E-02  0.8469494E-01
        2   -1    0    0  501    0  0.00000000000E+00  0.00000000000E+00  0.17311987636E+04  0.17311987636E+04  0.25500000920E-02 0.  1.
       -2   -1    0    0    0  501  0.00000000000E+00  0.00000000000E+00 -0.77826625778E+03  0.77826625779E+03  0.25500000920E-02 0. -1.
    10030    2    1    2    0    0  0.00000000000E+00  0.00000000000E+00  0.95293250582E+03  0.25094650214E+04  0.23214939873E+04 0.  0.
        5    1    3    3  502    0 -0.16302953301E+03  0.23928492167E+03 -0.73859175353E+03  0.79333206840E+03  0.46999998093E+01 0. -1.
       -5    1    3    3    0  502  0.16302953301E+03 -0.23928492167E+03  0.16915242594E+04  0.17161329530E+04  0.46999998093E+01 0.  1.
</event>
<event>
 5   0  0.7071821E-05  0.2509643E+04  0.7818609E-02  0.8399558E-01
        2   -1    0    0  501    0  0.00000000000E+00  0.00000000000E+00  0.19829336155E+04  0.19829336155E+04  0.25500000920E-02 0.  1.
       -2   -1    0    0    0  501  0.00000000000E+00  0.00000000000E+00 -0.79406421437E+03  0.79406421438E+03  0.25500000920E-02 0. -1.
    10030    2    1    2    0    0  0.00000000000E+00  0.00000000000E+00  0.11888694012E+04  0.27769978299E+04  0.25096427025E+04 0.  0.
        5    1    3    3  502    0 -0.57564519659E+03  0.41650949179E+03 -0.55001328924E+03  0.89854563459E+03  0.46999998093E+01 0. -1.
       -5    1    3    3    0  502  0.57564519659E+03 -0.41650949179E+03  0.17388826904E+04  0.18784521953E+04  0.46999998093E+01 0.  1.
</event>
<event>
 5   0  0.2896652E-05  0.2484461E+04  0.7818609E-02  0.8408542E-01
        1   -1    0    0  501    0  0.00000000000E+00  0.00000000000E+00  0.15457750882E+04  0.15457750882E+04  0.50400001928E-02 0. -1.
       -1   -1    0    0    0  501  0.00000000000E+00  0.00000000000E+00 -0.99829300457E+03  0.99829300458E+03  0.50400001928E-02 0.  1.
    10030    2    1    2    0    0  0.00000000000E+00  0.00000000000E+00  0.54748208358E+03  0.25440680927E+04  0.24844608728E+04 0.  0.
        4    1    3    3  502    0  0.36238336587E+03 -0.30211426996E+03  0.14504589632E+04  0.15252631094E+04  0.12699999809E+01 0. -1.
       -4    1    3    3    0  502 -0.36238336587E+03  0.30211426996E+03 -0.90297687966E+03  0.10188049833E+04  0.12699999809E+01 0.  1.
</event>
<event>
 5   0  0.6648328E-05  0.2505780E+04  0.7818609E-02  0.8400929E-01
       -2   -1    0    0    0  501  0.00000000000E+00  0.00000000000E+00  0.95744034773E+03  0.95744034773E+03  0.25500000920E-02 0.  1.
        2   -1    0    0  501    0  0.00000000000E+00  0.00000000000E+00 -0.16395107151E+04  0.16395107151E+04  0.25500000920E-02 0. -1.
    10030    2    1    2    0    0  0.00000000000E+00  0.00000000000E+00 -0.68207036733E+03  0.25969510628E+04  0.25057802850E+04 0.  0.
        2    1    3    3  502    0 -0.10878007440E+03  0.11112373315E+03  0.94740008840E+03  0.96007734905E+03  0.25500000920E-02 0.  1.
       -2    1    3    3    0  502  0.10878007440E+03 -0.11112373315E+03 -0.16294704557E+04  0.16368737137E+04  0.25500000920E-02 0. -1.
</event>
<event>
 5   0  0.6827859E-05  0.2458901E+04  0.7818609E-02  0.8417775E-01
       -2   -1    0    0    0  501  0.00000000000E+00  0.00000000000E+00  0.61128586403E+03  0.61128586404E+03  0.25500000920E-02 0. -1.
        2   -1    0    0  501    0  0.00000000000E+00  0.00000000000E+00 -0.24727353569E+04  0.24727353569E+04  0.25500000920E-02 0.  1.
    10030    2    1    2    0    0  0.00000000000E+00  0.00000000000E+00 -0.18614494928E+04  0.30840212209E+04  0.24589007049E+04 0.  0.
        3    1    3    3  502    0 -0.33269381962E+03 -0.15074706605E+03  0.54166494449E+03  0.65330756755E+03  0.10100000352E+00 0. -1.
       -3    1    3    3    0  502  0.33269381962E+03  0.15074706605E+03 -0.24031144373E+04  0.24307136534E+04  0.10100000352E+00 0.  1.
</event>
<event>
 5   0  0.2777539E-05  0.2523085E+04  0.7818609E-02  0.8394807E-01
       -1   -1    0    0    0  501  0.00000000000E+00  0.00000000000E+00  0.91514997377E+03  0.91514997378E+03  0.50400001928E-02 0. -1.
        1   -1    0    0  501    0  0.00000000000E+00  0.00000000000E+00 -0.17390470628E+04  0.17390470628E+04  0.50400001928E-02 0.  1.
    10030    2    1    2    0    0  0.00000000000E+00  0.00000000000E+00 -0.82389708906E+03  0.26541970366E+04  0.25230845201E+04 0.  0.
        3    1    3    3  502    0  0.19602269479E+03 -0.51508597580E+03 -0.16057090550E+04  0.16976572206E+04  0.10100000352E+00 0.  1.
       -3    1    3    3    0  502 -0.19602269479E+03  0.51508597580E+03  0.78181196591E+03  0.95653981599E+03  0.10100000352E+00 0. -1.
</event>
<event>
 5   0  0.6827859E-05  0.2454420E+04  0.7818609E-02  0.8419406E-01
       -2   -1    0    0    0  501  0.00000000000E+00  0.00000000000E+00  0.66784809134E+03  0.66784809134E+03  0.25500000920E-02 0.  1.
        2   -1    0    0  501    0  0.00000000000E+00  0.00000000000E+00 -0.22550700545E+04  0.22550700545E+04  0.25500000920E-02 0. -1.
    10030    2    1    2    0    0  0.00000000000E+00  0.00000000000E+00 -0.15872219632E+04  0.29229181459E+04  0.24544198759E+04 0.  0.
        3    1    3    3  502    0 -0.11523014169E+04  0.38949456253E+03 -0.59960487298E+03  0.13561086179E+04  0.10100000352E+00 0.  1.
       -3    1    3    3    0  502  0.11523014169E+04 -0.38949456253E+03 -0.98761709019E+03  0.15668095279E+04  0.10100000352E+00 0. -1.
</event>
<event>
 5   0  0.2896652E-05  0.2521907E+04  0.7818609E-02  0.8395222E-01
        1   -1    0    0  501    0  0.00000000000E+00  0.00000000000E+00  0.20748818087E+04  0.20748818087E+04  0.50400001928E-02 0.  1.
       -1   -1    0    0    0  501  0.00000000000E+00  0.00000000000E+00 -0.76631046113E+03  0.76631046114E+03  0.50400001928E-02 0. -1.
    10030    2    1    2    0    0  0.00000000000E+00  0.00000000000E+00  0.13085713475E+04  0.28411922698E+04  0.25219069258E+04 0.  0.
        4    1    3    3  502    0 -0.21381045427E+03  0.11247800064E+04  0.12495308298E+04  0.16947489138E+04  0.12699999809E+01 0.  1.
       -4    1    3    3    0  502  0.21381045427E+03 -0.11247800064E+04  0.59040517712E+02  0.11464433561E+04  0.12699999809E+01 0. -1.
</event>
<event>
 5   0  0.7071821E-05  0.2515214E+04  0.7818609E-02  0.8397586E-01
        2   -1    0    0  501    0  0.00000000000E+00  0.00000000000E+00  0.20483847234E+04  0.20483847235E+04  0.25500000920E-02 0.  1.
       -2   -1    0    0    0  501  0.00000000000E+00  0.00000000000E+00 -0.77210835607E+03  0.77210835608E+03  0.25500000920E-02 0. -1.
    10030    2    1    2    0    0  0.00000000000E+00  0.00000000000E+00  0.12762763674E+04  0.28204930795E+04  0.25152136779E+04 0.  0.
        5    1    3    3  502    0 -0.12258231166E+02 -0.53333518484E+03 -0.63892623585E+03  0.83237341889E+03  0.46999998093E+01 0. -1.
       -5    1    3    3    0  502  0.12258231166E+02  0.53333518484E+03  0.19152026032E+04  0.19881196606E+04  0.46999998093E+01 0.  1.
</event>
<event>
 5   0  0.2777539E-05  0.2507613E+04  0.7818609E-02  0.8400279E-01
       -1   -1    0    0    0  501  0.00000000000E+00  0.00000000000E+00  0.10493916070E+04  0.10493916071E+04  0.50400001928E-02 0. -1.
        1   -1    0    0  501    0  0.00000000000E+00  0.00000000000E+00 -0.14980395406E+04  0.14980395406E+04  0.50400001928E-02 0.  1.
    10030    2    1    2    0    0  0.00000000000E+00  0.00000000000E+00 -0.44864793354E+03  0.25474311476E+04  0.25076125067E+04 0.  0.
        3    1    3    3  502    0 -0.29195689474E+03 -0.10816807414E+03 -0.14581428898E+04  0.14910130308E+04  0.10100000352E+00 0.  1.
       -3    1    3    3    0  502  0.29195689474E+03  0.10816807414E+03  0.10094949563E+04  0.10564181169E+04  0.10100000352E+00 0. -1.
</event>
<event>
 5   0  0.6648328E-05  0.2489753E+04  0.7818609E-02  0.8406645E-01
       -2   -1    0    0    0  501  0.00000000000E+00  0.00000000000E+00  0.10837292984E+04  0.10837292984E+04  0.25500000920E-02 0. -1.
        2   -1    0    0  501    0  0.00000000000E+00  0.00000000000E+00 -0.14299859713E+04  0.14299859713E+04  0.25500000920E-02 0.  1.
    10030    2    1    2    0    0  0.00000000000E+00  0.00000000000E+00 -0.34625667290E+03  0.25137152698E+04  0.24897531552E+04 0.  0.
        2    1    3    3  502    0  0.72264091597E+03  0.69941157757E+03  0.56764370997E+03  0.11548185268E+04  0.25500000920E-02 0. -1.
       -2    1    3    3    0  502 -0.72264091597E+03 -0.69941157757E+03 -0.91390038287E+03  0.13588967430E+04  0.25500000920E-02 0.  1.
</event>
<event>
 5   0  0.2980790E-05  0.2502934E+04  0.7818609E-02  0.8401941E-01
        1   -1    0    0  501    0  0.00000000000E+00  0.00000000000E+00  0.14617244268E+04  0.14617244269E+04  0.50400001928E-02 0. -1.
       -1   -1    0    0    0  501  0.00000000000E+00  0.00000000000E+00 -0.10714535634E+04  0.10714535634E+04  0.50400001928E-02 0.  1.
    10030    2    1    2    0    0  0.00000000000E+00  0.00000000000E+00  0.39027086346E+03  0.25331779902E+04  0.25029341548E+04 0.  0.
        5    1    3    3  502    0  0.66102303660E+03 -0.86203784508E+03 -0.43373170688E+03  0.11697033747E+04  0.46999998093E+01 0.  1.
       -5    1    3    3    0  502 -0.66102303660E+03  0.86203784508E+03  0.82400257035E+03  0.13634746155E+04  0.46999998093E+01 0. -1.
</event>
<event>
 5   0  0.2793920E-05  0.1858270E+04  0.7818609E-02  0.8675912E-01
       -1   -1    0    0    0  501  0.00000000000E+00  0.00000000000E+00  0.11394281075E+04  0.11394281075E+04  0.50400001928E-02 0. -1.
        1   -1    0    0  501    0  0.00000000000E+00  0.00000000000E+00 -0.75765354170E+03  0.75765354171E+03  0.50400001928E-02 0.  1.
    10030    2    1    2    0    0  0.00000000000E+00  0.00000000000E+00  0.38177456580E+03  0.18970816492E+04  0.18582698848E+04 0.  0.
        2    1    3    3  502    0  0.41235439885E+03  0.44274606844E+03  0.91076139430E+03  0.10934105124E+04  0.25500000920E-02 0. -1.
       -2    1    3    3    0  502 -0.41235439885E+03 -0.44274606844E+03 -0.52898682850E+03  0.80367113678E+03  0.25500000920E-02 0.  1.
</event>
<event>
 5   0  0.2980790E-05  0.2923018E+04  0.7818609E-02  0.8266062E-01
       -1   -1    0    0    0  501  0.00000000000E+00  0.00000000000E+00  0.11708387203E+04  0.11708387203E+04  0.50400001928E-02 0. -1.
        1   -1    0    0  501    0  0.00000000000E+00  0.00000000000E+00 -0.18243411554E+04  0.18243411554E+04  0.50400001928E-02 0.  1.
    10030    2    1    2    0    0  0.00000000000E+00  0.00000000000E+00 -0.65350243511E+03  0.29951798758E+04  0.29230184836E+04 0.  0.
        5    1    3    3  502    0  0.88620440715E+03  0.10375901565E+04  0.20965627110E+03  0.13805540287E+04  0.46999998093E+01 0.  1.
       -5    1    3    3    0  502 -0.88620440715E+03 -0.10375901565E+04 -0.86315870621E+03  0.16146258471E+04  0.46999998093E+01 0. -1.
</event>
<event>
 5   0  0.7071821E-05  0.2538305E+04  0.7818609E-02  0.8389465E-01
        2   -1    0    0  501    0  0.00000000000E+00  0.00000000000E+00  0.16549518976E+04  0.16549518976E+04  0.25500000920E-02 0. -1.
       -2   -1    0    0    0  501  0.00000000000E+00  0.00000000000E+00 -0.97328978536E+03  0.97328978536E+03  0.25500000920E-02 0.  1.
    10030    2    1    2    0    0  0.00000000000E+00  0.00000000000E+00  0.68166211226E+03  0.26282416830E+04  0.25383047707E+04 0.  0.
        5    1    3    3  502    0  0.46303531504E+03  0.32537713011E+03 -0.83540028617E+03  0.10090528767E+04  0.46999998093E+01 0.  1.
       -5    1    3    3    0  502 -0.46303531504E+03 -0.32537713011E+03  0.15170623984E+04  0.16191888063E+04  0.46999998093E+01 0. -1.
</event>
<event>
 5   0  0.2980790E-05  0.2303969E+04  0.7818609E-02  0.8476358E-01
        1   -1    0    0  501    0  0.00000000000E+00  0.00000000000E+00  0.95968424998E+03  0.95968424999E+03  0.50400001928E-02 0. -1.
       -1   -1    0    0    0  501  0.00000000000E+00  0.00000000000E+00 -0.13828171302E+04  0.13828171302E+04  0.50400001928E-02 0.  1.
    10030    2    1    2    0    0  0.00000000000E+00  0.00000000000E+00 -0.42313288021E+03  0.23425013802E+04  0.23039685939E+04 0.  0.
        5    1    3    3  502    0  0.20949880028E+03  0.94047338564E+03 -0.85352617320E+03  0.12872097555E+04  0.46999998093E+01 0.  1.
       -5    1    3    3    0  502 -0.20949880028E+03 -0.94047338564E+03  0.43039329299E+03  0.10552916247E+04  0.46999998093E+01 0. -1.
</event>
<event>
 5   0  0.6445331E-05  0.2492568E+04  0.7818609E-02  0.8405638E-01
        2   -1    0    0  501    0  0.00000000000E+00  0.00000000000E+00  0.22482367244E+04  0.22482367244E+04  0.25500000920E-02 0. -1.
       -2   -1    0    0    0  501  0.00000000000E+00  0.00000000000E+00 -0.69086300871E+03  0.69086300871E+03  0.25500000920E-02 0.  1.
    10030    2    1    2    0    0  0.00000000000E+00  0.00000000000E+00  0.15573737156E+04  0.29390997331E+04  0.24925678227E+04 0.  0.
        1    1    3    3  502    0  0.15790775803E+03  0.24020249728E+03 -0.65123848389E+03  0.71185929977E+03  0.50400001928E-02 0.  1.
       -1    1    3    3    0  502 -0.15790775803E+03 -0.24020249728E+03  0.22086121995E+04  0.22272404333E+04  0.50400001928E-02 0. -1.
</event>
<event>
 5   0  0.7071821E-05  0.2516102E+04  0.7818609E-02  0.8397271E-01
       -2   -1    0    0    0  501  0.00000000000E+00  0.00000000000E+00  0.66542199124E+03  0.66542199125E+03  0.25500000920E-02 0.  1.
        2   -1    0    0  501    0  0.00000000000E+00  0.00000000000E+00 -0.23784799162E+04  0.23784799162E+04  0.25500000920E-02 0. -1.
    10030    2    1    2    0    0  0.00000000000E+00  0.00000000000E+00 -0.17130579249E+04  0.30439019074E+04  0.25161024160E+04 0.  0.
        5    1    3    3  502    0  0.11126255590E+04 -0.12713805288E+03 -0.16307605309E+03  0.11316870628E+04  0.46999998093E+01 0.  1.
       -5    1    3    3    0  502 -0.11126255590E+04  0.12713805288E+03 -0.15499818718E+04  0.19122148446E+04  0.46999998093E+01 0. -1.
</event>
<event>
 5   0  0.7071821E-05  0.2540577E+04  0.7818609E-02  0.8388671E-01
       -2   -1    0    0    0  501  0.00000000000E+00  0.00000000000E+00  0.76200363273E+03  0.76200363274E+03  0.25500000920E-02 0. -1.
        2   -1    0    0  501    0  0.00000000000E+00  0.00000000000E+00 -0.21176181272E+04  0.21176181272E+04  0.25500000920E-02 0.  1.
    10030    2    1    2    0    0  0.00000000000E+00  0.00000000000E+00 -0.13556144945E+04  0.28796217599E+04  0.25405768681E+04 0.  0.
        5    1    3    3  502    0  0.51544645524E+03 -0.64142264032E+03 -0.17746833948E+04  0.19561777254E+04  0.46999998093E+01 0.  1.
       -5    1    3    3    0  502 -0.51544645524E+03  0.64142264032E+03  0.41906890029E+03  0.92344403454E+03  0.46999998093E+01 0. -1.
</event>
<event>
 5   0  0.2980790E-05  0.2438918E+04  0.7818609E-02  0.8425075E-01
        1   -1    0    0  501    0  0.00000000000E+00  0.00000000000E+00  0.13837909960E+04  0.13837909960E+04  0.50400001928E-02 0. -1.
       -1   -1    0    0    0  501  0.00000000000E+00  0.00000000000E+00 -0.10746423331E+04  0.10746423331E+04  0.50400001928E-02 0.  1.
    10030    2    1    2    0    0  0.00000000000E+00  0.00000000000E+00  0.30914866286E+03  0.24584333291E+04  0.24389181081E+04 0.  0.
        5    1    3    3  502    0 -0.85374667661E+03  0.83706123095E+03  0.39629177231E+03  0.12596126988E+04  0.46999998093E+01 0.  1.
       -5    1    3    3    0  502  0.85374667661E+03 -0.83706123095E+03 -0.87143109444E+02  0.11988206303E+04  0.46999998093E+01 0. -1.
</event>
<event>
 5   0  0.2980790E-05  0.2493732E+04  0.7818609E-02  0.8405222E-01
       -1   -1    0    0    0  501  0.00000000000E+00  0.00000000000E+00  0.91869873756E+03  0.91869873757E+03  0.50400001928E-02 0.  1.
        1   -1    0    0  501    0  0.00000000000E+00  0.00000000000E+00 -0.16922570880E+04  0.16922570880E+04  0.50400001928E-02 0. -1.
    10030    2    1    2    0    0  0.00000000000E+00  0.00000000000E+00 -0.77355835041E+03  0.26109558255E+04  0.24937317020E+04 0.  0.
        5    1    3    3  502    0 -0.76237073117E+03 -0.98096746316E+03 -0.49731691506E+03  0.13382273721E+04  0.46999998093E+01 0. -1.
       -5    1    3    3    0  502  0.76237073117E+03  0.98096746316E+03 -0.27624143536E+03  0.12727284534E+04  0.46999998093E+01 0.  1.
</event>
<event>
 5   0  0.7071821E-05  0.2556769E+04  0.7818609E-02  0.8383036E-01
        2   -1    0    0  501    0  0.00000000000E+00  0.00000000000E+00  0.13989372172E+04  0.13989372172E+04  0.25500000920E-02 0.  1.
       -2   -1    0    0    0  501  0.00000000000E+00  0.00000000000E+00 -0.11682200806E+04  0.11682200806E+04  0.25500000920E-02 0. -1.
    10030    2    1    2    0    0  0.00000000000E+00  0.00000000000E+00  0.23071713661E+03  0.25671572978E+04  0.25567687018E+04 0.  0.
        5    1    3    3  502    0 -0.12476437230E+04 -0.21612600949E+03 -0.61194305878E+02  0.12677113806E+04  0.46999998093E+01 0. -1.
       -5    1    3    3    0  502  0.12476437230E+04  0.21612600949E+03  0.29191144249E+03  0.12994459172E+04  0.46999998093E+01 0.  1.
</event>
<event>
 5   0  0.2896652E-05  0.2513427E+04  0.7818609E-02  0.8398218E-01
       -1   -1    0    0    0  501  0.00000000000E+00  0.00000000000E+00  0.18969414113E+04  0.18969414113E+04  0.50400001928E-02 0.  1.
        1   -1    0    0  501    0  0.00000000000E+00  0.00000000000E+00 -0.83256561690E+03  0.83256561692E+03  0.50400001928E-02 0. -1.
    10030    2    1    2    0    0  0.00000000000E+00  0.00000000000E+00  0.10643757944E+04  0.27295070282E+04  0.25134265029E+04 0.  0.
        4    1    3    3  502    0 -0.34082813899E+03 -0.12087829210E+04  0.48354159296E+03  0.13457838071E+04  0.12699999809E+01 0. -1.
       -4    1    3    3    0  502  0.34082813899E+03  0.12087829210E+04  0.58083420146E+03  0.13837232212E+04  0.12699999809E+01 0.  1.
</event>
<event>
 5   0  0.6445331E-05  0.2521883E+04  0.7818609E-02  0.8395231E-01
       -2   -1    0    0    0  501  0.00000000000E+00  0.00000000000E+00  0.12119490507E+04  0.12119490507E+04  0.25500000920E-02 0.  1.
        2   -1    0    0  501    0  0.00000000000E+00  0.00000000000E+00 -0.13119147162E+04  0.13119147162E+04  0.25500000920E-02 0. -1.
    10030    2    1    2    0    0  0.00000000000E+00  0.00000000000E+00 -0.99965665441E+02  0.25238637669E+04  0.25218832605E+04 0.  0.
        1    1    3    3  502    0  0.70242227916E+03  0.18288212408E+03  0.98190928112E+03  0.12210605087E+04  0.50400001928E-02 0. -1.
       -1    1    3    3    0  502 -0.70242227916E+03 -0.18288212408E+03 -0.10818749466E+04  0.13028032582E+04  0.50400001928E-02 0.  1.
</event>
<event>
 5   0  0.2980790E-05  0.2508917E+04  0.7818609E-02  0.8399816E-01
       -1   -1    0    0    0  501  0.00000000000E+00  0.00000000000E+00  0.99810548368E+03  0.99810548369E+03  0.50400001928E-02 0.  1.
        1   -1    0    0  501    0  0.00000000000E+00  0.00000000000E+00 -0.15766535332E+04  0.15766535332E+04  0.50400001928E-02 0. -1.
    10030    2    1    2    0    0  0.00000000000E+00  0.00000000000E+00 -0.57854804951E+03  0.25747590169E+04  0.25089173262E+04 0.  0.
        5    1    3    3  502    0  0.66151624244E+03  0.70815229041E+03  0.52822442897E+03  0.11036877016E+04  0.46999998093E+01 0.  1.
       -5    1    3    3    0  502 -0.66151624244E+03 -0.70815229041E+03 -0.11067724785E+04  0.14710713152E+04  0.46999998093E+01 0. -1.
</event>
<event>
 5   0  0.2977854E-05  0.1446766E+04  0.7818609E-02  0.8920645E-01
        1   -1    0    0  501    0  0.00000000000E+00  0.00000000000E+00  0.98183202032E+03  0.98183202033E+03  0.50400001928E-02 0. -1.
       -1   -1    0    0    0  501  0.00000000000E+00  0.00000000000E+00 -0.53296602183E+03  0.53296602185E+03  0.50400001928E-02 0.  1.
    10030    2    1    2    0    0  0.00000000000E+00  0.00000000000E+00  0.44886599849E+03  0.15147980422E+04  0.14467661954E+04 0.  0.
        1    1    3    3  502    0  0.44362687591E+03  0.41637914220E+03 -0.18525523899E+03  0.63599992035E+03  0.50400001928E-02 0.  1.
       -1    1    3    3    0  502 -0.44362687591E+03 -0.41637914220E+03  0.63412123748E+03  0.87879812183E+03  0.50400001928E-02 0. -1.
</event>
<event>
 5   0  0.2977854E-05  0.2560567E+04  0.7818609E-02  0.8381720E-01
       -1   -1    0    0    0  501  0.00000000000E+00  0.00000000000E+00  0.71532810447E+03  0.71532810449E+03  0.50400001928E-02 0.  1.
        1   -1    0    0  501    0  0.00000000000E+00  0.00000000000E+00 -0.22914320342E+04  0.22914320342E+04  0.50400001928E-02 0. -1.
    10030    2    1    2    0    0  0.00000000000E+00  0.00000000000E+00 -0.15761039297E+04  0.30067601387E+04  0.25605669166E+04 0.  0.
        1    1    3    3  502    0 -0.82133855375E+03 -0.50536697792E+03  0.20078907149E+03  0.98504266583E+03  0.50400001928E-02 0.  1.
       -1    1    3    3    0  502  0.82133855375E+03  0.50536697792E+03 -0.17768930012E+04  0.20217174729E+04  0.50400001928E-02 0. -1.
</event>
<event>
 5   0  0.2896652E-05  0.2466933E+04  0.7818609E-02  0.8414861E-01
       -1   -1    0    0    0  501  0.00000000000E+00  0.00000000000E+00  0.12610356224E+04  0.12610356224E+04  0.50400001928E-02 0. -1.
        1   -1    0    0  501    0  0.00000000000E+00  0.00000000000E+00 -0.12065003284E+04  0.12065003284E+04  0.50400001928E-02 0.  1.
    10030    2    1    2    0    0  0.00000000000E+00  0.00000000000E+00  0.54535294022E+02  0.24675359508E+04  0.24669332318E+04 0.  0.
        4    1    3    3  502    0  0.98687267087E+02  0.10454816629E+04  0.67447070427E+03  0.12480718841E+04  0.12699999809E+01 0. -1.
       -4    1    3    3    0  502 -0.98687267087E+02 -0.10454816629E+04 -0.61993541025E+03  0.12194640667E+04  0.12699999809E+01 0.  1.
</event>
<event>
 5   0  0.6909250E-05  0.2421364E+04  0.7818609E-02  0.8431548E-01
        2   -1    0    0  501    0  0.00000000000E+00  0.00000000000E+00  0.13744406676E+04  0.13744406676E+04  0.25500000920E-02 0.  1.
       -2   -1    0    0    0  501  0.00000000000E+00  0.00000000000E+00 -0.10664340620E+04  0.10664340620E+04  0.25500000920E-02 0. -1.
    10030    2    1    2    0    0  0.00000000000E+00  0.00000000000E+00  0.30800660554E+03  0.24408747296E+04  0.24213635366E+04 0.  0.
        4    1    3    3  502    0  0.90354249615E+03 -0.73796363348E+03  0.48029246437E+03  0.12616108080E+04  0.12699999809E+01 0.  1.
       -4    1    3    3    0  502 -0.90354249615E+03  0.73796363348E+03 -0.17228585883E+03  0.11792639216E+04  0.12699999809E+01 0. -1.
</event>
<event>
 5   0  0.6445331E-05  0.1332707E+04  0.7818609E-02  0.9004023E-01
       -2   -1    0    0    0  501  0.00000000000E+00  0.00000000000E+00  0.23608180830E+03  0.23608180831E+03  0.25500000920E-02 0.  1.
        2   -1    0    0  501    0  0.00000000000E+00  0.00000000000E+00 -0.18808194030E+04  0.18808194030E+04  0.25500000920E-02 0. -1.
    10030    2    1    2    0    0  0.00000000000E+00  0.00000000000E+00 -0.16447375947E+04  0.21169012113E+04  0.13327073884E+04 0.  0.
        1    1    3    3  502    0 -0.51965410371E+03  0.12225995427E+03 -0.18891039925E+03  0.56628175221E+03  0.50400001928E-02 0.  1.
       -1    1    3    3    0  502  0.51965410371E+03 -0.12225995427E+03 -0.14558271954E+04  0.15506194591E+04  0.50400001928E-02 0. -1.
</event>
<event>
 5   0  0.2896652E-05  0.2477218E+04  0.7818609E-02  0.8411147E-01
        1   -1    0    0  501    0  0.00000000000E+00  0.00000000000E+00  0.21561187833E+04  0.21561187833E+04  0.50400001928E-02 0. -1.
       -1   -1    0    0    0  501  0.00000000000E+00  0.00000000000E+00 -0.71153409528E+03  0.71153409530E+03  0.50400001928E-02 0.  1.
    10030    2    1    2    0    0  0.00000000000E+00  0.00000000000E+00  0.14445846880E+04  0.28676528786E+04  0.24772178167E+04 0.  0.
        4    1    3    3  502    0 -0.12202991998E+04  0.20999881899E+03  0.68716551970E+03  0.14161312458E+04  0.12699999809E+01 0. -1.
       -4    1    3    3    0  502  0.12202991998E+04 -0.20999881899E+03  0.75741916827E+03  0.14515216328E+04  0.12699999809E+01 0.  1.
</event>
<event>
 5   0  0.7071821E-05  0.2548434E+04  0.7818609E-02  0.8385931E-01
       -2   -1    0    0    0  501  0.00000000000E+00  0.00000000000E+00  0.11145216584E+04  0.11145216584E+04  0.25500000920E-02 0. -1.
        2   -1    0    0  501    0  0.00000000000E+00  0.00000000000E+00 -0.14567949849E+04  0.14567949849E+04  0.25500000920E-02 0.  1.
    10030    2    1    2    0    0  0.00000000000E+00  0.00000000000E+00 -0.34227332646E+03  0.25713166433E+04  0.25484344704E+04 0.  0.
        5    1    3    3  502    0  0.65620378580E+03 -0.82141527682E+03 -0.89751810023E+03  0.13823484712E+04  0.46999998093E+01 0.  1.
       -5    1    3    3    0  502 -0.65620378580E+03  0.82141527682E+03  0.55524477377E+03  0.11889681721E+04  0.46999998093E+01 0. -1.
</event>
<event>
 5   0  0.6827859E-05  0.2603806E+04  0.7818609E-02  0.8366909E-01
       -2   -1    0    0    0  501  0.00000000000E+00  0.00000000000E+00  0.10407786419E+04  0.10407786419E+04  0.25500000920E-02 0.  1.
        2   -1    0    0  501    0  0.00000000000E+00  0.00000000000E+00 -0.16285422453E+04  0.16285422453E+04  0.25500000920E-02 0. -1.
    10030    2    1    2    0    0  0.00000000000E+00  0.00000000000E+00 -0.58776360339E+03  0.26693208872E+04  0.26038064339E+04 0.  0.
        3    1    3    3  502    0  0.70762796084E+03  0.84798554922E+03  0.41276219002E+03  0.11790629578E+04  0.10100000352E+00 0.  1.
       -3    1    3    3    0  502 -0.70762796084E+03 -0.84798554922E+03 -0.10005257934E+04  0.14902579294E+04  0.10100000352E+00 0. -1.
</event>
<event>
 5   0  0.6909250E-05  0.2685813E+04  0.7818609E-02  0.8339623E-01
        2   -1    0    0  501    0  0.00000000000E+00  0.00000000000E+00  0.12171213356E+04  0.12171213356E+04  0.25500000920E-02 0.  1.
       -2   -1    0    0    0  501  0.00000000000E+00  0.00000000000E+00 -0.14816910501E+04  0.14816910501E+04  0.25500000920E-02 0. -1.
    10030    2    1    2    0    0  0.00000000000E+00  0.00000000000E+00 -0.26456971454E+03  0.26988123857E+04  0.26858129420E+04 0.  0.
        4    1    3    3  502    0 -0.77403448005E+03  0.46438295575E+02  0.96942970247E+03  0.12414030178E+04  0.12699999809E+01 0.  1.
       -4    1    3    3    0  502  0.77403448005E+03 -0.46438295575E+02 -0.12339994170E+04  0.14574093679E+04  0.12699999809E+01 0. -1.
</event>
<event>
 5   0  0.6648328E-05  0.2150721E+04  0.7818609E-02  0.8539224E-01
       -2   -1    0    0    0  501  0.00000000000E+00  0.00000000000E+00  0.13811468057E+04  0.13811468057E+04  0.25500000920E-02 0.  1.
        2   -1    0    0  501    0  0.00000000000E+00  0.00000000000E+00 -0.83727533325E+03  0.83727533326E+03  0.25500000920E-02 0. -1.
    10030    2    1    2    0    0  0.00000000000E+00  0.00000000000E+00  0.54387147243E+03  0.22184221389E+04  0.21507209508E+04 0.  0.
        2    1    3    3  502    0  0.26627267713E+03 -0.82759049649E+03 -0.38091183703E+03  0.94915804588E+03  0.25500000920E-02 0. -1.
       -2    1    3    3    0  502 -0.26627267713E+03  0.82759049649E+03  0.92478330946E+03  0.12692640931E+04  0.25500000920E-02 0.  1.
</event>
<event>
 5   0  0.6648328E-05  0.2314090E+04  0.7818609E-02  0.8472386E-01
       -2   -1    0    0    0  501  0.00000000000E+00  0.00000000000E+00  0.11331391690E+04  0.11331391690E+04  0.25500000920E-02 0. -1.
        2   -1    0    0  501    0  0.00000000000E+00  0.00000000000E+00 -0.11814550502E+04  0.11814550502E+04  0.25500000920E-02 0.  1.
    10030    2    1    2    0    0  0.00000000000E+00  0.00000000000E+00 -0.48315881227E+02  0.23145942191E+04  0.23140898805E+04 0.  0.
        2    1    3    3  502    0  0.71716106995E+03 -0.89525055174E+03  0.12739882049E+03  0.11541334455E+04  0.25500000920E-02 0.  1.
       -2    1    3    3    0  502 -0.71716106995E+03  0.89525055174E+03 -0.17571470172E+03  0.11604607736E+04  0.25500000920E-02 0. -1.
</event>
<event>
 5   0  0.6648328E-05  0.1347569E+04  0.7818609E-02  0.8992670E-01
       -2   -1    0    0    0  501  0.00000000000E+00  0.00000000000E+00  0.46200366645E+03  0.46200366646E+03  0.25500000920E-02 0.  1.
        2   -1    0    0  501    0  0.00000000000E+00  0.00000000000E+00 -0.98264490563E+03  0.98264490563E+03  0.25500000920E-02 0. -1.
    10030    2    1    2    0    0  0.00000000000E+00  0.00000000000E+00 -0.52064123917E+03  0.14446485721E+04  0.13475689952E+04 0.  0.
        2    1    3    3  502    0  0.47848770467E+03  0.47424382893E+03 -0.24819866975E+03  0.71795562013E+03  0.25500000920E-02 0.  1.
       -2    1    3    3    0  502 -0.47848770467E+03 -0.47424382893E+03 -0.27244256942E+03  0.72669295197E+03  0.25500000920E-02 0. -1.
</event>
<event>
 5   0  0.6827859E-05  0.1747445E+04  0.7818609E-02  0.8734758E-01
       -2   -1    0    0    0  501  0.00000000000E+00  0.00000000000E+00  0.40310113758E+03  0.40310113759E+03  0.25500000920E-02 0. -1.
        2   -1    0    0  501    0  0.00000000000E+00  0.00000000000E+00 -0.18937945626E+04  0.18937945626E+04  0.25500000920E-02 0.  1.
    10030    2    1    2    0    0  0.00000000000E+00  0.00000000000E+00 -0.14906934250E+04  0.22968957002E+04  0.17474446973E+04 0.  0.
        3    1    3    3  502    0  0.41628682988E+03  0.31378023425E+03 -0.16669850756E+04  0.17465944041E+04  0.10100000352E+00 0.  1.
       -3    1    3    3    0  502 -0.41628682988E+03 -0.31378023425E+03  0.17629165060E+03  0.55030129602E+03  0.10100000352E+00 0. -1.
</event>
<event>
 5   0  0.6909250E-05  0.2468156E+04  0.7818609E-02  0.8414419E-01
       -2   -1    0    0    0  501  0.00000000000E+00  0.00000000000E+00  0.10353558738E+04  0.10353558738E+04  0.25500000920E-02 0.  1.
        2   -1    0    0  501    0  0.00000000000E+00  0.00000000000E+00 -0.14709423740E+04  0.14709423740E+04  0.25500000920E-02 0. -1.
    10030    2    1    2    0    0  0.00000000000E+00  0.00000000000E+00 -0.43558650022E+03  0.25062982479E+04  0.24681562568E+04 0.  0.
        4    1    3    3  502    0  0.11946720365E+04 -0.48584626092E+01 -0.53189906847E+03  0.13077396956E+04  0.12699999809E+01 0. -1.
       -4    1    3    3    0  502 -0.11946720365E+04  0.48584626092E+01  0.96312568253E+02  0.11985585523E+04  0.12699999809E+01 0.  1.
</event>
<event>
 5   0  0.6445331E-05  0.2497464E+04  0.7818609E-02  0.8403890E-01
        2   -1    0    0  501    0  0.00000000000E+00  0.00000000000E+00  0.13733432333E+04  0.13733432334E+04  0.25500000920E-02 0. -1.
       -2   -1    0    0    0  501  0.00000000000E+00  0.00000000000E+00 -0.11354274220E+04  0.11354274220E+04  0.25500000920E-02 0.  1.
    10030    2    1    2    0    0  0.00000000000E+00  0.00000000000E+00  0.23791581137E+03  0.25087706553E+04  0.24974639673E+04 0.  0.
        1    1    3    3  502    0  0.83377302286E+03  0.74917171766E+02  0.10497279214E+04  0.13426536208E+04  0.50400001928E-02 0. -1.
       -1    1    3    3    0  502 -0.83377302286E+03 -0.74917171766E+02 -0.81181211005E+03  0.11661170346E+04  0.50400001928E-02 0.  1.
</event>
<event>
 5   0  0.2977854E-05  0.1615140E+04  0.7818609E-02  0.8811300E-01
       -1   -1    0    0    0  501  0.00000000000E+00  0.00000000000E+00  0.82403489462E+03  0.82403489464E+03  0.50400001928E-02 0.  1.
        1   -1    0    0  501    0  0.00000000000E+00  0.00000000000E+00 -0.79143455803E+03  0.79143455804E+03  0.50400001928E-02 0. -1.
    10030    2    1    2    0    0  0.00000000000E+00  0.00000000000E+00  0.32600336597E+02  0.16154694527E+04  0.16151404801E+04 0.  0.
        1    1    3    3  502    0  0.15359939512E+03 -0.20135392720E+03 -0.75068945399E+03  0.79225679836E+03  0.50400001928E-02 0. -1.
       -1    1    3    3    0  502 -0.15359939512E+03  0.20135392720E+03  0.78328979059E+03  0.82321265433E+03  0.50400001928E-02 0.  1.
</event>
<event>
 5   0  0.2777539E-05  0.2267633E+04  0.7818609E-02  0.8490793E-01
       -1   -1    0    0    0  501  0.00000000000E+00  0.00000000000E+00  0.98633410307E+03  0.98633410308E+03  0.50400001928E-02 0. -1.
        1   -1    0    0  501    0  0.00000000000E+00  0.00000000000E+00 -0.13033513849E+04  0.13033513849E+04  0.50400001928E-02 0.  1.
    10030    2    1    2    0    0  0.00000000000E+00  0.00000000000E+00 -0.31701728186E+03  0.22896854880E+04  0.22676330561E+04 0.  0.
        3    1    3    3  502    0 -0.45993898937E+03  0.33430573116E+03  0.83196697473E+03  0.10077069282E+04  0.10100000352E+00 0. -1.
       -3    1    3    3    0  502  0.45993898937E+03 -0.33430573116E+03 -0.11489842566E+04  0.12819785599E+04  0.10100000352E+00 0.  1.
</event>
<event>
 5   0  0.2977854E-05  0.2460526E+04  0.7818609E-02  0.8417185E-01
        1   -1    0    0  501    0  0.00000000000E+00  0.00000000000E+00  0.20709512845E+04  0.20709512845E+04  0.50400001928E-02 0. -1.
       -1   -1    0    0    0  501  0.00000000000E+00  0.00000000000E+00 -0.73084622213E+03  0.73084622214E+03  0.50400001928E-02 0.  1.
    10030    2    1    2    0    0  0.00000000000E+00  0.00000000000E+00  0.13401050623E+04  0.28017975066E+04  0.24605258970E+04 0.  0.
        1    1    3    3  502    0  0.69530982482E+03 -0.90930043873E+03  0.15667257089E+03  0.11553481444E+04  0.50400001928E-02 0.  1.
       -1    1    3    3    0  502 -0.69530982482E+03  0.90930043873E+03  0.11834324914E+04  0.16464493622E+04  0.50400001928E-02 0. -1.
</event>
<event>
 5   0  0.6909250E-05  0.2546723E+04  0.7818609E-02  0.8386527E-01
       -2   -1    0    0    0  501  0.00000000000E+00  0.00000000000E+00  0.15361181170E+04  0.15361181170E+04  0.25500000920E-02 0.  1.
        2   -1    0    0  501    0  0.00000000000E+00  0.00000000000E+00 -0.10555499600E+04  0.10555499600E+04  0.25500000920E-02 0. -1.
    10030    2    1    2    0    0  0.00000000000E+00  0.00000000000E+00  0.48056815701E+03  0.25916680770E+04  0.25467229272E+04 0.  0.
        4    1    3    3  502    0  0.11045081673E+04 -0.44898616724E+03  0.69530023460E+03  0.13802068320E+04  0.12699999809E+01 0.  1.
       -4    1    3    3    0  502 -0.11045081673E+04  0.44898616724E+03 -0.21473207759E+03  0.12114612450E+04  0.12699999809E+01 0. -1.
</event>
<event>
 5   0  0.6648328E-05  0.2566019E+04  0.7818609E-02  0.8379836E-01
       -2   -1    0    0    0  501  0.00000000000E+00  0.00000000000E+00  0.73923209086E+03  0.73923209087E+03  0.25500000920E-02 0. -1.
        2   -1    0    0  501    0  0.00000000000E+00  0.00000000000E+00 -0.22267889408E+04  0.22267889408E+04  0.25500000920E-02 0.  1.
    10030    2    1    2    0    0  0.00000000000E+00  0.00000000000E+00 -0.14875568499E+04  0.29660210316E+04  0.25660193644E+04 0.  0.
        2    1    3    3  502    0  0.71886188176E+03  0.56516958602E+03 -0.17840322485E+04  0.20047319346E+04  0.25500000920E-02 0.  1.
       -2    1    3    3    0  502 -0.71886188176E+03 -0.56516958602E+03  0.29647539862E+03  0.96128909699E+03  0.25500000920E-02 0. -1.
</event>
<event>
 5   0  0.6648328E-05  0.2470674E+04  0.7818609E-02  0.8413508E-01
       -2   -1    0    0    0  501  0.00000000000E+00  0.00000000000E+00  0.78029204318E+03  0.78029204318E+03  0.25500000920E-02 0. -1.
        2   -1    0    0  501    0  0.00000000000E+00  0.00000000000E+00 -0.19557518765E+04  0.19557518765E+04  0.25500000920E-02 0.  1.
    10030    2    1    2    0    0  0.00000000000E+00  0.00000000000E+00 -0.11754598334E+04  0.27360439197E+04  0.24706741005E+04 0.  0.
        2    1    3    3  502    0  0.22717688755E+02  0.70491572728E+03  0.53542154031E+03  0.88549336631E+03  0.25500000920E-02 0. -1.
       -2    1    3    3    0  502 -0.22717688755E+02 -0.70491572728E+03 -0.17108813737E+04  0.18505505534E+04  0.25500000920E-02 0.  1.
</event>
<event>
 5   0  0.6445331E-05  0.2460416E+04  0.7818609E-02  0.8417225E-01
       -2   -1    0    0    0  501  0.00000000000E+00  0.00000000000E+00  0.10035652066E+04  0.10035652066E+04  0.25500000920E-02 0.  1.
        2   -1    0    0  501    0  0.00000000000E+00  0.00000000000E+00 -0.15080353098E+04  0.15080353098E+04  0.25500000920E-02 0. -1.
    10030    2    1    2    0    0  0.00000000000E+00  0.00000000000E+00 -0.50447010325E+03  0.25116005164E+04  0.24604160357E+04 0.  0.
        1    1    3    3  502    0 -0.39845560879E+03  0.59666773462E+03  0.76786992145E+03  0.10509060253E+04  0.50400001928E-02 0.  1.
       -1    1    3    3    0  502  0.39845560879E+03 -0.59666773462E+03 -0.12723400247E+04  0.14606944911E+04  0.50400001928E-02 0. -1.
</event>
<event>
 5   0  0.7071821E-05  0.2409738E+04  0.7818609E-02  0.8435867E-01
       -2   -1    0    0    0  501  0.00000000000E+00  0.00000000000E+00  0.92678983867E+03  0.92678983867E+03  0.25500000920E-02 0. -1.
        2   -1    0    0  501    0  0.00000000000E+00  0.00000000000E+00 -0.15663846242E+04  0.15663846242E+04  0.25500000920E-02 0.  1.
    10030    2    1    2    0    0  0.00000000000E+00  0.00000000000E+00 -0.63959478550E+03  0.24931744628E+04  0.24097380382E+04 0.  0.
        5    1    3    3  502    0  0.10544227695E+04 -0.57266431884E+03 -0.20676511083E+03  0.12175901198E+04  0.46999998093E+01 0.  1.
       -5    1    3    3    0  502 -0.10544227695E+04  0.57266431884E+03 -0.43282967467E+03  0.12755843430E+04  0.46999998093E+01 0. -1.
</event>
<event>
 5   0  0.2793920E-05  0.2876967E+04  0.7818609E-02  0.8279764E-01
       -1   -1    0    0    0  501  0.00000000000E+00  0.00000000000E+00  0.88226028632E+03  0.88226028634E+03  0.50400001928E-02 0.  1.
        1   -1    0    0  501    0  0.00000000000E+00  0.00000000000E+00 -0.23453786417E+04  0.23453786417E+04  0.50400001928E-02 0. -1.
    10030    2    1    2    0    0  0.00000000000E+00  0.00000000000E+00 -0.14631183554E+04  0.32276389281E+04  0.28769667582E+04 0.  0.
        2    1    3    3  502    0 -0.52429249211E+02  0.84241323714E+03  0.57524979109E+03  0.10214309621E+04  0.25500000920E-02 0.  1.
       -2    1    3    3    0  502  0.52429249211E+02 -0.84241323714E+03 -0.20383681465E+04  0.22062079659E+04  0.25500000920E-02 0. -1.
</event>
<event>
 5   0  0.2777539E-05  0.2544047E+04  0.7818609E-02  0.8387460E-01
       -1   -1    0    0    0  501  0.00000000000E+00  0.00000000000E+00  0.11591760192E+04  0.11591760192E+04  0.50400001928E-02 0.  1.
        1   -1    0    0  501    0  0.00000000000E+00  0.00000000000E+00 -0.13958565305E+04  0.13958565305E+04  0.50400001928E-02 0. -1.
    10030    2    1    2    0    0  0.00000000000E+00  0.00000000000E+00 -0.23668051125E+03  0.25550325497E+04  0.25440467106E+04 0.  0.
        3    1    3    3  502    0 -0.10478294623E+04 -0.89094420785E+02 -0.83708348082E+03  0.13440956670E+04  0.10100000352E+00 0. -1.
       -3    1    3    3    0  502  0.10478294623E+04  0.89094420785E+02  0.60040296957E+03  0.12109368827E+04  0.10100000352E+00 0.  1.
</event>
<event>
 5   0  0.2977854E-05  0.1989358E+04  0.7818609E-02  0.8611612E-01
       -1   -1    0    0    0  501  0.00000000000E+00  0.00000000000E+00  0.18373200868E+04  0.18373200868E+04  0.50400001928E-02 0.  1.
        1   -1    0    0  501    0  0.00000000000E+00  0.00000000000E+00 -0.53849450185E+03  0.53849450187E+03  0.50400001928E-02 0. -1.
    10030    2    1    2    0    0  0.00000000000E+00  0.00000000000E+00  0.12988255849E+04  0.23758145887E+04  0.19893584543E+04 0.  0.
        1    1    3    3  502    0  0.46045376919E+03 -0.68917224667E+03  0.13061597685E+04  0.15469419510E+04  0.50400001928E-02 0.  1.
       -1    1    3    3    0  502 -0.46045376919E+03  0.68917224667E+03 -0.73341835025E+01  0.82887263764E+03  0.50400001928E-02 0. -1.
</event>
<event>
 5   0  0.2793920E-05  0.2488241E+04  0.7818609E-02  0.8407187E-01
       -1   -1    0    0    0  501  0.00000000000E+00  0.00000000000E+00  0.91476864217E+03  0.91476864218E+03  0.50400001928E-02 0. -1.
        1   -1    0    0  501    0  0.00000000000E+00  0.00000000000E+00 -0.16920519761E+04  0.16920519761E+04  0.50400001928E-02 0.  1.
    10030    2    1    2    0    0  0.00000000000E+00  0.00000000000E+00 -0.77728333391E+03  0.26068206183E+04  0.24882412171E+04 0.  0.
        2    1    3    3  502    0 -0.11476536469E+04  0.76791635597E+02 -0.88540099360E+03  0.14515304916E+04  0.25500000920E-02 0.  1.
       -2    1    3    3    0  502  0.11476536469E+04 -0.76791635597E+02  0.10811765969E+03  0.11552901267E+04  0.25500000920E-02 0. -1.
</event>
<event>
 5   0  0.6827859E-05  0.2561829E+04  0.7818609E-02  0.8381284E-01
       -2   -1    0    0    0  501  0.00000000000E+00  0.00000000000E+00  0.11471132137E+04  0.11471132137E+04  0.25500000920E-02 0.  1.
        2   -1    0    0  501    0  0.00000000000E+00  0.00000000000E+00 -0.14303225769E+04  0.14303225769E+04  0.25500000920E-02 0. -1.
    10030    2    1    2    0    0  0.00000000000E+00  0.00000000000E+00 -0.28320936320E+03  0.25774357905E+04  0.25618289777E+04 0.  0.
        3    1    3    3  502    0  0.37190098486E+03 -0.20407172593E+03 -0.13575976554E+04  0.14223315422E+04  0.10100000352E+00 0. -1.
       -3    1    3    3    0  502 -0.37190098486E+03  0.20407172593E+03  0.10743882922E+04  0.11551042483E+04  0.10100000352E+00 0.  1.
</event>
<event>
 5   0  0.2793920E-05  0.1659171E+04  0.7818609E-02  0.8784999E-01
       -1   -1    0    0    0  501  0.00000000000E+00  0.00000000000E+00  0.92596423984E+03  0.92596423985E+03  0.50400001928E-02 0.  1.
        1   -1    0    0  501    0  0.00000000000E+00  0.00000000000E+00 -0.74323870586E+03  0.74323870588E+03  0.50400001928E-02 0. -1.
    10030    2    1    2    0    0  0.00000000000E+00  0.00000000000E+00  0.18272553398E+03  0.16692029457E+04  0.16591714358E+04 0.  0.
        2    1    3    3  502    0  0.39681591391E+03  0.70717300704E+03 -0.84784188560E+02  0.81531888857E+03  0.25500000920E-02 0. -1.
       -2    1    3    3    0  502 -0.39681591391E+03 -0.70717300704E+03  0.26750972254E+03  0.85388405717E+03  0.25500000920E-02 0.  1.
</event>
<event>
 5   0  0.7071821E-05  0.2529920E+04  0.7818609E-02  0.8392403E-01
       -2   -1    0    0    0  501  0.00000000000E+00  0.00000000000E+00  0.14055005292E+04  0.14055005292E+04  0.25500000920E-02 0. -1.
        2   -1    0    0  501    0  0.00000000000E+00  0.00000000000E+00 -0.11384721960E+04  0.11384721960E+04  0.25500000920E-02 0.  1.
    10030    2    1    2    0    0  0.00000000000E+00  0.00000000000E+00  0.26702833321E+03  0.25439727252E+04  0.25299195829E+04 0.  0.
        5    1    3    3  502    0 -0.50584571951E+03 -0.83095954585E+03  0.94653957781E+03  0.13573256504E+04  0.46999998093E+01 0. -1.
       -5    1    3    3    0  502  0.50584571951E+03  0.83095954585E+03 -0.67951124460E+03  0.11866470749E+04  0.46999998093E+01 0.  1.
</event>
<event>
 5   0  0.6445331E-05  0.2501042E+04  0.7818609E-02  0.8402614E-01
       -2   -1    0    0    0  501  0.00000000000E+00  0.00000000000E+00  0.15241609570E+04  0.15241609570E+04  0.25500000920E-02 0. -1.
        2   -1    0    0  501    0  0.00000000000E+00  0.00000000000E+00 -0.10260091885E+04  0.10260091885E+04  0.25500000920E-02 0.  1.
    10030    2    1    2    0    0  0.00000000000E+00  0.00000000000E+00  0.49815176846E+03  0.25501701455E+04  0.25010423000E+04 0.  0.
        1    1    3    3  502    0  0.20453317657E+03 -0.11155476934E+04  0.78622807687E+03  0.13800127048E+04  0.50400001928E-02 0. -1.
       -1    1    3    3    0  502 -0.20453317657E+03  0.11155476934E+04 -0.28807630840E+03  0.11701574407E+04  0.50400001928E-02 0.  1.
</event>
<event>
 5   0  0.2980790E-05  0.2471068E+04  0.7818609E-02  0.8413366E-01
       -1   -1    0    0    0  501  0.00000000000E+00  0.00000000000E+00  0.86416362081E+03  0.86416362083E+03  0.50400001928E-02 0.  1.
        1   -1    0    0  501    0  0.00000000000E+00  0.00000000000E+00 -0.17664994901E+04  0.17664994901E+04  0.50400001928E-02 0. -1.
    10030    2    1    2    0    0  0.00000000000E+00  0.00000000000E+00 -0.90233586928E+03  0.26306631109E+04  0.24710682674E+04 0.  0.
        5    1    3    3  502    0  0.66088548213E+03  0.94198709100E+03 -0.93012867054E+03  0.14796184420E+04  0.46999998093E+01 0. -1.
       -5    1    3    3    0  502 -0.66088548213E+03 -0.94198709100E+03  0.27792801260E+02  0.11510446689E+04  0.46999998093E+01 0.  1.
</event>
<event>
 5   0  0.2777539E-05  0.2198643E+04  0.7818609E-02  0.8518993E-01
        1   -1    0    0  501    0  0.00000000000E+00  0.00000000000E+00  0.98972621554E+03  0.98972621555E+03  0.50400001928E-02 0. -1.
       -1   -1    0    0    0  501  0.00000000000E+00  0.00000000000E+00 -0.12210529288E+04  0.12210529288E+04  0.50400001928E-02 0.  1.
    10030    2    1    2    0    0  0.00000000000E+00  0.00000000000E+00 -0.23132671325E+03  0.22107791444E+04  0.21986433037E+04 0.  0.
        3    1    3    3  502    0  0.32060825853E+03 -0.54243024370E+03  0.79013513865E+03  0.10106105938E+04  0.10100000352E+00 0. -1.
       -3    1    3    3    0  502 -0.32060825853E+03  0.54243024370E+03 -0.10214618519E+04  0.12001685506E+04  0.10100000352E+00 0.  1.
</event>
<event>
 5   0  0.2977854E-05  0.2462989E+04  0.7818609E-02  0.8416291E-01
       -1   -1    0    0    0  501  0.00000000000E+00  0.00000000000E+00  0.13329453202E+04  0.13329453202E+04  0.50400001928E-02 0.  1.
        1   -1    0    0  501    0  0.00000000000E+00  0.00000000000E+00 -0.11377646977E+04  0.11377646977E+04  0.50400001928E-02 0. -1.
    10030    2    1    2    0    0  0.00000000000E+00  0.00000000000E+00  0.19518062252E+03  0.24707100180E+04  0.24629885338E+04 0.  0.
        1    1    3    3  502    0 -0.85309541715E+03  0.48340336633E+02 -0.79202109482E+03  0.11650776771E+04  0.50400001928E-02 0. -1.
       -1    1    3    3    0  502  0.85309541715E+03 -0.48340336633E+02  0.98720171733E+03  0.13056323409E+04  0.50400001928E-02 0.  1.
</event>
<event>
 5   0  0.2980790E-05  0.2505278E+04  0.7818609E-02  0.8401108E-01
        1   -1    0    0  501    0  0.00000000000E+00  0.00000000000E+00  0.17052826556E+04  0.17052826556E+04  0.50400001928E-02 0. -1.
       -1   -1    0    0    0  501  0.00000000000E+00  0.00000000000E+00 -0.92014306869E+03  0.92014306870E+03  0.50400001928E-02 0.  1.
    10030    2    1    2    0    0  0.00000000000E+00  0.00000000000E+00  0.78513958689E+03  0.26254257243E+04  0.25052776419E+04 0.  0.
        5    1    3    3  502    0 -0.29770570021E+03  0.92581248562E+03 -0.43480248673E+03  0.10652852834E+04  0.46999998093E+01 0.  1.
       -5    1    3    3    0  502  0.29770570021E+03 -0.92581248562E+03  0.12199420736E+04  0.15601404409E+04  0.46999998093E+01 0. -1.
</event>
<event>
 5   0  0.6648328E-05  0.2463890E+04  0.7818609E-02  0.8415964E-01
       -2   -1    0    0    0  501  0.00000000000E+00  0.00000000000E+00  0.12743100919E+04  0.12743100919E+04  0.25500000920E-02 0.  1.
        2   -1    0    0  501    0  0.00000000000E+00  0.00000000000E+00 -0.11909880799E+04  0.11909880799E+04  0.25500000920E-02 0. -1.
    10030    2    1    2    0    0  0.00000000000E+00  0.00000000000E+00  0.83322012015E+02  0.24652981718E+04  0.24638897131E+04 0.  0.
        2    1    3    3  502    0  0.11156195514E+04 -0.34899961257E+03  0.43083117693E+03  0.12458022379E+04  0.25500000920E-02 0. -1.
       -2    1    3    3    0  502 -0.11156195514E+04  0.34899961257E+03 -0.34750916492E+03  0.12194959339E+04  0.25500000920E-02 0.  1.
</event>
<event>
 5   0  0.2793920E-05  0.2522455E+04  0.7818609E-02  0.8395029E-01
       -1   -1    0    0    0  501  0.00000000000E+00  0.00000000000E+00  0.15549266406E+04  0.15549266406E+04  0.50400001928E-02 0.  1.
        1   -1    0    0  501    0  0.00000000000E+00  0.00000000000E+00 -0.10230032131E+04  0.10230032131E+04  0.50400001928E-02 0. -1.
    10030    2    1    2    0    0  0.00000000000E+00  0.00000000000E+00  0.53192342751E+03  0.25779298538E+04  0.25224551132E+04 0.  0.
        2    1    3    3  502    0  0.63336241594E+03  0.23841423892E+03 -0.82173090810E+03  0.10645332238E+04  0.25500000920E-02 0. -1.
       -2    1    3    3    0  502 -0.63336241594E+03 -0.23841423892E+03  0.13536543356E+04  0.15133966300E+04  0.25500000920E-02 0.  1.
</event>
<event>
 5   0  0.7071821E-05  0.2379934E+04  0.7818609E-02  0.8447054E-01
        2   -1    0    0  501    0  0.00000000000E+00  0.00000000000E+00  0.10528932581E+04  0.10528932581E+04  0.25500000920E-02 0. -1.
       -2   -1    0    0    0  501  0.00000000000E+00  0.00000000000E+00 -0.13448861317E+04  0.13448861317E+04  0.25500000920E-02 0.  1.
    10030    2    1    2    0    0  0.00000000000E+00  0.00000000000E+00 -0.29199287361E+03  0.23977793899E+04  0.23799340672E+04 0.  0.
        5    1    3    3  502    0 -0.45344339788E+03 -0.37887225369E+03  0.89462993633E+03  0.10721659912E+04  0.46999998093E+01 0. -1.
       -5    1    3    3    0  502  0.45344339788E+03  0.37887225369E+03 -0.11866228099E+04  0.13256133987E+04  0.46999998093E+01 0.  1.
</event>
<event>
 5   0  0.2977854E-05  0.2472365E+04  0.7818609E-02  0.8412897E-01
       -1   -1    0    0    0  501  0.00000000000E+00  0.00000000000E+00  0.16407600033E+04  0.16407600033E+04  0.50400001928E-02 0.  1.
        1   -1    0    0  501    0  0.00000000000E+00  0.00000000000E+00 -0.93136507847E+03  0.93136507848E+03  0.50400001928E-02 0. -1.
    10030    2    1    2    0    0  0.00000000000E+00  0.00000000000E+00  0.70939492479E+03  0.25721250817E+04  0.24723645113E+04 0.  0.
        1    1    3    3  502    0  0.86980153581E+02 -0.88826961797E+03  0.12445212209E+04  0.15314769115E+04  0.50400001928E-02 0.  1.
       -1    1    3    3    0  502 -0.86980153581E+02  0.88826961797E+03 -0.53512629610E+03  0.10406481702E+04  0.50400001928E-02 0. -1.
</event>
<event>
 5   0  0.6827859E-05  0.2486980E+04  0.7818609E-02  0.8407639E-01
       -2   -1    0    0    0  501  0.00000000000E+00  0.00000000000E+00  0.68567256536E+03  0.68567256536E+03  0.25500000920E-02 0.  1.
        2   -1    0    0  501    0  0.00000000000E+00  0.00000000000E+00 -0.22551103729E+04  0.22551103729E+04  0.25500000920E-02 0. -1.
    10030    2    1    2    0    0  0.00000000000E+00  0.00000000000E+00 -0.15694378075E+04  0.29407829382E+04  0.24869799473E+04 0.  0.
        3    1    3    3  502    0 -0.16010927287E+03 -0.10519694343E+04 -0.15455477911E+04  0.18764308287E+04  0.10100000352E+00 0. -1.
       -3    1    3    3    0  502  0.16010927287E+03  0.10519694343E+04 -0.23890016409E+02  0.10643521096E+04  0.10100000352E+00 0.  1.
</event>
<event>
 5   0  0.7071821E-05  0.2949964E+04  0.7818609E-02  0.8258165E-01
       -2   -1    0    0    0  501  0.00000000000E+00  0.00000000000E+00  0.15216691679E+04  0.15216691679E+04  0.25500000920E-02 0. -1.
        2   -1    0    0  501    0  0.00000000000E+00  0.00000000000E+00 -0.14297272736E+04  0.14297272736E+04  0.25500000920E-02 0.  1.
    10030    2    1    2    0    0  0.00000000000E+00  0.00000000000E+00  0.91941894261E+02  0.29513964416E+04  0.29499640071E+04 0.  0.
        5    1    3    3  502    0  0.28893960150E+03  0.65479686614E+02 -0.13996445558E+04  0.14306644104E+04  0.46999998093E+01 0.  1.
       -5    1    3    3    0  502 -0.28893960150E+03 -0.65479686614E+02  0.14915864500E+04  0.15207320312E+04  0.46999998093E+01 0. -1.
</event>
<event>
 5   0  0.7071821E-05  0.2462733E+04  0.7818609E-02  0.8416384E-01
        2   -1    0    0  501    0  0.00000000000E+00  0.00000000000E+00  0.14106233212E+04  0.14106233212E+04  0.25500000920E-02 0. -1.
       -2   -1    0    0    0  501  0.00000000000E+00  0.00000000000E+00 -0.10748888514E+04  0.10748888514E+04  0.25500000920E-02 0.  1.
    10030    2    1    2    0    0  0.00000000000E+00  0.00000000000E+00  0.33573446984E+03  0.24855121726E+04  0.24627328572E+04 0.  0.
        5    1    3    3  502    0 -0.88162432670E+02 -0.77196189108E+03  0.11319745048E+04  0.13729843937E+04  0.46999998093E+01 0. -1.
       -5    1    3    3    0  502  0.88162432670E+02  0.77196189108E+03 -0.79624003491E+03  0.11125277790E+04  0.46999998093E+01 0.  1.
</event>
<event>
 5   0  0.6827859E-05  0.2412409E+04  0.7818609E-02  0.8434872E-01
       -2   -1    0    0    0  501  0.00000000000E+00  0.00000000000E+00  0.88618516595E+03  0.88618516596E+03  0.25500000920E-02 0.  1.
        2   -1    0    0  501    0  0.00000000000E+00  0.00000000000E+00 -0.16417897888E+04  0.16417897888E+04  0.25500000920E-02 0. -1.
    10030    2    1    2    0    0  0.00000000000E+00  0.00000000000E+00 -0.75560462282E+03  0.25279749547E+04  0.24124093819E+04 0.  0.
        3    1    3    3  502    0  0.98577499930E+03  0.26366839200E+03  0.29616932448E+03  0.10625392459E+04  0.10100000352E+00 0.  1.
       -3    1    3    3    0  502 -0.98577499930E+03 -0.26366839200E+03 -0.10517739473E+04  0.14654357088E+04  0.10100000352E+00 0. -1.
</event>
<event>
 5   0  0.2977854E-05  0.2601512E+04  0.7818609E-02  0.8367688E-01
        1   -1    0    0  501    0  0.00000000000E+00  0.00000000000E+00  0.16469929562E+04  0.16469929562E+04  0.50400001928E-02 0. -1.
       -1   -1    0    0    0  501  0.00000000000E+00  0.00000000000E+00 -0.10273064468E+04  0.10273064468E+04  0.50400001928E-02 0.  1.
    10030    2    1    2    0    0  0.00000000000E+00  0.00000000000E+00  0.61968650937E+03  0.26742994031E+04  0.26015122386E+04 0.  0.
        1    1    3    3  502    0 -0.12779564922E+04  0.23851162726E+03  0.35472120570E+03  0.13475487843E+04  0.50400001928E-02 0. -1.
       -1    1    3    3    0  502  0.12779564922E+04 -0.23851162726E+03  0.26496530367E+03  0.13267506188E+04  0.50400001928E-02 0.  1.
</event>
<event>
 5   0  0.2896652E-05  0.2475068E+04  0.7818609E-02  0.8411922E-01
       -1   -1    0    0    0  501  0.00000000000E+00  0.00000000000E+00  0.13391441362E+04  0.13391441362E+04  0.50400001928E-02 0. -1.
        1   -1    0    0  501    0  0.00000000000E+00  0.00000000000E+00 -0.11436338767E+04  0.11436338767E+04  0.50400001928E-02 0.  1.
    10030    2    1    2    0    0  0.00000000000E+00  0.00000000000E+00  0.19551025946E+03  0.24827780129E+04  0.24750681606E+04 0.  0.
        4    1    3    3  502    0 -0.53598446685E+03 -0.67380504453E+03 -0.79394381097E+03  0.11711707709E+04  0.12699999809E+01 0.  1.
       -4    1    3    3    0  502  0.53598446685E+03  0.67380504453E+03  0.98945407044E+03  0.13116072420E+04  0.12699999809E+01 0. -1.
</event>
<event>
 5   0  0.2980790E-05  0.2494796E+04  0.7818609E-02  0.8404842E-01
        1   -1    0    0  501    0  0.00000000000E+00  0.00000000000E+00  0.15289683471E+04  0.15289683471E+04  0.50400001928E-02 0.  1.
       -1   -1    0    0    0  501  0.00000000000E+00  0.00000000000E+00 -0.10176811746E+04  0.10176811746E+04  0.50400001928E-02 0. -1.
    10030    2    1    2    0    0  0.00000000000E+00  0.00000000000E+00  0.51128717242E+03  0.25466495217E+04  0.24947964273E+04 0.  0.
        5    1    3    3  502    0 -0.96269744894E+03  0.36297702457E+03  0.97559813540E+03  0.14178690032E+04  0.46999998093E+01 0.  1.
       -5    1    3    3    0  502  0.96269744894E+03 -0.36297702457E+03 -0.46431096298E+03  0.11287805185E+04  0.46999998093E+01 0. -1.
</event>
<event>
 5   0  0.6648328E-05  0.1754758E+04  0.7818609E-02  0.8730736E-01
        2   -1    0    0  501    0  0.00000000000E+00  0.00000000000E+00  0.15917489005E+04  0.15917489005E+04  0.25500000920E-02 0. -1.
       -2   -1    0    0    0  501  0.00000000000E+00  0.00000000000E+00 -0.48361499326E+03  0.48361499327E+03  0.25500000920E-02 0.  1.
    10030    2    1    2    0    0  0.00000000000E+00  0.00000000000E+00  0.11081339072E+04  0.20753638938E+04  0.17547576856E+04 0.  0.
        2    1    3    3  502    0 -0.84252462252E+02 -0.10714516495E+03 -0.47101656134E+03  0.49034188566E+03  0.25500000920E-02 0.  1.
       -2    1    3    3    0  502  0.84252462252E+02  0.10714516495E+03  0.15791504686E+04  0.15850220081E+04  0.25500000920E-02 0. -1.
</event>
<event>
 5   0  0.2777539E-05  0.1882164E+04  0.7818609E-02  0.8663786E-01
        1   -1    0    0  501    0  0.00000000000E+00  0.00000000000E+00  0.94630877864E+03  0.94630877865E+03  0.50400001928E-02 0. -1.
       -1   -1    0    0    0  501  0.00000000000E+00  0.00000000000E+00 -0.93588391792E+03  0.93588391793E+03  0.50400001928E-02 0.  1.
    10030    2    1    2    0    0  0.00000000000E+00  0.00000000000E+00  0.10424860721E+02  0.18821926966E+04  0.18821638264E+04 0.  0.
        3    1    3    3  502    0  0.46771174575E+03  0.63458183442E+03 -0.50878648029E+03  0.93824947344E+03  0.10100000352E+00 0.  1.
       -3    1    3    3    0  502 -0.46771174575E+03 -0.63458183442E+03  0.51921134101E+03  0.94394322314E+03  0.10100000352E+00 0. -1.
</event>
<event>
 5   0  0.2896652E-05  0.1280150E+04  0.7818609E-02  0.9045456E-01
       -1   -1    0    0    0  501  0.00000000000E+00  0.00000000000E+00  0.82475012673E+03  0.82475012675E+03  0.50400001928E-02 0. -1.
        1   -1    0    0  501    0  0.00000000000E+00  0.00000000000E+00 -0.49675198360E+03  0.49675198362E+03  0.50400001928E-02 0.  1.
    10030    2    1    2    0    0  0.00000000000E+00  0.00000000000E+00  0.32799814314E+03  0.13215021104E+04  0.12801503997E+04 0.  0.
        4    1    3    3  502    0  0.53358793709E+03 -0.29768795483E+03 -0.32844597161E+02  0.61189426008E+03  0.12699999809E+01 0. -1.
       -4    1    3    3    0  502 -0.53358793709E+03  0.29768795483E+03  0.36084274030E+03  0.70960785029E+03  0.12699999809E+01 0.  1.
</event>
<event>
 5   0  0.6909250E-05  0.2391982E+04  0.7818609E-02  0.8442511E-01
        2   -1    0    0  501    0  0.00000000000E+00  0.00000000000E+00  0.32773844552E+04  0.32773844552E+04  0.25500000920E-02 0.  1.
       -2   -1    0    0    0  501  0.00000000000E+00  0.00000000000E+00 -0.43644402405E+03  0.43644402406E+03  0.25500000920E-02 0. -1.
    10030    2    1    2    0    0  0.00000000000E+00  0.00000000000E+00  0.28409404311E+04  0.37138284792E+04  0.23919823243E+04 0.  0.
        4    1    3    3  502    0 -0.24941974028E+03 -0.68187917601E+03  0.28960461706E+04  0.29856748739E+04  0.12699999809E+01 0.  1.
       -4    1    3    3    0  502  0.24941974028E+03  0.68187917601E+03 -0.55105739479E+02  0.72815360532E+03  0.12699999809E+01 0. -1.
</event>
<event>
 5   0  0.2896652E-05  0.2609408E+04  0.7818609E-02  0.8365013E-01
       -1   -1    0    0    0  501  0.00000000000E+00  0.00000000000E+00  0.13922920083E+04  0.13922920083E+04  0.50400001928E-02 0.  1.
        1   -1    0    0  501    0  0.00000000000E+00  0.00000000000E+00 -0.12226257625E+04  0.12226257625E+04  0.50400001928E-02 0. -1.
    10030    2    1    2    0    0  0.00000000000E+00  0.00000000000E+00  0.16966624577E+03  0.26149177709E+04  0.26094076557E+04 0.  0.
        4    1    3    3  502    0 -0.96053184489E+03 -0.49871596261E+03  0.81500842934E+03  0.13548355580E+04  0.12699999809E+01 0.  1.
       -4    1    3    3    0  502  0.96053184489E+03  0.49871596261E+03 -0.64534218356E+03  0.12600822129E+04  0.12699999809E+01 0. -1.
</event>
<event>
 5   0  0.2896652E-05  0.2561702E+04  0.7818609E-02  0.8381328E-01
       -1   -1    0    0    0  501  0.00000000000E+00  0.00000000000E+00  0.13974819334E+04  0.13974819334E+04  0.50400001928E-02 0. -1.
        1   -1    0    0  501    0  0.00000000000E+00  0.00000000000E+00 -0.11739537560E+04  0.11739537561E+04  0.50400001928E-02 0.  1.
    10030    2    1    2    0    0  0.00000000000E+00  0.00000000000E+00  0.22352817732E+03  0.25714356894E+04  0.25617019067E+04 0.  0.
        4    1    3    3  502    0 -0.24789015105E+03  0.97113218147E+03  0.91230951796E+03  0.13553071646E+04  0.12699999809E+01 0. -1.
       -4    1    3    3    0  502  0.24789015105E+03 -0.97113218147E+03 -0.68878134064E+03  0.12161285249E+04  0.12699999809E+01 0.  1.
</event>
<event>
 5   0  0.2977854E-05  0.2295801E+04  0.7818609E-02  0.8479578E-01
       -1   -1    0    0    0  501  0.00000000000E+00  0.00000000000E+00  0.95434295176E+03  0.95434295177E+03  0.50400001928E-02 0. -1.
        1   -1    0    0  501    0  0.00000000000E+00  0.00000000000E+00 -0.13807153379E+04  0.13807153379E+04  0.50400001928E-02 0.  1.
    10030    2    1    2    0    0  0.00000000000E+00  0.00000000000E+00 -0.42637238618E+03  0.23350582897E+04  0.22958013426E+04 0.  0.
        1    1    3    3  502    0 -0.57923382353E+01  0.11477911200E+04 -0.22820158496E+03  0.11702708959E+04  0.50400001928E-02 0.  1.
       -1    1    3    3    0  502  0.57923382353E+01 -0.11477911200E+04 -0.19817080121E+03  0.11647873938E+04  0.50400001928E-02 0. -1.
</event>
<event>
 5   0  0.6445331E-05  0.2472998E+04  0.7818609E-02  0.8412669E-01
       -2   -1    0    0    0  501  0.00000000000E+00  0.00000000000E+00  0.11645412402E+04  0.11645412402E+04  0.25500000920E-02 0. -1.
        2   -1    0    0  501    0  0.00000000000E+00  0.00000000000E+00 -0.13129034440E+04  0.13129034440E+04  0.25500000920E-02 0.  1.
    10030    2    1    2    0    0  0.00000000000E+00  0.00000000000E+00 -0.14836220376E+03  0.24774446842E+04  0.24729983461E+04 0.  0.
        1    1    3    3  502    0  0.75564769092E+02 -0.12270534638E+04 -0.20693338427E+03  0.12466722355E+04  0.50400001928E-02 0.  1.
       -1    1    3    3    0  502 -0.75564769092E+02  0.12270534638E+04  0.58571180511E+02  0.12307724487E+04  0.50400001928E-02 0. -1.
</event>
<event>
 5   0  0.2777539E-05  0.2493571E+04  0.7818609E-02  0.8405280E-01
       -1   -1    0    0    0  501  0.00000000000E+00  0.00000000000E+00  0.66863286184E+03  0.66863286186E+03  0.50400001928E-02 0. -1.
        1   -1    0    0  501    0  0.00000000000E+00  0.00000000000E+00 -0.23248542490E+04  0.23248542490E+04  0.50400001928E-02 0.  1.
    10030    2    1    2    0    0  0.00000000000E+00  0.00000000000E+00 -0.16562213872E+04  0.29934871109E+04  0.24935708933E+04 0.  0.
        3    1    3    3  502    0 -0.75084620996E+03  0.37295605471E+03  0.27972527088E+03  0.88380568403E+03  0.10100000352E+00 0. -1.
       -3    1    3    3    0  502  0.75084620996E+03 -0.37295605471E+03 -0.19359466581E+04  0.21096814269E+04  0.10100000352E+00 0.  1.
</event>
<event>
 5   0  0.6648328E-05  0.2507514E+04  0.7818609E-02  0.8400314E-01
       -2   -1    0    0    0  501  0.00000000000E+00  0.00000000000E+00  0.13403836553E+04  0.13403836553E+04  0.25500000920E-02 0. -1.
        2   -1    0    0  501    0  0.00000000000E+00  0.00000000000E+00 -0.11727287207E+04  0.11727287207E+04  0.25500000920E-02 0.  1.
    10030    2    1    2    0    0  0.00000000000E+00  0.00000000000E+00  0.16765493460E+03  0.25131123760E+04  0.25075138359E+04 0.  0.
        2    1    3    3  502    0 -0.35469305955E+03 -0.11426715366E+04  0.45936528209E+03  0.12816090939E+04  0.25500000920E-02 0.  1.
       -2    1    3    3    0  502  0.35469305955E+03  0.11426715366E+04 -0.29171034750E+03  0.12315032821E+04  0.25500000920E-02 0. -1.
</event>
<event>
 5   0  0.6827859E-05  0.1341250E+04  0.7818609E-02  0.8997478E-01
        2   -1    0    0  501    0  0.00000000000E+00  0.00000000000E+00  0.13996429942E+04  0.13996429942E+04  0.25500000920E-02 0.  1.
       -2   -1    0    0    0  501  0.00000000000E+00  0.00000000000E+00 -0.32132322431E+03  0.32132322433E+03  0.25500000920E-02 0. -1.
    10030    2    1    2    0    0  0.00000000000E+00  0.00000000000E+00  0.10783197699E+04  0.17209662185E+04  0.13412498646E+04 0.  0.
        3    1    3    3  502    0  0.50478646644E+02 -0.69393764788E+02  0.13925695364E+04  0.13952109203E+04  0.10100000352E+00 0.  1.
       -3    1    3    3    0  502 -0.50478646644E+02  0.69393764788E+02 -0.31424976650E+03  0.32575529819E+03  0.10100000352E+00 0. -1.
</event>
<event>
 5   0  0.2980790E-05  0.1921581E+04  0.7818609E-02  0.8644188E-01
        1   -1    0    0  501    0  0.00000000000E+00  0.00000000000E+00  0.14664227225E+04  0.14664227225E+04  0.50400001928E-02 0. -1.
       -1   -1    0    0    0  501  0.00000000000E+00  0.00000000000E+00 -0.62950372050E+03  0.62950372052E+03  0.50400001928E-02 0.  1.
    10030    2    1    2    0    0  0.00000000000E+00  0.00000000000E+00  0.83691900197E+03  0.20959264430E+04  0.19215811819E+04 0.  0.
        5    1    3    3  502    0 -0.63493968613E+03 -0.71020322386E+03  0.28240454785E+03  0.99363546779E+03  0.46999998093E+01 0. -1.
       -5    1    3    3    0  502  0.63493968613E+03  0.71020322386E+03  0.55451445412E+03  0.11022909752E+04  0.46999998093E+01 0.  1.
</event>
<event>
 5   0  0.6909250E-05  0.2502928E+04  0.7818609E-02  0.8401943E-01
       -2   -1    0    0    0  501  0.00000000000E+00  0.00000000000E+00  0.15072915165E+04  0.15072915165E+04  0.25500000920E-02 0. -1.
        2   -1    0    0  501    0  0.00000000000E+00  0.00000000000E+00 -0.10390568309E+04  0.10390568310E+04  0.25500000920E-02 0.  1.
    10030    2    1    2    0    0  0.00000000000E+00  0.00000000000E+00  0.46823468557E+03  0.25463483475E+04  0.25029275231E+04 0.  0.
        4    1    3    3  502    0 -0.11882159763E+04 -0.13305931600E+03 -0.14188593094E+03  0.12040328974E+04  0.12699999809E+01 0.  1.
       -4    1    3    3    0  502  0.11882159763E+04  0.13305931600E+03  0.61012061651E+03  0.13423154500E+04  0.12699999809E+01 0. -1.
</event>
<event>
 5   0  0.6909250E-05  0.2540959E+04  0.7818609E-02  0.8388537E-01
       -2   -1    0    0    0  501  0.00000000000E+00  0.00000000000E+00  0.10031609864E+04  0.10031609864E+04  0.25500000920E-02 0.  1.
        2   -1    0    0  501    0  0.00000000000E+00  0.00000000000E+00 -0.16090323713E+04  0.16090323713E+04  0.25500000920E-02 0. -1.
    10030    2    1    2    0    0  0.00000000000E+00  0.00000000000E+00 -0.60587138488E+03  0.26121933577E+04  0.25409592682E+04 0.  0.
        4    1    3    3  502    0 -0.21284015612E+01 -0.17192525763E+03  0.99114437599E+03  0.10059481156E+04  0.12699999809E+01 0.  1.
       -4    1    3    3    0  502  0.21284015612E+01  0.17192525763E+03 -0.15970157609E+04  0.16062452421E+04  0.12699999809E+01 0. -1.
</event>
<event>
 5   0  0.6648328E-05  0.2526501E+04  0.7818609E-02  0.8393605E-01
        2   -1    0    0  501    0  0.00000000000E+00  0.00000000000E+00  0.24336750643E+04  0.24336750643E+04  0.25500000920E-02 0. -1.
       -2   -1    0    0    0  501  0.00000000000E+00  0.00000000000E+00 -0.65571673803E+03  0.65571673803E+03  0.25500000920E-02 0.  1.
    10030    2    1    2    0    0  0.00000000000E+00  0.00000000000E+00  0.17779583263E+04  0.30893918023E+04  0.25265007220E+04 0.  0.
        2    1    3    3  502    0 -0.15454138329E+03  0.16568093524E+03 -0.63066902776E+03  0.67013180348E+03  0.25500000920E-02 0.  1.
       -2    1    3    3    0  502  0.15454138329E+03 -0.16568093524E+03  0.24086273540E+04  0.24192599988E+04  0.25500000920E-02 0. -1.
</event>
<event>
 5   0  0.2980790E-05  0.2495235E+04  0.7818609E-02  0.8404685E-01
       -1   -1    0    0    0  501  0.00000000000E+00  0.00000000000E+00  0.14946592149E+04  0.14946592149E+04  0.50400001928E-02 0.  1.
        1   -1    0    0  501    0  0.00000000000E+00  0.00000000000E+00 -0.10414074600E+04  0.10414074600E+04  0.50400001928E-02 0. -1.
    10030    2    1    2    0    0  0.00000000000E+00  0.00000000000E+00  0.45325175490E+03  0.25360666750E+04  0.24952348640E+04 0.  0.
        5    1    3    3  502    0  0.11518644941E+04  0.82536316878E+02  0.70649939606E+03  0.13537974527E+04  0.46999998093E+01 0.  1.
       -5    1    3    3    0  502 -0.11518644941E+04 -0.82536316878E+02 -0.25324764115E+03  0.11822692223E+04  0.46999998093E+01 0. -1.
</event>
<event>
 5   0  0.6827859E-05  0.2483470E+04  0.7818609E-02  0.8408898E-01
        2   -1    0    0  501    0  0.00000000000E+00  0.00000000000E+00  0.20043479046E+04  0.20043479046E+04  0.25500000920E-02 0. -1.
       -2   -1    0    0    0  501  0.00000000000E+00  0.00000000000E+00 -0.76928023106E+03  0.76928023106E+03  0.25500000920E-02 0.  1.
    10030    2    1    2    0    0  0.00000000000E+00  0.00000000000E+00  0.12350676735E+04  0.27736281356E+04  0.24834695240E+04 0.  0.
        3    1    3    3  502    0 -0.62702055895E+03 -0.30806313582E+03  0.17640450078E+04  0.18973435315E+04  0.10100000352E+00 0. -1.
       -3    1    3    3    0  502  0.62702055895E+03  0.30806313582E+03 -0.52897733428E+03  0.87628460409E+03  0.10100000352E+00 0.  1.
</event>
<event>
 5   0  0.2331375E-05  0.2434704E+04  0.7818609E-02  0.8426624E-01
        3   -1    0    0  501    0  0.00000000000E+00  0.00000000000E+00  0.11201177697E+04  0.11201177743E+04  0.10100000352E+00 0.  1.
       -3   -1    0    0    0  501  0.00000000000E+00  0.00000000000E+00 -0.13230266384E+04  0.13230266423E+04  0.10100000352E+00 0. -1.
    10030    2    1    2    0    0  0.00000000000E+00  0.00000000000E+00 -0.20290886867E+03  0.24431444166E+04  0.24347038077E+04 0.  0.
        4    1    3    3  502    0  0.10220901937E+04 -0.18816932138E+03  0.53467385600E+03  0.11687402632E+04  0.12699999809E+01 0.  1.
       -4    1    3    3    0  502 -0.10220901937E+04  0.18816932138E+03 -0.73758272466E+03  0.12744041534E+04  0.12699999809E+01 0. -1.
</event>
<event>
 5   0  0.2777539E-05  0.2491211E+04  0.7818609E-02  0.8406124E-01
        1   -1    0    0  501    0  0.00000000000E+00  0.00000000000E+00  0.12773477468E+04  0.12773477468E+04  0.50400001928E-02 0. -1.
       -1   -1    0    0    0  501  0.00000000000E+00  0.00000000000E+00 -0.12146516311E+04  0.12146516311E+04  0.50400001928E-02 0.  1.
    10030    2    1    2    0    0  0.00000000000E+00  0.00000000000E+00  0.62696115644E+02  0.24919993779E+04  0.24912105685E+04 0.  0.
        3    1    3    3  502    0 -0.12494340190E+03  0.43922233656E+03 -0.11278999848E+04  0.12168342124E+04  0.10100000352E+00 0.  1.
       -3    1    3    3    0  502  0.12494340190E+03 -0.43922233656E+03  0.11905961005E+04  0.12751651655E+04  0.10100000352E+00 0. -1.
</event>
<event>
 5   0  0.2331375E-05  0.2487466E+04  0.7818609E-02  0.8407464E-01
       -3   -1    0    0    0  501  0.00000000000E+00  0.00000000000E+00  0.13660105597E+04  0.13660105634E+04  0.10100000352E+00 0. -1.
        3   -1    0    0  501    0  0.00000000000E+00  0.00000000000E+00 -0.11324011514E+04  0.11324011559E+04  0.10100000352E+00 0.  1.
    10030    2    1    2    0    0  0.00000000000E+00  0.00000000000E+00  0.23360940824E+03  0.24984117194E+04  0.24874661332E+04 0.  0.
        3    1    3    3  502    0 -0.56986492041E+03  0.85362434171E+03  0.82235669005E+03  0.13151772048E+04  0.10100000352E+00 0. -1.
       -3    1    3    3    0  502  0.56986492041E+03 -0.85362434171E+03 -0.58874728181E+03  0.11832345145E+04  0.10100000352E+00 0.  1.
</event>
<event>
 5   0  0.6909250E-05  0.2453530E+04  0.7818609E-02  0.8419730E-01
       -2   -1    0    0    0  501  0.00000000000E+00  0.00000000000E+00  0.78013552377E+03  0.78013552377E+03  0.25500000920E-02 0.  1.
        2   -1    0    0  501    0  0.00000000000E+00  0.00000000000E+00 -0.19290911528E+04  0.19290911528E+04  0.25500000920E-02 0. -1.
    10030    2    1    2    0    0  0.00000000000E+00  0.00000000000E+00 -0.11489556290E+04  0.27092266765E+04  0.24535301399E+04 0.  0.
        4    1    3    3  502    0  0.14401297180E+03  0.64888040823E+03 -0.17130337294E+04  0.18374633850E+04  0.12699999809E+01 0. -1.
       -4    1    3    3    0  502 -0.14401297180E+03 -0.64888040823E+03  0.56407810040E+03  0.87176329155E+03  0.12699999809E+01 0.  1.
</event>
<event>
 5   0  0.2896652E-05  0.2495460E+04  0.7818609E-02  0.8404605E-01
       -1   -1    0    0    0  501  0.00000000000E+00  0.00000000000E+00  0.75857298053E+03  0.75857298054E+03  0.50400001928E-02 0. -1.
        1   -1    0    0  501    0  0.00000000000E+00  0.00000000000E+00 -0.20523147558E+04  0.20523147558E+04  0.50400001928E-02 0.  1.
    10030    2    1    2    0    0  0.00000000000E+00  0.00000000000E+00 -0.12937417753E+04  0.28108877364E+04  0.24954602953E+04 0.  0.
        4    1    3    3  502    0  0.96231015273E+02 -0.57667374546E+02 -0.20466214591E+04  0.20496943539E+04  0.12699999809E+01 0.  1.
       -4    1    3    3    0  502 -0.96231015273E+02  0.57667374546E+02  0.75287968382E+03  0.76119338252E+03  0.12699999809E+01 0. -1.
</event>
<event>
 5   0  0.2777539E-05  0.1447039E+04  0.7818609E-02  0.8920456E-01
       -1   -1    0    0    0  501  0.00000000000E+00  0.00000000000E+00  0.86845241664E+03  0.86845241665E+03  0.50400001928E-02 0. -1.
        1   -1    0    0  501    0  0.00000000000E+00  0.00000000000E+00 -0.60277368692E+03  0.60277368694E+03  0.50400001928E-02 0.  1.
    10030    2    1    2    0    0  0.00000000000E+00  0.00000000000E+00  0.26567872972E+03  0.14712261036E+04  0.14470387211E+04 0.  0.
        3    1    3    3  502    0  0.10843040975E+03  0.19089912324E+03  0.83376884309E+03  0.86218914567E+03  0.10100000352E+00 0. -1.
       -3    1    3    3    0  502 -0.10843040975E+03 -0.19089912324E+03 -0.56809011337E+03  0.60903695792E+03  0.10100000352E+00 0.  1.
</event>
<event>
 5   0  0.6648328E-05  0.2518783E+04  0.7818609E-02  0.8396324E-01
        2   -1    0    0  501    0  0.00000000000E+00  0.00000000000E+00  0.21077934547E+04  0.21077934547E+04  0.25500000920E-02 0.  1.
       -2   -1    0    0    0  501  0.00000000000E+00  0.00000000000E+00 -0.75247738240E+03  0.75247738241E+03  0.25500000920E-02 0. -1.
    10030    2    1    2    0    0  0.00000000000E+00  0.00000000000E+00  0.13553160723E+04  0.28602708371E+04  0.25187829612E+04 0.  0.
        2    1    3    3  502    0 -0.10590932120E+04  0.12981645237E+03 -0.82021584614E+02  0.10701674091E+04  0.25500000920E-02 0. -1.
       -2    1    3    3    0  502  0.10590932120E+04 -0.12981645237E+03  0.14373376569E+04  0.17901034280E+04  0.25500000920E-02 0.  1.
</event>
<event>
 5   0  0.2777539E-05  0.2506479E+04  0.7818609E-02  0.8400681E-01
        1   -1    0    0  501    0  0.00000000000E+00  0.00000000000E+00  0.14112492326E+04  0.14112492326E+04  0.50400001928E-02 0. -1.
       -1   -1    0    0    0  501  0.00000000000E+00  0.00000000000E+00 -0.11129216171E+04  0.11129216171E+04  0.50400001928E-02 0.  1.
    10030    2    1    2    0    0  0.00000000000E+00  0.00000000000E+00  0.29832761549E+03  0.25241708497E+04  0.25064794259E+04 0.  0.
        3    1    3    3  502    0 -0.42653542152E+03  0.93792581873E+03  0.86762240333E+03  0.13469988687E+04  0.10100000352E+00 0. -1.
       -3    1    3    3    0  502  0.42653542152E+03 -0.93792581873E+03 -0.56929478784E+03  0.11771719810E+04  0.10100000352E+00 0.  1.
</event>
<event>
 5   0  0.6909250E-05  0.1348191E+04  0.7818609E-02  0.8992198E-01
       -2   -1    0    0    0  501  0.00000000000E+00  0.00000000000E+00  0.53823762551E+03  0.53823762551E+03  0.25500000920E-02 0.  1.
        2   -1    0    0  501    0  0.00000000000E+00  0.00000000000E+00 -0.84424580897E+03  0.84424580897E+03  0.25500000920E-02 0. -1.
    10030    2    1    2    0    0  0.00000000000E+00  0.00000000000E+00 -0.30600818346E+03  0.13824834345E+04  0.13481911728E+04 0.  0.
        4    1    3    3  502    0 -0.38006474243E+03 -0.55303629753E+03 -0.21870317603E+03  0.70578399452E+03  0.12699999809E+01 0. -1.
       -4    1    3    3    0  502  0.38006474243E+03  0.55303629753E+03 -0.87305007432E+02  0.67669943996E+03  0.12699999809E+01 0.  1.
</event>
<event>
 5   0  0.6445331E-05  0.2551833E+04  0.7818609E-02  0.8384749E-01
        2   -1    0    0  501    0  0.00000000000E+00  0.00000000000E+00  0.30869794110E+04  0.30869794110E+04  0.25500000920E-02 0.  1.
       -2   -1    0    0    0  501  0.00000000000E+00  0.00000000000E+00 -0.52736453519E+03  0.52736453519E+03  0.25500000920E-02 0. -1.
    10030    2    1    2    0    0  0.00000000000E+00  0.00000000000E+00  0.25596148759E+04  0.36143439462E+04  0.25518334289E+04 0.  0.
        1    1    3    3  502    0 -0.94830645833E+03 -0.77535832737E+03  0.17855488073E+04  0.21653291246E+04  0.50400001928E-02 0. -1.
       -1    1    3    3    0  502  0.94830645833E+03  0.77535832737E+03  0.77406606859E+03  0.14490148216E+04  0.50400001928E-02 0.  1.
</event>
<event>
 5   0  0.6445331E-05  0.2621858E+04  0.7818609E-02  0.8360814E-01
        2   -1    0    0  501    0  0.00000000000E+00  0.00000000000E+00  0.13621362418E+04  0.13621362418E+04  0.25500000920E-02 0.  1.
       -2   -1    0    0    0  501  0.00000000000E+00  0.00000000000E+00 -0.12616464147E+04  0.12616464147E+04  0.25500000920E-02 0. -1.
    10030    2    1    2    0    0  0.00000000000E+00  0.00000000000E+00  0.10048982704E+03  0.26237826565E+04  0.26218575901E+04 0.  0.
        1    1    3    3  502    0  0.15092950182E+03 -0.24378248443E+03 -0.12298833909E+04  0.12628629258E+04  0.50400001928E-02 0. -1.
       -1    1    3    3    0  502 -0.15092950182E+03  0.24378248443E+03  0.13303732179E+04  0.13609197306E+04  0.50400001928E-02 0.  1.
</event>
<event>
 5   0  0.6827859E-05  0.2499739E+04  0.7818609E-02  0.8403079E-01
       -2   -1    0    0    0  501  0.00000000000E+00  0.00000000000E+00  0.76412653022E+03  0.76412653022E+03  0.25500000920E-02 0.  1.
        2   -1    0    0  501    0  0.00000000000E+00  0.00000000000E+00 -0.20443908743E+04  0.20443908743E+04  0.25500000920E-02 0. -1.
    10030    2    1    2    0    0  0.00000000000E+00  0.00000000000E+00 -0.12802643441E+04  0.28085174045E+04  0.24997386305E+04 0.  0.
        3    1    3    3  502    0 -0.11734532644E+04  0.73312084397E+02 -0.16371797870E+03  0.11870850064E+04  0.10100000352E+00 0.  1.
       -3    1    3    3    0  502  0.11734532644E+04 -0.73312084397E+02 -0.11165463654E+04  0.16214323982E+04  0.10100000352E+00 0. -1.
</event>
<event>
 5   0  0.7071821E-05  0.2475467E+04  0.7818609E-02  0.8411778E-01
        2   -1    0    0  501    0  0.00000000000E+00  0.00000000000E+00  0.10761856469E+04  0.10761856469E+04  0.25500000920E-02 0.  1.
       -2   -1    0    0    0  501  0.00000000000E+00  0.00000000000E+00 -0.14235316980E+04  0.14235316980E+04  0.25500000920E-02 0. -1.
    10030    2    1    2    0    0  0.00000000000E+00  0.00000000000E+00 -0.34734605108E+03  0.24997173450E+04  0.24754671328E+04 0.  0.
        5    1    3    3  502    0  0.69795150185E+03 -0.67405401160E+03 -0.94962581552E+03  0.13576805180E+04  0.46999998093E+01 0. -1.
       -5    1    3    3    0  502 -0.69795150185E+03  0.67405401160E+03  0.60227976444E+03  0.11420368270E+04  0.46999998093E+01 0.  1.
</event>
<event>
 5   0  0.2777539E-05  0.2533486E+04  0.7818609E-02  0.8391152E-01
        1   -1    0    0  501    0  0.00000000000E+00  0.00000000000E+00  0.30225618008E+04  0.30225618008E+04  0.50400001928E-02 0. -1.
       -1   -1    0    0    0  501  0.00000000000E+00  0.00000000000E+00 -0.53088681348E+03  0.53088681350E+03  0.50400001928E-02 0.  1.
    10030    2    1    2    0    0  0.00000000000E+00  0.00000000000E+00  0.24916749874E+04  0.35534486143E+04  0.25334862960E+04 0.  0.
        3    1    3    3  502    0  0.79249946415E+03 -0.74210538177E+03  0.33053188000E+03  0.11349128302E+04  0.10100000352E+00 0.  1.
       -3    1    3    3    0  502 -0.79249946415E+03  0.74210538177E+03  0.21611431074E+04  0.24185357841E+04  0.10100000352E+00 0. -1.
</event>
<event>
 5   0  0.2896652E-05  0.2413549E+04  0.7818609E-02  0.8434448E-01
       -1   -1    0    0    0  501  0.00000000000E+00  0.00000000000E+00  0.10387309528E+04  0.10387309528E+04  0.50400001928E-02 0.  1.
        1   -1    0    0  501    0  0.00000000000E+00  0.00000000000E+00 -0.14020041873E+04  0.14020041873E+04  0.50400001928E-02 0. -1.
    10030    2    1    2    0    0  0.00000000000E+00  0.00000000000E+00 -0.36327323444E+03  0.24407351401E+04  0.24135493741E+04 0.  0.
        4    1    3    3  502    0 -0.32737369433E+03 -0.21534158095E+03 -0.13358772020E+04  0.13921620035E+04  0.12699999809E+01 0. -1.
       -4    1    3    3    0  502  0.32737369433E+03  0.21534158095E+03  0.97260396757E+03  0.10485731366E+04  0.12699999809E+01 0.  1.
</event>
<event>
 5   0  0.6909250E-05  0.1992515E+04  0.7818609E-02  0.8610128E-01
       -2   -1    0    0    0  501  0.00000000000E+00  0.00000000000E+00  0.42844811895E+03  0.42844811895E+03  0.25500000920E-02 0.  1.
        2   -1    0    0  501    0  0.00000000000E+00  0.00000000000E+00 -0.23165683435E+04  0.23165683435E+04  0.25500000920E-02 0. -1.
    10030    2    1    2    0    0  0.00000000000E+00  0.00000000000E+00 -0.18881202246E+04  0.27450164625E+04  0.19925153442E+04 0.  0.
        4    1    3    3  502    0 -0.37647708229E+03 -0.81662179922E+03 -0.35323407896E+03  0.96611701356E+03  0.12699999809E+01 0.  1.
       -4    1    3    3    0  502  0.37647708229E+03  0.81662179922E+03 -0.15348861456E+04  0.17788994489E+04  0.12699999809E+01 0. -1.
</event>
<event>
 5   0  0.2777539E-05  0.1813584E+04  0.7818609E-02  0.8699109E-01
        1   -1    0    0  501    0  0.00000000000E+00  0.00000000000E+00  0.24485139641E+03  0.24485139646E+03  0.50400001928E-02 0. -1.
       -1   -1    0    0    0  501  0.00000000000E+00  0.00000000000E+00 -0.33582483835E+04  0.33582483835E+04  0.50400001928E-02 0.  1.
    10030    2    1    2    0    0  0.00000000000E+00  0.00000000000E+00 -0.31133969870E+04  0.36030997799E+04  0.18135840827E+04 0.  0.
        3    1    3    3  502    0  0.20067085046E+03  0.52984726980E+03 -0.29633037339E+04  0.30169812643E+04  0.10100000352E+00 0.  1.
       -3    1    3    3    0  502 -0.20067085046E+03 -0.52984726980E+03 -0.15009325316E+03  0.58611851565E+03  0.10100000352E+00 0. -1.
</event>
<event>
 5   0  0.2793920E-05  0.2270732E+04  0.7818609E-02  0.8489551E-01
       -1   -1    0    0    0  501  0.00000000000E+00  0.00000000000E+00  0.32724163134E+04  0.32724163134E+04  0.50400001928E-02 0.  1.
        1   -1    0    0  501    0  0.00000000000E+00  0.00000000000E+00 -0.39391572965E+03  0.39391572968E+03  0.50400001928E-02 0. -1.
    10030    2    1    2    0    0  0.00000000000E+00  0.00000000000E+00  0.28785005838E+04  0.36663320431E+04  0.22707322695E+04 0.  0.
        2    1    3    3  502    0 -0.25244209852E+03 -0.35095011869E+03  0.31343249375E+04  0.31639983901E+04  0.25500000920E-02 0.  1.
       -2    1    3    3    0  502  0.25244209852E+03  0.35095011869E+03 -0.25582435375E+03  0.50233365296E+03  0.25500000920E-02 0. -1.
</event>
<event>
 5   0  0.2777539E-05  0.2548463E+04  0.7818609E-02  0.8385921E-01
       -1   -1    0    0    0  501  0.00000000000E+00  0.00000000000E+00  0.99958715414E+03  0.99958715415E+03  0.50400001928E-02 0.  1.
        1   -1    0    0  501    0  0.00000000000E+00  0.00000000000E+00 -0.16243366790E+04  0.16243366790E+04  0.50400001928E-02 0. -1.
    10030    2    1    2    0    0  0.00000000000E+00  0.00000000000E+00 -0.62474952488E+03  0.26239238332E+04  0.25484631277E+04 0.  0.
        3    1    3    3  502    0 -0.50188058640E+03 -0.10925608920E+04  0.12213131849E+03  0.12085071348E+04  0.10100000352E+00 0. -1.
       -3    1    3    3    0  502  0.50188058640E+03  0.10925608920E+04 -0.74688084337E+03  0.14154166984E+04  0.10100000352E+00 0.  1.
</event>
<event>
 5   0  0.2777539E-05  0.2425209E+04  0.7818609E-02  0.8430126E-01
       -1   -1    0    0    0  501  0.00000000000E+00  0.00000000000E+00  0.15346088108E+04  0.15346088108E+04  0.50400001928E-02 0.  1.
        1   -1    0    0  501    0  0.00000000000E+00  0.00000000000E+00 -0.95816544211E+03  0.95816544213E+03  0.50400001928E-02 0. -1.
    10030    2    1    2    0    0  0.00000000000E+00  0.00000000000E+00  0.57644336865E+03  0.24927742529E+04  0.24252085516E+04 0.  0.
        3    1    3    3  502    0 -0.57110641412E+03  0.10696720866E+04  0.29535850002E+03  0.12480374845E+04  0.10100000352E+00 0.  1.
       -3    1    3    3    0  502  0.57110641412E+03 -0.10696720866E+04  0.28108486863E+03  0.12447367684E+04  0.10100000352E+00 0. -1.
</event>
<event>
 5   0  0.2980790E-05  0.2452207E+04  0.7818609E-02  0.8420213E-01
       -1   -1    0    0    0  501  0.00000000000E+00  0.00000000000E+00  0.16661792874E+04  0.16661792874E+04  0.50400001928E-02 0. -1.
        1   -1    0    0  501    0  0.00000000000E+00  0.00000000000E+00 -0.90226196880E+03  0.90226196881E+03  0.50400001928E-02 0.  1.
    10030    2    1    2    0    0  0.00000000000E+00  0.00000000000E+00  0.76391731862E+03  0.25684412562E+04  0.24522073357E+04 0.  0.
        5    1    3    3  502    0  0.19615027836E+03  0.45632823241E+03 -0.79215620126E+03  0.93501012005E+03  0.46999998093E+01 0.  1.
       -5    1    3    3    0  502 -0.19615027836E+03 -0.45632823241E+03  0.15560735199E+04  0.16334311362E+04  0.46999998093E+01 0. -1.
</event>
<event>
 5   0  0.2793920E-05  0.2544662E+04  0.7818609E-02  0.8387245E-01
        1   -1    0    0  501    0  0.00000000000E+00  0.00000000000E+00  0.12167622617E+04  0.12167622617E+04  0.50400001928E-02 0. -1.
       -1   -1    0    0    0  501  0.00000000000E+00  0.00000000000E+00 -0.13304370713E+04  0.13304370714E+04  0.50400001928E-02 0.  1.
    10030    2    1    2    0    0  0.00000000000E+00  0.00000000000E+00 -0.11367480967E+03  0.25471993330E+04  0.25446615649E+04 0.  0.
        2    1    3    3  502    0 -0.10229309222E+04 -0.12822981621E+03  0.68955699053E+03  0.12402900469E+04  0.25500000920E-02 0.  1.
       -2    1    3    3    0  502  0.10229309222E+04  0.12822981621E+03 -0.80323180020E+03  0.13069092861E+04  0.25500000920E-02 0. -1.
</event>
<event>
 5   0  0.2793920E-05  0.2437854E+04  0.7818609E-02  0.8425466E-01
       -1   -1    0    0    0  501  0.00000000000E+00  0.00000000000E+00  0.97715036082E+03  0.97715036083E+03  0.50400001928E-02 0. -1.
        1   -1    0    0  501    0  0.00000000000E+00  0.00000000000E+00 -0.15205268324E+04  0.15205268324E+04  0.50400001928E-02 0.  1.
    10030    2    1    2    0    0  0.00000000000E+00  0.00000000000E+00 -0.54337647153E+03  0.24976771932E+04  0.24378542556E+04 0.  0.
        2    1    3    3  502    0  0.61469017833E+03  0.99134696028E+03 -0.63416453805E+03  0.13276963027E+04  0.25500000920E-02 0. -1.
       -2    1    3    3    0  502 -0.61469017833E+03 -0.99134696028E+03  0.90788066520E+02  0.11699808905E+04  0.25500000920E-02 0.  1.
</event>
<event>
 5   0  0.7071821E-05  0.2717087E+04  0.7818609E-02  0.8329482E-01
        2   -1    0    0  501    0  0.00000000000E+00  0.00000000000E+00  0.22441285372E+04  0.22441285372E+04  0.25500000920E-02 0.  1.
       -2   -1    0    0    0  501  0.00000000000E+00  0.00000000000E+00 -0.82243077150E+03  0.82243077150E+03  0.25500000920E-02 0. -1.
    10030    2    1    2    0    0  0.00000000000E+00  0.00000000000E+00  0.14216977657E+04  0.30665593087E+04  0.27170869432E+04 0.  0.
        5    1    3    3  502    0  0.51911988702E+03 -0.21375148926E+02  0.21275599354E+04  0.21900857798E+04  0.46999998093E+01 0.  1.
       -5    1    3    3    0  502 -0.51911988702E+03  0.21375148926E+02 -0.70586216976E+03  0.87647352886E+03  0.46999998093E+01 0. -1.
</event>
<event>
 5   0  0.2777539E-05  0.2542220E+04  0.7818609E-02  0.8388097E-01
       -1   -1    0    0    0  501  0.00000000000E+00  0.00000000000E+00  0.57643791707E+03  0.57643791709E+03  0.50400001928E-02 0. -1.
        1   -1    0    0  501    0  0.00000000000E+00  0.00000000000E+00 -0.28029400141E+04  0.28029400142E+04  0.50400001928E-02 0.  1.
    10030    2    1    2    0    0  0.00000000000E+00  0.00000000000E+00 -0.22265020971E+04  0.33793779312E+04  0.25422202135E+04 0.  0.
        3    1    3    3  502    0  0.10883572788E+04 -0.20860272677E+03 -0.28557066301E+03  0.11443720015E+04  0.10100000352E+00 0. -1.
       -3    1    3    3    0  502 -0.10883572788E+04  0.20860272677E+03 -0.19409314341E+04  0.22350059297E+04  0.10100000352E+00 0.  1.
</event>
<event>
 5   0  0.7071821E-05  0.2523361E+04  0.7818609E-02  0.8394710E-01
        2   -1    0    0  501    0  0.00000000000E+00  0.00000000000E+00  0.22402060939E+04  0.22402060939E+04  0.25500000920E-02 0. -1.
       -2   -1    0    0    0  501  0.00000000000E+00  0.00000000000E+00 -0.71057657345E+03  0.71057657345E+03  0.25500000920E-02 0.  1.
    10030    2    1    2    0    0  0.00000000000E+00  0.00000000000E+00  0.15296295205E+04  0.29507826674E+04  0.25233612266E+04 0.  0.
        5    1    3    3  502    0 -0.10350966826E+04  0.43904552843E+03  0.14341589091E+04  0.18223665890E+04  0.46999998093E+01 0. -1.
       -5    1    3    3    0  502  0.10350966826E+04 -0.43904552843E+03  0.95470611389E+02  0.11284160784E+04  0.46999998093E+01 0.  1.
</event>
<event>
 5   0  0.2777539E-05  0.2506189E+04  0.7818609E-02  0.8400784E-01
       -1   -1    0    0    0  501  0.00000000000E+00  0.00000000000E+00  0.56268304744E+03  0.56268304746E+03  0.50400001928E-02 0.  1.
        1   -1    0    0  501    0  0.00000000000E+00  0.00000000000E+00 -0.27906403235E+04  0.27906403235E+04  0.50400001928E-02 0. -1.
    10030    2    1    2    0    0  0.00000000000E+00  0.00000000000E+00 -0.22279572761E+04  0.33533233710E+04  0.25061891402E+04 0.  0.
        3    1    3    3  502    0 -0.41212163782E+03  0.63865464275E+03 -0.24469832799E+04  0.25623136380E+04  0.10100000352E+00 0. -1.
       -3    1    3    3    0  502  0.41212163782E+03 -0.63865464275E+03  0.21902600386E+03  0.79100973296E+03  0.10100000352E+00 0.  1.
</event>
<event>
 5   0  0.6909250E-05  0.2610277E+04  0.7818609E-02  0.8364719E-01
        2   -1    0    0  501    0  0.00000000000E+00  0.00000000000E+00  0.13656286106E+04  0.13656286106E+04  0.25500000920E-02 0. -1.
       -2   -1    0    0    0  501  0.00000000000E+00  0.00000000000E+00 -0.12473278731E+04  0.12473278731E+04  0.25500000920E-02 0.  1.
    10030    2    1    2    0    0  0.00000000000E+00  0.00000000000E+00  0.11830073745E+03  0.26129564837E+04  0.26102770966E+04 0.  0.
        4    1    3    3  502    0  0.31805051519E+03  0.98206432769E+03  0.85858050594E+03  0.13426721759E+04  0.12699999809E+01 0. -1.
       -4    1    3    3    0  502 -0.31805051519E+03 -0.98206432769E+03 -0.74027976849E+03  0.12702843077E+04  0.12699999809E+01 0.  1.
</event>
<event>
 5   0  0.2896652E-05  0.2433446E+04  0.7818609E-02  0.8427087E-01
        1   -1    0    0  501    0  0.00000000000E+00  0.00000000000E+00  0.18225145853E+04  0.18225145854E+04  0.50400001928E-02 0. -1.
       -1   -1    0    0    0  501  0.00000000000E+00  0.00000000000E+00 -0.81229217907E+03  0.81229217909E+03  0.50400001928E-02 0.  1.
    10030    2    1    2    0    0  0.00000000000E+00  0.00000000000E+00  0.10102224063E+04  0.26348067644E+04  0.24334455769E+04 0.  0.
        4    1    3    3  502    0 -0.24577408622E+03 -0.10487642896E+04  0.11177025348E+04  0.15522796158E+04  0.12699999809E+01 0. -1.
       -4    1    3    3    0  502  0.24577408622E+03  0.10487642896E+04 -0.10748012856E+03  0.10825271486E+04  0.12699999809E+01 0.  1.
</event>
<event>
 5   0  0.6909250E-05  0.2576213E+04  0.7818609E-02  0.8376326E-01
       -2   -1    0    0    0  501  0.00000000000E+00  0.00000000000E+00  0.93622476721E+03  0.93622476721E+03  0.25500000920E-02 0.  1.
        2   -1    0    0  501    0  0.00000000000E+00  0.00000000000E+00 -0.17722429242E+04  0.17722429242E+04  0.25500000920E-02 0. -1.
    10030    2    1    2    0    0  0.00000000000E+00  0.00000000000E+00 -0.83601815701E+03  0.27084676914E+04  0.25762125061E+04 0.  0.
        4    1    3    3  502    0  0.46627963243E+03 -0.11555738183E+04 -0.74995057137E+02  0.12483562859E+04  0.12699999809E+01 0.  1.
       -4    1    3    3    0  502 -0.46627963243E+03  0.11555738183E+04 -0.76102309988E+03  0.14601114055E+04  0.12699999809E+01 0. -1.
</event>
<event>
 5   0  0.6648328E-05  0.2561320E+04  0.7818609E-02  0.8381460E-01
       -2   -1    0    0    0  501  0.00000000000E+00  0.00000000000E+00  0.85533257654E+03  0.85533257654E+03  0.25500000920E-02 0. -1.
        2   -1    0    0  501    0  0.00000000000E+00  0.00000000000E+00 -0.19174887068E+04  0.19174887068E+04  0.25500000920E-02 0.  1.
    10030    2    1    2    0    0  0.00000000000E+00  0.00000000000E+00 -0.10621561303E+04  0.27728212834E+04  0.25613204064E+04 0.  0.
        2    1    3    3  502    0  0.22032132913E+03  0.11031091008E+04 -0.11937513404E+04  0.16402540776E+04  0.25500000920E-02 0.  1.
       -2    1    3    3    0  502 -0.22032132913E+03 -0.11031091008E+04  0.13159521014E+03  0.11325672058E+04  0.25500000920E-02 0. -1.
</event>
<event>
 5   0  0.2977854E-05  0.2288877E+04  0.7818609E-02  0.8482320E-01
        1   -1    0    0  501    0  0.00000000000E+00  0.00000000000E+00  0.85066002115E+03  0.85066002116E+03  0.50400001928E-02 0. -1.
       -1   -1    0    0    0  501  0.00000000000E+00  0.00000000000E+00 -0.15396737915E+04  0.15396737915E+04  0.50400001928E-02 0.  1.
    10030    2    1    2    0    0  0.00000000000E+00  0.00000000000E+00 -0.68901377036E+03  0.23903338127E+04  0.22888765280E+04 0.  0.
        1    1    3    3  502    0 -0.83587225812E+03 -0.86564353257E+02  0.46682311890E+03  0.96130101608E+03  0.50400001928E-02 0. -1.
       -1    1    3    3    0  502  0.83587225812E+03  0.86564353257E+02 -0.11558368893E+04  0.14290327966E+04  0.50400001928E-02 0.  1.
</event>
<event>
 5   0  0.2331375E-05  0.2436615E+04  0.7818609E-02  0.8425921E-01
       -3   -1    0    0    0  501  0.00000000000E+00  0.00000000000E+00  0.94800348125E+03  0.94800348664E+03  0.10100000352E+00 0. -1.
        3   -1    0    0  501    0  0.00000000000E+00  0.00000000000E+00 -0.15656830384E+04  0.15656830416E+04  0.10100000352E+00 0.  1.
    10030    2    1    2    0    0  0.00000000000E+00  0.00000000000E+00 -0.61767955710E+03  0.25136865282E+04  0.24366148500E+04 0.  0.
        3    1    3    3  502    0  0.23439975138E+03 -0.53736084423E+03  0.79291713392E+03  0.98611232211E+03  0.10100000352E+00 0. -1.
       -3    1    3    3    0  502 -0.23439975138E+03  0.53736084423E+03 -0.14105966910E+04  0.15275742061E+04  0.10100000352E+00 0.  1.
</event>
<event>
 5   0  0.2977854E-05  0.2355734E+04  0.7818609E-02  0.8456265E-01
        1   -1    0    0  501    0  0.00000000000E+00  0.00000000000E+00  0.98257532478E+03  0.98257532479E+03  0.50400001928E-02 0. -1.
       -1   -1    0    0    0  501  0.00000000000E+00  0.00000000000E+00 -0.14119738289E+04  0.14119738289E+04  0.50400001928E-02 0.  1.
    10030    2    1    2    0    0  0.00000000000E+00  0.00000000000E+00 -0.42939850408E+03  0.23945491537E+04  0.23557339778E+04 0.  0.
        1    1    3    3  502    0  0.43617714751E+03  0.10719013235E+04 -0.43774053164E+03  0.12372710796E+04  0.50400001928E-02 0.  1.
       -1    1    3    3    0  502 -0.43617714751E+03 -0.10719013235E+04  0.83420275622E+01  0.11572780741E+04  0.50400001928E-02 0. -1.
</event>
<event>
 5   0  0.7071821E-05  0.2289769E+04  0.7818609E-02  0.8481966E-01
       -2   -1    0    0    0  501  0.00000000000E+00  0.00000000000E+00  0.80106081862E+03  0.80106081862E+03  0.25500000920E-02 0. -1.
        2   -1    0    0  501    0  0.00000000000E+00  0.00000000000E+00 -0.16362803553E+04  0.16362803553E+04  0.25500000920E-02 0.  1.
    10030    2    1    2    0    0  0.00000000000E+00  0.00000000000E+00 -0.83521953665E+03  0.24373411739E+04  0.22897686179E+04 0.  0.
        5    1    3    3  502    0 -0.19596196811E+03 -0.24808592248E+02 -0.16179952146E+04  0.16300144673E+04  0.46999998093E+01 0.  1.
       -5    1    3    3    0  502  0.19596196811E+03  0.24808592248E+02  0.78277567794E+03  0.80732670659E+03  0.46999998093E+01 0. -1.
</event>
<event>
 5   0  0.6827859E-05  0.2366785E+04  0.7818609E-02  0.8452045E-01
       -2   -1    0    0    0  501  0.00000000000E+00  0.00000000000E+00  0.10797938427E+04  0.10797938427E+04  0.25500000920E-02 0. -1.
        2   -1    0    0  501    0  0.00000000000E+00  0.00000000000E+00 -0.12969303486E+04  0.12969303486E+04  0.25500000920E-02 0.  1.
    10030    2    1    2    0    0  0.00000000000E+00  0.00000000000E+00 -0.21713650590E+03  0.23767241913E+04  0.23667846585E+04 0.  0.
        3    1    3    3  502    0  0.10390726799E+04  0.10421039787E+03  0.45044320086E+03  0.11372910483E+04  0.10100000352E+00 0. -1.
       -3    1    3    3    0  502 -0.10390726799E+04 -0.10421039787E+03 -0.66757970676E+03  0.12394331431E+04  0.10100000352E+00 0.  1.
</event>
<event>
 5   0  0.7071821E-05  0.2417261E+04  0.7818609E-02  0.8433069E-01
        2   -1    0    0  501    0  0.00000000000E+00  0.00000000000E+00  0.13332574998E+04  0.13332574998E+04  0.25500000920E-02 0. -1.
       -2   -1    0    0    0  501  0.00000000000E+00  0.00000000000E+00 -0.10956531408E+04  0.10956531408E+04  0.25500000920E-02 0.  1.
    10030    2    1    2    0    0  0.00000000000E+00  0.00000000000E+00  0.23760435894E+03  0.24289106406E+04  0.24172610675E+04 0.  0.
        5    1    3    3  502    0 -0.52819015159E+03 -0.37065100616E+03  0.11456855849E+04  0.13149085725E+04  0.46999998093E+01 0. -1.
       -5    1    3    3    0  502  0.52819015159E+03  0.37065100616E+03 -0.90808122601E+03  0.11140020681E+04  0.46999998093E+01 0.  1.
</event>
<event>
 5   0  0.2793920E-05  0.2489571E+04  0.7818609E-02  0.8406710E-01
       -1   -1    0    0    0  501  0.00000000000E+00  0.00000000000E+00  0.10972276881E+04  0.10972276881E+04  0.50400001928E-02 0.  1.
        1   -1    0    0  501    0  0.00000000000E+00  0.00000000000E+00 -0.14121870118E+04  0.14121870118E+04  0.50400001928E-02 0. -1.
    10030    2    1    2    0    0  0.00000000000E+00  0.00000000000E+00 -0.31495932369E+03  0.25094146998E+04  0.24895707984E+04 0.  0.
        2    1    3    3  502    0 -0.87814533958E+03 -0.73963299107E+03  0.32728460674E+03  0.11938640679E+04  0.25500000920E-02 0.  1.
       -2    1    3    3    0  502  0.87814533958E+03  0.73963299107E+03 -0.64224393043E+03  0.13155506319E+04  0.25500000920E-02 0. -1.
</event>
<event>
 5   0  0.6909250E-05  0.1576206E+04  0.7818609E-02  0.8835300E-01
       -2   -1    0    0    0  501  0.00000000000E+00  0.00000000000E+00  0.89528976511E+03  0.89528976511E+03  0.25500000920E-02 0. -1.
        2   -1    0    0  501    0  0.00000000000E+00  0.00000000000E+00 -0.69374890125E+03  0.69374890125E+03  0.25500000920E-02 0.  1.
    10030    2    1    2    0    0  0.00000000000E+00  0.00000000000E+00  0.20154086386E+03  0.15890386664E+04  0.15762059394E+04 0.  0.
        4    1    3    3  502    0 -0.71709579196E+03  0.26280224672E+03 -0.95269116516E+02  0.76965525606E+03  0.12699999809E+01 0.  1.
       -4    1    3    3    0  502  0.71709579196E+03 -0.26280224672E+03  0.29680998038E+03  0.81938341030E+03  0.12699999809E+01 0. -1.
</event>
<event>
 5   0  0.2977854E-05  0.2531634E+04  0.7818609E-02  0.8391802E-01
       -1   -1    0    0    0  501  0.00000000000E+00  0.00000000000E+00  0.98895112683E+03  0.98895112684E+03  0.50400001928E-02 0. -1.
        1   -1    0    0  501    0  0.00000000000E+00  0.00000000000E+00 -0.16201941280E+04  0.16201941280E+04  0.50400001928E-02 0.  1.
    10030    2    1    2    0    0  0.00000000000E+00  0.00000000000E+00 -0.63124300117E+03  0.26091452548E+04  0.25316341036E+04 0.  0.
        1    1    3    3  502    0  0.76716959686E+03  0.19534361742E+03  0.70233627401E+03  0.10582932302E+04  0.50400001928E-02 0. -1.
       -1    1    3    3    0  502 -0.76716959686E+03 -0.19534361742E+03 -0.13335792752E+04  0.15508520247E+04  0.50400001928E-02 0.  1.
</event>
<event>
 5   0  0.6827859E-05  0.2474285E+04  0.7818609E-02  0.8412204E-01
       -2   -1    0    0    0  501  0.00000000000E+00  0.00000000000E+00  0.10508938750E+04  0.10508938750E+04  0.25500000920E-02 0.  1.
        2   -1    0    0  501    0  0.00000000000E+00  0.00000000000E+00 -0.14563995743E+04  0.14563995743E+04  0.25500000920E-02 0. -1.
    10030    2    1    2    0    0  0.00000000000E+00  0.00000000000E+00 -0.40550569934E+03  0.25072934493E+04  0.24742848600E+04 0.  0.
        3    1    3    3  502    0  0.11685428166E+04  0.40559298774E+03 -0.22593590377E+03  0.12573961304E+04  0.10100000352E+00 0. -1.
       -3    1    3    3    0  502 -0.11685428166E+04 -0.40559298774E+03 -0.17956979558E+03  0.12498973188E+04  0.10100000352E+00 0.  1.
</event>
<event>
 5   0  0.2977854E-05  0.2516289E+04  0.7818609E-02  0.8397205E-01
       -1   -1    0    0    0  501  0.00000000000E+00  0.00000000000E+00  0.13044780729E+04  0.13044780729E+04  0.50400001928E-02 0. -1.
        1   -1    0    0  501    0  0.00000000000E+00  0.00000000000E+00 -0.12134566218E+04  0.12134566218E+04  0.50400001928E-02 0.  1.
    10030    2    1    2    0    0  0.00000000000E+00  0.00000000000E+00  0.91021451061E+02  0.25179346947E+04  0.25162889783E+04 0.  0.
        1    1    3    3  502    0  0.82890371912E+03 -0.82932254366E+03  0.50195629076E+03  0.12754675123E+04  0.50400001928E-02 0. -1.
       -1    1    3    3    0  502 -0.82890371912E+03  0.82932254366E+03 -0.41093483970E+03  0.12424671825E+04  0.50400001928E-02 0.  1.
</event>
<event>
 5   0  0.7071821E-05  0.2510563E+04  0.7818609E-02  0.8399232E-01
       -2   -1    0    0    0  501  0.00000000000E+00  0.00000000000E+00  0.81845860530E+03  0.81845860531E+03  0.25500000920E-02 0.  1.
        2   -1    0    0  501    0  0.00000000000E+00  0.00000000000E+00 -0.19252432301E+04  0.19252432301E+04  0.25500000920E-02 0. -1.
    10030    2    1    2    0    0  0.00000000000E+00  0.00000000000E+00 -0.11067846248E+04  0.27437018354E+04  0.25105631949E+04 0.  0.
        5    1    3    3  502    0  0.11004834047E+04 -0.58358490505E+03 -0.72296132847E+03  0.14402535325E+04  0.46999998093E+01 0. -1.
       -5    1    3    3    0  502 -0.11004834047E+04  0.58358490505E+03 -0.38382329629E+03  0.13034483029E+04  0.46999998093E+01 0.  1.
</event>
<event>
 5   0  0.2896652E-05  0.2417131E+04  0.7818609E-02  0.8433118E-01
       -1   -1    0    0    0  501  0.00000000000E+00  0.00000000000E+00  0.13941731800E+04  0.13941731800E+04  0.50400001928E-02 0. -1.
        1   -1    0    0  501    0  0.00000000000E+00  0.00000000000E+00 -0.10476682949E+04  0.10476682949E+04  0.50400001928E-02 0.  1.
    10030    2    1    2    0    0  0.00000000000E+00  0.00000000000E+00  0.34650488513E+03  0.24418414749E+04  0.24171313893E+04 0.  0.
        4    1    3    3  502    0  0.25214288225E+03 -0.11746480042E+04  0.40549528403E+02  0.12020897820E+04  0.12699999809E+01 0.  1.
       -4    1    3    3    0  502 -0.25214288225E+03  0.11746480042E+04  0.30595535673E+03  0.12397516929E+04  0.12699999809E+01 0. -1.
</event>
<event>
 5   0  0.6648328E-05  0.2668321E+04  0.7818609E-02  0.8345357E-01
        2   -1    0    0  501    0  0.00000000000E+00  0.00000000000E+00  0.12926553580E+04  0.12926553580E+04  0.25500000920E-02 0.  1.
       -2   -1    0    0    0  501  0.00000000000E+00  0.00000000000E+00 -0.13769987434E+04  0.13769987434E+04  0.25500000920E-02 0. -1.
    10030    2    1    2    0    0  0.00000000000E+00  0.00000000000E+00 -0.84343385462E+02  0.26696541014E+04  0.26683214226E+04 0.  0.
        2    1    3    3  502    0 -0.16859513137E+03 -0.97579152889E+03  0.85236175005E+03  0.13065657194E+04  0.25500000920E-02 0.  1.
       -2    1    3    3    0  502  0.16859513137E+03  0.97579152889E+03 -0.93670513551E+03  0.13630883820E+04  0.25500000920E-02 0. -1.
</event>
<event>
 5   0  0.6827859E-05  0.2522311E+04  0.7818609E-02  0.8395080E-01
       -2   -1    0    0    0  501  0.00000000000E+00  0.00000000000E+00  0.13425705459E+04  0.13425705459E+04  0.25500000920E-02 0. -1.
        2   -1    0    0  501    0  0.00000000000E+00  0.00000000000E+00 -0.11846777290E+04  0.11846777290E+04  0.25500000920E-02 0.  1.
    10030    2    1    2    0    0  0.00000000000E+00  0.00000000000E+00  0.15789281685E+03  0.25272482749E+04  0.25223111825E+04 0.  0.
        3    1    3    3  502    0 -0.83251544433E+03 -0.71792242147E+02  0.10253996686E+04  0.13227549212E+04  0.10100000352E+00 0. -1.
       -3    1    3    3    0  502  0.83251544433E+03  0.71792242147E+02 -0.86750685174E+03  0.12044933537E+04  0.10100000352E+00 0.  1.
</event>
<event>
 5   0  0.2980790E-05  0.2455799E+04  0.7818609E-02  0.8418904E-01
       -1   -1    0    0    0  501  0.00000000000E+00  0.00000000000E+00  0.10205464289E+04  0.10205464289E+04  0.50400001928E-02 0. -1.
        1   -1    0    0  501    0  0.00000000000E+00  0.00000000000E+00 -0.14773816799E+04  0.14773816799E+04  0.50400001928E-02 0.  1.
    10030    2    1    2    0    0  0.00000000000E+00  0.00000000000E+00 -0.45683525104E+03  0.24979281089E+04  0.24557985240E+04 0.  0.
        5    1    3    3  502    0 -0.97055064983E+02  0.68124613323E+03 -0.12628191662E+04  0.14381412713E+04  0.46999998093E+01 0.  1.
       -5    1    3    3    0  502  0.97055064983E+02 -0.68124613323E+03  0.80598391513E+03  0.10597868376E+04  0.46999998093E+01 0. -1.
</event>
<event>
 5   0  0.2331375E-05  0.2510926E+04  0.7818609E-02  0.8399103E-01
       -4   -1    0    0    0  501  0.00000000000E+00  0.00000000000E+00  0.15644868397E+04  0.15644873551E+04  0.12699999809E+01 0. -1.
        4   -1    0    0  501    0  0.00000000000E+00  0.00000000000E+00 -0.10074776456E+04  0.10074784460E+04  0.12699999809E+01 0.  1.
    10030    2    1    2    0    0  0.00000000000E+00  0.00000000000E+00  0.55700919408E+03  0.25719658012E+04  0.25109258930E+04 0.  0.
        3    1    3    3  502    0  0.56743966605E+03  0.41653997220E+03 -0.78633119305E+03  0.10553720095E+04  0.10100000352E+00 0.  1.
       -3    1    3    3    0  502 -0.56743966605E+03 -0.41653997220E+03  0.13433403871E+04  0.15165937917E+04  0.10100000352E+00 0. -1.
</event>
<event>
 5   0  0.6909250E-05  0.2498508E+04  0.7818609E-02  0.8403517E-01
        2   -1    0    0  501    0  0.00000000000E+00  0.00000000000E+00  0.21080313742E+04  0.21080313742E+04  0.25500000920E-02 0.  1.
       -2   -1    0    0    0  501  0.00000000000E+00  0.00000000000E+00 -0.74032850780E+03  0.74032850780E+03  0.25500000920E-02 0. -1.
    10030    2    1    2    0    0  0.00000000000E+00  0.00000000000E+00  0.13677028664E+04  0.28483598821E+04  0.24985081322E+04 0.  0.
        4    1    3    3  502    0  0.52738265255E+03 -0.79478559647E+03  0.16035461779E+04  0.18657916722E+04  0.12699999809E+01 0.  1.
       -4    1    3    3    0  502 -0.52738265255E+03  0.79478559647E+03 -0.23584331142E+03  0.98256820985E+03  0.12699999809E+01 0. -1.
</event>
<event>
 5   0  0.6648328E-05  0.1322182E+04  0.7818609E-02  0.9012157E-01
       -2   -1    0    0    0  501  0.00000000000E+00  0.00000000000E+00  0.19865392681E+03  0.19865392683E+03  0.25500000920E-02 0.  1.
        2   -1    0    0  501    0  0.00000000000E+00  0.00000000000E+00 -0.22000137510E+04  0.22000137510E+04  0.25500000920E-02 0. -1.
    10030    2    1    2    0    0  0.00000000000E+00  0.00000000000E+00 -0.20013598242E+04  0.23986676779E+04  0.13221820914E+04 0.  0.
        2    1    3    3  502    0  0.46568688292E+03  0.46408027657E+03 -0.11264558496E+04  0.13042766413E+04  0.25500000920E-02 0.  1.
       -2    1    3    3    0  502 -0.46568688292E+03 -0.46408027657E+03 -0.87490397461E+03  0.10943910365E+04  0.25500000920E-02 0. -1.
</event>
<event>
 5   0  0.2793920E-05  0.2104555E+04  0.7818609E-02  0.8559239E-01
       -1   -1    0    0    0  501  0.00000000000E+00  0.00000000000E+00  0.82474922841E+03  0.82474922843E+03  0.50400001928E-02 0. -1.
        1   -1    0    0  501    0  0.00000000000E+00  0.00000000000E+00 -0.13425756901E+04  0.13425756901E+04  0.50400001928E-02 0.  1.
    10030    2    1    2    0    0  0.00000000000E+00  0.00000000000E+00 -0.51782646164E+03  0.21673249185E+04  0.21045553112E+04 0.  0.
        2    1    3    3  502    0 -0.32650950635E+03  0.68806522860E+03  0.48886074485E+03  0.90500112950E+03  0.25500000920E-02 0. -1.
       -2    1    3    3    0  502  0.32650950635E+03 -0.68806522860E+03 -0.10066872065E+04  0.12623237890E+04  0.25500000920E-02 0.  1.
</event>
<event>
 5   0  0.6648328E-05  0.1427249E+04  0.7818609E-02  0.8934327E-01
       -2   -1    0    0    0  501  0.00000000000E+00  0.00000000000E+00  0.70724995199E+03  0.70724995200E+03  0.25500000920E-02 0.  1.
        2   -1    0    0  501    0  0.00000000000E+00  0.00000000000E+00 -0.72005620952E+03  0.72005620952E+03  0.25500000920E-02 0. -1.
    10030    2    1    2    0    0  0.00000000000E+00  0.00000000000E+00 -0.12806257529E+02  0.14273061615E+04  0.14272487094E+04 0.  0.
        2    1    3    3  502    0  0.70241268608E+03 -0.96441026911E+02  0.74688151598E+02  0.71292550328E+03  0.25500000920E-02 0.  1.
       -2    1    3    3    0  502 -0.70241268608E+03  0.96441026911E+02 -0.87494409127E+02  0.71438065824E+03  0.25500000920E-02 0. -1.
</event>
<event>
 5   0  0.7071821E-05  0.2472161E+04  0.7818609E-02  0.8412971E-01
        2   -1    0    0  501    0  0.00000000000E+00  0.00000000000E+00  0.18957026201E+04  0.18957026201E+04  0.25500000920E-02 0.  1.
       -2   -1    0    0    0  501  0.00000000000E+00  0.00000000000E+00 -0.80597853428E+03  0.80597853429E+03  0.25500000920E-02 0. -1.
    10030    2    1    2    0    0  0.00000000000E+00  0.00000000000E+00  0.10897240858E+04  0.27016811543E+04  0.24721614989E+04 0.  0.
        5    1    3    3  502    0 -0.19442425152E+03  0.41151840863E+03 -0.71106239172E+03  0.84426299525E+03  0.46999998093E+01 0. -1.
       -5    1    3    3    0  502  0.19442425152E+03 -0.41151840863E+03  0.18007864775E+04  0.18574181591E+04  0.46999998093E+01 0.  1.
</event>
<event>
 5   0  0.6909250E-05  0.2574522E+04  0.7818609E-02  0.8376907E-01
        2   -1    0    0  501    0  0.00000000000E+00  0.00000000000E+00  0.33115351598E+04  0.33115351598E+04  0.25500000920E-02 0. -1.
       -2   -1    0    0    0  501  0.00000000000E+00  0.00000000000E+00 -0.50038452024E+03  0.50038452024E+03  0.25500000920E-02 0.  1.
    10030    2    1    2    0    0  0.00000000000E+00  0.00000000000E+00  0.28111506395E+04  0.38119196800E+04  0.25745220389E+04 0.  0.
        4    1    3    3  502    0 -0.10605382357E+04 -0.27672377095E+03  0.24051082082E+04  0.26430786028E+04  0.12699999809E+01 0. -1.
       -4    1    3    3    0  502  0.10605382357E+04  0.27672377095E+03  0.40604243137E+03  0.11688410772E+04  0.12699999809E+01 0.  1.
</event>
<event>
 5   0  0.6648328E-05  0.2513266E+04  0.7818609E-02  0.8398275E-01
        2   -1    0    0  501    0  0.00000000000E+00  0.00000000000E+00  0.22113116751E+04  0.22113116751E+04  0.25500000920E-02 0. -1.
       -2   -1    0    0    0  501  0.00000000000E+00  0.00000000000E+00 -0.71411280533E+03  0.71411280534E+03  0.25500000920E-02 0.  1.
    10030    2    1    2    0    0  0.00000000000E+00  0.00000000000E+00  0.14971988698E+04  0.29254244804E+04  0.25132655918E+04 0.  0.
        2    1    3    3  502    0 -0.45488504384E+03 -0.10282244348E+04  0.95351161738E+02  0.11283872276E+04  0.25500000920E-02 0. -1.
       -2    1    3    3    0  502  0.45488504384E+03  0.10282244348E+04  0.14018477080E+04  0.17970372528E+04  0.25500000920E-02 0.  1.
</event>
<event>
 5   0  0.7071821E-05  0.2499458E+04  0.7818609E-02  0.8403179E-01
       -2   -1    0    0    0  501  0.00000000000E+00  0.00000000000E+00  0.71616991577E+03  0.71616991577E+03  0.25500000920E-02 0.  1.
        2   -1    0    0  501    0  0.00000000000E+00  0.00000000000E+00 -0.21807984304E+04  0.21807984304E+04  0.25500000920E-02 0. -1.
    10030    2    1    2    0    0  0.00000000000E+00  0.00000000000E+00 -0.14646285147E+04  0.28969683462E+04  0.24994577238E+04 0.  0.
        5    1    3    3  502    0  0.95965434070E+03  0.37937978262E+03 -0.15493623135E+04  0.18615614794E+04  0.46999998093E+01 0. -1.
       -5    1    3    3    0  502 -0.95965434070E+03 -0.37937978262E+03  0.84733798883E+02  0.10354068668E+04  0.46999998093E+01 0.  1.
</event>
<event>
 5   0  0.2977854E-05  0.2534429E+04  0.7818609E-02  0.8390822E-01
        1   -1    0    0  501    0  0.00000000000E+00  0.00000000000E+00  0.12313679832E+04  0.12313679832E+04  0.50400001928E-02 0. -1.
       -1   -1    0    0    0  501  0.00000000000E+00  0.00000000000E+00 -0.13041047571E+04  0.13041047571E+04  0.50400001928E-02 0.  1.
    10030    2    1    2    0    0  0.00000000000E+00  0.00000000000E+00 -0.72736773845E+02  0.25354727403E+04  0.25344292017E+04 0.  0.
        1    1    3    3  502    0 -0.11462781380E+04  0.93156625560E+02 -0.56875394214E+03  0.12830092647E+04  0.50400001928E-02 0.  1.
       -1    1    3    3    0  502  0.11462781380E+04 -0.93156625560E+02  0.49601716830E+03  0.12524634756E+04  0.50400001928E-02 0. -1.
</event>
<event>
 5   0  0.6827859E-05  0.2445288E+04  0.7818609E-02  0.8422740E-01
       -2   -1    0    0    0  501  0.00000000000E+00  0.00000000000E+00  0.10265549015E+04  0.10265549015E+04  0.25500000920E-02 0.  1.
        2   -1    0    0  501    0  0.00000000000E+00  0.00000000000E+00 -0.14561897659E+04  0.14561897659E+04  0.25500000920E-02 0. -1.
    10030    2    1    2    0    0  0.00000000000E+00  0.00000000000E+00 -0.42963486434E+03  0.24827446674E+04  0.24452883198E+04 0.  0.
        3    1    3    3  502    0 -0.11248570852E+04  0.98948984928E+02  0.26115371097E+03  0.11590063135E+04  0.10100000352E+00 0.  1.
       -3    1    3    3    0  502  0.11248570852E+04 -0.98948984928E+02 -0.69078857532E+03  0.13237383539E+04  0.10100000352E+00 0. -1.
</event>
<event>
 5   0  0.2977854E-05  0.1798008E+04  0.7818609E-02  0.8707359E-01
        1   -1    0    0  501    0  0.00000000000E+00  0.00000000000E+00  0.69671932119E+03  0.69671932121E+03  0.50400001928E-02 0. -1.
       -1   -1    0    0    0  501  0.00000000000E+00  0.00000000000E+00 -0.11600203496E+04  0.11600203496E+04  0.50400001928E-02 0.  1.
    10030    2    1    2    0    0  0.00000000000E+00  0.00000000000E+00 -0.46330102839E+03  0.18567396708E+04  0.17980084433E+04 0.  0.
        1    1    3    3  502    0  0.36743809595E+03 -0.81648692217E+03 -0.31520668706E+03  0.94921910222E+03  0.50400001928E-02 0.  1.
       -1    1    3    3    0  502 -0.36743809595E+03  0.81648692217E+03 -0.14809434132E+03  0.90752056857E+03  0.50400001928E-02 0. -1.
</event>
<event>
 5   0  0.6648328E-05  0.2366687E+04  0.7818609E-02  0.8452082E-01
        2   -1    0    0  501    0  0.00000000000E+00  0.00000000000E+00  0.18557653797E+04  0.18557653797E+04  0.25500000920E-02 0. -1.
       -2   -1    0    0    0  501  0.00000000000E+00  0.00000000000E+00 -0.75456805094E+03  0.75456805095E+03  0.25500000920E-02 0.  1.
    10030    2    1    2    0    0  0.00000000000E+00  0.00000000000E+00  0.11011973288E+04  0.26103334306E+04  0.23666865154E+04 0.  0.
        2    1    3    3  502    0  0.53307757601E+03 -0.10562261887E+04  0.52554930056E+03  0.12945993709E+04  0.25500000920E-02 0.  1.
       -2    1    3    3    0  502 -0.53307757601E+03  0.10562261887E+04  0.57564802819E+03  0.13157340598E+04  0.25500000920E-02 0. -1.
</event>
<event>
 5   0  0.7071821E-05  0.2492432E+04  0.7818609E-02  0.8405687E-01
       -2   -1    0    0    0  501  0.00000000000E+00  0.00000000000E+00  0.68579213488E+03  0.68579213489E+03  0.25500000920E-02 0.  1.
        2   -1    0    0  501    0  0.00000000000E+00  0.00000000000E+00 -0.22646138989E+04  0.22646138989E+04  0.25500000920E-02 0. -1.
    10030    2    1    2    0    0  0.00000000000E+00  0.00000000000E+00 -0.15788217641E+04  0.29504060338E+04  0.24924320656E+04 0.  0.
        5    1    3    3  502    0 -0.80604502322E+03 -0.23737356285E+03  0.30000675047E+03  0.89223367350E+03  0.46999998093E+01 0.  1.
       -5    1    3    3    0  502  0.80604502322E+03  0.23737356285E+03 -0.18788285145E+04  0.20581723603E+04  0.46999998093E+01 0. -1.
</event>
<event>
 5   0  0.2777539E-05  0.2393655E+04  0.7818609E-02  0.8441883E-01
       -1   -1    0    0    0  501  0.00000000000E+00  0.00000000000E+00  0.94664548717E+03  0.94664548719E+03  0.50400001928E-02 0. -1.
        1   -1    0    0  501    0  0.00000000000E+00  0.00000000000E+00 -0.15131278282E+04  0.15131278282E+04  0.50400001928E-02 0.  1.
    10030    2    1    2    0    0  0.00000000000E+00  0.00000000000E+00 -0.56648234099E+03  0.24597733154E+04  0.23936546368E+04 0.  0.
        3    1    3    3  502    0 -0.87085314476E+03 -0.43622107644E+03  0.43147125658E+03  0.10652893892E+04  0.10100000352E+00 0. -1.
       -3    1    3    3    0  502  0.87085314476E+03  0.43622107644E+03 -0.99795359757E+03  0.13944839262E+04  0.10100000352E+00 0.  1.
</event>
<event>
 5   0  0.2977854E-05  0.2023402E+04  0.7818609E-02  0.8595757E-01
       -1   -1    0    0    0  501  0.00000000000E+00  0.00000000000E+00  0.68114269358E+03  0.68114269360E+03  0.50400001928E-02 0.  1.
        1   -1    0    0  501    0  0.00000000000E+00  0.00000000000E+00 -0.15026788903E+04  0.15026788903E+04  0.50400001928E-02 0. -1.
    10030    2    1    2    0    0  0.00000000000E+00  0.00000000000E+00 -0.82153619671E+03  0.21838215839E+04  0.20234018355E+04 0.  0.
        1    1    3    3  502    0 -0.86933741102E+03 -0.47419646637E+03 -0.18714842127E+03  0.10077868597E+04  0.50400001928E-02 0.  1.
       -1    1    3    3    0  502  0.86933741102E+03  0.47419646637E+03 -0.63438777543E+03  0.11760347242E+04  0.50400001928E-02 0. -1.
</event>
<event>
 5   0  0.2980790E-05  0.2542647E+04  0.7818609E-02  0.8387948E-01
        1   -1    0    0  501    0  0.00000000000E+00  0.00000000000E+00  0.10304132044E+04  0.10304132045E+04  0.50400001928E-02 0. -1.
       -1   -1    0    0    0  501  0.00000000000E+00  0.00000000000E+00 -0.15685585861E+04  0.15685585861E+04  0.50400001928E-02 0.  1.
    10030    2    1    2    0    0  0.00000000000E+00  0.00000000000E+00 -0.53814538168E+03  0.25989717906E+04  0.25426470295E+04 0.  0.
        5    1    3    3  502    0 -0.12224248702E+04 -0.12771409735E+03 -0.60124526013E+03  0.13682658392E+04  0.46999998093E+01 0.  1.
       -5    1    3    3    0  502  0.12224248702E+04  0.12771409735E+03  0.63099878446E+02  0.12307059513E+04  0.46999998093E+01 0. -1.
</event>
<event>
 5   0  0.2331375E-05  0.1308128E+04  0.7818609E-02  0.9023145E-01
        3   -1    0    0  501    0  0.00000000000E+00  0.00000000000E+00  0.11715268936E+04  0.11715268980E+04  0.10100000352E+00 0. -1.
       -3   -1    0    0    0  501  0.00000000000E+00  0.00000000000E+00 -0.36516406145E+03  0.36516407542E+03  0.10100000352E+00 0.  1.
    10030    2    1    2    0    0  0.00000000000E+00  0.00000000000E+00  0.80636283219E+03  0.15366909734E+04  0.13081277195E+04 0.  0.
        4    1    3    3  502    0  0.95273348261E+02 -0.27592812652E+03  0.10907567618E+04  0.11291435995E+04  0.12699999809E+01 0. -1.
       -4    1    3    3    0  502 -0.95273348261E+02  0.27592812652E+03 -0.28439392963E+03  0.40754737394E+03  0.12699999809E+01 0.  1.
</event>
<event>
 5   0  0.2777539E-05  0.2325532E+04  0.7818609E-02  0.8467922E-01
        1   -1    0    0  501    0  0.00000000000E+00  0.00000000000E+00  0.11352403086E+04  0.11352403086E+04  0.50400001928E-02 0.  1.
       -1   -1    0    0    0  501  0.00000000000E+00  0.00000000000E+00 -0.11909588061E+04  0.11909588061E+04  0.50400001928E-02 0. -1.
    10030    2    1    2    0    0  0.00000000000E+00  0.00000000000E+00 -0.55718497508E+02  0.23261991146E+04  0.23255317177E+04 0.  0.
        3    1    3    3  502    0 -0.63701676678E+03  0.95863121818E+03  0.13729494460E+03  0.11591436864E+04  0.10100000352E+00 0.  1.
       -3    1    3    3    0  502  0.63701676678E+03 -0.95863121818E+03 -0.19301344211E+03  0.11670554283E+04  0.10100000352E+00 0. -1.
</event>
<event>
 5   0  0.7071821E-05  0.2477788E+04  0.7818609E-02  0.8410942E-01
        2   -1    0    0  501    0  0.00000000000E+00  0.00000000000E+00  0.25338986009E+04  0.25338986009E+04  0.25500000920E-02 0. -1.
       -2   -1    0    0    0  501  0.00000000000E+00  0.00000000000E+00 -0.60572973936E+03  0.60572973936E+03  0.25500000920E-02 0.  1.
    10030    2    1    2    0    0  0.00000000000E+00  0.00000000000E+00  0.19281688616E+04  0.31396283403E+04  0.24777875124E+04 0.  0.
        5    1    3    3  502    0  0.47644080640E+03  0.95206931722E+03  0.17668799368E+04  0.20628423662E+04  0.46999998093E+01 0. -1.
       -5    1    3    3    0  502 -0.47644080640E+03 -0.95206931722E+03  0.16128892482E+03  0.10767859741E+04  0.46999998093E+01 0.  1.
</event>
<event>
 5   0  0.2331375E-05  0.2320697E+04  0.7818609E-02  0.8469805E-01
       -3   -1    0    0    0  501  0.00000000000E+00  0.00000000000E+00  0.12064897493E+04  0.12064897536E+04  0.10100000352E+00 0. -1.
        3   -1    0    0  501    0  0.00000000000E+00  0.00000000000E+00 -0.11159717624E+04  0.11159717669E+04  0.10100000352E+00 0.  1.
    10030    2    1    2    0    0  0.00000000000E+00  0.00000000000E+00  0.90517986968E+02  0.23224615205E+04  0.23206968799E+04 0.  0.
        4    1    3    3  502    0 -0.93757771860E+03  0.46896554235E+03 -0.45253881288E+03  0.11418290802E+04  0.12699999809E+01 0.  1.
       -4    1    3    3    0  502  0.93757771860E+03 -0.46896554235E+03  0.54305679985E+03  0.11806324403E+04  0.12699999809E+01 0. -1.
</event>
<event>
 5   0  0.7071821E-05  0.2676984E+04  0.7818609E-02  0.8342512E-01
        2   -1    0    0  501    0  0.00000000000E+00  0.00000000000E+00  0.11039795901E+04  0.11039795901E+04  0.25500000920E-02 0.  1.
       -2   -1    0    0    0  501  0.00000000000E+00  0.00000000000E+00 -0.16228205691E+04  0.16228205691E+04  0.25500000920E-02 0. -1.
    10030    2    1    2    0    0  0.00000000000E+00  0.00000000000E+00 -0.51884097898E+03  0.27268001592E+04  0.26769839646E+04 0.  0.
        5    1    3    3  502    0  0.81433244601E+03 -0.52942152093E+03  0.67864835600E+03  0.11849093470E+04  0.46999998093E+01 0.  1.
       -5    1    3    3    0  502 -0.81433244601E+03  0.52942152093E+03 -0.11974893350E+04  0.15418908122E+04  0.46999998093E+01 0. -1.
</event>
<event>
 5   0  0.2977854E-05  0.2389384E+04  0.7818609E-02  0.8443489E-01
       -1   -1    0    0    0  501  0.00000000000E+00  0.00000000000E+00  0.83150494995E+03  0.83150494997E+03  0.50400001928E-02 0.  1.
        1   -1    0    0  501    0  0.00000000000E+00  0.00000000000E+00 -0.17165131092E+04  0.17165131092E+04  0.50400001928E-02 0. -1.
    10030    2    1    2    0    0  0.00000000000E+00  0.00000000000E+00 -0.88500815926E+03  0.25480180592E+04  0.23893841441E+04 0.  0.
        1    1    3    3  502    0 -0.83619647700E+03  0.23635932412E+03 -0.13168140138E+04  0.15776848307E+04  0.50400001928E-02 0. -1.
       -1    1    3    3    0  502  0.83619647700E+03 -0.23635932412E+03  0.43180585450E+03  0.97033322846E+03  0.50400001928E-02 0.  1.
</event>
<event>
 5   0  0.2980790E-05  0.2373749E+04  0.7818609E-02  0.8449397E-01
        1   -1    0    0  501    0  0.00000000000E+00  0.00000000000E+00  0.11573625770E+04  0.11573625770E+04  0.50400001928E-02 0. -1.
       -1   -1    0    0    0  501  0.00000000000E+00  0.00000000000E+00 -0.12171393343E+04  0.12171393343E+04  0.50400001928E-02 0.  1.
    10030    2    1    2    0    0  0.00000000000E+00  0.00000000000E+00 -0.59776757255E+02  0.23745019113E+04  0.23737493688E+04 0.  0.
        5    1    3    3  502    0 -0.10054842484E+04  0.63043968106E+03 -0.15860333413E+02  0.11868978074E+04  0.46999998093E+01 0. -1.
       -5    1    3    3    0  502  0.10054842484E+04 -0.63043968106E+03 -0.43916423842E+02  0.11876041038E+04  0.46999998093E+01 0.  1.
</event>
<event>
 5   0  0.6827859E-05  0.2608120E+04  0.7818609E-02  0.8365448E-01
       -2   -1    0    0    0  501  0.00000000000E+00  0.00000000000E+00  0.10220097370E+04  0.10220097370E+04  0.25500000920E-02 0.  1.
        2   -1    0    0  501    0  0.00000000000E+00  0.00000000000E+00 -0.16639493605E+04  0.16639493605E+04  0.25500000920E-02 0. -1.
    10030    2    1    2    0    0  0.00000000000E+00  0.00000000000E+00 -0.64193962353E+03  0.26859590976E+04  0.26081199730E+04 0.  0.
        3    1    3    3  502    0  0.72736698767E+03  0.49105492685E+02  0.79254847695E+03  0.10768505851E+04  0.10100000352E+00 0.  1.
       -3    1    3    3    0  502 -0.72736698767E+03 -0.49105492685E+02 -0.14344881005E+04  0.16091085124E+04  0.10100000352E+00 0. -1.
</event>
<event>
 5   0  0.7071821E-05  0.2508953E+04  0.7818609E-02  0.8399803E-01
       -2   -1    0    0    0  501  0.00000000000E+00  0.00000000000E+00  0.26437741616E+04  0.26437741616E+04  0.25500000920E-02 0.  1.
        2   -1    0    0  501    0  0.00000000000E+00  0.00000000000E+00 -0.59525188245E+03  0.59525188246E+03  0.25500000920E-02 0. -1.
    10030    2    1    2    0    0  0.00000000000E+00  0.00000000000E+00  0.20485222791E+04  0.32390260440E+04  0.25089532052E+04 0.  0.
        5    1    3    3  502    0  0.25688075034E+03  0.94568975789E+03  0.20353377669E+04  0.22589685154E+04  0.46999998093E+01 0.  1.
       -5    1    3    3    0  502 -0.25688075034E+03 -0.94568975789E+03  0.13184512192E+02  0.98005752864E+03  0.46999998093E+01 0. -1.
</event>
<event>
 5   0  0.2331375E-05  0.2510010E+04  0.7818609E-02  0.8399428E-01
        3   -1    0    0  501    0  0.00000000000E+00  0.00000000000E+00  0.17187844588E+04  0.17187844618E+04  0.10100000352E+00 0.  1.
       -3   -1    0    0    0  501  0.00000000000E+00  0.00000000000E+00 -0.91636721194E+03  0.91636721751E+03  0.10100000352E+00 0. -1.
    10030    2    1    2    0    0  0.00000000000E+00  0.00000000000E+00  0.80241724686E+03  0.26351516793E+04  0.25100101463E+04 0.  0.
        3    1    3    3  502    0 -0.23285196765E+03 -0.81153081510E+03 -0.57365321745E+03  0.10207253924E+04  0.10100000352E+00 0. -1.
       -3    1    3    3    0  502  0.23285196765E+03  0.81153081510E+03  0.13760704643E+04  0.16144262868E+04  0.10100000352E+00 0.  1.
</event>
<event>
 5   0  0.6909250E-05  0.2516741E+04  0.7818609E-02  0.8397046E-01
        2   -1    0    0  501    0  0.00000000000E+00  0.00000000000E+00  0.22045862007E+04  0.22045862007E+04  0.25500000920E-02 0. -1.
       -2   -1    0    0    0  501  0.00000000000E+00  0.00000000000E+00 -0.71827384192E+03  0.71827384192E+03  0.25500000920E-02 0.  1.
    10030    2    1    2    0    0  0.00000000000E+00  0.00000000000E+00  0.14863123587E+04  0.29228600426E+04  0.25167412264E+04 0.  0.
        4    1    3    3  502    0 -0.35523934447E+03 -0.11039122659E+03  0.21392688768E+04  0.21713714917E+04  0.12699999809E+01 0. -1.
       -4    1    3    3    0  502  0.35523934447E+03  0.11039122659E+03 -0.65295651805E+03  0.75148855090E+03  0.12699999809E+01 0.  1.
</event>
<event>
 5   0  0.2777539E-05  0.1804309E+04  0.7818609E-02  0.8704011E-01
        1   -1    0    0  501    0  0.00000000000E+00  0.00000000000E+00  0.18810315411E+04  0.18810315411E+04  0.50400001928E-02 0.  1.
       -1   -1    0    0    0  501  0.00000000000E+00  0.00000000000E+00 -0.43267886418E+03  0.43267886421E+03  0.50400001928E-02 0. -1.
    10030    2    1    2    0    0  0.00000000000E+00  0.00000000000E+00  0.14483526769E+04  0.23137104053E+04  0.18043088325E+04 0.  0.
        3    1    3    3  502    0  0.12948709608E+03  0.70357480412E+03  0.19366155484E+02  0.71565317803E+03  0.10100000352E+00 0. -1.
       -3    1    3    3    0  502 -0.12948709608E+03 -0.70357480412E+03  0.14289865214E+04  0.15980572273E+04  0.10100000352E+00 0.  1.
</event>
<event>
 5   0  0.2896652E-05  0.1539673E+04  0.7818609E-02  0.8858491E-01
       -1   -1    0    0    0  501  0.00000000000E+00  0.00000000000E+00  0.58593801293E+03  0.58593801295E+03  0.50400001928E-02 0. -1.
        1   -1    0    0  501    0  0.00000000000E+00  0.00000000000E+00 -0.10114526678E+04  0.10114526679E+04  0.50400001928E-02 0.  1.
    10030    2    1    2    0    0  0.00000000000E+00  0.00000000000E+00 -0.42551465492E+03  0.15973906808E+04  0.15396734282E+04 0.  0.
        4    1    3    3  502    0 -0.41871036376E+03  0.26554381056E+03 -0.82374368270E+03  0.96145054565E+03  0.12699999809E+01 0.  1.
       -4    1    3    3    0  502  0.41871036376E+03 -0.26554381056E+03  0.39822902778E+03  0.63594013516E+03  0.12699999809E+01 0. -1.
</event>
<event>
 5   0  0.2896652E-05  0.2529171E+04  0.7818609E-02  0.8392666E-01
       -1   -1    0    0    0  501  0.00000000000E+00  0.00000000000E+00  0.10499738349E+04  0.10499738350E+04  0.50400001928E-02 0.  1.
        1   -1    0    0  501    0  0.00000000000E+00  0.00000000000E+00 -0.15230637678E+04  0.15230637678E+04  0.50400001928E-02 0. -1.
    10030    2    1    2    0    0  0.00000000000E+00  0.00000000000E+00 -0.47308993282E+03  0.25730376027E+04  0.25291714890E+04 0.  0.
        4    1    3    3  502    0 -0.99511502616E+03  0.62531621847E+03 -0.71144004670E+03  0.13738350852E+04  0.12699999809E+01 0. -1.
       -4    1    3    3    0  502  0.99511502616E+03 -0.62531621847E+03  0.23835011388E+03  0.11992025175E+04  0.12699999809E+01 0.  1.
</event>
<event>
 5   0  0.2896652E-05  0.2793029E+04  0.7818609E-02  0.8305436E-01
        1   -1    0    0  501    0  0.00000000000E+00  0.00000000000E+00  0.24610890217E+04  0.24610890217E+04  0.50400001928E-02 0. -1.
       -1   -1    0    0    0  501  0.00000000000E+00  0.00000000000E+00 -0.79243493331E+03  0.79243493332E+03  0.50400001928E-02 0.  1.
    10030    2    1    2    0    0  0.00000000000E+00  0.00000000000E+00  0.16686540884E+04  0.32535239550E+04  0.27930291189E+04 0.  0.
        4    1    3    3  502    0 -0.31661841953E+03 -0.13599387615E+04  0.80650039828E+03  0.16124903609E+04  0.12699999809E+01 0. -1.
       -4    1    3    3    0  502  0.31661841953E+03  0.13599387615E+04  0.86215369008E+03  0.16410335941E+04  0.12699999809E+01 0.  1.
</event>
<event>
 5   0  0.2977854E-05  0.2395747E+04  0.7818609E-02  0.8441098E-01
        1   -1    0    0  501    0  0.00000000000E+00  0.00000000000E+00  0.57104365390E+03  0.57104365392E+03  0.50400001928E-02 0. -1.
       -1   -1    0    0    0  501  0.00000000000E+00  0.00000000000E+00 -0.25127684859E+04  0.25127684859E+04  0.50400001928E-02 0.  1.
    10030    2    1    2    0    0  0.00000000000E+00  0.00000000000E+00 -0.19417248320E+04  0.30838121398E+04  0.23957466457E+04 0.  0.
        1    1    3    3  502    0 -0.10659105415E+04  0.44662454300E+03 -0.13764063887E+04  0.17972571635E+04  0.50400001928E-02 0.  1.
       -1    1    3    3    0  502  0.10659105415E+04 -0.44662454300E+03 -0.56531844328E+03  0.12865549763E+04  0.50400001928E-02 0. -1.
</event>
<event>
 5   0  0.2980790E-05  0.2468554E+04  0.7818609E-02  0.8414275E-01
       -1   -1    0    0    0  501  0.00000000000E+00  0.00000000000E+00  0.10543156660E+04  0.10543156660E+04  0.50400001928E-02 0.  1.
        1   -1    0    0  501    0  0.00000000000E+00  0.00000000000E+00 -0.14449554878E+04  0.14449554878E+04  0.50400001928E-02 0. -1.
    10030    2    1    2    0    0  0.00000000000E+00  0.00000000000E+00 -0.39063982184E+03  0.24992711538E+04  0.24685535906E+04 0.  0.
        5    1    3    3  502    0 -0.21625320223E+03 -0.10374235709E+04  0.44532889776E+03  0.11495012093E+04  0.46999998093E+01 0.  1.
       -5    1    3    3    0  502  0.21625320223E+03  0.10374235709E+04 -0.83596871960E+03  0.13497699445E+04  0.46999998093E+01 0. -1.
</event>
<event>
 5   0  0.6909250E-05  0.2157082E+04  0.7818609E-02  0.8536507E-01
       -2   -1    0    0    0  501  0.00000000000E+00  0.00000000000E+00  0.14005522094E+04  0.14005522094E+04  0.25500000920E-02 0.  1.
        2   -1    0    0  501    0  0.00000000000E+00  0.00000000000E+00 -0.83056584377E+03  0.83056584377E+03  0.25500000920E-02 0. -1.
    10030    2    1    2    0    0  0.00000000000E+00  0.00000000000E+00  0.56998636560E+03  0.22311180531E+04  0.21570821287E+04 0.  0.
        4    1    3    3  502    0 -0.17479580338E+03  0.10385054667E+04  0.52579717098E+03  0.11770775060E+04  0.12699999809E+01 0.  1.
       -4    1    3    3    0  502  0.17479580338E+03 -0.10385054667E+04  0.44189194619E+02  0.10540405471E+04  0.12699999809E+01 0. -1.
</event>
<event>
 5   0  0.2980790E-05  0.2377887E+04  0.7818609E-02  0.8447829E-01
       -1   -1    0    0    0  501  0.00000000000E+00  0.00000000000E+00  0.17982945221E+04  0.17982945221E+04  0.50400001928E-02 0. -1.
        1   -1    0    0  501    0  0.00000000000E+00  0.00000000000E+00 -0.78607075075E+03  0.78607075077E+03  0.50400001928E-02 0.  1.
    10030    2    1    2    0    0  0.00000000000E+00  0.00000000000E+00  0.10122237714E+04  0.25843652729E+04  0.23778870664E+04 0.  0.
        5    1    3    3  502    0  0.20165429648E+03 -0.11310643344E+04  0.17361631280E+03  0.11619533975E+04  0.46999998093E+01 0.  1.
       -5    1    3    3    0  502 -0.20165429648E+03  0.11310643344E+04  0.83860745859E+03  0.14224118754E+04  0.46999998093E+01 0. -1.
</event>
<event>
 5   0  0.6909250E-05  0.2462432E+04  0.7818609E-02  0.8416493E-01
        2   -1    0    0  501    0  0.00000000000E+00  0.00000000000E+00  0.20918819964E+04  0.20918819964E+04  0.25500000920E-02 0. -1.
       -2   -1    0    0    0  501  0.00000000000E+00  0.00000000000E+00 -0.72465480329E+03  0.72465480329E+03  0.25500000920E-02 0.  1.
    10030    2    1    2    0    0  0.00000000000E+00  0.00000000000E+00  0.13672271931E+04  0.28165367997E+04  0.24624315922E+04 0.  0.
        4    1    3    3  502    0  0.11366382097E+04 -0.19580877639E+03  0.19084387213E+03  0.11690639388E+04  0.12699999809E+01 0.  1.
       -4    1    3    3    0  502 -0.11366382097E+04  0.19580877639E+03  0.11763833210E+04  0.16474728609E+04  0.12699999809E+01 0. -1.
</event>
<event>
 5   0  0.2977854E-05  0.2428271E+04  0.7818609E-02  0.8428995E-01
       -1   -1    0    0    0  501  0.00000000000E+00  0.00000000000E+00  0.66657680181E+03  0.66657680183E+03  0.50400001928E-02 0. -1.
        1   -1    0    0  501    0  0.00000000000E+00  0.00000000000E+00 -0.22114854218E+04  0.22114854218E+04  0.50400001928E-02 0.  1.
    10030    2    1    2    0    0  0.00000000000E+00  0.00000000000E+00 -0.15449086200E+04  0.28780622236E+04  0.24282708908E+04 0.  0.
        1    1    3    3  502    0 -0.23643579500E+03  0.97529329043E+03  0.37524339480E+02  0.10042444740E+04  0.50400001928E-02 0. -1.
       -1    1    3    3    0  502  0.23643579500E+03 -0.97529329043E+03 -0.15824329595E+04  0.18738177496E+04  0.50400001928E-02 0.  1.
</event>
<event>
 5   0  0.6445331E-05  0.2069144E+04  0.7818609E-02  0.8574959E-01
        2   -1    0    0  501    0  0.00000000000E+00  0.00000000000E+00  0.17529936118E+04  0.17529936118E+04  0.25500000920E-02 0. -1.
       -2   -1    0    0    0  501  0.00000000000E+00  0.00000000000E+00 -0.61057795363E+03  0.61057795364E+03  0.25500000920E-02 0.  1.
    10030    2    1    2    0    0  0.00000000000E+00  0.00000000000E+00  0.11424156581E+04  0.23635715654E+04  0.20691440281E+04 0.  0.
        1    1    3    3  502    0 -0.68494168328E+03  0.71537104208E+02  0.14531275741E+04  0.16080554759E+04  0.50400001928E-02 0. -1.
       -1    1    3    3    0  502  0.68494168328E+03 -0.71537104208E+02 -0.31071191599E+03  0.75551608953E+03  0.50400001928E-02 0.  1.
</event>
<event>
 5   0  0.2777539E-05  0.2455964E+04  0.7818609E-02  0.8418844E-01
       -1   -1    0    0    0  501  0.00000000000E+00  0.00000000000E+00  0.92313548471E+03  0.92313548472E+03  0.50400001928E-02 0. -1.
        1   -1    0    0  501    0  0.00000000000E+00  0.00000000000E+00 -0.16334978331E+04  0.16334978331E+04  0.50400001928E-02 0.  1.
    10030    2    1    2    0    0  0.00000000000E+00  0.00000000000E+00 -0.71036234841E+03  0.25566333178E+04  0.24559640176E+04 0.  0.
        3    1    3    3  502    0 -0.14097891385E+03  0.11523205848E+04 -0.77186586564E+03  0.13940927907E+04  0.10100000352E+00 0.  1.
       -3    1    3    3    0  502  0.14097891385E+03 -0.11523205848E+04  0.61503517229E+02  0.11625405271E+04  0.10100000352E+00 0. -1.
</event>
<event>
 5   0  0.6648328E-05  0.2499300E+04  0.7818609E-02  0.8403235E-01
       -2   -1    0    0    0  501  0.00000000000E+00  0.00000000000E+00  0.74384061948E+03  0.74384061948E+03  0.25500000920E-02 0. -1.
        2   -1    0    0  501    0  0.00000000000E+00  0.00000000000E+00 -0.20994080772E+04  0.20994080772E+04  0.25500000920E-02 0.  1.
    10030    2    1    2    0    0  0.00000000000E+00  0.00000000000E+00 -0.13555674577E+04  0.28432486967E+04  0.24992999057E+04 0.  0.
        2    1    3    3  502    0 -0.12052071683E+04 -0.33005255672E+03 -0.69244073924E+03  0.14286123288E+04  0.25500000920E-02 0.  1.
       -2    1    3    3    0  502  0.12052071683E+04  0.33005255672E+03 -0.66312671850E+03  0.14146363679E+04  0.25500000920E-02 0. -1.
</event>
<event>
 5   0  0.2977854E-05  0.2512533E+04  0.7818609E-02  0.8398534E-01
       -1   -1    0    0    0  501  0.00000000000E+00  0.00000000000E+00  0.13476207263E+04  0.13476207263E+04  0.50400001928E-02 0. -1.
        1   -1    0    0  501    0  0.00000000000E+00  0.00000000000E+00 -0.11711055415E+04  0.11711055416E+04  0.50400001928E-02 0.  1.
    10030    2    1    2    0    0  0.00000000000E+00  0.00000000000E+00  0.17651518476E+03  0.25187262679E+04  0.25125334629E+04 0.  0.
        1    1    3    3  502    0  0.54603092355E+03  0.10012423644E+03  0.12179920048E+04  0.13385361989E+04  0.50400001928E-02 0. -1.
       -1    1    3    3    0  502 -0.54603092355E+03 -0.10012423644E+03 -0.10414768200E+04  0.11801900689E+04  0.50400001928E-02 0.  1.
</event>
<event>
 5   0  0.2777539E-05  0.2254936E+04  0.7818609E-02  0.8495904E-01
        1   -1    0    0  501    0  0.00000000000E+00  0.00000000000E+00  0.15248227068E+04  0.15248227068E+04  0.50400001928E-02 0.  1.
       -1   -1    0    0    0  501  0.00000000000E+00  0.00000000000E+00 -0.83366009382E+03  0.83366009383E+03  0.50400001928E-02 0. -1.
    10030    2    1    2    0    0  0.00000000000E+00  0.00000000000E+00  0.69116261294E+03  0.23584828006E+04  0.22549357781E+04 0.  0.
        3    1    3    3  502    0  0.40078338237E+03 -0.51661174766E+03 -0.61511148888E+03  0.89770661764E+03  0.10100000352E+00 0. -1.
       -3    1    3    3    0  502 -0.40078338237E+03  0.51661174766E+03  0.13062741018E+04  0.14607761830E+04  0.10100000352E+00 0.  1.
</event>
<event>
 5   0  0.2977854E-05  0.2385639E+04  0.7818609E-02  0.8444900E-01
        1   -1    0    0  501    0  0.00000000000E+00  0.00000000000E+00  0.20600573880E+04  0.20600573880E+04  0.50400001928E-02 0.  1.
       -1   -1    0    0    0  501  0.00000000000E+00  0.00000000000E+00 -0.69066932959E+03  0.69066932961E+03  0.50400001928E-02 0. -1.
    10030    2    1    2    0    0  0.00000000000E+00  0.00000000000E+00  0.13693880584E+04  0.27507267176E+04  0.23856390801E+04 0.  0.
        1    1    3    3  502    0 -0.11372196821E+04  0.98554617171E+02  0.28554242951E+03  0.11766546210E+04  0.50400001928E-02 0. -1.
       -1    1    3    3    0  502  0.11372196821E+04 -0.98554617171E+02  0.10838456289E+04  0.15740720966E+04  0.50400001928E-02 0.  1.
</event>
<event>
 5   0  0.7071821E-05  0.2403593E+04  0.7818609E-02  0.8438160E-01
       -2   -1    0    0    0  501  0.00000000000E+00  0.00000000000E+00  0.59322761322E+03  0.59322761323E+03  0.25500000920E-02 0. -1.
        2   -1    0    0  501    0  0.00000000000E+00  0.00000000000E+00 -0.24346728613E+04  0.24346728613E+04  0.25500000920E-02 0.  1.
    10030    2    1    2    0    0  0.00000000000E+00  0.00000000000E+00 -0.18414452481E+04  0.30279004745E+04  0.24035932855E+04 0.  0.
        5    1    3    3  502    0  0.81120969480E+03 -0.32358227146E+03  0.11925013533E+03  0.88148133282E+03  0.46999998093E+01 0. -1.
       -5    1    3    3    0  502 -0.81120969480E+03  0.32358227146E+03 -0.19606953834E+04  0.21464191417E+04  0.46999998093E+01 0.  1.
</event>
<event>
 5   0  0.6827859E-05  0.2509090E+04  0.7818609E-02  0.8399754E-01
       -2   -1    0    0    0  501  0.00000000000E+00  0.00000000000E+00  0.93463348671E+03  0.93463348672E+03  0.25500000920E-02 0.  1.
        2   -1    0    0  501    0  0.00000000000E+00  0.00000000000E+00 -0.16839581896E+04  0.16839581896E+04  0.25500000920E-02 0. -1.
    10030    2    1    2    0    0  0.00000000000E+00  0.00000000000E+00 -0.74932470285E+03  0.26185916763E+04  0.25090904441E+04 0.  0.
        3    1    3    3  502    0  0.30094639537E+03 -0.78916790584E+03  0.59346885406E+03  0.10322596609E+04  0.10100000352E+00 0.  1.
       -3    1    3    3    0  502 -0.30094639537E+03  0.78916790584E+03 -0.13427935569E+04  0.15863320154E+04  0.10100000352E+00 0. -1.
</event>
<event>
 5   0  0.6445331E-05  0.2484727E+04  0.7818609E-02  0.8408447E-01
       -2   -1    0    0    0  501  0.00000000000E+00  0.00000000000E+00  0.16669921733E+04  0.16669921733E+04  0.25500000920E-02 0.  1.
        2   -1    0    0  501    0  0.00000000000E+00  0.00000000000E+00 -0.92589964884E+03  0.92589964884E+03  0.25500000920E-02 0. -1.
    10030    2    1    2    0    0  0.00000000000E+00  0.00000000000E+00  0.74109252446E+03  0.25928918221E+04  0.24847273234E+04 0.  0.
        1    1    3    3  502    0 -0.12412693592E+04 -0.51675525189E+02  0.36335528093E+03  0.12943906065E+04  0.50400001928E-02 0.  1.
       -1    1    3    3    0  502  0.12412693592E+04  0.51675525189E+02  0.37773724353E+03  0.12985012157E+04  0.50400001928E-02 0. -1.
</event>
<event>
 5   0  0.2793920E-05  0.2143925E+04  0.7818609E-02  0.8542137E-01
       -1   -1    0    0    0  501  0.00000000000E+00  0.00000000000E+00  0.79915484342E+03  0.79915484344E+03  0.50400001928E-02 0. -1.
        1   -1    0    0  501    0  0.00000000000E+00  0.00000000000E+00 -0.14378990914E+04  0.14378990914E+04  0.50400001928E-02 0.  1.
    10030    2    1    2    0    0  0.00000000000E+00  0.00000000000E+00 -0.63874424793E+03  0.22370539348E+04  0.21439253935E+04 0.  0.
        2    1    3    3  502    0 -0.52482935568E+03  0.32866613944E+02  0.65532325115E+03  0.84022296469E+03  0.25500000920E-02 0. -1.
       -2    1    3    3    0  502  0.52482935568E+03 -0.32866613944E+02 -0.12940674991E+04  0.13968309701E+04  0.25500000920E-02 0.  1.
</event>
<event>
 5   0  0.2977854E-05  0.1571749E+04  0.7818609E-02  0.8838094E-01
       -1   -1    0    0    0  501  0.00000000000E+00  0.00000000000E+00  0.75669965526E+03  0.75669965528E+03  0.50400001928E-02 0. -1.
        1   -1    0    0  501    0  0.00000000000E+00  0.00000000000E+00 -0.81617369838E+03  0.81617369840E+03  0.50400001928E-02 0.  1.
    10030    2    1    2    0    0  0.00000000000E+00  0.00000000000E+00 -0.59474043119E+02  0.15728733537E+04  0.15717485247E+04 0.  0.
        1    1    3    3  502    0  0.13319110256E+03  0.46284496979E+03  0.59170097043E+03  0.76293864386E+03  0.50400001928E-02 0. -1.
       -1    1    3    3    0  502 -0.13319110256E+03 -0.46284496979E+03 -0.65117501355E+03  0.80993470981E+03  0.50400001928E-02 0.  1.
</event>
<event>
 5   0  0.7071821E-05  0.2557009E+04  0.7818609E-02  0.8382952E-01
       -2   -1    0    0    0  501  0.00000000000E+00  0.00000000000E+00  0.11268035647E+04  0.11268035647E+04  0.25500000920E-02 0.  1.
        2   -1    0    0  501    0  0.00000000000E+00  0.00000000000E+00 -0.14506293622E+04  0.14506293622E+04  0.25500000920E-02 0. -1.
    10030    2    1    2    0    0  0.00000000000E+00  0.00000000000E+00 -0.32382579749E+03  0.25774329268E+04  0.25570094535E+04 0.  0.
        5    1    3    3  502    0  0.38793580677E+03  0.44602204089E+03  0.98077409616E+03  0.11451505442E+04  0.46999998093E+01 0.  1.
       -5    1    3    3    0  502 -0.38793580677E+03 -0.44602204089E+03 -0.13045998937E+04  0.14322823826E+04  0.46999998093E+01 0. -1.
</event>
<event>
 5   0  0.2980790E-05  0.2462703E+04  0.7818609E-02  0.8416395E-01
        1   -1    0    0  501    0  0.00000000000E+00  0.00000000000E+00  0.19270755142E+04  0.19270755142E+04  0.50400001928E-02 0.  1.
       -1   -1    0    0    0  501  0.00000000000E+00  0.00000000000E+00 -0.78680169853E+03  0.78680169855E+03  0.50400001928E-02 0. -1.
    10030    2    1    2    0    0  0.00000000000E+00  0.00000000000E+00  0.11402738157E+04  0.27138772128E+04  0.24627028142E+04 0.  0.
        5    1    3    3  502    0 -0.39999005701E+03 -0.48436038855E+03 -0.59693757991E+03  0.86657578780E+03  0.46999998093E+01 0. -1.
       -5    1    3    3    0  502  0.39999005701E+03  0.48436038855E+03  0.17372113956E+04  0.18473014250E+04  0.46999998093E+01 0.  1.
</event>
<event>
 5   0  0.2896652E-05  0.2374474E+04  0.7818609E-02  0.8449123E-01
       -1   -1    0    0    0  501  0.00000000000E+00  0.00000000000E+00  0.15834176961E+04  0.15834176961E+04  0.50400001928E-02 0.  1.
        1   -1    0    0  501    0  0.00000000000E+00  0.00000000000E+00 -0.89018281219E+03  0.89018281220E+03  0.50400001928E-02 0. -1.
    10030    2    1    2    0    0  0.00000000000E+00  0.00000000000E+00  0.69323488390E+03  0.24736005083E+04  0.23744735986E+04 0.  0.
        4    1    3    3  502    0 -0.84395687393E+03  0.28180686323E+03 -0.47223226096E+03  0.10073148636E+04  0.12699999809E+01 0. -1.
       -4    1    3    3    0  502  0.84395687393E+03 -0.28180686323E+03  0.11654671449E+04  0.14662856447E+04  0.12699999809E+01 0.  1.
</event>
<event>
 5   0  0.7071821E-05  0.2594932E+04  0.7818609E-02  0.8369925E-01
        2   -1    0    0  501    0  0.00000000000E+00  0.00000000000E+00  0.16699143050E+04  0.16699143050E+04  0.25500000920E-02 0. -1.
       -2   -1    0    0    0  501  0.00000000000E+00  0.00000000000E+00 -0.10080862915E+04  0.10080862915E+04  0.25500000920E-02 0.  1.
    10030    2    1    2    0    0  0.00000000000E+00  0.00000000000E+00  0.66182801352E+03  0.26780005965E+04  0.25949317670E+04 0.  0.
        5    1    3    3  502    0 -0.12510871847E+04 -0.34391810030E+02 -0.22078871426E+02  0.12517633590E+04  0.46999998093E+01 0.  1.
       -5    1    3    3    0  502  0.12510871847E+04  0.34391810030E+02  0.68390688495E+03  0.14262372375E+04  0.46999998093E+01 0. -1.
</event>
<event>
 5   0  0.2331375E-05  0.1957551E+04  0.7818609E-02  0.8626728E-01
        3   -1    0    0  501    0  0.00000000000E+00  0.00000000000E+00  0.14972896939E+04  0.14972896973E+04  0.10100000352E+00 0. -1.
       -3   -1    0    0    0  501  0.00000000000E+00  0.00000000000E+00 -0.63982401782E+03  0.63982402580E+03  0.10100000352E+00 0.  1.
    10030    2    1    2    0    0  0.00000000000E+00  0.00000000000E+00  0.85746567606E+03  0.21371137231E+04  0.19575514501E+04 0.  0.
        2    1    3    3  502    0 -0.42838685998E+03 -0.48653921107E+03  0.12293247615E+04  0.13897751886E+04  0.25500000920E-02 0. -1.
       -2    1    3    3    0  502  0.42838685998E+03  0.48653921107E+03 -0.37185908540E+03  0.74733853448E+03  0.25500000920E-02 0.  1.
</event>
<event>
 5   0  0.7071821E-05  0.2452130E+04  0.7818609E-02  0.8420241E-01
        2   -1    0    0  501    0  0.00000000000E+00  0.00000000000E+00  0.24834181298E+04  0.24834181298E+04  0.25500000920E-02 0. -1.
       -2   -1    0    0    0  501  0.00000000000E+00  0.00000000000E+00 -0.60530884673E+03  0.60530884674E+03  0.25500000920E-02 0.  1.
    10030    2    1    2    0    0  0.00000000000E+00  0.00000000000E+00  0.18781092831E+04  0.30887269766E+04  0.24521296574E+04 0.  0.
        5    1    3    3  502    0  0.72599329359E+03  0.72605855101E+03  0.95035504696E+02  0.10311552352E+04  0.46999998093E+01 0. -1.
       -5    1    3    3    0  502 -0.72599329359E+03 -0.72605855101E+03  0.17830737784E+04  0.20575717414E+04  0.46999998093E+01 0.  1.
</event>
<event>
 5   0  0.6909250E-05  0.2578649E+04  0.7818609E-02  0.8375490E-01
        2   -1    0    0  501    0  0.00000000000E+00  0.00000000000E+00  0.25403404086E+04  0.25403404086E+04  0.25500000920E-02 0.  1.
       -2   -1    0    0    0  501  0.00000000000E+00  0.00000000000E+00 -0.65438364186E+03  0.65438364187E+03  0.25500000920E-02 0. -1.
    10030    2    1    2    0    0  0.00000000000E+00  0.00000000000E+00  0.18859567668E+04  0.31947240505E+04  0.25786486447E+04 0.  0.
        4    1    3    3  502    0  0.98552546133E+03 -0.69523421141E+03  0.37829370852E+03  0.12640090136E+04  0.12699999809E+01 0. -1.
       -4    1    3    3    0  502 -0.98552546133E+03  0.69523421141E+03  0.15076630583E+04  0.19307150369E+04  0.12699999809E+01 0.  1.
</event>
<event>
 5   0  0.6445331E-05  0.2492937E+04  0.7818609E-02  0.8405506E-01
        2   -1    0    0  501    0  0.00000000000E+00  0.00000000000E+00  0.14001287832E+04  0.14001287832E+04  0.25500000920E-02 0. -1.
       -2   -1    0    0    0  501  0.00000000000E+00  0.00000000000E+00 -0.11096721587E+04  0.11096721587E+04  0.25500000920E-02 0.  1.
    10030    2    1    2    0    0  0.00000000000E+00  0.00000000000E+00  0.29045662446E+03  0.25098009419E+04  0.24929371667E+04 0.  0.
        1    1    3    3  502    0 -0.52300932896E+03 -0.11286080944E+04  0.64756763076E+02  0.12455875831E+04  0.50400001928E-02 0.  1.
       -1    1    3    3    0  502  0.52300932896E+03  0.11286080944E+04  0.22569986139E+03  0.12642133587E+04  0.50400001928E-02 0. -1.
</event>
<event>
 5   0  0.6445331E-05  0.2166488E+04  0.7818609E-02  0.8532508E-01
       -2   -1    0    0    0  501  0.00000000000E+00  0.00000000000E+00  0.10797680628E+04  0.10797680628E+04  0.25500000920E-02 0.  1.
        2   -1    0    0  501    0  0.00000000000E+00  0.00000000000E+00 -0.10867308166E+04  0.10867308166E+04  0.25500000920E-02 0. -1.
    10030    2    1    2    0    0  0.00000000000E+00  0.00000000000E+00 -0.69627538169E+01  0.21664988794E+04  0.21664876909E+04 0.  0.
        1    1    3    3  502    0  0.32439568084E+03  0.28443727363E+03 -0.99710620835E+03  0.10864427786E+04  0.50400001928E-02 0. -1.
       -1    1    3    3    0  502 -0.32439568084E+03 -0.28443727363E+03  0.99014345454E+03  0.10800561008E+04  0.50400001928E-02 0.  1.
</event>
<event>
 5   0  0.2793920E-05  0.1611792E+04  0.7818609E-02  0.8813336E-01
       -1   -1    0    0    0  501  0.00000000000E+00  0.00000000000E+00  0.30381000072E+03  0.30381000076E+03  0.50400001928E-02 0.  1.
        1   -1    0    0  501    0  0.00000000000E+00  0.00000000000E+00 -0.21377462469E+04  0.21377462469E+04  0.50400001928E-02 0. -1.
    10030    2    1    2    0    0  0.00000000000E+00  0.00000000000E+00 -0.18339362462E+04  0.24415562477E+04  0.16117924046E+04 0.  0.
        2    1    3    3  502    0  0.57984421803E+00 -0.49670095235E+03 -0.18783123376E+04  0.19428765812E+04  0.25500000920E-02 0. -1.
       -2    1    3    3    0  502 -0.57984421803E+00  0.49670095235E+03  0.44376091362E+02  0.49867966650E+03  0.25500000920E-02 0.  1.
</event>
<event>
 5   0  0.6445331E-05  0.2436166E+04  0.7818609E-02  0.8426086E-01
       -2   -1    0    0    0  501  0.00000000000E+00  0.00000000000E+00  0.11417210885E+04  0.11417210885E+04  0.25500000920E-02 0. -1.
        2   -1    0    0  501    0  0.00000000000E+00  0.00000000000E+00 -0.12995523744E+04  0.12995523744E+04  0.25500000920E-02 0.  1.
    10030    2    1    2    0    0  0.00000000000E+00  0.00000000000E+00 -0.15783128598E+03  0.24412734629E+04  0.24361661285E+04 0.  0.
        1    1    3    3  502    0 -0.77861397986E+02  0.17954300583E+03 -0.12836957858E+04  0.12985272268E+04  0.50400001928E-02 0.  1.
       -1    1    3    3    0  502  0.77861397986E+02 -0.17954300583E+03  0.11258644998E+04  0.11427462361E+04  0.50400001928E-02 0. -1.
</event>
<event>
 5   0  0.2980790E-05  0.2334446E+04  0.7818609E-02  0.8464462E-01
       -1   -1    0    0    0  501  0.00000000000E+00  0.00000000000E+00  0.12962442224E+04  0.12962442224E+04  0.50400001928E-02 0. -1.
        1   -1    0    0  501    0  0.00000000000E+00  0.00000000000E+00 -0.10510435077E+04  0.10510435077E+04  0.50400001928E-02 0.  1.
    10030    2    1    2    0    0  0.00000000000E+00  0.00000000000E+00  0.24520071475E+03  0.23472877301E+04  0.23344456081E+04 0.  0.
        5    1    3    3  502    0  0.70532501400E+03  0.26693821545E+03  0.10183701692E+04  0.12672171391E+04  0.46999998093E+01 0. -1.
       -5    1    3    3    0  502 -0.70532501400E+03 -0.26693821545E+03 -0.77316945441E+03  0.10800705910E+04  0.46999998093E+01 0.  1.
</event>
<event>
 5   0  0.2777539E-05  0.2484756E+04  0.7818609E-02  0.8408436E-01
       -1   -1    0    0    0  501  0.00000000000E+00  0.00000000000E+00  0.95081853030E+03  0.95081853031E+03  0.50400001928E-02 0.  1.
        1   -1    0    0  501    0  0.00000000000E+00  0.00000000000E+00 -0.16233415097E+04  0.16233415097E+04  0.50400001928E-02 0. -1.
    10030    2    1    2    0    0  0.00000000000E+00  0.00000000000E+00 -0.67252297940E+03  0.25741600400E+04  0.24847560753E+04 0.  0.
        3    1    3    3  502    0  0.44484169846E+03 -0.97846285312E+03  0.30923820610E+03  0.11184372892E+04  0.10100000352E+00 0.  1.
       -3    1    3    3    0  502 -0.44484169846E+03  0.97846285312E+03 -0.98176118550E+03  0.14557227508E+04  0.10100000352E+00 0. -1.
</event>
<event>
 5   0  0.6909250E-05  0.2494869E+04  0.7818609E-02  0.8404816E-01
        2   -1    0    0  501    0  0.00000000000E+00  0.00000000000E+00  0.11238487885E+04  0.11238487885E+04  0.25500000920E-02 0.  1.
       -2   -1    0    0    0  501  0.00000000000E+00  0.00000000000E+00 -0.13846102646E+04  0.13846102646E+04  0.25500000920E-02 0. -1.
    10030    2    1    2    0    0  0.00000000000E+00  0.00000000000E+00 -0.26076147606E+03  0.25084590530E+04  0.24948687888E+04 0.  0.
        4    1    3    3  502    0 -0.63619709603E+03 -0.60521747055E+03  0.76047961485E+03  0.11616220509E+04  0.12699999809E+01 0.  1.
       -4    1    3    3    0  502  0.63619709603E+03  0.60521747055E+03 -0.10212410909E+04  0.13468370021E+04  0.12699999809E+01 0. -1.
</event>
<event>
 5   0  0.2896652E-05  0.2470808E+04  0.7818609E-02  0.8413460E-01
        1   -1    0    0  501    0  0.00000000000E+00  0.00000000000E+00  0.16746062987E+04  0.16746062987E+04  0.50400001928E-02 0. -1.
       -1   -1    0    0    0  501  0.00000000000E+00  0.00000000000E+00 -0.91139241554E+03  0.91139241555E+03  0.50400001928E-02 0.  1.
    10030    2    1    2    0    0  0.00000000000E+00  0.00000000000E+00  0.76321388311E+03  0.25859987142E+04  0.24708083533E+04 0.  0.
        4    1    3    3  502    0  0.10724990597E+04 -0.45095501511E+03 -0.53222265458E+02  0.11646668542E+04  0.12699999809E+01 0.  1.
       -4    1    3    3    0  502 -0.10724990597E+04  0.45095501511E+03  0.81643614857E+03  0.14213318600E+04  0.12699999809E+01 0. -1.
</event>
<event>
 5   0  0.6827859E-05  0.2558148E+04  0.7818609E-02  0.8382558E-01
        2   -1    0    0  501    0  0.00000000000E+00  0.00000000000E+00  0.13661286883E+04  0.13661286883E+04  0.25500000920E-02 0. -1.
       -2   -1    0    0    0  501  0.00000000000E+00  0.00000000000E+00 -0.11975668850E+04  0.11975668850E+04  0.25500000920E-02 0.  1.
    10030    2    1    2    0    0  0.00000000000E+00  0.00000000000E+00  0.16856180328E+03  0.25636955733E+04  0.25581481410E+04 0.  0.
        3    1    3    3  502    0 -0.42695716916E+03  0.10769227142E+04  0.62765175612E+03  0.13175741701E+04  0.10100000352E+00 0.  1.
       -3    1    3    3    0  502  0.42695716916E+03 -0.10769227142E+04 -0.45908995285E+03  0.12461214032E+04  0.10100000352E+00 0. -1.
</event>
<event>
 5   0  0.6827859E-05  0.2426189E+04  0.7818609E-02  0.8429763E-01
        2   -1    0    0  501    0  0.00000000000E+00  0.00000000000E+00  0.13866119479E+04  0.13866119479E+04  0.25500000920E-02 0. -1.
       -2   -1    0    0    0  501  0.00000000000E+00  0.00000000000E+00 -0.10612907684E+04  0.10612907684E+04  0.25500000920E-02 0.  1.
    10030    2    1    2    0    0  0.00000000000E+00  0.00000000000E+00  0.32532117951E+03  0.24479027163E+04  0.24261891597E+04 0.  0.
        3    1    3    3  502    0 -0.83527129904E+02  0.57470466495E+03  0.12372446528E+04  0.13667613451E+04  0.10100000352E+00 0. -1.
       -3    1    3    3    0  502  0.83527129904E+02 -0.57470466495E+03 -0.91192347324E+03  0.10811413712E+04  0.10100000352E+00 0.  1.
</event>
<event>
 5   0  0.6827859E-05  0.2632089E+04  0.7818609E-02  0.8357382E-01
       -2   -1    0    0    0  501  0.00000000000E+00  0.00000000000E+00  0.56714801475E+03  0.56714801476E+03  0.25500000920E-02 0.  1.
        2   -1    0    0  501    0  0.00000000000E+00  0.00000000000E+00 -0.30538298875E+04  0.30538298875E+04  0.25500000920E-02 0. -1.
    10030    2    1    2    0    0  0.00000000000E+00  0.00000000000E+00 -0.24866818728E+04  0.36209779023E+04  0.26320893284E+04 0.  0.
        3    1    3    3  502    0  0.53817036119E+03  0.11101553551E+04 -0.18736198997E+04  0.22433287295E+04  0.10100000352E+00 0. -1.
       -3    1    3    3    0  502 -0.53817036119E+03 -0.11101553551E+04 -0.61306197312E+03  0.13776491728E+04  0.10100000352E+00 0.  1.
</event>
<event>
 5   0  0.2793920E-05  0.2533622E+04  0.7818609E-02  0.8391105E-01
       -1   -1    0    0    0  501  0.00000000000E+00  0.00000000000E+00  0.15213189792E+04  0.15213189792E+04  0.50400001928E-02 0.  1.
        1   -1    0    0  501    0  0.00000000000E+00  0.00000000000E+00 -0.10548805485E+04  0.10548805485E+04  0.50400001928E-02 0. -1.
    10030    2    1    2    0    0  0.00000000000E+00  0.00000000000E+00  0.46643843067E+03  0.25761995277E+04  0.25336217549E+04 0.  0.
        2    1    3    3  502    0  0.45501578519E+03  0.90372052536E+03  0.10083019709E+04  0.14284337637E+04  0.25500000920E-02 0.  1.
       -2    1    3    3    0  502 -0.45501578519E+03 -0.90372052536E+03 -0.54186354026E+03  0.11477657640E+04  0.25500000920E-02 0. -1.
</event>
<event>
 5   0  0.7071821E-05  0.2441923E+04  0.7818609E-02  0.8423973E-01
        2   -1    0    0  501    0  0.00000000000E+00  0.00000000000E+00  0.14798880042E+04  0.14798880042E+04  0.25500000920E-02 0.  1.
       -2   -1    0    0    0  501  0.00000000000E+00  0.00000000000E+00 -0.10073378053E+04  0.10073378054E+04  0.25500000920E-02 0. -1.
    10030    2    1    2    0    0  0.00000000000E+00  0.00000000000E+00  0.47255019884E+03  0.24872258095E+04  0.24419231227E+04 0.  0.
        5    1    3    3  502    0 -0.94780327642E+03  0.52630305929E+03  0.80829803414E+03  0.13522920406E+04  0.46999998093E+01 0.  1.
       -5    1    3    3    0  502  0.94780327642E+03 -0.52630305929E+03 -0.33574783530E+03  0.11349337690E+04  0.46999998093E+01 0. -1.
</event>
<event>
 5   0  0.7071821E-05  0.2592002E+04  0.7818609E-02  0.8370923E-01
        2   -1    0    0  501    0  0.00000000000E+00  0.00000000000E+00  0.14337483546E+04  0.14337483546E+04  0.25500000920E-02 0. -1.
       -2   -1    0    0    0  501  0.00000000000E+00  0.00000000000E+00 -0.11714878995E+04  0.11714878995E+04  0.25500000920E-02 0.  1.
    10030    2    1    2    0    0  0.00000000000E+00  0.00000000000E+00  0.26226045513E+03  0.26052362541E+04  0.25920021978E+04 0.  0.
        5    1    3    3  502    0  0.53324108178E+03 -0.58587585386E+03 -0.89977717228E+03  0.11988401133E+04  0.46999998093E+01 0.  1.
       -5    1    3    3    0  502 -0.53324108178E+03  0.58587585386E+03  0.11620376274E+04  0.14063961408E+04  0.46999998093E+01 0. -1.
</event>
<event>
 5   0  0.6909250E-05  0.2590287E+04  0.7818609E-02  0.8371508E-01
        2   -1    0    0  501    0  0.00000000000E+00  0.00000000000E+00  0.14832609536E+04  0.14832609536E+04  0.25500000920E-02 0.  1.
       -2   -1    0    0    0  501  0.00000000000E+00  0.00000000000E+00 -0.11308841720E+04  0.11308841720E+04  0.25500000920E-02 0. -1.
    10030    2    1    2    0    0  0.00000000000E+00  0.00000000000E+00  0.35237678165E+03  0.26141451256E+04  0.25902867296E+04 0.  0.
        4    1    3    3  502    0  0.55257919853E+02 -0.19525143629E+03 -0.11147409086E+04  0.11330602223E+04  0.12699999809E+01 0. -1.
       -4    1    3    3    0  502 -0.55257919853E+02  0.19525143629E+03  0.14671176902E+04  0.14810849034E+04  0.12699999809E+01 0.  1.
</event>
<event>
 5   0  0.6909250E-05  0.2490935E+04  0.7818609E-02  0.8406222E-01
        2   -1    0    0  501    0  0.00000000000E+00  0.00000000000E+00  0.27291588305E+04  0.27291588305E+04  0.25500000920E-02 0.  1.
       -2   -1    0    0    0  501  0.00000000000E+00  0.00000000000E+00 -0.56837630560E+03  0.56837630561E+03  0.25500000920E-02 0. -1.
    10030    2    1    2    0    0  0.00000000000E+00  0.00000000000E+00  0.21607825249E+04  0.32975351361E+04  0.24909349357E+04 0.  0.
        4    1    3    3  502    0 -0.43297291920E+03 -0.11566144383E+04  0.86707597136E+03  0.15089880254E+04  0.12699999809E+01 0. -1.
       -4    1    3    3    0  502  0.43297291920E+03  0.11566144383E+04  0.12937065535E+04  0.17885471107E+04  0.12699999809E+01 0.  1.
</event>
<event>
 5   0  0.2793920E-05  0.2551533E+04  0.7818609E-02  0.8384853E-01
       -1   -1    0    0    0  501  0.00000000000E+00  0.00000000000E+00  0.92123174407E+03  0.92123174409E+03  0.50400001928E-02 0. -1.
        1   -1    0    0  501    0  0.00000000000E+00  0.00000000000E+00 -0.17667428292E+04  0.17667428292E+04  0.50400001928E-02 0.  1.
    10030    2    1    2    0    0  0.00000000000E+00  0.00000000000E+00 -0.84551108512E+03  0.26879745733E+04  0.25515325417E+04 0.  0.
        2    1    3    3  502    0 -0.78647338454E+03 -0.11989157268E+03  0.62790520485E+03  0.10134985545E+04  0.25500000920E-02 0. -1.
       -2    1    3    3    0  502  0.78647338454E+03  0.11989157268E+03 -0.14734162900E+04  0.16744760187E+04  0.25500000920E-02 0.  1.
</event>
<event>
 5   0  0.6827859E-05  0.2546084E+04  0.7818609E-02  0.8386750E-01
       -2   -1    0    0    0  501  0.00000000000E+00  0.00000000000E+00  0.66312917187E+03  0.66312917188E+03  0.25500000920E-02 0. -1.
        2   -1    0    0  501    0  0.00000000000E+00  0.00000000000E+00 -0.24439212638E+04  0.24439212638E+04  0.25500000920E-02 0.  1.
    10030    2    1    2    0    0  0.00000000000E+00  0.00000000000E+00 -0.17807920919E+04  0.31070504356E+04  0.25460836465E+04 0.  0.
        3    1    3    3  502    0 -0.98140375875E+03 -0.50967250169E+03 -0.16599909956E+04  0.19946151289E+04  0.10100000352E+00 0.  1.
       -3    1    3    3    0  502  0.98140375875E+03  0.50967250169E+03 -0.12080109629E+03  0.11124353068E+04  0.10100000352E+00 0. -1.
</event>
<event>
 5   0  0.2896652E-05  0.2500982E+04  0.7818609E-02  0.8402636E-01
       -1   -1    0    0    0  501  0.00000000000E+00  0.00000000000E+00  0.13595558457E+04  0.13595558457E+04  0.50400001928E-02 0. -1.
        1   -1    0    0  501    0  0.00000000000E+00  0.00000000000E+00 -0.11501758898E+04  0.11501758898E+04  0.50400001928E-02 0.  1.
    10030    2    1    2    0    0  0.00000000000E+00  0.00000000000E+00  0.20937995582E+03  0.25097317355E+04  0.25009824906E+04 0.  0.
        4    1    3    3  502    0 -0.10896713531E+04 -0.56282000563E+03  0.34962729976E+03  0.12753003090E+04  0.12699999809E+01 0. -1.
       -4    1    3    3    0  502  0.10896713531E+04  0.56282000563E+03 -0.14024734395E+03  0.12344314265E+04  0.12699999809E+01 0.  1.
</event>
<event>
 5   0  0.6445331E-05  0.2528499E+04  0.7818609E-02  0.8392902E-01
       -2   -1    0    0    0  501  0.00000000000E+00  0.00000000000E+00  0.13517513772E+04  0.13517513772E+04  0.25500000920E-02 0. -1.
        2   -1    0    0  501    0  0.00000000000E+00  0.00000000000E+00 -0.11824122368E+04  0.11824122368E+04  0.25500000920E-02 0.  1.
    10030    2    1    2    0    0  0.00000000000E+00  0.00000000000E+00  0.16933914037E+03  0.25341636141E+04  0.25284994519E+04 0.  0.
        1    1    3    3  502    0 -0.87683602671E+02 -0.97040486160E+03  0.89205057911E+03  0.13210330220E+04  0.50400001928E-02 0.  1.
       -1    1    3    3    0  502  0.87683602671E+02  0.97040486160E+03 -0.72271143874E+03  0.12131305920E+04  0.50400001928E-02 0. -1.
</event>
<event>
 5   0  0.6648328E-05  0.2440134E+04  0.7818609E-02  0.8424629E-01
       -2   -1    0    0    0  501  0.00000000000E+00  0.00000000000E+00  0.10744985391E+04  0.10744985391E+04  0.25500000920E-02 0.  1.
        2   -1    0    0  501    0  0.00000000000E+00  0.00000000000E+00 -0.13853564250E+04  0.13853564250E+04  0.25500000920E-02 0. -1.
    10030    2    1    2    0    0  0.00000000000E+00  0.00000000000E+00 -0.31085788586E+03  0.24598549641E+04  0.24401339757E+04 0.  0.
        2    1    3    3  502    0 -0.25133563997E+02  0.23239174516E+03  0.10517153187E+04  0.10773777104E+04  0.25500000920E-02 0.  1.
       -2    1    3    3    0  502  0.25133563997E+02 -0.23239174516E+03 -0.13625732046E+04  0.13824772537E+04  0.25500000920E-02 0. -1.
</event>
<event>
 5   0  0.2896652E-05  0.2482864E+04  0.7818609E-02  0.8409116E-01
       -1   -1    0    0    0  501  0.00000000000E+00  0.00000000000E+00  0.11585402403E+04  0.11585402403E+04  0.50400001928E-02 0. -1.
        1   -1    0    0  501    0  0.00000000000E+00  0.00000000000E+00 -0.13302547354E+04  0.13302547354E+04  0.50400001928E-02 0.  1.
    10030    2    1    2    0    0  0.00000000000E+00  0.00000000000E+00 -0.17171449511E+03  0.24887949757E+04  0.24828641854E+04 0.  0.
        4    1    3    3  502    0 -0.85480843412E+03 -0.83048545248E+03  0.26246161811E+03  0.12203652157E+04  0.12699999809E+01 0. -1.
       -4    1    3    3    0  502  0.85480843412E+03  0.83048545248E+03 -0.43417611322E+03  0.12684297600E+04  0.12699999809E+01 0.  1.
</event>
<event>
 5   0  0.2793920E-05  0.2500614E+04  0.7818609E-02  0.8402767E-01
        1   -1    0    0  501    0  0.00000000000E+00  0.00000000000E+00  0.13181009545E+04  0.13181009545E+04  0.50400001928E-02 0.  1.
       -1   -1    0    0    0  501  0.00000000000E+00  0.00000000000E+00 -0.11859994978E+04  0.11859994978E+04  0.50400001928E-02 0. -1.
    10030    2    1    2    0    0  0.00000000000E+00  0.00000000000E+00  0.13210145669E+03  0.25041004523E+04  0.25006135808E+04 0.  0.
        2    1    3    3  502    0 -0.60128434497E+03  0.59151463113E+03  0.99028658101E+03  0.13008074165E+04  0.25500000920E-02 0.  1.
       -2    1    3    3    0  502  0.60128434497E+03 -0.59151463113E+03 -0.85818512432E+03  0.12032930358E+04  0.25500000920E-02 0. -1.
</event>
<event>
 5   0  0.6909250E-05  0.2088692E+04  0.7818609E-02  0.8566241E-01
        2   -1    0    0  501    0  0.00000000000E+00  0.00000000000E+00  0.90196682238E+03  0.90196682239E+03  0.25500000920E-02 0.  1.
       -2   -1    0    0    0  501  0.00000000000E+00  0.00000000000E+00 -0.12092002426E+04  0.12092002426E+04  0.25500000920E-02 0. -1.
    10030    2    1    2    0    0  0.00000000000E+00  0.00000000000E+00 -0.30723342020E+03  0.21111670650E+04  0.20886919356E+04 0.  0.
        4    1    3    3  502    0 -0.68606982324E+03  0.60356798408E+03 -0.66469655588E+03  0.11299598391E+04  0.12699999809E+01 0. -1.
       -4    1    3    3    0  502  0.68606982324E+03 -0.60356798408E+03  0.35746313568E+03  0.98120722584E+03  0.12699999809E+01 0.  1.
</event>
<event>
 5   0  0.6909250E-05  0.1807991E+04  0.7818609E-02  0.8702061E-01
        2   -1    0    0  501    0  0.00000000000E+00  0.00000000000E+00  0.11383289570E+04  0.11383289570E+04  0.25500000920E-02 0.  1.
       -2   -1    0    0    0  501  0.00000000000E+00  0.00000000000E+00 -0.71790128336E+03  0.71790128336E+03  0.25500000920E-02 0. -1.
    10030    2    1    2    0    0  0.00000000000E+00  0.00000000000E+00  0.42042767363E+03  0.18562302404E+04  0.18079909503E+04 0.  0.
        4    1    3    3  502    0 -0.48747782636E+03  0.33206788649E+03 -0.49312082721E+03  0.76881303030E+03  0.12699999809E+01 0. -1.
       -4    1    3    3    0  502  0.48747782636E+03 -0.33206788649E+03  0.91354850084E+03  0.10874172101E+04  0.12699999809E+01 0.  1.
</event>
<event>
 5   0  0.2896652E-05  0.2449944E+04  0.7818609E-02  0.8421039E-01
        1   -1    0    0  501    0  0.00000000000E+00  0.00000000000E+00  0.88217314375E+03  0.88217314377E+03  0.50400001928E-02 0. -1.
       -1   -1    0    0    0  501  0.00000000000E+00  0.00000000000E+00 -0.17009767807E+04  0.17009767807E+04  0.50400001928E-02 0.  1.
    10030    2    1    2    0    0  0.00000000000E+00  0.00000000000E+00 -0.81880363690E+03  0.25831499244E+04  0.24499437006E+04 0.  0.
        4    1    3    3  502    0 -0.33083751114E+03 -0.11778443521E+04 -0.34454604052E+03  0.12710170587E+04  0.12699999809E+01 0.  1.
       -4    1    3    3    0  502  0.33083751114E+03  0.11778443521E+04 -0.47425759638E+03  0.13121328657E+04  0.12699999809E+01 0. -1.
</event>
<event>
 5   0  0.2793920E-05  0.2585720E+04  0.7818609E-02  0.8373068E-01
        1   -1    0    0  501    0  0.00000000000E+00  0.00000000000E+00  0.11198974000E+04  0.11198974000E+04  0.50400001928E-02 0.  1.
       -1   -1    0    0    0  501  0.00000000000E+00  0.00000000000E+00 -0.14925362589E+04  0.14925362589E+04  0.50400001928E-02 0. -1.
    10030    2    1    2    0    0  0.00000000000E+00  0.00000000000E+00 -0.37263885889E+03  0.26124336589E+04  0.25857203838E+04 0.  0.
        2    1    3    3  502    0  0.22554567555E+03  0.22482842442E+03 -0.14522883788E+04  0.14867952809E+04  0.25500000920E-02 0. -1.
       -2    1    3    3    0  502 -0.22554567555E+03 -0.22482842442E+03  0.10796495199E+04  0.11256383780E+04  0.25500000920E-02 0.  1.
</event>
<event>
 5   0  0.7071821E-05  0.2490610E+04  0.7818609E-02  0.8406338E-01
        2   -1    0    0  501    0  0.00000000000E+00  0.00000000000E+00  0.20604354693E+04  0.20604354693E+04  0.25500000920E-02 0.  1.
       -2   -1    0    0    0  501  0.00000000000E+00  0.00000000000E+00 -0.75264918866E+03  0.75264918866E+03  0.25500000920E-02 0. -1.
    10030    2    1    2    0    0  0.00000000000E+00  0.00000000000E+00  0.13077862806E+04  0.28130846579E+04  0.24906104346E+04 0.  0.
        5    1    3    3  502    0 -0.23104453187E+03  0.14027832537E+03 -0.71910717397E+03  0.76824267125E+03  0.46999998093E+01 0. -1.
       -5    1    3    3    0  502  0.23104453187E+03 -0.14027832537E+03  0.20268934546E+04  0.20448419867E+04  0.46999998093E+01 0.  1.
</event>
<event>
 5   0  0.7071821E-05  0.2235540E+04  0.7818609E-02  0.8503779E-01
       -2   -1    0    0    0  501  0.00000000000E+00  0.00000000000E+00  0.41328946140E+03  0.41328946141E+03  0.25500000920E-02 0.  1.
        2   -1    0    0  501    0  0.00000000000E+00  0.00000000000E+00 -0.30230875441E+04  0.30230875441E+04  0.25500000920E-02 0. -1.
    10030    2    1    2    0    0  0.00000000000E+00  0.00000000000E+00 -0.26097980827E+04  0.34363770055E+04  0.22355404026E+04 0.  0.
        5    1    3    3  502    0  0.94919818554E+02  0.35703092410E+03 -0.29265141154E+04  0.29497436855E+04  0.46999998093E+01 0. -1.
       -5    1    3    3    0  502 -0.94919818554E+02 -0.35703092410E+03  0.31671603271E+03  0.48663331996E+03  0.46999998093E+01 0.  1.
</event>
<event>
 5   0  0.2980790E-05  0.2246443E+04  0.7818609E-02  0.8499342E-01
        1   -1    0    0  501    0  0.00000000000E+00  0.00000000000E+00  0.10845506017E+04  0.10845506017E+04  0.50400001928E-02 0.  1.
       -1   -1    0    0    0  501  0.00000000000E+00  0.00000000000E+00 -0.11632712480E+04  0.11632712480E+04  0.50400001928E-02 0. -1.
    10030    2    1    2    0    0  0.00000000000E+00  0.00000000000E+00 -0.78720646334E+02  0.22478218497E+04  0.22464429945E+04 0.  0.
        5    1    3    3  502    0 -0.36825076539E+03  0.13214149398E+03  0.10141555449E+04  0.10870158968E+04  0.46999998093E+01 0.  1.
       -5    1    3    3    0  502  0.36825076539E+03 -0.13214149398E+03 -0.10928761913E+04  0.11608059528E+04  0.46999998093E+01 0. -1.
</event>
<event>
 5   0  0.6648328E-05  0.2568542E+04  0.7818609E-02  0.8378966E-01
        2   -1    0    0  501    0  0.00000000000E+00  0.00000000000E+00  0.25281848997E+04  0.25281848997E+04  0.25500000920E-02 0. -1.
       -2   -1    0    0    0  501  0.00000000000E+00  0.00000000000E+00 -0.65238562811E+03  0.65238562811E+03  0.25500000920E-02 0.  1.
    10030    2    1    2    0    0  0.00000000000E+00  0.00000000000E+00  0.18757992716E+04  0.31805705279E+04  0.25685416047E+04 0.  0.
        2    1    3    3  502    0 -0.84350133175E+03 -0.30208334539E+03  0.20772524707E+04  0.22622393046E+04  0.25500000920E-02 0. -1.
       -2    1    3    3    0  502  0.84350133175E+03  0.30208334539E+03 -0.20145319905E+03  0.91833122327E+03  0.25500000920E-02 0.  1.
</event>
<event>
 5   0  0.2896652E-05  0.2488969E+04  0.7818609E-02  0.8406926E-01
        1   -1    0    0  501    0  0.00000000000E+00  0.00000000000E+00  0.98928124232E+03  0.98928124233E+03  0.50400001928E-02 0.  1.
       -1   -1    0    0    0  501  0.00000000000E+00  0.00000000000E+00 -0.15655220998E+04  0.15655220998E+04  0.50400001928E-02 0. -1.
    10030    2    1    2    0    0  0.00000000000E+00  0.00000000000E+00 -0.57624085750E+03  0.25548033422E+04  0.24889689816E+04 0.  0.
        4    1    3    3  502    0  0.90355846067E+03 -0.43276715092E+03  0.46967168641E+03  0.11064801872E+04  0.12699999809E+01 0.  1.
       -4    1    3    3    0  502 -0.90355846067E+03  0.43276715092E+03 -0.10459125439E+04  0.14483231550E+04  0.12699999809E+01 0. -1.
</event>
<event>
 5   0  0.6827859E-05  0.1755704E+04  0.7818609E-02  0.8730217E-01
        2   -1    0    0  501    0  0.00000000000E+00  0.00000000000E+00  0.60585717879E+03  0.60585717880E+03  0.25500000920E-02 0.  1.
       -2   -1    0    0    0  501  0.00000000000E+00  0.00000000000E+00 -0.12719572057E+04  0.12719572057E+04  0.25500000920E-02 0. -1.
    10030    2    1    2    0    0  0.00000000000E+00  0.00000000000E+00 -0.66610002694E+03  0.18778143845E+04  0.17557043079E+04 0.  0.
        3    1    3    3  502    0  0.88043646389E+02  0.78906266128E+03  0.67500320885E+02  0.79682361324E+03  0.10100000352E+00 0.  1.
       -3    1    3    3    0  502 -0.88043646389E+02 -0.78906266128E+03 -0.73360034783E+03  0.10809907713E+04  0.10100000352E+00 0. -1.
</event>
<event>
 5   0  0.2331375E-05  0.1407169E+04  0.7818609E-02  0.8948645E-01
        4   -1    0    0  501    0  0.00000000000E+00  0.00000000000E+00  0.11421836680E+04  0.11421843741E+04  0.12699999809E+01 0. -1.
       -4   -1    0    0    0  501  0.00000000000E+00  0.00000000000E+00 -0.43340614959E+03  0.43340801031E+03  0.12699999809E+01 0.  1.
    10030    2    1    2    0    0  0.00000000000E+00  0.00000000000E+00  0.70877751841E+03  0.15755923844E+04  0.14071694252E+04 0.  0.
        1    1    3    3  502    0  0.23019060529E+03  0.60795192360E+03  0.65574575830E+03  0.92336111881E+03  0.50400001928E-02 0. -1.
       -1    1    3    3    0  502 -0.23019060529E+03 -0.60795192360E+03  0.53031760108E+02  0.65223126556E+03  0.50400001928E-02 0.  1.
</event>
<event>
 5   0  0.6648328E-05  0.2487730E+04  0.7818609E-02  0.8407370E-01
       -2   -1    0    0    0  501  0.00000000000E+00  0.00000000000E+00  0.99822967481E+03  0.99822967481E+03  0.25500000920E-02 0. -1.
        2   -1    0    0  501    0  0.00000000000E+00  0.00000000000E+00 -0.15499441607E+04  0.15499441607E+04  0.25500000920E-02 0.  1.
    10030    2    1    2    0    0  0.00000000000E+00  0.00000000000E+00 -0.55171448591E+03  0.25481738355E+04  0.24877300943E+04 0.  0.
        2    1    3    3  502    0 -0.63520951376E+03 -0.26221196203E+03  0.78613351062E+03  0.10441513951E+04  0.25500000920E-02 0. -1.
       -2    1    3    3    0  502  0.63520951376E+03  0.26221196203E+03 -0.13378479965E+04  0.15040224404E+04  0.25500000920E-02 0.  1.
</event>
<event>
 5   0  0.2777539E-05  0.2494049E+04  0.7818609E-02  0.8405109E-01
        1   -1    0    0  501    0  0.00000000000E+00  0.00000000000E+00  0.72616765026E+03  0.72616765028E+03  0.50400001928E-02 0.  1.
       -1   -1    0    0    0  501  0.00000000000E+00  0.00000000000E+00 -0.21414756871E+04  0.21414756871E+04  0.50400001928E-02 0. -1.
    10030    2    1    2    0    0  0.00000000000E+00  0.00000000000E+00 -0.14153080368E+04  0.28676433373E+04  0.24940492119E+04 0.  0.
        3    1    3    3  502    0 -0.54487761293E+03 -0.10012736211E+04 -0.12889882871E+04  0.17207356833E+04  0.10100000352E+00 0. -1.
       -3    1    3    3    0  502  0.54487761293E+03  0.10012736211E+04 -0.12631974974E+03  0.11469076540E+04  0.10100000352E+00 0.  1.
</event>
<event>
 5   0  0.6648328E-05  0.2512865E+04  0.7818609E-02  0.8398417E-01
       -2   -1    0    0    0  501  0.00000000000E+00  0.00000000000E+00  0.10455108354E+04  0.10455108354E+04  0.25500000920E-02 0.  1.
        2   -1    0    0  501    0  0.00000000000E+00  0.00000000000E+00 -0.15099054175E+04  0.15099054175E+04  0.25500000920E-02 0. -1.
    10030    2    1    2    0    0  0.00000000000E+00  0.00000000000E+00 -0.46439458211E+03  0.25554162530E+04  0.25128648786E+04 0.  0.
        2    1    3    3  502    0  0.73414921300E+03  0.99922897360E+03 -0.25810245883E+02  0.12402015068E+04  0.25500000920E-02 0.  1.
       -2    1    3    3    0  502 -0.73414921300E+03 -0.99922897360E+03 -0.43858433623E+03  0.13152147462E+04  0.25500000920E-02 0. -1.
</event>
<event>
 5   0  0.2980790E-05  0.1555174E+04  0.7818609E-02  0.8848570E-01
       -1   -1    0    0    0  501  0.00000000000E+00  0.00000000000E+00  0.37073516417E+03  0.37073516420E+03  0.50400001928E-02 0. -1.
        1   -1    0    0  501    0  0.00000000000E+00  0.00000000000E+00 -0.16309261810E+04  0.16309261811E+04  0.50400001928E-02 0.  1.
    10030    2    1    2    0    0  0.00000000000E+00  0.00000000000E+00 -0.12601910169E+04  0.20016613453E+04  0.15551741838E+04 0.  0.
        5    1    3    3  502    0  0.22261975119E+03  0.51635102554E+03 -0.13213541246E+04  0.14360281152E+04  0.46999998093E+01 0. -1.
       -5    1    3    3    0  502 -0.22261975119E+03 -0.51635102554E+03  0.61163107678E+02  0.56563323005E+03  0.46999998093E+01 0.  1.
</event>
<event>
 5   0  0.2896652E-05  0.2472573E+04  0.7818609E-02  0.8412822E-01
       -1   -1    0    0    0  501  0.00000000000E+00  0.00000000000E+00  0.82861460919E+03  0.82861460920E+03  0.50400001928E-02 0. -1.
        1   -1    0    0  501    0  0.00000000000E+00  0.00000000000E+00 -0.18445291420E+04  0.18445291420E+04  0.50400001928E-02 0.  1.
    10030    2    1    2    0    0  0.00000000000E+00  0.00000000000E+00 -0.10159145328E+04  0.26731437512E+04  0.24725725827E+04 0.  0.
        4    1    3    3  502    0 -0.99492795734E+03  0.13911736530E+03  0.27102354987E+03  0.10405242232E+04  0.12699999809E+01 0. -1.
       -4    1    3    3    0  502  0.99492795734E+03 -0.13911736530E+03 -0.12869380827E+04  0.16326195280E+04  0.12699999809E+01 0.  1.
</event>
<event>
 5   0  0.6827859E-05  0.2541397E+04  0.7818609E-02  0.8388384E-01
       -2   -1    0    0    0  501  0.00000000000E+00  0.00000000000E+00  0.14519381029E+04  0.14519381029E+04  0.25500000920E-02 0.  1.
        2   -1    0    0  501    0  0.00000000000E+00  0.00000000000E+00 -0.11120820700E+04  0.11120820700E+04  0.25500000920E-02 0. -1.
    10030    2    1    2    0    0  0.00000000000E+00  0.00000000000E+00  0.33985603292E+03  0.25640201729E+04  0.25413967270E+04 0.  0.
        3    1    3    3  502    0 -0.51238350460E+03  0.39894534332E+03  0.12718873485E+04  0.14280727153E+04  0.10100000352E+00 0.  1.
       -3    1    3    3    0  502  0.51238350460E+03 -0.39894534332E+03 -0.93203131562E+03  0.11359474575E+04  0.10100000352E+00 0. -1.
</event>
<event>
 5   0  0.2777539E-05  0.1230518E+04  0.7818609E-02  0.9086556E-01
       -1   -1    0    0    0  501  0.00000000000E+00  0.00000000000E+00  0.61524805001E+03  0.61524805004E+03  0.50400001928E-02 0. -1.
        1   -1    0    0  501    0  0.00000000000E+00  0.00000000000E+00 -0.61526959087E+03  0.61526959089E+03  0.50400001928E-02 0.  1.
    10030    2    1    2    0    0  0.00000000000E+00  0.00000000000E+00 -0.21540859367E-01  0.12305176409E+04  0.12305176407E+04 0.  0.
        3    1    3    3  502    0 -0.36133153054E+03  0.43064371183E+03  0.25004707159E+03  0.61525444307E+03  0.10100000352E+00 0. -1.
       -3    1    3    3    0  502  0.36133153054E+03 -0.43064371183E+03 -0.25006861245E+03  0.61526319786E+03  0.10100000352E+00 0.  1.
</event>
<event>
 5   0  0.2793920E-05  0.2520246E+04  0.7818609E-02  0.8395808E-01
        1   -1    0    0  501    0  0.00000000000E+00  0.00000000000E+00  0.13644847428E+04  0.13644847428E+04  0.50400001928E-02 0. -1.
       -1   -1    0    0    0  501  0.00000000000E+00  0.00000000000E+00 -0.11637428465E+04  0.11637428465E+04  0.50400001928E-02 0.  1.
    10030    2    1    2    0    0  0.00000000000E+00  0.00000000000E+00  0.20074189628E+03  0.25282275893E+04  0.25202455108E+04 0.  0.
        2    1    3    3  502    0  0.44553480469E+03  0.10957214681E+04  0.53626130033E+03  0.12987235965E+04  0.25500000920E-02 0. -1.
       -2    1    3    3    0  502 -0.44553480469E+03 -0.10957214681E+04 -0.33551940405E+03  0.12295039928E+04  0.25500000920E-02 0.  1.
</event>
<event>
 5   0  0.2793920E-05  0.2465129E+04  0.7818609E-02  0.8415515E-01
        1   -1    0    0  501    0  0.00000000000E+00  0.00000000000E+00  0.13041166751E+04  0.13041166751E+04  0.50400001928E-02 0.  1.
       -1   -1    0    0    0  501  0.00000000000E+00  0.00000000000E+00 -0.11649381828E+04  0.11649381828E+04  0.50400001928E-02 0. -1.
    10030    2    1    2    0    0  0.00000000000E+00  0.00000000000E+00  0.13917849230E+03  0.24690548579E+04  0.24651290511E+04 0.  0.
        2    1    3    3  502    0 -0.12102299051E+04  0.44900375423E+02  0.29917654707E+03  0.12474690670E+04  0.25500000920E-02 0. -1.
       -2    1    3    3    0  502  0.12102299051E+04 -0.44900375423E+02 -0.15999805477E+03  0.12215857909E+04  0.25500000920E-02 0.  1.
</event>
<event>
 5   0  0.6909250E-05  0.1430845E+04  0.7818609E-02  0.8931789E-01
        2   -1    0    0  501    0  0.00000000000E+00  0.00000000000E+00  0.66795299105E+03  0.66795299105E+03  0.25500000920E-02 0. -1.
       -2   -1    0    0    0  501  0.00000000000E+00  0.00000000000E+00 -0.76626541265E+03  0.76626541265E+03  0.25500000920E-02 0.  1.
    10030    2    1    2    0    0  0.00000000000E+00  0.00000000000E+00 -0.98312421601E+02  0.14342184037E+04  0.14308448893E+04 0.  0.
        4    1    3    3  502    0  0.27728821733E+03  0.61045018048E+03  0.20101083374E+03  0.69996081784E+03  0.12699999809E+01 0. -1.
       -4    1    3    3    0  502 -0.27728821733E+03 -0.61045018048E+03 -0.29932325534E+03  0.73425758587E+03  0.12699999809E+01 0.  1.
</event>
<event>
 5   0  0.2977854E-05  0.2348216E+04  0.7818609E-02  0.8459149E-01
       -1   -1    0    0    0  501  0.00000000000E+00  0.00000000000E+00  0.47025636220E+03  0.47025636223E+03  0.50400001928E-02 0.  1.
        1   -1    0    0  501    0  0.00000000000E+00  0.00000000000E+00 -0.29314435959E+04  0.29314435959E+04  0.50400001928E-02 0. -1.
    10030    2    1    2    0    0  0.00000000000E+00  0.00000000000E+00 -0.24611872337E+04  0.34016999581E+04  0.23482163456E+04 0.  0.
        1    1    3    3  502    0  0.10679622537E+04  0.45302988824E+03 -0.96843316684E+03  0.15111724764E+04  0.50400001928E-02 0.  1.
       -1    1    3    3    0  502 -0.10679622537E+04 -0.45302988824E+03 -0.14927540669E+04  0.18905274817E+04  0.50400001928E-02 0. -1.
</event>
<event>
 5   0  0.2977854E-05  0.2540536E+04  0.7818609E-02  0.8388685E-01
        1   -1    0    0  501    0  0.00000000000E+00  0.00000000000E+00  0.13928934150E+04  0.13928934150E+04  0.50400001928E-02 0.  1.
       -1   -1    0    0    0  501  0.00000000000E+00  0.00000000000E+00 -0.11584383922E+04  0.11584383922E+04  0.50400001928E-02 0. -1.
    10030    2    1    2    0    0  0.00000000000E+00  0.00000000000E+00  0.23445502284E+03  0.25513318072E+04  0.25405363278E+04 0.  0.
        1    1    3    3  502    0  0.80560605747E+03 -0.16737310346E+03 -0.85464837079E+03  0.11863552222E+04  0.50400001928E-02 0. -1.
       -1    1    3    3    0  502 -0.80560605747E+03  0.16737310346E+03  0.10891033936E+04  0.13649765850E+04  0.50400001928E-02 0.  1.
</event>
<event>
 5   0  0.7071821E-05  0.2502317E+04  0.7818609E-02  0.8402160E-01
       -2   -1    0    0    0  501  0.00000000000E+00  0.00000000000E+00  0.99844437420E+03  0.99844437420E+03  0.25500000920E-02 0.  1.
        2   -1    0    0  501    0  0.00000000000E+00  0.00000000000E+00 -0.15678371593E+04  0.15678371593E+04  0.25500000920E-02 0. -1.
    10030    2    1    2    0    0  0.00000000000E+00  0.00000000000E+00 -0.56939278511E+03  0.25662815335E+04  0.25023174790E+04 0.  0.
        5    1    3    3  502    0 -0.48944400437E+03  0.11173452142E+04  0.55060058228E+00  0.12198516935E+04  0.46999998093E+01 0.  1.
       -5    1    3    3    0  502  0.48944400437E+03 -0.11173452142E+04 -0.56994338569E+03  0.13464298400E+04  0.46999998093E+01 0. -1.
</event>
<event>
 5   0  0.6445331E-05  0.2202146E+04  0.7818609E-02  0.8517535E-01
        2   -1    0    0  501    0  0.00000000000E+00  0.00000000000E+00  0.19386975736E+04  0.19386975736E+04  0.25500000920E-02 0.  1.
       -2   -1    0    0    0  501  0.00000000000E+00  0.00000000000E+00 -0.62534854675E+03  0.62534854676E+03  0.25500000920E-02 0. -1.
    10030    2    1    2    0    0  0.00000000000E+00  0.00000000000E+00  0.13133490269E+04  0.25640461204E+04  0.22021459627E+04 0.  0.
        1    1    3    3  502    0 -0.35470290223E+03 -0.37440318924E+03  0.17893621775E+04  0.18622053859E+04  0.50400001928E-02 0.  1.
       -1    1    3    3    0  502  0.35470290223E+03  0.37440318924E+03 -0.47601315064E+03  0.70184073448E+03  0.50400001928E-02 0. -1.
</event>
<event>
 5   0  0.6445331E-05  0.2222337E+04  0.7818609E-02  0.8509188E-01
        2   -1    0    0  501    0  0.00000000000E+00  0.00000000000E+00  0.25890651262E+04  0.25890651263E+04  0.25500000920E-02 0. -1.
       -2   -1    0    0    0  501  0.00000000000E+00  0.00000000000E+00 -0.47688869980E+03  0.47688869980E+03  0.25500000920E-02 0.  1.
    10030    2    1    2    0    0  0.00000000000E+00  0.00000000000E+00  0.21121764265E+04  0.30659538261E+04  0.22223374197E+04 0.  0.
        1    1    3    3  502    0 -0.21807765195E+03 -0.10894340713E+04  0.10788180116E+04  0.15486357738E+04  0.50400001928E-02 0.  1.
       -1    1    3    3    0  502  0.21807765195E+03  0.10894340713E+04  0.10333584149E+04  0.15173180522E+04  0.50400001928E-02 0. -1.
</event>
<event>
 5   0  0.2777539E-05  0.2394190E+04  0.7818609E-02  0.8441682E-01
        1   -1    0    0  501    0  0.00000000000E+00  0.00000000000E+00  0.22669153637E+04  0.22669153637E+04  0.50400001928E-02 0. -1.
       -1   -1    0    0    0  501  0.00000000000E+00  0.00000000000E+00 -0.63215239407E+03  0.63215239409E+03  0.50400001928E-02 0.  1.
    10030    2    1    2    0    0  0.00000000000E+00  0.00000000000E+00  0.16347629696E+04  0.28990677578E+04  0.23941896118E+04 0.  0.
        3    1    3    3  502    0  0.91051544249E+03 -0.25604905843E+03 -0.71138210731E+02  0.94850416265E+03  0.10100000352E+00 0.  1.
       -3    1    3    3    0  502 -0.91051544249E+03  0.25604905843E+03  0.17059011803E+04  0.19505635951E+04  0.10100000352E+00 0. -1.
</event>
<event>
 5   0  0.7071821E-05  0.2630469E+04  0.7818609E-02  0.8357924E-01
        2   -1    0    0  501    0  0.00000000000E+00  0.00000000000E+00  0.86048164735E+03  0.86048164735E+03  0.25500000920E-02 0. -1.
       -2   -1    0    0    0  501  0.00000000000E+00  0.00000000000E+00 -0.20103187426E+04  0.20103187426E+04  0.25500000920E-02 0.  1.
    10030    2    1    2    0    0  0.00000000000E+00  0.00000000000E+00 -0.11498370953E+04  0.28708003900E+04  0.26304694512E+04 0.  0.
        5    1    3    3  502    0 -0.57892156051E+03 -0.48428511787E+03  0.60058669003E+03  0.96457695953E+03  0.46999998093E+01 0. -1.
       -5    1    3    3    0  502  0.57892156051E+03  0.48428511787E+03 -0.17504237853E+04  0.19062234305E+04  0.46999998093E+01 0.  1.
</event>
<event>
 5   0  0.6648328E-05  0.2495975E+04  0.7818609E-02  0.8404421E-01
       -2   -1    0    0    0  501  0.00000000000E+00  0.00000000000E+00  0.67886894944E+03  0.67886894945E+03  0.25500000920E-02 0.  1.
        2   -1    0    0  501    0  0.00000000000E+00  0.00000000000E+00 -0.22942179102E+04  0.22942179102E+04  0.25500000920E-02 0. -1.
    10030    2    1    2    0    0  0.00000000000E+00  0.00000000000E+00 -0.16153489607E+04  0.29730868596E+04  0.24959754025E+04 0.  0.
        2    1    3    3  502    0 -0.97451192239E+03 -0.65781869918E+03 -0.30927384401E+03  0.12157504836E+04  0.25500000920E-02 0.  1.
       -2    1    3    3    0  502  0.97451192239E+03  0.65781869918E+03 -0.13060751167E+04  0.17573363760E+04  0.25500000920E-02 0. -1.
</event>
<event>
 5   0  0.2980790E-05  0.2508333E+04  0.7818609E-02  0.8400023E-01
       -1   -1    0    0    0  501  0.00000000000E+00  0.00000000000E+00  0.18981025743E+04  0.18981025743E+04  0.50400001928E-02 0. -1.
        1   -1    0    0  501    0  0.00000000000E+00  0.00000000000E+00 -0.82868729394E+03  0.82868729395E+03  0.50400001928E-02 0.  1.
    10030    2    1    2    0    0  0.00000000000E+00  0.00000000000E+00  0.10694152803E+04  0.27267898682E+04  0.25083329013E+04 0.  0.
        5    1    3    3  502    0 -0.11802301520E+04  0.23431985031E+03  0.15026649493E+03  0.12126215871E+04  0.46999998093E+01 0. -1.
       -5    1    3    3    0  502  0.11802301520E+04 -0.23431985031E+03  0.91914878540E+03  0.15141682812E+04  0.46999998093E+01 0.  1.
</event>
<event>
 5   0  0.6445331E-05  0.2554214E+04  0.7818609E-02  0.8383922E-01
        2   -1    0    0  501    0  0.00000000000E+00  0.00000000000E+00  0.16840579906E+04  0.16840579906E+04  0.25500000920E-02 0.  1.
       -2   -1    0    0    0  501  0.00000000000E+00  0.00000000000E+00 -0.96849508151E+03  0.96849508152E+03  0.25500000920E-02 0. -1.
    10030    2    1    2    0    0  0.00000000000E+00  0.00000000000E+00  0.71556290909E+03  0.26525530721E+04  0.25542136801E+04 0.  0.
        1    1    3    3  502    0 -0.70450930627E+03  0.35835827057E+03 -0.68395854982E+03  0.10452527496E+04  0.50400001928E-02 0. -1.
       -1    1    3    3    0  502  0.70450930627E+03 -0.35835827057E+03  0.13995214589E+04  0.16073003225E+04  0.50400001928E-02 0.  1.
</event>
<event>
 5   0  0.6909250E-05  0.2384162E+04  0.7818609E-02  0.8445457E-01
       -2   -1    0    0    0  501  0.00000000000E+00  0.00000000000E+00  0.78751902385E+03  0.78751902385E+03  0.25500000920E-02 0.  1.
        2   -1    0    0  501    0  0.00000000000E+00  0.00000000000E+00 -0.18044728200E+04  0.18044728200E+04  0.25500000920E-02 0. -1.
    10030    2    1    2    0    0  0.00000000000E+00  0.00000000000E+00 -0.10169537962E+04  0.25919918439E+04  0.23841616336E+04 0.  0.
        4    1    3    3  502    0 -0.89198579057E+03 -0.39202477534E+03 -0.12551767381E+04  0.15889595124E+04  0.12699999809E+01 0. -1.
       -4    1    3    3    0  502  0.89198579057E+03  0.39202477534E+03  0.23822294197E+03  0.10030323315E+04  0.12699999809E+01 0.  1.
</event>
<event>
 5   0  0.6445331E-05  0.2479049E+04  0.7818609E-02  0.8410488E-01
        2   -1    0    0  501    0  0.00000000000E+00  0.00000000000E+00  0.10007273649E+04  0.10007273649E+04  0.25500000920E-02 0. -1.
       -2   -1    0    0    0  501  0.00000000000E+00  0.00000000000E+00 -0.15353043897E+04  0.15353043897E+04  0.25500000920E-02 0.  1.
    10030    2    1    2    0    0  0.00000000000E+00  0.00000000000E+00 -0.53457702481E+03  0.25360317546E+04  0.24790491049E+04 0.  0.
        1    1    3    3  502    0  0.78134525316E+03 -0.42924737056E+03  0.61370793012E+03  0.10823082432E+04  0.50400001928E-02 0. -1.
       -1    1    3    3    0  502 -0.78134525316E+03  0.42924737056E+03 -0.11482849549E+04  0.14537235114E+04  0.50400001928E-02 0.  1.
</event>
<event>
 5   0  0.6648328E-05  0.2567933E+04  0.7818609E-02  0.8379176E-01
        2   -1    0    0  501    0  0.00000000000E+00  0.00000000000E+00  0.17208360087E+04  0.17208360087E+04  0.25500000920E-02 0. -1.
       -2   -1    0    0    0  501  0.00000000000E+00  0.00000000000E+00 -0.95800511936E+03  0.95800511936E+03  0.25500000920E-02 0.  1.
    10030    2    1    2    0    0  0.00000000000E+00  0.00000000000E+00  0.76283088930E+03  0.26788411280E+04  0.25679327919E+04 0.  0.
        2    1    3    3  502    0 -0.18676352703E+02  0.59627883228E+03 -0.80464699275E+03  0.10016756136E+04  0.25500000920E-02 0.  1.
       -2    1    3    3    0  502  0.18676352703E+02 -0.59627883228E+03  0.15674778820E+04  0.16771655144E+04  0.25500000920E-02 0. -1.
</event>
<event>
 5   0  0.2793920E-05  0.2540323E+04  0.7818609E-02  0.8388759E-01
       -1   -1    0    0    0  501  0.00000000000E+00  0.00000000000E+00  0.14785028391E+04  0.14785028391E+04  0.50400001928E-02 0. -1.
        1   -1    0    0  501    0  0.00000000000E+00  0.00000000000E+00 -0.10911786982E+04  0.10911786982E+04  0.50400001928E-02 0.  1.
    10030    2    1    2    0    0  0.00000000000E+00  0.00000000000E+00  0.38732414087E+03  0.25696815373E+04  0.25403234466E+04 0.  0.
        2    1    3    3  502    0 -0.93465158049E+03 -0.15899793195E+03 -0.66136191939E+03  0.11559643194E+04  0.25500000920E-02 0.  1.
       -2    1    3    3    0  502  0.93465158049E+03  0.15899793195E+03  0.10486860603E+04  0.14137172179E+04  0.25500000920E-02 0. -1.
</event>
<event>
 5   0  0.2793920E-05  0.2488023E+04  0.7818609E-02  0.8407265E-01
       -1   -1    0    0    0  501  0.00000000000E+00  0.00000000000E+00  0.61134737260E+03  0.61134737262E+03  0.50400001928E-02 0.  1.
        1   -1    0    0  501    0  0.00000000000E+00  0.00000000000E+00 -0.25313987804E+04  0.25313987804E+04  0.50400001928E-02 0. -1.
    10030    2    1    2    0    0  0.00000000000E+00  0.00000000000E+00 -0.19200514078E+04  0.31427461530E+04  0.24880225027E+04 0.  0.
        2    1    3    3  502    0 -0.48509934609E+03  0.92239143555E+03 -0.10197876581E+03  0.10471518537E+04  0.25500000920E-02 0.  1.
       -2    1    3    3    0  502  0.48509934609E+03 -0.92239143555E+03 -0.18180726420E+04  0.20955942994E+04  0.25500000920E-02 0. -1.
</event>
<event>
 5   0  0.6445331E-05  0.2280748E+04  0.7818609E-02  0.8485551E-01
        2   -1    0    0  501    0  0.00000000000E+00  0.00000000000E+00  0.16048198139E+04  0.16048198139E+04  0.25500000920E-02 0. -1.
       -2   -1    0    0    0  501  0.00000000000E+00  0.00000000000E+00 -0.81034175894E+03  0.81034175894E+03  0.25500000920E-02 0.  1.
    10030    2    1    2    0    0  0.00000000000E+00  0.00000000000E+00  0.79447805493E+03  0.24151615728E+04  0.22807476939E+04 0.  0.
        1    1    3    3  502    0 -0.67693679667E+03  0.20969454777E+01 -0.57456293704E+03  0.88790224265E+03  0.50400001928E-02 0.  1.
       -1    1    3    3    0  502  0.67693679667E+03 -0.20969454777E+01  0.13690409920E+04  0.15272593302E+04  0.50400001928E-02 0. -1.
</event>
<event>
 5   0  0.2977854E-05  0.2494838E+04  0.7818609E-02  0.8404827E-01
        1   -1    0    0  501    0  0.00000000000E+00  0.00000000000E+00  0.32446444626E+04  0.32446444626E+04  0.50400001928E-02 0. -1.
       -1   -1    0    0    0  501  0.00000000000E+00  0.00000000000E+00 -0.47957634119E+03  0.47957634122E+03  0.50400001928E-02 0.  1.
    10030    2    1    2    0    0  0.00000000000E+00  0.00000000000E+00  0.27650681215E+04  0.37242208039E+04  0.24948384476E+04 0.  0.
        1    1    3    3  502    0 -0.28819679867E+03 -0.11456966982E+04  0.19803441288E+04  0.23059577593E+04  0.50400001928E-02 0. -1.
       -1    1    3    3    0  502  0.28819679867E+03  0.11456966982E+04  0.78472399262E+03  0.14182630446E+04  0.50400001928E-02 0.  1.
</event>
<event>
 5   0  0.2980790E-05  0.2598085E+04  0.7818609E-02  0.8368852E-01
        1   -1    0    0  501    0  0.00000000000E+00  0.00000000000E+00  0.14242034306E+04  0.14242034307E+04  0.50400001928E-02 0. -1.
       -1   -1    0    0    0  501  0.00000000000E+00  0.00000000000E+00 -0.11848804554E+04  0.11848804554E+04  0.50400001928E-02 0.  1.
    10030    2    1    2    0    0  0.00000000000E+00  0.00000000000E+00  0.23932297526E+03  0.26090838861E+04  0.25980845325E+04 0.  0.
        5    1    3    3  502    0  0.22354438787E+03  0.12345798392E+04 -0.21840783711E+03  0.12735319180E+04  0.46999998093E+01 0.  1.
       -5    1    3    3    0  502 -0.22354438787E+03 -0.12345798392E+04  0.45773081237E+03  0.13355519681E+04  0.46999998093E+01 0. -1.
</event>
<event>
 5   0  0.6445331E-05  0.2540532E+04  0.7818609E-02  0.8388686E-01
        2   -1    0    0  501    0  0.00000000000E+00  0.00000000000E+00  0.12109517748E+04  0.12109517748E+04  0.25500000920E-02 0. -1.
       -2   -1    0    0    0  501  0.00000000000E+00  0.00000000000E+00 -0.13324858688E+04  0.13324858688E+04  0.25500000920E-02 0.  1.
    10030    2    1    2    0    0  0.00000000000E+00  0.00000000000E+00 -0.12153409400E+03  0.25434376437E+04  0.25405323283E+04 0.  0.
        1    1    3    3  502    0 -0.75140235818E+03 -0.63433705687E+03 -0.86579302346E+03  0.13101856987E+04  0.50400001928E-02 0.  1.
       -1    1    3    3    0  502  0.75140235818E+03  0.63433705687E+03  0.74425892946E+03  0.12332519449E+04  0.50400001928E-02 0. -1.
</event>
<event>
 5   0  0.2896652E-05  0.2476866E+04  0.7818609E-02  0.8411274E-01
        1   -1    0    0  501    0  0.00000000000E+00  0.00000000000E+00  0.18478048045E+04  0.18478048045E+04  0.50400001928E-02 0.  1.
       -1   -1    0    0    0  501  0.00000000000E+00  0.00000000000E+00 -0.83002091574E+03  0.83002091575E+03  0.50400001928E-02 0. -1.
    10030    2    1    2    0    0  0.00000000000E+00  0.00000000000E+00  0.10177838887E+04  0.26778257202E+04  0.24768662749E+04 0.  0.
        4    1    3    3  502    0 -0.33689253401E+03  0.11628573737E+04  0.79077831166E+03  0.14460517978E+04  0.12699999809E+01 0.  1.
       -4    1    3    3    0  502  0.33689253401E+03 -0.11628573737E+04  0.22700557708E+03  0.12317739224E+04  0.12699999809E+01 0. -1.
</event>
<event>
 5   0  0.6648328E-05  0.2509351E+04  0.7818609E-02  0.8399662E-01
        2   -1    0    0  501    0  0.00000000000E+00  0.00000000000E+00  0.15341234433E+04  0.15341234433E+04  0.25500000920E-02 0.  1.
       -2   -1    0    0    0  501  0.00000000000E+00  0.00000000000E+00 -0.10261300748E+04  0.10261300748E+04  0.25500000920E-02 0. -1.
    10030    2    1    2    0    0  0.00000000000E+00  0.00000000000E+00  0.50799336847E+03  0.25602535181E+04  0.25093506759E+04 0.  0.
        2    1    3    3  502    0  0.21407941135E+03 -0.83298549047E+03 -0.67805240717E+03  0.10951939959E+04  0.25500000920E-02 0. -1.
       -2    1    3    3    0  502 -0.21407941135E+03  0.83298549047E+03  0.11860457756E+04  0.14650595222E+04  0.25500000920E-02 0.  1.
</event>
<event>
 5   0  0.2896652E-05  0.1963628E+04  0.7818609E-02  0.8623817E-01
        1   -1    0    0  501    0  0.00000000000E+00  0.00000000000E+00  0.10578450029E+04  0.10578450029E+04  0.50400001928E-02 0. -1.
       -1   -1    0    0    0  501  0.00000000000E+00  0.00000000000E+00 -0.91124793510E+03  0.91124793511E+03  0.50400001928E-02 0.  1.
    10030    2    1    2    0    0  0.00000000000E+00  0.00000000000E+00  0.14659706781E+03  0.19690929380E+04  0.19636283504E+04 0.  0.
        4    1    3    3  502    0 -0.20679581811E+03 -0.64301704675E+03  0.78782764004E+03  0.10377424710E+04  0.12699999809E+01 0. -1.
       -4    1    3    3    0  502  0.20679581811E+03  0.64301704675E+03 -0.64123057222E+03  0.93135046704E+03  0.12699999809E+01 0.  1.
</event>
<event>
 5   0  0.2977854E-05  0.2533519E+04  0.7818609E-02  0.8391141E-01
        1   -1    0    0  501    0  0.00000000000E+00  0.00000000000E+00  0.11732546193E+04  0.11732546193E+04  0.50400001928E-02 0. -1.
       -1   -1    0    0    0  501  0.00000000000E+00  0.00000000000E+00 -0.13677162274E+04  0.13677162274E+04  0.50400001928E-02 0.  1.
    10030    2    1    2    0    0  0.00000000000E+00  0.00000000000E+00 -0.19446160813E+03  0.25409708467E+04  0.25335188033E+04 0.  0.
        1    1    3    3  502    0  0.64486797012E+03 -0.24716136906E+03  0.96784191587E+03  0.11889749431E+04  0.50400001928E-02 0. -1.
       -1    1    3    3    0  502 -0.64486797012E+03  0.24716136906E+03 -0.11623035240E+04  0.13519959035E+04  0.50400001928E-02 0.  1.
</event>
<event>
 5   0  0.7071821E-05  0.2454725E+04  0.7818609E-02  0.8419295E-01
        2   -1    0    0  501    0  0.00000000000E+00  0.00000000000E+00  0.14013338974E+04  0.14013338974E+04  0.25500000920E-02 0.  1.
       -2   -1    0    0    0  501  0.00000000000E+00  0.00000000000E+00 -0.10749887939E+04  0.10749887939E+04  0.25500000920E-02 0. -1.
    10030    2    1    2    0    0  0.00000000000E+00  0.00000000000E+00  0.32634510352E+03  0.24763226913E+04  0.24547246169E+04 0.  0.
        5    1    3    3  502    0 -0.46913759214E+03 -0.42870167247E+03 -0.89607601021E+03  0.10985670259E+04  0.46999998093E+01 0. -1.
       -5    1    3    3    0  502  0.46913759214E+03  0.42870167247E+03  0.12224211137E+04  0.13777556654E+04  0.46999998093E+01 0.  1.
</event>
<event>
 5   0  0.2777539E-05  0.2486061E+04  0.7818609E-02  0.8407968E-01
       -1   -1    0    0    0  501  0.00000000000E+00  0.00000000000E+00  0.13409072794E+04  0.13409072794E+04  0.50400001928E-02 0. -1.
        1   -1    0    0  501    0  0.00000000000E+00  0.00000000000E+00 -0.11522980144E+04  0.11522980144E+04  0.50400001928E-02 0.  1.
    10030    2    1    2    0    0  0.00000000000E+00  0.00000000000E+00  0.18860926497E+03  0.24932052938E+04  0.24860609772E+04 0.  0.
        3    1    3    3  502    0 -0.83338931585E+03  0.91615018965E+03 -0.12093909115E+02  0.12385536705E+04  0.10100000352E+00 0.  1.
       -3    1    3    3    0  502  0.83338931585E+03 -0.91615018965E+03  0.20070317409E+03  0.12546516234E+04  0.10100000352E+00 0. -1.
</event>
<event>
 5   0  0.2777539E-05  0.2042826E+04  0.7818609E-02  0.8586856E-01
        1   -1    0    0  501    0  0.00000000000E+00  0.00000000000E+00  0.12040838712E+04  0.12040838712E+04  0.50400001928E-02 0. -1.
       -1   -1    0    0    0  501  0.00000000000E+00  0.00000000000E+00 -0.86645526464E+03  0.86645526466E+03  0.50400001928E-02 0.  1.
    10030    2    1    2    0    0  0.00000000000E+00  0.00000000000E+00  0.33762860656E+03  0.20705391359E+04  0.20428262866E+04 0.  0.
        3    1    3    3  502    0 -0.12818579840E+03  0.75631044534E+03 -0.51475887307E+03  0.92380398150E+03  0.10100000352E+00 0.  1.
       -3    1    3    3    0  502  0.12818579840E+03 -0.75631044534E+03  0.85238747963E+03  0.11467351544E+04  0.10100000352E+00 0. -1.
</event>
<event>
 5   0  0.6648328E-05  0.2382151E+04  0.7818609E-02  0.8446216E-01
       -2   -1    0    0    0  501  0.00000000000E+00  0.00000000000E+00  0.76573317150E+03  0.76573317150E+03  0.25500000920E-02 0. -1.
        2   -1    0    0  501    0  0.00000000000E+00  0.00000000000E+00 -0.18526837342E+04  0.18526837342E+04  0.25500000920E-02 0.  1.
    10030    2    1    2    0    0  0.00000000000E+00  0.00000000000E+00 -0.10869505627E+04  0.26184169057E+04  0.23821514574E+04 0.  0.
        2    1    3    3  502    0  0.59422626745E+03  0.82462489794E+03  0.13903619036E+03  0.10258860275E+04  0.25500000920E-02 0. -1.
       -2    1    3    3    0  502 -0.59422626745E+03 -0.82462489794E+03 -0.12259867530E+04  0.15925308781E+04  0.25500000920E-02 0.  1.
</event>
<event>
 5   0  0.6909250E-05  0.2484365E+04  0.7818609E-02  0.8408577E-01
       -2   -1    0    0    0  501  0.00000000000E+00  0.00000000000E+00  0.10264519842E+04  0.10264519842E+04  0.25500000920E-02 0.  1.
        2   -1    0    0  501    0  0.00000000000E+00  0.00000000000E+00 -0.15032532091E+04  0.15032532091E+04  0.25500000920E-02 0. -1.
    10030    2    1    2    0    0  0.00000000000E+00  0.00000000000E+00 -0.47680122492E+03  0.25297051932E+04  0.24843649000E+04 0.  0.
        4    1    3    3  502    0  0.90515518687E+03 -0.11677732072E+03  0.61963627192E+03  0.11031289940E+04  0.12699999809E+01 0.  1.
       -4    1    3    3    0  502 -0.90515518687E+03  0.11677732072E+03 -0.10964374968E+04  0.14265761993E+04  0.12699999809E+01 0. -1.
</event>
<event>
 5   0  0.2777539E-05  0.2278597E+04  0.7818609E-02  0.8486408E-01
       -1   -1    0    0    0  501  0.00000000000E+00  0.00000000000E+00  0.65850051049E+03  0.65850051051E+03  0.50400001928E-02 0. -1.
        1   -1    0    0  501    0  0.00000000000E+00  0.00000000000E+00 -0.19711472000E+04  0.19711472000E+04  0.50400001928E-02 0.  1.
    10030    2    1    2    0    0  0.00000000000E+00  0.00000000000E+00 -0.13126466895E+04  0.26296477105E+04  0.22785973207E+04 0.  0.
        3    1    3    3  502    0  0.80623479818E+03  0.38596025766E+03  0.15892446700E+03  0.90787491798E+03  0.10100000352E+00 0. -1.
       -3    1    3    3    0  502 -0.80623479818E+03 -0.38596025766E+03 -0.14715711565E+04  0.17217727926E+04  0.10100000352E+00 0.  1.
</event>
<event>
 5   0  0.6648328E-05  0.2527649E+04  0.7818609E-02  0.8393201E-01
        2   -1    0    0  501    0  0.00000000000E+00  0.00000000000E+00  0.11002509380E+04  0.11002509380E+04  0.25500000920E-02 0. -1.
       -2   -1    0    0    0  501  0.00000000000E+00  0.00000000000E+00 -0.14517161982E+04  0.14517161982E+04  0.25500000920E-02 0.  1.
    10030    2    1    2    0    0  0.00000000000E+00  0.00000000000E+00 -0.35146526019E+03  0.25519671363E+04  0.25276487959E+04 0.  0.
        2    1    3    3  502    0  0.83012194010E+03  0.93727758396E+03 -0.34961152765E+03  0.12999307386E+04  0.25500000920E-02 0.  1.
       -2    1    3    3    0  502 -0.83012194010E+03 -0.93727758396E+03 -0.18537325434E+01  0.12520363977E+04  0.25500000920E-02 0. -1.
</event>
<event>
 5   0  0.6909250E-05  0.2558073E+04  0.7818609E-02  0.8382584E-01
        2   -1    0    0  501    0  0.00000000000E+00  0.00000000000E+00  0.23365895795E+04  0.23365895795E+04  0.25500000920E-02 0.  1.
       -2   -1    0    0    0  501  0.00000000000E+00  0.00000000000E+00 -0.70013787941E+03  0.70013787941E+03  0.25500000920E-02 0. -1.
    10030    2    1    2    0    0  0.00000000000E+00  0.00000000000E+00  0.16364517001E+04  0.30367274590E+04  0.25580733948E+04 0.  0.
        4    1    3    3  502    0 -0.94096793543E+02  0.37433893649E+03  0.22658003122E+04  0.22984421928E+04  0.12699999809E+01 0.  1.
       -4    1    3    3    0  502  0.94096793543E+02 -0.37433893649E+03 -0.62934861203E+03  0.73828526620E+03  0.12699999809E+01 0. -1.
</event>
<event>
 5   0  0.6827859E-05  0.2466513E+04  0.7818609E-02  0.8415013E-01
       -2   -1    0    0    0  501  0.00000000000E+00  0.00000000000E+00  0.10953599992E+04  0.10953599992E+04  0.25500000920E-02 0.  1.
        2   -1    0    0  501    0  0.00000000000E+00  0.00000000000E+00 -0.13885129857E+04  0.13885129857E+04  0.25500000920E-02 0. -1.
    10030    2    1    2    0    0  0.00000000000E+00  0.00000000000E+00 -0.29315298651E+03  0.24838729850E+04  0.24665129904E+04 0.  0.
        3    1    3    3  502    0 -0.61091221121E+02  0.34879403686E+02  0.10933378687E+04  0.10955986562E+04  0.10100000352E+00 0.  1.
       -3    1    3    3    0  502  0.61091221121E+02 -0.34879403686E+02 -0.13864908552E+04  0.13882743288E+04  0.10100000352E+00 0. -1.
</event>
<event>
 5   0  0.2777539E-05  0.2487852E+04  0.7818609E-02  0.8407326E-01
        1   -1    0    0  501    0  0.00000000000E+00  0.00000000000E+00  0.10638293243E+04  0.10638293243E+04  0.50400001928E-02 0.  1.
       -1   -1    0    0    0  501  0.00000000000E+00  0.00000000000E+00 -0.14545119379E+04  0.14545119379E+04  0.50400001928E-02 0. -1.
    10030    2    1    2    0    0  0.00000000000E+00  0.00000000000E+00 -0.39068261364E+03  0.25183412622E+04  0.24878524490E+04 0.  0.
        3    1    3    3  502    0 -0.73947035760E+03  0.40858282456E+03  0.72886260186E+03  0.11157943524E+04  0.10100000352E+00 0.  1.
       -3    1    3    3    0  502  0.73947035760E+03 -0.40858282456E+03 -0.11195452155E+04  0.14025469098E+04  0.10100000352E+00 0. -1.
</event>
<event>
 5   0  0.6648328E-05  0.2459520E+04  0.7818609E-02  0.8417550E-01
        2   -1    0    0  501    0  0.00000000000E+00  0.00000000000E+00  0.23017681921E+04  0.23017681921E+04  0.25500000920E-02 0. -1.
       -2   -1    0    0    0  501  0.00000000000E+00  0.00000000000E+00 -0.65702101269E+03  0.65702101269E+03  0.25500000920E-02 0.  1.
    10030    2    1    2    0    0  0.00000000000E+00  0.00000000000E+00  0.16447471794E+04  0.29587892048E+04  0.24595203342E+04 0.  0.
        2    1    3    3  502    0  0.67152453180E+03  0.69940953299E+03  0.17323584910E+04  0.19852417568E+04  0.25500000920E-02 0. -1.
       -2    1    3    3    0  502 -0.67152453180E+03 -0.69940953299E+03 -0.87611311539E+02  0.97354744803E+03  0.25500000920E-02 0.  1.
</event>
<event>
 5   0  0.2331375E-05  0.2551919E+04  0.7818609E-02  0.8384719E-01
       -3   -1    0    0    0  501  0.00000000000E+00  0.00000000000E+00  0.13743862370E+04  0.13743862407E+04  0.10100000352E+00 0. -1.
        3   -1    0    0  501    0  0.00000000000E+00  0.00000000000E+00 -0.11845820253E+04  0.11845820296E+04  0.10100000352E+00 0.  1.
    10030    2    1    2    0    0  0.00000000000E+00  0.00000000000E+00  0.18980421175E+03  0.25589682703E+04  0.25519194677E+04 0.  0.
        4    1    3    3  502    0  0.82908824528E+03  0.86098340032E+02  0.10636302369E+04  0.13513367960E+04  0.12699999809E+01 0. -1.
       -4    1    3    3    0  502 -0.82908824528E+03 -0.86098340032E+02 -0.87382602511E+03  0.12076314743E+04  0.12699999809E+01 0.  1.
</event>
<event>
 5   0  0.2896652E-05  0.2471785E+04  0.7818609E-02  0.8413107E-01
       -1   -1    0    0    0  501  0.00000000000E+00  0.00000000000E+00  0.12981195647E+04  0.12981195647E+04  0.50400001928E-02 0. -1.
        1   -1    0    0  501    0  0.00000000000E+00  0.00000000000E+00 -0.11766482033E+04  0.11766482033E+04  0.50400001928E-02 0.  1.
    10030    2    1    2    0    0  0.00000000000E+00  0.00000000000E+00  0.12147136144E+03  0.24747677680E+04  0.24717848235E+04 0.  0.
        4    1    3    3  502    0 -0.91873271769E+03 -0.78602659893E+03  0.31701493451E+03  0.12499630804E+04  0.12699999809E+01 0. -1.
       -4    1    3    3    0  502  0.91873271769E+03  0.78602659893E+03 -0.19554357307E+03  0.12248046876E+04  0.12699999809E+01 0.  1.
</event>
<event>
 5   0  0.6648328E-05  0.2443803E+04  0.7818609E-02  0.8423284E-01
       -2   -1    0    0    0  501  0.00000000000E+00  0.00000000000E+00  0.11145723151E+04  0.11145723151E+04  0.25500000920E-02 0.  1.
        2   -1    0    0  501    0  0.00000000000E+00  0.00000000000E+00 -0.13395664623E+04  0.13395664623E+04  0.25500000920E-02 0. -1.
    10030    2    1    2    0    0  0.00000000000E+00  0.00000000000E+00 -0.22499414719E+03  0.24541387774E+04  0.24438033417E+04 0.  0.
        2    1    3    3  502    0 -0.97819496519E+03  0.56872203681E+03  0.35068405348E+03  0.11846051876E+04  0.25500000920E-02 0.  1.
       -2    1    3    3    0  502  0.97819496519E+03 -0.56872203681E+03 -0.57567820067E+03  0.12695335899E+04  0.25500000920E-02 0. -1.
</event>
<event>
 5   0  0.2980790E-05  0.2548690E+04  0.7818609E-02  0.8385842E-01
        1   -1    0    0  501    0  0.00000000000E+00  0.00000000000E+00  0.13483734032E+04  0.13483734032E+04  0.50400001928E-02 0. -1.
       -1   -1    0    0    0  501  0.00000000000E+00  0.00000000000E+00 -0.12043807532E+04  0.12043807532E+04  0.50400001928E-02 0.  1.
    10030    2    1    2    0    0  0.00000000000E+00  0.00000000000E+00  0.14399264996E+03  0.25527541564E+04  0.25486898399E+04 0.  0.
        5    1    3    3  502    0  0.11538242961E+04  0.41977908759E+03  0.41372641805E+03  0.12956529734E+04  0.46999998093E+01 0. -1.
       -5    1    3    3    0  502 -0.11538242961E+04 -0.41977908759E+03 -0.26973376809E+03  0.12571011830E+04  0.46999998093E+01 0.  1.
</event>
<event>
 5   0  0.2980790E-05  0.2504385E+04  0.7818609E-02  0.8401425E-01
        1   -1    0    0  501    0  0.00000000000E+00  0.00000000000E+00  0.16148658022E+04  0.16148658022E+04  0.50400001928E-02 0. -1.
       -1   -1    0    0    0  501  0.00000000000E+00  0.00000000000E+00 -0.97097008168E+03  0.97097008169E+03  0.50400001928E-02 0.  1.
    10030    2    1    2    0    0  0.00000000000E+00  0.00000000000E+00  0.64389572050E+03  0.25858358839E+04  0.25043852578E+04 0.  0.
        5    1    3    3  502    0 -0.80397351749E+03  0.39451499450E+03  0.12255966829E+04  0.15179343915E+04  0.46999998093E+01 0. -1.
       -5    1    3    3    0  502  0.80397351749E+03 -0.39451499450E+03 -0.58170096243E+03  0.10679014924E+04  0.46999998093E+01 0.  1.
</event>
<event>
 5   0  0.2777539E-05  0.2471115E+04  0.7818609E-02  0.8413349E-01
        1   -1    0    0  501    0  0.00000000000E+00  0.00000000000E+00  0.18781038175E+04  0.18781038176E+04  0.50400001928E-02 0. -1.
       -1   -1    0    0    0  501  0.00000000000E+00  0.00000000000E+00 -0.81284210930E+03  0.81284210932E+03  0.50400001928E-02 0.  1.
    10030    2    1    2    0    0  0.00000000000E+00  0.00000000000E+00  0.10652617082E+04  0.26909459269E+04  0.24711146218E+04 0.  0.
        3    1    3    3  502    0  0.29475482752E+03  0.11937336803E+04  0.66475612990E+03  0.13977772463E+04  0.10100000352E+00 0.  1.
       -3    1    3    3    0  502 -0.29475482752E+03 -0.11937336803E+04  0.40050557834E+03  0.12931686806E+04  0.10100000352E+00 0. -1.
</event>
<event>
 5   0  0.2793920E-05  0.2464400E+04  0.7818609E-02  0.8415779E-01
       -1   -1    0    0    0  501  0.00000000000E+00  0.00000000000E+00  0.11686449084E+04  0.11686449084E+04  0.50400001928E-02 0. -1.
        1   -1    0    0  501    0  0.00000000000E+00  0.00000000000E+00 -0.12992109853E+04  0.12992109853E+04  0.50400001928E-02 0.  1.
    10030    2    1    2    0    0  0.00000000000E+00  0.00000000000E+00 -0.13056607684E+03  0.24678558937E+04  0.24643995641E+04 0.  0.
        2    1    3    3  502    0  0.10804358523E+04 -0.39479522131E+02 -0.65722631383E+03  0.12652457038E+04  0.25500000920E-02 0.  1.
       -2    1    3    3    0  502 -0.10804358523E+04  0.39479522131E+02  0.52666023699E+03  0.12026101899E+04  0.25500000920E-02 0. -1.
</event>
<event>
 5   0  0.7071821E-05  0.2330395E+04  0.7818609E-02  0.8466032E-01
       -2   -1    0    0    0  501  0.00000000000E+00  0.00000000000E+00  0.56768646050E+03  0.56768646051E+03  0.25500000920E-02 0. -1.
        2   -1    0    0  501    0  0.00000000000E+00  0.00000000000E+00 -0.23916106312E+04  0.23916106312E+04  0.25500000920E-02 0.  1.
    10030    2    1    2    0    0  0.00000000000E+00  0.00000000000E+00 -0.18239241707E+04  0.29592970917E+04  0.23303947941E+04 0.  0.
        5    1    3    3  502    0  0.53530421728E+03  0.98866338472E+03 -0.13005856811E+04  0.17191716311E+04  0.46999998093E+01 0.  1.
       -5    1    3    3    0  502 -0.53530421728E+03 -0.98866338472E+03 -0.52333848957E+03  0.12401254606E+04  0.46999998093E+01 0. -1.
</event>
<event>
 5   0  0.2896652E-05  0.2524206E+04  0.7818609E-02  0.8394413E-01
        1   -1    0    0  501    0  0.00000000000E+00  0.00000000000E+00  0.11920571847E+04  0.11920571847E+04  0.50400001928E-02 0.  1.
       -1   -1    0    0    0  501  0.00000000000E+00  0.00000000000E+00 -0.13362644493E+04  0.13362644493E+04  0.50400001928E-02 0. -1.
    10030    2    1    2    0    0  0.00000000000E+00  0.00000000000E+00 -0.14420726461E+03  0.25283216340E+04  0.25242057265E+04 0.  0.
        4    1    3    3  502    0 -0.71867228520E+03  0.91853283876E+03 -0.55529005071E+03  0.12917202030E+04  0.12699999809E+01 0.  1.
       -4    1    3    3    0  502  0.71867228520E+03 -0.91853283876E+03  0.41108278611E+03  0.12366014311E+04  0.12699999809E+01 0. -1.
</event>
<event>
 5   0  0.2980790E-05  0.2464167E+04  0.7818609E-02  0.8415864E-01
       -1   -1    0    0    0  501  0.00000000000E+00  0.00000000000E+00  0.13717103164E+04  0.13717103165E+04  0.50400001928E-02 0.  1.
        1   -1    0    0  501    0  0.00000000000E+00  0.00000000000E+00 -0.11066692175E+04  0.11066692175E+04  0.50400001928E-02 0. -1.
    10030    2    1    2    0    0  0.00000000000E+00  0.00000000000E+00  0.26504109898E+03  0.24783795339E+04  0.24641668633E+04 0.  0.
        5    1    3    3  502    0  0.33826525282E+03  0.48781608470E+03 -0.95334515748E+03  0.11230658899E+04  0.46999998093E+01 0. -1.
       -5    1    3    3    0  502 -0.33826525282E+03 -0.48781608470E+03  0.12183862565E+04  0.13553136440E+04  0.46999998093E+01 0.  1.
</event>
<event>
 5   0  0.6648328E-05  0.2453319E+04  0.7818609E-02  0.8419807E-01
        2   -1    0    0  501    0  0.00000000000E+00  0.00000000000E+00  0.17475883303E+04  0.17475883303E+04  0.25500000920E-02 0.  1.
       -2   -1    0    0    0  501  0.00000000000E+00  0.00000000000E+00 -0.86101117011E+03  0.86101117011E+03  0.25500000920E-02 0. -1.
    10030    2    1    2    0    0  0.00000000000E+00  0.00000000000E+00  0.88657716014E+03  0.26085995004E+04  0.24533186284E+04 0.  0.
        2    1    3    3  502    0 -0.48581313402E+03 -0.59030785841E+03  0.14632838931E+04  0.16509626043E+04  0.25500000920E-02 0. -1.
       -2    1    3    3    0  502  0.48581313402E+03  0.59030785841E+03 -0.57670673297E+03  0.95763689609E+03  0.25500000920E-02 0.  1.
</event>
<event>
 5   0  0.2793920E-05  0.2506101E+04  0.7818609E-02  0.8400815E-01
        1   -1    0    0  501    0  0.00000000000E+00  0.00000000000E+00  0.50176559179E+03  0.50176559182E+03  0.50400001928E-02 0. -1.
       -1   -1    0    0    0  501  0.00000000000E+00  0.00000000000E+00 -0.31292202671E+04  0.31292202671E+04  0.50400001928E-02 0.  1.
    10030    2    1    2    0    0  0.00000000000E+00  0.00000000000E+00 -0.26274546753E+04  0.36309858590E+04  0.25061006039E+04 0.  0.
        2    1    3    3  502    0 -0.22330475036E+03  0.30971705418E+03 -0.30428814989E+04  0.30667437913E+04  0.25500000920E-02 0.  1.
       -2    1    3    3    0  502  0.22330475036E+03 -0.30971705418E+03  0.41542682355E+03  0.56424206766E+03  0.25500000920E-02 0. -1.
</event>
<event>
 5   0  0.7071821E-05  0.2319993E+04  0.7818609E-02  0.8470080E-01
       -2   -1    0    0    0  501  0.00000000000E+00  0.00000000000E+00  0.11511931955E+04  0.11511931955E+04  0.25500000920E-02 0.  1.
        2   -1    0    0  501    0  0.00000000000E+00  0.00000000000E+00 -0.11688674756E+04  0.11688674756E+04  0.25500000920E-02 0. -1.
    10030    2    1    2    0    0  0.00000000000E+00  0.00000000000E+00 -0.17674280057E+02  0.23200606711E+04  0.23199933485E+04 0.  0.
        5    1    3    3  502    0 -0.11010688694E+04 -0.16879302960E+03  0.31478691732E+03  0.11575649594E+04  0.46999998093E+01 0. -1.
       -5    1    3    3    0  502  0.11010688694E+04  0.16879302960E+03 -0.33246119738E+03  0.11624957117E+04  0.46999998093E+01 0.  1.
</event>
<event>
 5   0  0.2977854E-05  0.1640040E+04  0.7818609E-02  0.8796321E-01
        1   -1    0    0  501    0  0.00000000000E+00  0.00000000000E+00  0.14643754245E+04  0.14643754245E+04  0.50400001928E-02 0. -1.
       -1   -1    0    0    0  501  0.00000000000E+00  0.00000000000E+00 -0.45919428680E+03  0.45919428682E+03  0.50400001928E-02 0.  1.
    10030    2    1    2    0    0  0.00000000000E+00  0.00000000000E+00  0.10051811377E+04  0.19235697113E+04  0.16400400345E+04 0.  0.
        1    1    3    3  502    0 -0.53654496506E+03  0.48072419057E+03  0.43132121736E+02  0.72169011832E+03  0.50400001928E-02 0.  1.
       -1    1    3    3    0  502  0.53654496506E+03 -0.48072419057E+03  0.96204901593E+03  0.12018795930E+04  0.50400001928E-02 0. -1.
</event>
<event>
 5   0  0.6827859E-05  0.2519199E+04  0.7818609E-02  0.8396178E-01
       -2   -1    0    0    0  501  0.00000000000E+00  0.00000000000E+00  0.91289440752E+03  0.91289440753E+03  0.25500000920E-02 0.  1.
        2   -1    0    0  501    0  0.00000000000E+00  0.00000000000E+00 -0.17379786366E+04  0.17379786366E+04  0.25500000920E-02 0. -1.
    10030    2    1    2    0    0  0.00000000000E+00  0.00000000000E+00 -0.82508422905E+03  0.26508730441E+04  0.25191990614E+04 0.  0.
        3    1    3    3  502    0 -0.50591418425E+03  0.37180758256E+03  0.73650436287E+03  0.96779580853E+03  0.10100000352E+00 0.  1.
       -3    1    3    3    0  502  0.50591418425E+03 -0.37180758256E+03 -0.15615885919E+04  0.16830772356E+04  0.10100000352E+00 0. -1.
</event>
<event>
 5   0  0.7071821E-05  0.2132650E+04  0.7818609E-02  0.8546995E-01
       -2   -1    0    0    0  501  0.00000000000E+00  0.00000000000E+00  0.55328442489E+03  0.55328442490E+03  0.25500000920E-02 0.  1.
        2   -1    0    0  501    0  0.00000000000E+00  0.00000000000E+00 -0.20550901173E+04  0.20550901173E+04  0.25500000920E-02 0. -1.
    10030    2    1    2    0    0  0.00000000000E+00  0.00000000000E+00 -0.15018056924E+04  0.26083745422E+04  0.21326503264E+04 0.  0.
        5    1    3    3  502    0  0.10112624909E+02 -0.58403463239E+03  0.34018584891E+03  0.67597871180E+03  0.46999998093E+01 0.  1.
       -5    1    3    3    0  502 -0.10112624909E+02  0.58403463239E+03 -0.18419915413E+04  0.19323958304E+04  0.46999998093E+01 0. -1.
</event>
<event>
 5   0  0.2977854E-05  0.2573692E+04  0.7818609E-02  0.8377193E-01
        1   -1    0    0  501    0  0.00000000000E+00  0.00000000000E+00  0.13714799910E+04  0.13714799911E+04  0.50400001928E-02 0. -1.
       -1   -1    0    0    0  501  0.00000000000E+00  0.00000000000E+00 -0.12074346731E+04  0.12074346731E+04  0.50400001928E-02 0.  1.
    10030    2    1    2    0    0  0.00000000000E+00  0.00000000000E+00  0.16404531798E+03  0.25789146641E+04  0.25736918966E+04 0.  0.
        1    1    3    3  502    0  0.13369858843E+03  0.10318401775E+04 -0.67674778964E+03  0.12411917802E+04  0.50400001928E-02 0.  1.
       -1    1    3    3    0  502 -0.13369858843E+03 -0.10318401775E+04  0.84079310763E+03  0.13377228839E+04  0.50400001928E-02 0. -1.
</event>
<event>
 5   0  0.6648328E-05  0.2486510E+04  0.7818609E-02  0.8407807E-01
        2   -1    0    0  501    0  0.00000000000E+00  0.00000000000E+00  0.25137027391E+04  0.25137027391E+04  0.25500000920E-02 0. -1.
       -2   -1    0    0    0  501  0.00000000000E+00  0.00000000000E+00 -0.61490297976E+03  0.61490297976E+03  0.25500000920E-02 0.  1.
    10030    2    1    2    0    0  0.00000000000E+00  0.00000000000E+00  0.18987997594E+04  0.31286057189E+04  0.24865102489E+04 0.  0.
        2    1    3    3  502    0 -0.27285910697E+03  0.48753751487E+03 -0.44805217041E+03  0.71616734642E+03  0.25500000920E-02 0.  1.
       -2    1    3    3    0  502  0.27285910697E+03 -0.48753751487E+03  0.23468519298E+04  0.24124383725E+04  0.25500000920E-02 0. -1.
</event>
<event>
 5   0  0.7071821E-05  0.1679425E+04  0.7818609E-02  0.8773187E-01
       -2   -1    0    0    0  501  0.00000000000E+00  0.00000000000E+00  0.62298560150E+03  0.62298560151E+03  0.25500000920E-02 0. -1.
        2   -1    0    0  501    0  0.00000000000E+00  0.00000000000E+00 -0.11318354824E+04  0.11318354824E+04  0.25500000920E-02 0.  1.
    10030    2    1    2    0    0  0.00000000000E+00  0.00000000000E+00 -0.50884988087E+03  0.17548210839E+04  0.16794251502E+04 0.  0.
        5    1    3    3  502    0 -0.44865787346E+03  0.69509721767E+03 -0.40454492053E+03  0.92094120993E+03  0.46999998093E+01 0.  1.
       -5    1    3    3    0  502  0.44865787346E+03 -0.69509721767E+03 -0.10430496034E+03  0.83387987395E+03  0.46999998093E+01 0. -1.
</event>
<event>
 5   0  0.2793920E-05  0.2541218E+04  0.7818609E-02  0.8388447E-01
        1   -1    0    0  501    0  0.00000000000E+00  0.00000000000E+00  0.10755587667E+04  0.10755587668E+04  0.50400001928E-02 0.  1.
       -1   -1    0    0    0  501  0.00000000000E+00  0.00000000000E+00 -0.15010313237E+04  0.15010313237E+04  0.50400001928E-02 0. -1.
    10030    2    1    2    0    0  0.00000000000E+00  0.00000000000E+00 -0.42547255694E+03  0.25765900905E+04  0.25412181326E+04 0.  0.
        2    1    3    3  502    0  0.10812115899E+04 -0.61702984881E+03 -0.47064486807E+03  0.13308835142E+04  0.25500000920E-02 0. -1.
       -2    1    3    3    0  502 -0.10812115899E+04  0.61702984881E+03  0.45172311130E+02  0.12457065763E+04  0.25500000920E-02 0.  1.
</event>
<event>
 5   0  0.7071821E-05  0.2463084E+04  0.7818609E-02  0.8416256E-01
       -2   -1    0    0    0  501  0.00000000000E+00  0.00000000000E+00  0.84341942573E+03  0.84341942573E+03  0.25500000920E-02 0. -1.
        2   -1    0    0  501    0  0.00000000000E+00  0.00000000000E+00 -0.17982698748E+04  0.17982698748E+04  0.25500000920E-02 0.  1.
    10030    2    1    2    0    0  0.00000000000E+00  0.00000000000E+00 -0.95485044903E+03  0.26416893005E+04  0.24630840384E+04 0.  0.
        5    1    3    3  502    0  0.11565930630E+04 -0.37752611846E+03 -0.27268993164E+03  0.12468421601E+04  0.46999998093E+01 0.  1.
       -5    1    3    3    0  502 -0.11565930630E+04  0.37752611846E+03 -0.68216051739E+03  0.13948471404E+04  0.46999998093E+01 0. -1.
</event>
<event>
 5   0  0.2896652E-05  0.2398237E+04  0.7818609E-02  0.8440164E-01
       -1   -1    0    0    0  501  0.00000000000E+00  0.00000000000E+00  0.79385078921E+03  0.79385078923E+03  0.50400001928E-02 0.  1.
        1   -1    0    0  501    0  0.00000000000E+00  0.00000000000E+00 -0.18112787880E+04  0.18112787880E+04  0.50400001928E-02 0. -1.
    10030    2    1    2    0    0  0.00000000000E+00  0.00000000000E+00 -0.10174279988E+04  0.26051295772E+04  0.23982369319E+04 0.  0.
        4    1    3    3  502    0  0.23523173687E+03 -0.50480173610E+03 -0.16622702934E+04  0.17530838269E+04  0.12699999809E+01 0. -1.
       -4    1    3    3    0  502 -0.23523173687E+03  0.50480173610E+03  0.64484229464E+03  0.85204575033E+03  0.12699999809E+01 0.  1.
</event>
<event>
 5   0  0.2980790E-05  0.2436182E+04  0.7818609E-02  0.8426081E-01
       -1   -1    0    0    0  501  0.00000000000E+00  0.00000000000E+00  0.21809304054E+04  0.21809304054E+04  0.50400001928E-02 0. -1.
        1   -1    0    0  501    0  0.00000000000E+00  0.00000000000E+00 -0.68032672669E+03  0.68032672671E+03  0.50400001928E-02 0.  1.
    10030    2    1    2    0    0  0.00000000000E+00  0.00000000000E+00  0.15006036787E+04  0.28612571321E+04  0.24361816385E+04 0.  0.
        5    1    3    3  502    0 -0.12601335281E+03  0.47032800346E+03 -0.56104309487E+03  0.74288575180E+03  0.46999998093E+01 0.  1.
       -5    1    3    3    0  502  0.12601335281E+03 -0.47032800346E+03  0.20616467736E+04  0.21183713803E+04  0.46999998093E+01 0. -1.
</event>
<event>
 5   0  0.2980790E-05  0.2463025E+04  0.7818609E-02  0.8416278E-01
        1   -1    0    0  501    0  0.00000000000E+00  0.00000000000E+00  0.20827641097E+04  0.20827641097E+04  0.50400001928E-02 0. -1.
       -1   -1    0    0    0  501  0.00000000000E+00  0.00000000000E+00 -0.72817778094E+03  0.72817778095E+03  0.50400001928E-02 0.  1.
    10030    2    1    2    0    0  0.00000000000E+00  0.00000000000E+00  0.13545863287E+04  0.28109418906E+04  0.24630246021E+04 0.  0.
        5    1    3    3  502    0  0.57329324805E+03 -0.10898036510E+04  0.65877413745E+03  0.13965466695E+04  0.46999998093E+01 0. -1.
       -5    1    3    3    0  502 -0.57329324805E+03  0.10898036510E+04  0.69581219129E+03  0.14143952211E+04  0.46999998093E+01 0.  1.
</event>
<event>
 5   0  0.2331375E-05  0.2505957E+04  0.7818609E-02  0.8400866E-01
       -3   -1    0    0    0  501  0.00000000000E+00  0.00000000000E+00  0.11048266441E+04  0.11048266487E+04  0.10100000352E+00 0.  1.
        3   -1    0    0  501    0  0.00000000000E+00  0.00000000000E+00 -0.14209966778E+04  0.14209966813E+04  0.10100000352E+00 0. -1.
    10030    2    1    2    0    0  0.00000000000E+00  0.00000000000E+00 -0.31617003365E+03  0.25258233301E+04  0.25059569040E+04 0.  0.
        4    1    3    3  502    0 -0.75470941701E+03 -0.71120859607E+03  0.55073213744E+03  0.11741854502E+04  0.12699999809E+01 0.  1.
       -4    1    3    3    0  502  0.75470941701E+03  0.71120859607E+03 -0.86690217110E+03  0.13516378799E+04  0.12699999809E+01 0. -1.
</event>
<event>
 5   0  0.6827859E-05  0.2526934E+04  0.7818609E-02  0.8393452E-01
       -2   -1    0    0    0  501  0.00000000000E+00  0.00000000000E+00  0.93821273300E+03  0.93821273300E+03  0.25500000920E-02 0. -1.
        2   -1    0    0  501    0  0.00000000000E+00  0.00000000000E+00 -0.17014789981E+04  0.17014789981E+04  0.25500000920E-02 0.  1.
    10030    2    1    2    0    0  0.00000000000E+00  0.00000000000E+00 -0.76326626512E+03  0.26396917311E+04  0.25269343173E+04 0.  0.
        3    1    3    3  502    0 -0.94158754295E+03 -0.73860411179E+03  0.41698156633E+02  0.11974397193E+04  0.10100000352E+00 0. -1.
       -3    1    3    3    0  502  0.94158754295E+03  0.73860411179E+03 -0.80496442175E+03  0.14422520118E+04  0.10100000352E+00 0.  1.
</event>
<event>
 5   0  0.2980790E-05  0.2477994E+04  0.7818609E-02  0.8410868E-01
       -1   -1    0    0    0  501  0.00000000000E+00  0.00000000000E+00  0.61575527243E+03  0.61575527245E+03  0.50400001928E-02 0. -1.
        1   -1    0    0  501    0  0.00000000000E+00  0.00000000000E+00 -0.24930572212E+04  0.24930572212E+04  0.50400001928E-02 0.  1.
    10030    2    1    2    0    0  0.00000000000E+00  0.00000000000E+00 -0.18773019488E+04  0.31088124937E+04  0.24779936469E+04 0.  0.
        5    1    3    3  502    0  0.86080945659E+03 -0.77627940941E+03 -0.14876424122E+04  0.18859227658E+04  0.46999998093E+01 0.  1.
       -5    1    3    3    0  502 -0.86080945659E+03  0.77627940941E+03 -0.38965953658E+03  0.12228897279E+04  0.46999998093E+01 0. -1.
</event>
<event>
 5   0  0.2980790E-05  0.2490997E+04  0.7818609E-02  0.8406200E-01
        1   -1    0    0  501    0  0.00000000000E+00  0.00000000000E+00  0.11277291092E+04  0.11277291092E+04  0.50400001928E-02 0.  1.
       -1   -1    0    0    0  501  0.00000000000E+00  0.00000000000E+00 -0.13755664770E+04  0.13755664770E+04  0.50400001928E-02 0. -1.
    10030    2    1    2    0    0  0.00000000000E+00  0.00000000000E+00 -0.24783736779E+03  0.25032955862E+04  0.24909968750E+04 0.  0.
        5    1    3    3  502    0  0.12062517047E+03 -0.22958060321E+03 -0.13481230895E+04  0.13728494599E+04  0.46999998093E+01 0. -1.
       -5    1    3    3    0  502 -0.12062517047E+03  0.22958060321E+03  0.11002857217E+04  0.11304461263E+04  0.46999998093E+01 0.  1.
</event>
<event>
 5   0  0.6827859E-05  0.2471083E+04  0.7818609E-02  0.8413360E-01
        2   -1    0    0  501    0  0.00000000000E+00  0.00000000000E+00  0.11843627642E+04  0.11843627642E+04  0.25500000920E-02 0. -1.
       -2   -1    0    0    0  501  0.00000000000E+00  0.00000000000E+00 -0.12889314718E+04  0.12889314718E+04  0.25500000920E-02 0.  1.
    10030    2    1    2    0    0  0.00000000000E+00  0.00000000000E+00 -0.10456870752E+03  0.24732942360E+04  0.24710827107E+04 0.  0.
        3    1    3    3  502    0  0.87432495031E+03  0.67560640120E+02 -0.92343901426E+03  0.12734787717E+04  0.10100000352E+00 0.  1.
       -3    1    3    3    0  502 -0.87432495031E+03 -0.67560640120E+02  0.81887030674E+03  0.11998154643E+04  0.10100000352E+00 0. -1.
</event>
<event>
 5   0  0.6445331E-05  0.1465321E+04  0.7818609E-02  0.8907847E-01
        2   -1    0    0  501    0  0.00000000000E+00  0.00000000000E+00  0.79828906071E+03  0.79828906071E+03  0.25500000920E-02 0.  1.
       -2   -1    0    0    0  501  0.00000000000E+00  0.00000000000E+00 -0.67242726979E+03  0.67242726979E+03  0.25500000920E-02 0. -1.
    10030    2    1    2    0    0  0.00000000000E+00  0.00000000000E+00  0.12586179092E+03  0.14707163305E+04  0.14653208981E+04 0.  0.
        1    1    3    3  502    0 -0.40892701360E+03 -0.17008069482E+03 -0.52286408141E+03  0.68522667261E+03  0.50400001928E-02 0. -1.
       -1    1    3    3    0  502  0.40892701360E+03  0.17008069482E+03  0.64872587233E+03  0.78548965789E+03  0.50400001928E-02 0.  1.
</event>
<event>
 5   0  0.6909250E-05  0.2484911E+04  0.7818609E-02  0.8408381E-01
        2   -1    0    0  501    0  0.00000000000E+00  0.00000000000E+00  0.12624296030E+04  0.12624296030E+04  0.25500000920E-02 0. -1.
       -2   -1    0    0    0  501  0.00000000000E+00  0.00000000000E+00 -0.12227976508E+04  0.12227976508E+04  0.25500000920E-02 0.  1.
    10030    2    1    2    0    0  0.00000000000E+00  0.00000000000E+00  0.39631952227E+02  0.24852272538E+04  0.24849112281E+04 0.  0.
        4    1    3    3  502    0 -0.57518418457E+03  0.94562424650E+02  0.11171863256E+04  0.12601134065E+04  0.12699999809E+01 0. -1.
       -4    1    3    3    0  502  0.57518418457E+03 -0.94562424650E+02 -0.10775543734E+04  0.12251138473E+04  0.12699999809E+01 0.  1.
</event>
<event>
 5   0  0.2793920E-05  0.2471572E+04  0.7818609E-02  0.8413184E-01
       -1   -1    0    0    0  501  0.00000000000E+00  0.00000000000E+00  0.16203185046E+04  0.16203185046E+04  0.50400001928E-02 0.  1.
        1   -1    0    0  501    0  0.00000000000E+00  0.00000000000E+00 -0.94251010565E+03  0.94251010566E+03  0.50400001928E-02 0. -1.
    10030    2    1    2    0    0  0.00000000000E+00  0.00000000000E+00  0.67780839898E+03  0.25628286103E+04  0.24715716174E+04 0.  0.
        2    1    3    3  502    0  0.91016768932E+03  0.55880101006E+03  0.98355224706E+03  0.14519086797E+04  0.25500000920E-02 0.  1.
       -2    1    3    3    0  502 -0.91016768932E+03 -0.55880101006E+03 -0.30574384807E+03  0.11109199306E+04  0.25500000920E-02 0. -1.
</event>
<event>
 5   0  0.7071821E-05  0.1681140E+04  0.7818609E-02  0.8772195E-01
       -2   -1    0    0    0  501  0.00000000000E+00  0.00000000000E+00  0.40344515770E+03  0.40344515770E+03  0.25500000920E-02 0.  1.
        2   -1    0    0  501    0  0.00000000000E+00  0.00000000000E+00 -0.17513108050E+04  0.17513108050E+04  0.25500000920E-02 0. -1.
    10030    2    1    2    0    0  0.00000000000E+00  0.00000000000E+00 -0.13478656473E+04  0.21547559627E+04  0.16811399274E+04 0.  0.
        5    1    3    3  502    0 -0.49936283722E+03  0.58495354284E+03 -0.11085898503E+04  0.13492692232E+04  0.46999998093E+01 0. -1.
       -5    1    3    3    0  502  0.49936283722E+03 -0.58495354284E+03 -0.23927579699E+03  0.80548673950E+03  0.46999998093E+01 0.  1.
</event>
<event>
 5   0  0.2896652E-05  0.2737458E+04  0.7818609E-02  0.8322952E-01
       -1   -1    0    0    0  501  0.00000000000E+00  0.00000000000E+00  0.86765626334E+03  0.86765626335E+03  0.50400001928E-02 0. -1.
        1   -1    0    0  501    0  0.00000000000E+00  0.00000000000E+00 -0.21591722542E+04  0.21591722543E+04  0.50400001928E-02 0.  1.
    10030    2    1    2    0    0  0.00000000000E+00  0.00000000000E+00 -0.12915159909E+04  0.30268285176E+04  0.27374581860E+04 0.  0.
        4    1    3    3  502    0 -0.12583674768E+04 -0.52979586082E+03 -0.75207485769E+03  0.15587785491E+04  0.12699999809E+01 0.  1.
       -4    1    3    3    0  502  0.12583674768E+04  0.52979586082E+03 -0.53944113322E+03  0.14680499685E+04  0.12699999809E+01 0. -1.
</event>
<event>
 5   0  0.6445331E-05  0.2464629E+04  0.7818609E-02  0.8415696E-01
       -2   -1    0    0    0  501  0.00000000000E+00  0.00000000000E+00  0.89772992097E+03  0.89772992098E+03  0.25500000920E-02 0.  1.
        2   -1    0    0  501    0  0.00000000000E+00  0.00000000000E+00 -0.16915991447E+04  0.16915991448E+04  0.25500000920E-02 0. -1.
    10030    2    1    2    0    0  0.00000000000E+00  0.00000000000E+00 -0.79386922378E+03  0.25893290657E+04  0.24646291133E+04 0.  0.
        1    1    3    3  502    0  0.54690681557E+03 -0.74002979697E+03  0.46420028063E+03  0.10306469162E+04  0.50400001928E-02 0.  1.
       -1    1    3    3    0  502 -0.54690681557E+03  0.74002979697E+03 -0.12580695044E+04  0.15586821495E+04  0.50400001928E-02 0. -1.
</event>
<event>
 5   0  0.7071821E-05  0.2513703E+04  0.7818609E-02  0.8398120E-01
        2   -1    0    0  501    0  0.00000000000E+00  0.00000000000E+00  0.13130521453E+04  0.13130521453E+04  0.25500000920E-02 0.  1.
       -2   -1    0    0    0  501  0.00000000000E+00  0.00000000000E+00 -0.12030559049E+04  0.12030559049E+04  0.25500000920E-02 0. -1.
    10030    2    1    2    0    0  0.00000000000E+00  0.00000000000E+00  0.10999624043E+03  0.25161080501E+04  0.25137025574E+04 0.  0.
        5    1    3    3  502    0  0.44881681633E+03 -0.31417334073E+03 -0.10772393365E+04  0.12085562050E+04  0.46999998093E+01 0. -1.
       -5    1    3    3    0  502 -0.44881681633E+03  0.31417334073E+03  0.11872355769E+04  0.13075518451E+04  0.46999998093E+01 0.  1.
</event>
<event>
 5   0  0.6648328E-05  0.2517083E+04  0.7818609E-02  0.8396925E-01
       -2   -1    0    0    0  501  0.00000000000E+00  0.00000000000E+00  0.11567669820E+04  0.11567669820E+04  0.25500000920E-02 0.  1.
        2   -1    0    0  501    0  0.00000000000E+00  0.00000000000E+00 -0.13692704511E+04  0.13692704512E+04  0.25500000920E-02 0. -1.
    10030    2    1    2    0    0  0.00000000000E+00  0.00000000000E+00 -0.21250346916E+03  0.25260374331E+04  0.25170831113E+04 0.  0.
        2    1    3    3  502    0  0.52231927836E+03 -0.73709768186E+03 -0.98560882447E+03  0.13369948302E+04  0.25500000920E-02 0. -1.
       -2    1    3    3    0  502 -0.52231927836E+03  0.73709768186E+03  0.77310535531E+03  0.11890426029E+04  0.25500000920E-02 0.  1.
</event>
<event>
 5   0  0.2977854E-05  0.2342788E+04  0.7818609E-02  0.8461239E-01
       -1   -1    0    0    0  501  0.00000000000E+00  0.00000000000E+00  0.13057394483E+04  0.13057394483E+04  0.50400001928E-02 0. -1.
        1   -1    0    0  501    0  0.00000000000E+00  0.00000000000E+00 -0.10508713533E+04  0.10508713533E+04  0.50400001928E-02 0.  1.
    10030    2    1    2    0    0  0.00000000000E+00  0.00000000000E+00  0.25486809497E+03  0.23566108016E+04  0.23427882372E+04 0.  0.
        1    1    3    3  502    0  0.30964970755E+03 -0.24947852951E+03 -0.98090244229E+03  0.10584385100E+04  0.50400001928E-02 0.  1.
       -1    1    3    3    0  502 -0.30964970755E+03  0.24947852951E+03  0.12357705373E+04  0.12981722917E+04  0.50400001928E-02 0. -1.
</event>
<event>
 5   0  0.2896652E-05  0.2446268E+04  0.7818609E-02  0.8422382E-01
        1   -1    0    0  501    0  0.00000000000E+00  0.00000000000E+00  0.16674911894E+04  0.16674911894E+04  0.50400001928E-02 0. -1.
       -1   -1    0    0    0  501  0.00000000000E+00  0.00000000000E+00 -0.89719046722E+03  0.89719046723E+03  0.50400001928E-02 0.  1.
    10030    2    1    2    0    0  0.00000000000E+00  0.00000000000E+00  0.77030072216E+03  0.25646816566E+04  0.24462683412E+04 0.  0.
        4    1    3    3  502    0 -0.61466021562E+03 -0.62567273390E+03  0.12789320703E+04  0.15507876721E+04  0.12699999809E+01 0. -1.
       -4    1    3    3    0  502  0.61466021562E+03  0.62567273390E+03 -0.50863134815E+03  0.10138939845E+04  0.12699999809E+01 0.  1.
</event>
<event>
 5   0  0.6648328E-05  0.2520931E+04  0.7818609E-02  0.8395567E-01
        2   -1    0    0  501    0  0.00000000000E+00  0.00000000000E+00  0.22642334905E+04  0.22642334905E+04  0.25500000920E-02 0. -1.
       -2   -1    0    0    0  501  0.00000000000E+00  0.00000000000E+00 -0.70168251756E+03  0.70168251757E+03  0.25500000920E-02 0.  1.
    10030    2    1    2    0    0  0.00000000000E+00  0.00000000000E+00  0.15625509729E+04  0.29659160080E+04  0.25209308249E+04 0.  0.
        2    1    3    3  502    0 -0.11001107052E+04 -0.21992005761E+03  0.14573011958E+04  0.18391126041E+04  0.25500000920E-02 0. -1.
       -2    1    3    3    0  502  0.11001107052E+04  0.21992005761E+03  0.10524977714E+03  0.11268034039E+04  0.25500000920E-02 0.  1.
</event>
<event>
 5   0  0.7071821E-05  0.2482023E+04  0.7818609E-02  0.8409418E-01
       -2   -1    0    0    0  501  0.00000000000E+00  0.00000000000E+00  0.12694747797E+04  0.12694747797E+04  0.25500000920E-02 0. -1.
        2   -1    0    0  501    0  0.00000000000E+00  0.00000000000E+00 -0.12131864209E+04  0.12131864209E+04  0.25500000920E-02 0.  1.
    10030    2    1    2    0    0  0.00000000000E+00  0.00000000000E+00  0.56288358812E+02  0.24826612006E+04  0.24820230172E+04 0.  0.
        5    1    3    3  502    0  0.10848332201E+03 -0.16377766375E+03  0.12538145900E+04  0.12691197227E+04  0.46999998093E+01 0. -1.
       -5    1    3    3    0  502 -0.10848332201E+03  0.16377766375E+03 -0.11975262312E+04  0.12135414780E+04  0.46999998093E+01 0.  1.
</event>
<event>
 5   0  0.2896652E-05  0.2432224E+04  0.7818609E-02  0.8427537E-01
        1   -1    0    0  501    0  0.00000000000E+00  0.00000000000E+00  0.13450856678E+04  0.13450856678E+04  0.50400001928E-02 0. -1.
       -1   -1    0    0    0  501  0.00000000000E+00  0.00000000000E+00 -0.10995047333E+04  0.10995047334E+04  0.50400001928E-02 0.  1.
    10030    2    1    2    0    0  0.00000000000E+00  0.00000000000E+00  0.24558093449E+03  0.24445904012E+04  0.24322237221E+04 0.  0.
        4    1    3    3  502    0  0.55612300522E+03 -0.10630082952E+03 -0.95895028909E+03  0.11136246823E+04  0.12699999809E+01 0.  1.
       -4    1    3    3    0  502 -0.55612300522E+03  0.10630082952E+03  0.12045312236E+04  0.13309657189E+04  0.12699999809E+01 0. -1.
</event>
<event>
 5   0  0.2793920E-05  0.2406272E+04  0.7818609E-02  0.8437159E-01
        1   -1    0    0  501    0  0.00000000000E+00  0.00000000000E+00  0.90634814498E+03  0.90634814500E+03  0.50400001928E-02 0.  1.
       -1   -1    0    0    0  501  0.00000000000E+00  0.00000000000E+00 -0.15971079551E+04  0.15971079551E+04  0.50400001928E-02 0. -1.
    10030    2    1    2    0    0  0.00000000000E+00  0.00000000000E+00 -0.69075981012E+03  0.25034561001E+04  0.24062716659E+04 0.  0.
        2    1    3    3  502    0  0.42210000159E+03 -0.11259869167E+04 -0.30480631349E+03  0.12405328841E+04  0.25500000920E-02 0.  1.
       -2    1    3    3    0  502 -0.42210000159E+03  0.11259869167E+04 -0.38595349663E+03  0.12629232160E+04  0.25500000920E-02 0. -1.
</event>
<event>
 5   0  0.6909250E-05  0.2360931E+04  0.7818609E-02  0.8454277E-01
       -2   -1    0    0    0  501  0.00000000000E+00  0.00000000000E+00  0.13222476331E+04  0.13222476331E+04  0.25500000920E-02 0.  1.
        2   -1    0    0  501    0  0.00000000000E+00  0.00000000000E+00 -0.10538865290E+04  0.10538865290E+04  0.25500000920E-02 0. -1.
    10030    2    1    2    0    0  0.00000000000E+00  0.00000000000E+00  0.26836110409E+03  0.23761341621E+04  0.23609311455E+04 0.  0.
        4    1    3    3  502    0 -0.44659078719E+03  0.10923919393E+04  0.10691597208E+03  0.11849878135E+04  0.12699999809E+01 0.  1.
       -4    1    3    3    0  502  0.44659078719E+03 -0.10923919393E+04  0.16144513201E+03  0.11911463486E+04  0.12699999809E+01 0. -1.
</event>
<event>
 5   0  0.2331375E-05  0.2412570E+04  0.7818609E-02  0.8434813E-01
       -3   -1    0    0    0  501  0.00000000000E+00  0.00000000000E+00  0.33996558230E+04  0.33996558245E+04  0.10100000352E+00 0.  1.
        3   -1    0    0  501    0  0.00000000000E+00  0.00000000000E+00 -0.42802069956E+03  0.42802071148E+03  0.10100000352E+00 0. -1.
    10030    2    1    2    0    0  0.00000000000E+00  0.00000000000E+00  0.29716351235E+04  0.38276765360E+04  0.24125696585E+04 0.  0.
        2    1    3    3  502    0  0.10526331781E+04 -0.54983868434E+03  0.18214928269E+04  0.21744413777E+04  0.25500000920E-02 0.  1.
       -2    1    3    3    0  502 -0.10526331781E+04  0.54983868434E+03  0.11501422965E+04  0.16532351583E+04  0.25500000920E-02 0. -1.
</event>
<event>
 5   0  0.6909250E-05  0.2506267E+04  0.7818609E-02  0.8400756E-01
       -2   -1    0    0    0  501  0.00000000000E+00  0.00000000000E+00  0.12705387535E+04  0.12705387535E+04  0.25500000920E-02 0. -1.
        2   -1    0    0  501    0  0.00000000000E+00  0.00000000000E+00 -0.12359670638E+04  0.12359670638E+04  0.25500000920E-02 0.  1.
    10030    2    1    2    0    0  0.00000000000E+00  0.00000000000E+00  0.34571689781E+02  0.25065058173E+04  0.25062673861E+04 0.  0.
        4    1    3    3  502    0  0.83188274258E+03 -0.90280786305E+03 -0.23423659946E+03  0.12497837143E+04  0.12699999809E+01 0.  1.
       -4    1    3    3    0  502 -0.83188274258E+03  0.90280786305E+03  0.26880828924E+03  0.12567221030E+04  0.12699999809E+01 0. -1.
</event>
<event>
 5   0  0.6909250E-05  0.2534072E+04  0.7818609E-02  0.8390947E-01
        2   -1    0    0  501    0  0.00000000000E+00  0.00000000000E+00  0.14582387630E+04  0.14582387630E+04  0.25500000920E-02 0.  1.
       -2   -1    0    0    0  501  0.00000000000E+00  0.00000000000E+00 -0.11009039154E+04  0.11009039154E+04  0.25500000920E-02 0. -1.
    10030    2    1    2    0    0  0.00000000000E+00  0.00000000000E+00  0.35733484759E+03  0.25591426783E+04  0.25340724249E+04 0.  0.
        4    1    3    3  502    0 -0.48894362054E+03  0.10722513561E+04 -0.29132947679E+03  0.12139453496E+04  0.12699999809E+01 0.  1.
       -4    1    3    3    0  502  0.48894362054E+03 -0.10722513561E+04  0.64866432438E+03  0.13451973288E+04  0.12699999809E+01 0. -1.
</event>
<event>
 5   0  0.6827859E-05  0.2433011E+04  0.7818609E-02  0.8427247E-01
        2   -1    0    0  501    0  0.00000000000E+00  0.00000000000E+00  0.17957527558E+04  0.17957527558E+04  0.25500000920E-02 0.  1.
       -2   -1    0    0    0  501  0.00000000000E+00  0.00000000000E+00 -0.82410331580E+03  0.82410331580E+03  0.25500000920E-02 0. -1.
    10030    2    1    2    0    0  0.00000000000E+00  0.00000000000E+00  0.97164944000E+03  0.26198560716E+04  0.24330111388E+04 0.  0.
        3    1    3    3  502    0 -0.61310345058E+03 -0.83886730541E+03 -0.19544889614E+03  0.10572579999E+04  0.10100000352E+00 0. -1.
       -3    1    3    3    0  502  0.61310345058E+03  0.83886730541E+03  0.11670983361E+04  0.15625980717E+04  0.10100000352E+00 0.  1.
</event>
<event>
 5   0  0.2793920E-05  0.2427306E+04  0.7818609E-02  0.8429351E-01
        1   -1    0    0  501    0  0.00000000000E+00  0.00000000000E+00  0.21069067184E+04  0.21069067184E+04  0.50400001928E-02 0. -1.
       -1   -1    0    0    0  501  0.00000000000E+00  0.00000000000E+00 -0.69910697989E+03  0.69910697991E+03  0.50400001928E-02 0.  1.
    10030    2    1    2    0    0  0.00000000000E+00  0.00000000000E+00  0.14077997385E+04  0.28060136983E+04  0.24273056609E+04 0.  0.
        2    1    3    3  502    0 -0.78577359579E+02  0.10128354681E+04 -0.63738362743E+02  0.10178765474E+04  0.25500000920E-02 0.  1.
       -2    1    3    3    0  502  0.78577359579E+02 -0.10128354681E+04  0.14715381012E+04  0.17881371508E+04  0.25500000920E-02 0. -1.
</event>
<event>
 5   0  0.2977854E-05  0.2485543E+04  0.7818609E-02  0.8408154E-01
        1   -1    0    0  501    0  0.00000000000E+00  0.00000000000E+00  0.15718873764E+04  0.15718873764E+04  0.50400001928E-02 0.  1.
       -1   -1    0    0    0  501  0.00000000000E+00  0.00000000000E+00 -0.98256468186E+03  0.98256468187E+03  0.50400001928E-02 0. -1.
    10030    2    1    2    0    0  0.00000000000E+00  0.00000000000E+00  0.58932269452E+03  0.25544520583E+04  0.24855430150E+04 0.  0.
        1    1    3    3  502    0 -0.65011934744E+03 -0.75661917260E+03  0.10563935821E+04  0.14529608180E+04  0.50400001928E-02 0.  1.
       -1    1    3    3    0  502  0.65011934744E+03  0.75661917260E+03 -0.46707088762E+03  0.11014912402E+04  0.50400001928E-02 0. -1.
</event>
<event>
 5   0  0.2980790E-05  0.2354677E+04  0.7818609E-02  0.8456669E-01
       -1   -1    0    0    0  501  0.00000000000E+00  0.00000000000E+00  0.72947120407E+03  0.72947120409E+03  0.50400001928E-02 0. -1.
        1   -1    0    0  501    0  0.00000000000E+00  0.00000000000E+00 -0.19001796153E+04  0.19001796153E+04  0.50400001928E-02 0.  1.
    10030    2    1    2    0    0  0.00000000000E+00  0.00000000000E+00 -0.11707084112E+04  0.26296508194E+04  0.23546773129E+04 0.  0.
        5    1    3    3  502    0 -0.99948334244E+03 -0.52490918183E+03 -0.21226420444E+03  0.11487274627E+04  0.46999998093E+01 0. -1.
       -5    1    3    3    0  502  0.99948334244E+03  0.52490918183E+03 -0.95844420676E+03  0.14809233567E+04  0.46999998093E+01 0.  1.
</event>
<event>
 5   0  0.6445331E-05  0.2420755E+04  0.7818609E-02  0.8431774E-01
       -2   -1    0    0    0  501  0.00000000000E+00  0.00000000000E+00  0.12047623786E+04  0.12047623786E+04  0.25500000920E-02 0.  1.
        2   -1    0    0  501    0  0.00000000000E+00  0.00000000000E+00 -0.12160187350E+04  0.12160187350E+04  0.25500000920E-02 0. -1.
    10030    2    1    2    0    0  0.00000000000E+00  0.00000000000E+00 -0.11256356409E+02  0.24207811136E+04  0.24207549430E+04 0.  0.
        1    1    3    3  502    0 -0.32872709219E+03 -0.89497929076E+03  0.74000994615E+03  0.12069234244E+04  0.50400001928E-02 0.  1.
       -1    1    3    3    0  502  0.32872709219E+03  0.89497929076E+03 -0.75126630256E+03  0.12138576891E+04  0.50400001928E-02 0. -1.
</event>
<event>
 5   0  0.7071821E-05  0.2519416E+04  0.7818609E-02  0.8396101E-01
        2   -1    0    0  501    0  0.00000000000E+00  0.00000000000E+00  0.20375784853E+04  0.20375784853E+04  0.25500000920E-02 0. -1.
       -2   -1    0    0    0  501  0.00000000000E+00  0.00000000000E+00 -0.77879933440E+03  0.77879933440E+03  0.25500000920E-02 0.  1.
    10030    2    1    2    0    0  0.00000000000E+00  0.00000000000E+00  0.12587791509E+04  0.28163778197E+04  0.25194164151E+04 0.  0.
        5    1    3    3  502    0 -0.12094119187E+04  0.19226162028E+03  0.95949418563E+03  0.15557290581E+04  0.46999998093E+01 0. -1.
       -5    1    3    3    0  502  0.12094119187E+04 -0.19226162028E+03  0.29928496530E+03  0.12606487617E+04  0.46999998093E+01 0.  1.
</event>
<event>
 5   0  0.6909250E-05  0.2297044E+04  0.7818609E-02  0.8479088E-01
        2   -1    0    0  501    0  0.00000000000E+00  0.00000000000E+00  0.14387684824E+04  0.14387684824E+04  0.25500000920E-02 0. -1.
       -2   -1    0    0    0  501  0.00000000000E+00  0.00000000000E+00 -0.91682761155E+03  0.91682761155E+03  0.25500000920E-02 0.  1.
    10030    2    1    2    0    0  0.00000000000E+00  0.00000000000E+00  0.52194087083E+03  0.23555960939E+04  0.22970439014E+04 0.  0.
        4    1    3    3  502    0 -0.14012739478E+02  0.36704584017E+03 -0.85496936536E+03  0.93053384369E+03  0.12699999809E+01 0.  1.
       -4    1    3    3    0  502  0.14012739478E+02 -0.36704584017E+03  0.13769102362E+04  0.14250622502E+04  0.12699999809E+01 0. -1.
</event>
<event>
 5   0  0.2980790E-05  0.2342838E+04  0.7818609E-02  0.8461219E-01
       -1   -1    0    0    0  501  0.00000000000E+00  0.00000000000E+00  0.84361506276E+03  0.84361506277E+03  0.50400001928E-02 0. -1.
        1   -1    0    0  501    0  0.00000000000E+00  0.00000000000E+00 -0.16265984649E+04  0.16265984649E+04  0.50400001928E-02 0.  1.
    10030    2    1    2    0    0  0.00000000000E+00  0.00000000000E+00 -0.78298340212E+03  0.24702135277E+04  0.23428384204E+04 0.  0.
        5    1    3    3  502    0  0.11709140516E+04 -0.17481240455E+01 -0.42737281607E+03  0.12464799982E+04  0.46999998093E+01 0.  1.
       -5    1    3    3    0  502 -0.11709140516E+04  0.17481240455E+01 -0.35561058605E+03  0.12237335294E+04  0.46999998093E+01 0. -1.
</event>
<event>
 5   0  0.2977854E-05  0.2548630E+04  0.7818609E-02  0.8385863E-01
        1   -1    0    0  501    0  0.00000000000E+00  0.00000000000E+00  0.12885971301E+04  0.12885971301E+04  0.50400001928E-02 0. -1.
       -1   -1    0    0    0  501  0.00000000000E+00  0.00000000000E+00 -0.12601906931E+04  0.12601906931E+04  0.50400001928E-02 0.  1.
    10030    2    1    2    0    0  0.00000000000E+00  0.00000000000E+00  0.28406437018E+02  0.25487878233E+04  0.25486295224E+04 0.  0.
        1    1    3    3  502    0 -0.42189724401E+03 -0.83147764274E+03 -0.85448515429E+03  0.12647123127E+04  0.50400001928E-02 0.  1.
       -1    1    3    3    0  502  0.42189724401E+03  0.83147764274E+03  0.88289159130E+03  0.12840755106E+04  0.50400001928E-02 0. -1.
</event>
<event>
 5   0  0.2793920E-05  0.2298202E+04  0.7818609E-02  0.8478631E-01
       -1   -1    0    0    0  501  0.00000000000E+00  0.00000000000E+00  0.13312732699E+04  0.13312732699E+04  0.50400001928E-02 0. -1.
        1   -1    0    0  501    0  0.00000000000E+00  0.00000000000E+00 -0.99185691201E+03  0.99185691202E+03  0.50400001928E-02 0.  1.
    10030    2    1    2    0    0  0.00000000000E+00  0.00000000000E+00  0.33941635789E+03  0.23231301819E+04  0.22982015530E+04 0.  0.
        2    1    3    3  502    0  0.10270457974E+03 -0.79984816859E+02  0.13237957156E+04  0.13301807766E+04  0.25500000920E-02 0. -1.
       -2    1    3    3    0  502 -0.10270457974E+03  0.79984816859E+02 -0.98437935775E+03  0.99294940535E+03  0.25500000920E-02 0.  1.
</event>
<event>
 5   0  0.2793920E-05  0.2357212E+04  0.7818609E-02  0.8455699E-01
        1   -1    0    0  501    0  0.00000000000E+00  0.00000000000E+00  0.15583540310E+04  0.15583540310E+04  0.50400001928E-02 0.  1.
       -1   -1    0    0    0  501  0.00000000000E+00  0.00000000000E+00 -0.89139662466E+03  0.89139662467E+03  0.50400001928E-02 0. -1.
    10030    2    1    2    0    0  0.00000000000E+00  0.00000000000E+00  0.66695740638E+03  0.24497506557E+04  0.23572115080E+04 0.  0.
        2    1    3    3  502    0  0.72215622378E+03  0.76992886169E+03  0.87828328257E+03  0.13732012191E+04  0.25500000920E-02 0.  1.
       -2    1    3    3    0  502 -0.72215622378E+03 -0.76992886169E+03 -0.21132587618E+03  0.10765494367E+04  0.25500000920E-02 0. -1.
</event>
<event>
 5   0  0.2980790E-05  0.2423570E+04  0.7818609E-02  0.8430732E-01
        1   -1    0    0  501    0  0.00000000000E+00  0.00000000000E+00  0.18115597270E+04  0.18115597270E+04  0.50400001928E-02 0. -1.
       -1   -1    0    0    0  501  0.00000000000E+00  0.00000000000E+00 -0.81058502319E+03  0.81058502320E+03  0.50400001928E-02 0.  1.
    10030    2    1    2    0    0  0.00000000000E+00  0.00000000000E+00  0.10009747038E+04  0.26221447502E+04  0.24235702452E+04 0.  0.
        5    1    3    3  502    0  0.11738558908E+04  0.34803976885E+02  0.82371636113E+03  0.14344614678E+04  0.46999998093E+01 0.  1.
       -5    1    3    3    0  502 -0.11738558908E+04 -0.34803976885E+02  0.17725834267E+03  0.11876832824E+04  0.46999998093E+01 0. -1.
</event>
<event>
 5   0  0.6445331E-05  0.2489933E+04  0.7818609E-02  0.8406581E-01
       -2   -1    0    0    0  501  0.00000000000E+00  0.00000000000E+00  0.68922360492E+03  0.68922360492E+03  0.25500000920E-02 0.  1.
        2   -1    0    0  501    0  0.00000000000E+00  0.00000000000E+00 -0.22488221150E+04  0.22488221150E+04  0.25500000920E-02 0. -1.
    10030    2    1    2    0    0  0.00000000000E+00  0.00000000000E+00 -0.15595985100E+04  0.29380457199E+04  0.24899327581E+04 0.  0.
        1    1    3    3  502    0  0.11612899636E+04 -0.44870612774E+03 -0.77612116230E+03  0.14670704234E+04  0.50400001928E-02 0.  1.
       -1    1    3    3    0  502 -0.11612899636E+04  0.44870612774E+03 -0.78347734774E+03  0.14709752965E+04  0.50400001928E-02 0. -1.
</event>
<event>
 5   0  0.2793920E-05  0.2489437E+04  0.7818609E-02  0.8406758E-01
        1   -1    0    0  501    0  0.00000000000E+00  0.00000000000E+00  0.13217065206E+04  0.13217065206E+04  0.50400001928E-02 0.  1.
       -1   -1    0    0    0  501  0.00000000000E+00  0.00000000000E+00 -0.11722149371E+04  0.11722149372E+04  0.50400001928E-02 0. -1.
    10030    2    1    2    0    0  0.00000000000E+00  0.00000000000E+00  0.14949158346E+03  0.24939214578E+04  0.24894369853E+04 0.  0.
        2    1    3    3  502    0 -0.20763722390E+03  0.47587824708E+03  0.12080443591E+04  0.13148933403E+04  0.25500000920E-02 0.  1.
       -2    1    3    3    0  502  0.20763722390E+03 -0.47587824708E+03 -0.10585527757E+04  0.11790281174E+04  0.25500000920E-02 0. -1.
</event>
<event>
 5   0  0.2977854E-05  0.2417093E+04  0.7818609E-02  0.8433132E-01
        1   -1    0    0  501    0  0.00000000000E+00  0.00000000000E+00  0.16568688270E+04  0.16568688270E+04  0.50400001928E-02 0.  1.
       -1   -1    0    0    0  501  0.00000000000E+00  0.00000000000E+00 -0.88153309444E+03  0.88153309445E+03  0.50400001928E-02 0. -1.
    10030    2    1    2    0    0  0.00000000000E+00  0.00000000000E+00  0.77533573260E+03  0.25384019215E+04  0.24170930509E+04 0.  0.
        1    1    3    3  502    0 -0.11874060179E+04 -0.12629194427E+03  0.19203390209E+03  0.12094460411E+04  0.50400001928E-02 0. -1.
       -1    1    3    3    0  502  0.11874060179E+04  0.12629194427E+03  0.58330183050E+03  0.13289558804E+04  0.50400001928E-02 0.  1.
</event>
<event>
 5   0  0.6909250E-05  0.2500578E+04  0.7818609E-02  0.8402780E-01
       -2   -1    0    0    0  501  0.00000000000E+00  0.00000000000E+00  0.13418063302E+04  0.13418063302E+04  0.25500000920E-02 0.  1.
        2   -1    0    0  501    0  0.00000000000E+00  0.00000000000E+00 -0.11650136712E+04  0.11650136712E+04  0.25500000920E-02 0. -1.
    10030    2    1    2    0    0  0.00000000000E+00  0.00000000000E+00  0.17679265898E+03  0.25068200015E+04  0.25005781082E+04 0.  0.
        4    1    3    3  502    0 -0.26790730986E+03  0.62355601224E+03  0.11410768360E+04  0.13276499484E+04  0.12699999809E+01 0.  1.
       -4    1    3    3    0  502  0.26790730986E+03 -0.62355601224E+03 -0.96428417699E+03  0.11791700530E+04  0.12699999809E+01 0. -1.
</event>
<event>
 5   0  0.2980790E-05  0.2514202E+04  0.7818609E-02  0.8397943E-01
        1   -1    0    0  501    0  0.00000000000E+00  0.00000000000E+00  0.18212104902E+04  0.18212104902E+04  0.50400001928E-02 0.  1.
       -1   -1    0    0    0  501  0.00000000000E+00  0.00000000000E+00 -0.86772137397E+03  0.86772137398E+03  0.50400001928E-02 0. -1.
    10030    2    1    2    0    0  0.00000000000E+00  0.00000000000E+00  0.95348911625E+03  0.26889318642E+04  0.25142022742E+04 0.  0.
        5    1    3    3  502    0  0.91254143531E+02 -0.10208846454E+04  0.12551653185E+04  0.16204921612E+04  0.46999998093E+01 0.  1.
       -5    1    3    3    0  502 -0.91254143531E+02  0.10208846454E+04 -0.30167620225E+03  0.10684397030E+04  0.46999998093E+01 0. -1.
</event>
<event>
 5   0  0.2980790E-05  0.2422881E+04  0.7818609E-02  0.8430987E-01
        1   -1    0    0  501    0  0.00000000000E+00  0.00000000000E+00  0.18473264417E+04  0.18473264417E+04  0.50400001928E-02 0.  1.
       -1   -1    0    0    0  501  0.00000000000E+00  0.00000000000E+00 -0.79443877760E+03  0.79443877762E+03  0.50400001928E-02 0. -1.
    10030    2    1    2    0    0  0.00000000000E+00  0.00000000000E+00  0.10528876641E+04  0.26417652194E+04  0.24228807319E+04 0.  0.
        5    1    3    3  502    0  0.11219653122E+04 -0.45633909822E+03  0.50172083646E+03  0.13110291462E+04  0.46999998093E+01 0.  1.
       -5    1    3    3    0  502 -0.11219653122E+04  0.45633909822E+03  0.55116682766E+03  0.13307360731E+04  0.46999998093E+01 0. -1.
</event>
<event>
 5   0  0.2793920E-05  0.2436023E+04  0.7818609E-02  0.8426139E-01
        1   -1    0    0  501    0  0.00000000000E+00  0.00000000000E+00  0.12715354406E+04  0.12715354406E+04  0.50400001928E-02 0. -1.
       -1   -1    0    0    0  501  0.00000000000E+00  0.00000000000E+00 -0.11667405222E+04  0.11667405222E+04  0.50400001928E-02 0.  1.
    10030    2    1    2    0    0  0.00000000000E+00  0.00000000000E+00  0.10479491838E+03  0.24382759628E+04  0.24360229260E+04 0.  0.
        2    1    3    3  502    0 -0.88724417425E+03 -0.68995282605E+03 -0.41741369060E+03  0.11989459187E+04  0.25500000920E-02 0.  1.
       -2    1    3    3    0  502  0.88724417425E+03  0.68995282605E+03  0.52220860898E+03  0.12393300441E+04  0.25500000920E-02 0. -1.
</event>
<event>
 5   0  0.6445331E-05  0.2464827E+04  0.7818609E-02  0.8415624E-01
        2   -1    0    0  501    0  0.00000000000E+00  0.00000000000E+00  0.10176957919E+04  0.10176957919E+04  0.25500000920E-02 0. -1.
       -2   -1    0    0    0  501  0.00000000000E+00  0.00000000000E+00 -0.14924332085E+04  0.14924332085E+04  0.25500000920E-02 0.  1.
    10030    2    1    2    0    0  0.00000000000E+00  0.00000000000E+00 -0.47473741660E+03  0.25101290005E+04  0.24648269684E+04 0.  0.
        1    1    3    3  502    0 -0.63851747635E+03 -0.19145634874E+03  0.81825553920E+03  0.10554156662E+04  0.50400001928E-02 0. -1.
       -1    1    3    3    0  502  0.63851747635E+03  0.19145634874E+03 -0.12929929558E+04  0.14547133343E+04  0.50400001928E-02 0.  1.
</event>
<event>
 5   0  0.2896652E-05  0.2422744E+04  0.7818609E-02  0.8431037E-01
       -1   -1    0    0    0  501  0.00000000000E+00  0.00000000000E+00  0.10919210196E+04  0.10919210196E+04  0.50400001928E-02 0.  1.
        1   -1    0    0  501    0  0.00000000000E+00  0.00000000000E+00 -0.13438905062E+04  0.13438905062E+04  0.50400001928E-02 0. -1.
    10030    2    1    2    0    0  0.00000000000E+00  0.00000000000E+00 -0.25196948664E+03  0.24358115258E+04  0.24227441398E+04 0.  0.
        4    1    3    3  502    0  0.56428847829E+03  0.31656933068E+03 -0.11556094601E+04  0.13244140081E+04  0.12699999809E+01 0. -1.
       -4    1    3    3    0  502 -0.56428847829E+03 -0.31656933068E+03  0.90363997342E+03  0.11113975177E+04  0.12699999809E+01 0.  1.
</event>
<event>
 5   0  0.6445331E-05  0.2184191E+04  0.7818609E-02  0.8525037E-01
        2   -1    0    0  501    0  0.00000000000E+00  0.00000000000E+00  0.30909714580E+04  0.30909714580E+04  0.25500000920E-02 0. -1.
       -2   -1    0    0    0  501  0.00000000000E+00  0.00000000000E+00 -0.38585676797E+03  0.38585676798E+03  0.25500000920E-02 0.  1.
    10030    2    1    2    0    0  0.00000000000E+00  0.00000000000E+00  0.27051146900E+04  0.34768282260E+04  0.21841907029E+04 0.  0.
        1    1    3    3  502    0  0.59923795913E+03 -0.67936772291E+03  0.38162095202E+03  0.98298585221E+03  0.50400001928E-02 0.  1.
       -1    1    3    3    0  502 -0.59923795913E+03  0.67936772291E+03  0.23234937380E+04  0.24938423738E+04  0.50400001928E-02 0. -1.
</event>
<event>
 5   0  0.6827859E-05  0.2458056E+04  0.7818609E-02  0.8418082E-01
        2   -1    0    0  501    0  0.00000000000E+00  0.00000000000E+00  0.23664792845E+04  0.23664792845E+04  0.25500000920E-02 0. -1.
       -2   -1    0    0    0  501  0.00000000000E+00  0.00000000000E+00 -0.63829423867E+03  0.63829423867E+03  0.25500000920E-02 0.  1.
    10030    2    1    2    0    0  0.00000000000E+00  0.00000000000E+00  0.17281850459E+04  0.30047735232E+04  0.24580562184E+04 0.  0.
        3    1    3    3  502    0  0.10556178569E+04 -0.18352884722E+03  0.16000841114E+04  0.19256897650E+04  0.10100000352E+00 0. -1.
       -3    1    3    3    0  502 -0.10556178569E+04  0.18352884722E+03  0.12810093452E+03  0.10790837582E+04  0.10100000352E+00 0.  1.
</event>
<event>
 5   0  0.6827859E-05  0.2116964E+04  0.7818609E-02  0.8553807E-01
       -2   -1    0    0    0  501  0.00000000000E+00  0.00000000000E+00  0.10746052507E+04  0.10746052507E+04  0.25500000920E-02 0. -1.
        2   -1    0    0  501    0  0.00000000000E+00  0.00000000000E+00 -0.10426009836E+04  0.10426009836E+04  0.25500000920E-02 0.  1.
    10030    2    1    2    0    0  0.00000000000E+00  0.00000000000E+00  0.32004267080E+02  0.21172062343E+04  0.21169643278E+04 0.  0.
        3    1    3    3  502    0 -0.86533922068E+03 -0.30056470495E+03 -0.51437287475E+03  0.10505858238E+04  0.10100000352E+00 0.  1.
       -3    1    3    3    0  502  0.86533922068E+03  0.30056470495E+03  0.54637714183E+03  0.10666204105E+04  0.10100000352E+00 0. -1.
</event>
<event>
 5   0  0.2977854E-05  0.2389530E+04  0.7818609E-02  0.8443434E-01
        1   -1    0    0  501    0  0.00000000000E+00  0.00000000000E+00  0.21509870948E+04  0.21509870948E+04  0.50400001928E-02 0.  1.
       -1   -1    0    0    0  501  0.00000000000E+00  0.00000000000E+00 -0.66363169755E+03  0.66363169757E+03  0.50400001928E-02 0. -1.
    10030    2    1    2    0    0  0.00000000000E+00  0.00000000000E+00  0.14873553973E+04  0.28146187924E+04  0.23895298426E+04 0.  0.
        1    1    3    3  502    0 -0.87108197735E+03  0.18688239110E+03 -0.19403027811E+03  0.91178757845E+03  0.50400001928E-02 0. -1.
       -1    1    3    3    0  502  0.87108197735E+03 -0.18688239110E+03  0.16813856754E+04  0.19028312139E+04  0.50400001928E-02 0.  1.
</event>
<event>
 5   0  0.2980790E-05  0.2414689E+04  0.7818609E-02  0.8434024E-01
        1   -1    0    0  501    0  0.00000000000E+00  0.00000000000E+00  0.22859538130E+04  0.22859538130E+04  0.50400001928E-02 0. -1.
       -1   -1    0    0    0  501  0.00000000000E+00  0.00000000000E+00 -0.63766873239E+03  0.63766873241E+03  0.50400001928E-02 0.  1.
    10030    2    1    2    0    0  0.00000000000E+00  0.00000000000E+00  0.16482850806E+04  0.29236225454E+04  0.24146894378E+04 0.  0.
        5    1    3    3  502    0 -0.10163888616E+03 -0.79712503710E+03  0.19151224282E+04  0.20768858401E+04  0.46999998093E+01 0. -1.
       -5    1    3    3    0  502  0.10163888616E+03  0.79712503710E+03 -0.26683734761E+03  0.84673670526E+03  0.46999998093E+01 0.  1.
</event>
<event>
 5   0  0.6827859E-05  0.2587806E+04  0.7818609E-02  0.8372355E-01
        2   -1    0    0  501    0  0.00000000000E+00  0.00000000000E+00  0.19118064528E+04  0.19118064528E+04  0.25500000920E-02 0. -1.
       -2   -1    0    0    0  501  0.00000000000E+00  0.00000000000E+00 -0.87570854607E+03  0.87570854607E+03  0.25500000920E-02 0.  1.
    10030    2    1    2    0    0  0.00000000000E+00  0.00000000000E+00  0.10360979067E+04  0.27875149989E+04  0.25878062131E+04 0.  0.
        3    1    3    3  502    0 -0.30171515285E+03 -0.83860512839E+03  0.15284663122E+04  0.17693218680E+04  0.10100000352E+00 0. -1.
       -3    1    3    3    0  502  0.30171515285E+03  0.83860512839E+03 -0.49236840548E+03  0.10181931309E+04  0.10100000352E+00 0.  1.
</event>
<event>
 5   0  0.2980790E-05  0.2490542E+04  0.7818609E-02  0.8406363E-01
       -1   -1    0    0    0  501  0.00000000000E+00  0.00000000000E+00  0.94142636270E+03  0.94142636272E+03  0.50400001928E-02 0. -1.
        1   -1    0    0  501    0  0.00000000000E+00  0.00000000000E+00 -0.16471810904E+04  0.16471810904E+04  0.50400001928E-02 0.  1.
    10030    2    1    2    0    0  0.00000000000E+00  0.00000000000E+00 -0.70575472770E+03  0.25886074531E+04  0.24905418709E+04 0.  0.
        5    1    3    3  502    0 -0.10483880547E+04  0.31048265394E+03  0.26654196488E+03  0.11254260085E+04  0.46999998093E+01 0. -1.
       -5    1    3    3    0  502  0.10483880547E+04 -0.31048265394E+03 -0.97229669258E+03  0.14631814446E+04  0.46999998093E+01 0.  1.
</event>
<event>
 5   0  0.6648328E-05  0.2506663E+04  0.7818609E-02  0.8400616E-01
       -2   -1    0    0    0  501  0.00000000000E+00  0.00000000000E+00  0.80956552154E+03  0.80956552155E+03  0.25500000920E-02 0. -1.
        2   -1    0    0  501    0  0.00000000000E+00  0.00000000000E+00 -0.19403492918E+04  0.19403492918E+04  0.25500000920E-02 0.  1.
    10030    2    1    2    0    0  0.00000000000E+00  0.00000000000E+00 -0.11307837703E+04  0.27499148134E+04  0.25066630299E+04 0.  0.
        2    1    3    3  502    0  0.39092539398E+03  0.48391774113E+03 -0.17590224862E+04  0.18657864698E+04  0.25500000920E-02 0.  1.
       -2    1    3    3    0  502 -0.39092539398E+03 -0.48391774113E+03  0.62823871590E+03  0.88412834362E+03  0.25500000920E-02 0. -1.
</event>
<event>
 5   0  0.2777539E-05  0.2470575E+04  0.7818609E-02  0.8413544E-01
        1   -1    0    0  501    0  0.00000000000E+00  0.00000000000E+00  0.15859935987E+04  0.15859935987E+04  0.50400001928E-02 0. -1.
       -1   -1    0    0    0  501  0.00000000000E+00  0.00000000000E+00 -0.96213225940E+03  0.96213225941E+03  0.50400001928E-02 0.  1.
    10030    2    1    2    0    0  0.00000000000E+00  0.00000000000E+00  0.62386133934E+03  0.25481258582E+04  0.24705753213E+04 0.  0.
        3    1    3    3  502    0 -0.79819991310E+03  0.94255525609E+03  0.29124925431E+03  0.12689994682E+04  0.10100000352E+00 0. -1.
       -3    1    3    3    0  502  0.79819991310E+03 -0.94255525609E+03  0.33261208503E+03  0.12791263899E+04  0.10100000352E+00 0.  1.
</event>
<event>
 5   0  0.2977854E-05  0.1540236E+04  0.7818609E-02  0.8858129E-01
        1   -1    0    0  501    0  0.00000000000E+00  0.00000000000E+00  0.66158210306E+03  0.66158210308E+03  0.50400001928E-02 0. -1.
       -1   -1    0    0    0  501  0.00000000000E+00  0.00000000000E+00 -0.89645958228E+03  0.89645958230E+03  0.50400001928E-02 0.  1.
    10030    2    1    2    0    0  0.00000000000E+00  0.00000000000E+00 -0.23487747922E+03  0.15580416854E+04  0.15402358466E+04 0.  0.
        1    1    3    3  502    0 -0.30863518171E+03 -0.53753959503E+03 -0.57975299605E+03  0.84871551657E+03  0.50400001928E-02 0.  1.
       -1    1    3    3    0  502  0.30863518171E+03  0.53753959503E+03  0.34487551683E+03  0.70932616881E+03  0.50400001928E-02 0. -1.
</event>
<event>
 5   0  0.2896652E-05  0.2503365E+04  0.7818609E-02  0.8401788E-01
       -1   -1    0    0    0  501  0.00000000000E+00  0.00000000000E+00  0.77419277029E+03  0.77419277030E+03  0.50400001928E-02 0.  1.
        1   -1    0    0  501    0  0.00000000000E+00  0.00000000000E+00 -0.20236679350E+04  0.20236679350E+04  0.50400001928E-02 0. -1.
    10030    2    1    2    0    0  0.00000000000E+00  0.00000000000E+00 -0.12494751647E+04  0.27978607053E+04  0.25033650032E+04 0.  0.
        4    1    3    3  502    0  0.11219931313E+04  0.46634390994E+03 -0.28877151704E+03  0.12488938430E+04  0.12699999809E+01 0.  1.
       -4    1    3    3    0  502 -0.11219931313E+04 -0.46634390994E+03 -0.96070364768E+03  0.15489668623E+04  0.12699999809E+01 0. -1.
</event>
<event>
 5   0  0.6909250E-05  0.2511843E+04  0.7818609E-02  0.8398779E-01
        2   -1    0    0  501    0  0.00000000000E+00  0.00000000000E+00  0.13745110561E+04  0.13745110561E+04  0.25500000920E-02 0.  1.
       -2   -1    0    0    0  501  0.00000000000E+00  0.00000000000E+00 -0.11475631207E+04  0.11475631207E+04  0.25500000920E-02 0. -1.
    10030    2    1    2    0    0  0.00000000000E+00  0.00000000000E+00  0.22694793539E+03  0.25220741769E+04  0.25118425086E+04 0.  0.
        4    1    3    3  502    0 -0.40488725751E+03 -0.70020197606E+03  0.10781790132E+04  0.13478457241E+04  0.12699999809E+01 0.  1.
       -4    1    3    3    0  502  0.40488725751E+03  0.70020197606E+03 -0.85123107781E+03  0.11742284528E+04  0.12699999809E+01 0. -1.
</event>
<event>
 5   0  0.2777539E-05  0.1640194E+04  0.7818609E-02  0.8796229E-01
        1   -1    0    0  501    0  0.00000000000E+00  0.00000000000E+00  0.15471670306E+04  0.15471670306E+04  0.50400001928E-02 0. -1.
       -1   -1    0    0    0  501  0.00000000000E+00  0.00000000000E+00 -0.43470372184E+03  0.43470372187E+03  0.50400001928E-02 0.  1.
    10030    2    1    2    0    0  0.00000000000E+00  0.00000000000E+00  0.11124633087E+04  0.19818707524E+04  0.16401942160E+04 0.  0.
        3    1    3    3  502    0  0.16363303974E+03  0.26801735738E+03 -0.35918150453E+03  0.47709583833E+03  0.10100000352E+00 0.  1.
       -3    1    3    3    0  502 -0.16363303974E+03 -0.26801735738E+03  0.14716448133E+04  0.15047749141E+04  0.10100000352E+00 0. -1.
</event>
<event>
 5   0  0.2980790E-05  0.1758956E+04  0.7818609E-02  0.8728436E-01
        1   -1    0    0  501    0  0.00000000000E+00  0.00000000000E+00  0.15894885340E+04  0.15894885340E+04  0.50400001928E-02 0. -1.
       -1   -1    0    0    0  501  0.00000000000E+00  0.00000000000E+00 -0.48662277487E+03  0.48662277490E+03  0.50400001928E-02 0.  1.
    10030    2    1    2    0    0  0.00000000000E+00  0.00000000000E+00  0.11028657591E+04  0.20761113089E+04  0.17589557369E+04 0.  0.
        5    1    3    3  502    0 -0.79479188462E+03 -0.37259833108E+03  0.61538313822E+03  0.10720271232E+04  0.46999998093E+01 0.  1.
       -5    1    3    3    0  502  0.79479188462E+03  0.37259833108E+03  0.48748262091E+03  0.10040841856E+04  0.46999998093E+01 0. -1.
</event>
<event>
 5   0  0.2896652E-05  0.2367127E+04  0.7818609E-02  0.8451914E-01
        1   -1    0    0  501    0  0.00000000000E+00  0.00000000000E+00  0.17088880240E+04  0.17088880240E+04  0.50400001928E-02 0. -1.
       -1   -1    0    0    0  501  0.00000000000E+00  0.00000000000E+00 -0.81972774355E+03  0.81972774357E+03  0.50400001928E-02 0.  1.
    10030    2    1    2    0    0  0.00000000000E+00  0.00000000000E+00  0.88916028041E+03  0.25286157675E+04  0.23671273087E+04 0.  0.
        4    1    3    3  502    0  0.46415595605E+03 -0.95073886806E+03  0.10113177549E+04  0.14635950127E+04  0.12699999809E+01 0. -1.
       -4    1    3    3    0  502 -0.46415595605E+03  0.95073886806E+03 -0.12215747453E+03  0.10650207549E+04  0.12699999809E+01 0.  1.
</event>
<event>
 5   0  0.6648328E-05  0.1965788E+04  0.7818609E-02  0.8622785E-01
       -2   -1    0    0    0  501  0.00000000000E+00  0.00000000000E+00  0.11672473474E+04  0.11672473474E+04  0.25500000920E-02 0. -1.
        2   -1    0    0  501    0  0.00000000000E+00  0.00000000000E+00 -0.82765728222E+03  0.82765728223E+03  0.25500000920E-02 0.  1.
    10030    2    1    2    0    0  0.00000000000E+00  0.00000000000E+00  0.33959006515E+03  0.19949046296E+04  0.19657881546E+04 0.  0.
        2    1    3    3  502    0 -0.10400267521E+03 -0.85410388756E+02  0.11578532978E+04  0.11656482103E+04  0.25500000920E-02 0. -1.
       -2    1    3    3    0  502  0.10400267521E+03  0.85410388756E+02 -0.81826323267E+03  0.82925641927E+03  0.25500000920E-02 0.  1.
</event>
<event>
 5   0  0.6909250E-05  0.2525535E+04  0.7818609E-02  0.8393945E-01
        2   -1    0    0  501    0  0.00000000000E+00  0.00000000000E+00  0.26668136728E+04  0.26668136728E+04  0.25500000920E-02 0. -1.
       -2   -1    0    0    0  501  0.00000000000E+00  0.00000000000E+00 -0.59793529399E+03  0.59793529399E+03  0.25500000920E-02 0.  1.
    10030    2    1    2    0    0  0.00000000000E+00  0.00000000000E+00  0.20688783788E+04  0.32647489667E+04  0.25255352046E+04 0.  0.
        4    1    3    3  502    0  0.78578475558E+03 -0.51339394995E+03 -0.57524962878E+02  0.94039447265E+03  0.12699999809E+01 0.  1.
       -4    1    3    3    0  502 -0.78578475558E+03  0.51339394995E+03  0.21264033416E+04  0.23243544941E+04  0.12699999809E+01 0. -1.
</event>
<event>
 5   0  0.6909250E-05  0.1262646E+04  0.7818609E-02  0.9059723E-01
        2   -1    0    0  501    0  0.00000000000E+00  0.00000000000E+00  0.14028710378E+04  0.14028710379E+04  0.25500000920E-02 0. -1.
       -2   -1    0    0    0  501  0.00000000000E+00  0.00000000000E+00 -0.28410929118E+03  0.28410929119E+03  0.25500000920E-02 0.  1.
    10030    2    1    2    0    0  0.00000000000E+00  0.00000000000E+00  0.11187617467E+04  0.16869803290E+04  0.12626459459E+04 0.  0.
        4    1    3    3  502    0  0.59875474888E+03  0.19580344347E+03  0.61480506551E+03  0.88024605609E+03  0.12699999809E+01 0. -1.
       -4    1    3    3    0  502 -0.59875474888E+03 -0.19580344347E+03  0.50395668116E+03  0.80673427296E+03  0.12699999809E+01 0.  1.
</event>
<event>
 5   0  0.2896652E-05  0.1592679E+04  0.7818609E-02  0.8825058E-01
       -1   -1    0    0    0  501  0.00000000000E+00  0.00000000000E+00  0.10263156052E+04  0.10263156052E+04  0.50400001928E-02 0.  1.
        1   -1    0    0  501    0  0.00000000000E+00  0.00000000000E+00 -0.61789628019E+03  0.61789628021E+03  0.50400001928E-02 0. -1.
    10030    2    1    2    0    0  0.00000000000E+00  0.00000000000E+00  0.40841932503E+03  0.16442118854E+04  0.15926789944E+04 0.  0.
        4    1    3    3  502    0  0.12936104169E+03 -0.72236780515E+03 -0.11499620929E+03  0.74281576859E+03  0.12699999809E+01 0. -1.
       -4    1    3    3    0  502 -0.12936104169E+03  0.72236780515E+03  0.52341553432E+03  0.90139611686E+03  0.12699999809E+01 0.  1.
</event>
<event>
 5   0  0.6648328E-05  0.2677856E+04  0.7818609E-02  0.8342226E-01
        2   -1    0    0  501    0  0.00000000000E+00  0.00000000000E+00  0.18517532827E+04  0.18517532827E+04  0.25500000920E-02 0. -1.
       -2   -1    0    0    0  501  0.00000000000E+00  0.00000000000E+00 -0.96812509873E+03  0.96812509873E+03  0.25500000920E-02 0.  1.
    10030    2    1    2    0    0  0.00000000000E+00  0.00000000000E+00  0.88362818396E+03  0.28198783814E+04  0.26778564783E+04 0.  0.
        2    1    3    3  502    0  0.10143314634E+04 -0.49444494461E+03  0.12007195228E+04  0.16477473998E+04  0.25500000920E-02 0. -1.
       -2    1    3    3    0  502 -0.10143314634E+04  0.49444494461E+03 -0.31709133888E+03  0.11721309817E+04  0.25500000920E-02 0.  1.
</event>
<event>
 5   0  0.6909250E-05  0.2544643E+04  0.7818609E-02  0.8387252E-01
       -2   -1    0    0    0  501  0.00000000000E+00  0.00000000000E+00  0.12069790353E+04  0.12069790353E+04  0.25500000920E-02 0.  1.
        2   -1    0    0  501    0  0.00000000000E+00  0.00000000000E+00 -0.13412015947E+04  0.13412015947E+04  0.25500000920E-02 0. -1.
    10030    2    1    2    0    0  0.00000000000E+00  0.00000000000E+00 -0.13422255936E+03  0.25481806300E+04  0.25446431632E+04 0.  0.
        4    1    3    3  502    0  0.43413758802E+03 -0.65766995974E+03 -0.10673969869E+04  0.13267792438E+04  0.12699999809E+01 0. -1.
       -4    1    3    3    0  502 -0.43413758802E+03  0.65766995974E+03  0.93317442751E+03  0.12214013863E+04  0.12699999809E+01 0.  1.
</event>
<event>
 5   0  0.7071821E-05  0.2541474E+04  0.7818609E-02  0.8388357E-01
       -2   -1    0    0    0  501  0.00000000000E+00  0.00000000000E+00  0.21580563868E+04  0.21580563868E+04  0.25500000920E-02 0. -1.
        2   -1    0    0  501    0  0.00000000000E+00  0.00000000000E+00 -0.74825318740E+03  0.74825318740E+03  0.25500000920E-02 0.  1.
    10030    2    1    2    0    0  0.00000000000E+00  0.00000000000E+00  0.14098031994E+04  0.29063095742E+04  0.25414740369E+04 0.  0.
        5    1    3    3  502    0 -0.39935916764E+03 -0.90184458333E+03  0.16211286380E+04  0.18976015251E+04  0.46999998093E+01 0. -1.
       -5    1    3    3    0  502  0.39935916764E+03  0.90184458333E+03 -0.21132543860E+03  0.10087080491E+04  0.46999998093E+01 0.  1.
</event>
<event>
 5   0  0.2793920E-05  0.2483965E+04  0.7818609E-02  0.8408720E-01
       -1   -1    0    0    0  501  0.00000000000E+00  0.00000000000E+00  0.12690459688E+04  0.12690459688E+04  0.50400001928E-02 0.  1.
        1   -1    0    0  501    0  0.00000000000E+00  0.00000000000E+00 -0.12154966527E+04  0.12154966527E+04  0.50400001928E-02 0. -1.
    10030    2    1    2    0    0  0.00000000000E+00  0.00000000000E+00  0.53549316125E+02  0.24845426215E+04  0.24839654806E+04 0.  0.
        2    1    3    3  502    0 -0.78105039231E+03 -0.96526736969E+03 -0.44042931593E+00  0.12416847443E+04  0.25500000920E-02 0. -1.
       -2    1    3    3    0  502  0.78105039231E+03  0.96526736969E+03  0.53989745441E+02  0.12428578772E+04  0.25500000920E-02 0.  1.
</event>
<event>
 5   0  0.7071821E-05  0.2499641E+04  0.7818609E-02  0.8403114E-01
        2   -1    0    0  501    0  0.00000000000E+00  0.00000000000E+00  0.14226530389E+04  0.14226530389E+04  0.25500000920E-02 0. -1.
       -2   -1    0    0    0  501  0.00000000000E+00  0.00000000000E+00 -0.10979844398E+04  0.10979844398E+04  0.25500000920E-02 0.  1.
    10030    2    1    2    0    0  0.00000000000E+00  0.00000000000E+00  0.32466859908E+03  0.25206374787E+04  0.24996406941E+04 0.  0.
        5    1    3    3  502    0  0.17246139801E+03 -0.30492828998E+03 -0.10474533925E+04  0.11044930490E+04  0.46999998093E+01 0.  1.
       -5    1    3    3    0  502 -0.17246139801E+03  0.30492828998E+03  0.13721219916E+04  0.14161444296E+04  0.46999998093E+01 0. -1.
</event>
<event>
 5   0  0.2980790E-05  0.1949549E+04  0.7818609E-02  0.8630578E-01
        1   -1    0    0  501    0  0.00000000000E+00  0.00000000000E+00  0.92870454562E+03  0.92870454564E+03  0.50400001928E-02 0. -1.
       -1   -1    0    0    0  501  0.00000000000E+00  0.00000000000E+00 -0.10231301884E+04  0.10231301884E+04  0.50400001928E-02 0.  1.
    10030    2    1    2    0    0  0.00000000000E+00  0.00000000000E+00 -0.94425642754E+02  0.19518347340E+04  0.19495493394E+04 0.  0.
        5    1    3    3  502    0 -0.82611252362E+03 -0.28582207088E+03  0.38457852359E+03  0.95502821356E+03  0.46999998093E+01 0. -1.
       -5    1    3    3    0  502  0.82611252362E+03  0.28582207088E+03 -0.47900416634E+03  0.99680652047E+03  0.46999998093E+01 0.  1.
</event>
<event>
 5   0  0.2793920E-05  0.2490572E+04  0.7818609E-02  0.8406352E-01
       -1   -1    0    0    0  501  0.00000000000E+00  0.00000000000E+00  0.11220889346E+04  0.11220889346E+04  0.50400001928E-02 0.  1.
        1   -1    0    0  501    0  0.00000000000E+00  0.00000000000E+00 -0.13820092710E+04  0.13820092710E+04  0.50400001928E-02 0. -1.
    10030    2    1    2    0    0  0.00000000000E+00  0.00000000000E+00 -0.25992033640E+03  0.25040982056E+04  0.24905720713E+04 0.  0.
        2    1    3    3  502    0 -0.64316744286E+03  0.10528409274E+04  0.40070458301E+02  0.12344002672E+04  0.25500000920E-02 0. -1.
       -2    1    3    3    0  502  0.64316744286E+03 -0.10528409274E+04 -0.29999079470E+03  0.12696979385E+04  0.25500000920E-02 0.  1.
</event>
<event>
 5   0  0.6445331E-05  0.2542074E+04  0.7818609E-02  0.8388148E-01
        2   -1    0    0  501    0  0.00000000000E+00  0.00000000000E+00  0.16089838977E+04  0.16089838977E+04  0.25500000920E-02 0. -1.
       -2   -1    0    0    0  501  0.00000000000E+00  0.00000000000E+00 -0.10040719926E+04  0.10040719926E+04  0.25500000920E-02 0.  1.
    10030    2    1    2    0    0  0.00000000000E+00  0.00000000000E+00  0.60491190516E+03  0.26130558903E+04  0.25420744822E+04 0.  0.
        1    1    3    3  502    0  0.38637050104E+03  0.10319378745E+04 -0.34876181657E+03  0.11557736567E+04  0.50400001928E-02 0.  1.
       -1    1    3    3    0  502 -0.38637050104E+03 -0.10319378745E+04  0.95367372172E+03  0.14572822336E+04  0.50400001928E-02 0. -1.
</event>
<event>
 5   0  0.2896652E-05  0.2326839E+04  0.7818609E-02  0.8467413E-01
       -1   -1    0    0    0  501  0.00000000000E+00  0.00000000000E+00  0.48901053776E+03  0.48901053779E+03  0.50400001928E-02 0.  1.
        1   -1    0    0  501    0  0.00000000000E+00  0.00000000000E+00 -0.27679265332E+04  0.27679265332E+04  0.50400001928E-02 0. -1.
    10030    2    1    2    0    0  0.00000000000E+00  0.00000000000E+00 -0.22789159954E+04  0.32569370710E+04  0.23268392661E+04 0.  0.
        4    1    3    3  502    0 -0.55612471895E+03 -0.67474319181E+03 -0.22136876779E+04  0.23801192882E+04  0.12699999809E+01 0. -1.
       -4    1    3    3    0  502  0.55612471895E+03  0.67474319181E+03 -0.65228317563E+02  0.87681778280E+03  0.12699999809E+01 0.  1.
</event>
<event>
 5   0  0.6827859E-05  0.2491979E+04  0.7818609E-02  0.8405849E-01
       -2   -1    0    0    0  501  0.00000000000E+00  0.00000000000E+00  0.11271540710E+04  0.11271540710E+04  0.25500000920E-02 0. -1.
        2   -1    0    0  501    0  0.00000000000E+00  0.00000000000E+00 -0.13773538049E+04  0.13773538050E+04  0.25500000920E-02 0.  1.
    10030    2    1    2    0    0  0.00000000000E+00  0.00000000000E+00 -0.25019973392E+03  0.25045078760E+04  0.24919790918E+04 0.  0.
        3    1    3    3  502    0  0.46474550161E+03 -0.82036053786E+01  0.10367548017E+04  0.11361849363E+04  0.10100000352E+00 0. -1.
       -3    1    3    3    0  502 -0.46474550161E+03  0.82036053786E+01 -0.12869545356E+04  0.13683229397E+04  0.10100000352E+00 0.  1.
</event>
<event>
 5   0  0.2980790E-05  0.2315080E+04  0.7818609E-02  0.8471999E-01
        1   -1    0    0  501    0  0.00000000000E+00  0.00000000000E+00  0.20613687244E+04  0.20613687244E+04  0.50400001928E-02 0.  1.
       -1   -1    0    0    0  501  0.00000000000E+00  0.00000000000E+00 -0.65000447498E+03  0.65000447499E+03  0.50400001928E-02 0. -1.
    10030    2    1    2    0    0  0.00000000000E+00  0.00000000000E+00  0.14113642495E+04  0.27113731994E+04  0.23150800379E+04 0.  0.
        5    1    3    3  502    0  0.11456260927E+04 -0.20072496918E+02  0.51318519182E+03  0.12554852371E+04  0.46999998093E+01 0.  1.
       -5    1    3    3    0  502 -0.11456260927E+04  0.20072496918E+02  0.89817905763E+03  0.14558879624E+04  0.46999998093E+01 0. -1.
</event>
<event>
 5   0  0.2777539E-05  0.2611282E+04  0.7818609E-02  0.8364379E-01
       -1   -1    0    0    0  501  0.00000000000E+00  0.00000000000E+00  0.10327766713E+04  0.10327766713E+04  0.50400001928E-02 0. -1.
        1   -1    0    0  501    0  0.00000000000E+00  0.00000000000E+00 -0.16505968441E+04  0.16505968441E+04  0.50400001928E-02 0.  1.
    10030    2    1    2    0    0  0.00000000000E+00  0.00000000000E+00 -0.61782017278E+03  0.26833735155E+04  0.26112816121E+04 0.  0.
        3    1    3    3  502    0  0.12140610121E+03  0.12929687761E+04 -0.44750466332E+03  0.13735967863E+04  0.10100000352E+00 0.  1.
       -3    1    3    3    0  502 -0.12140610121E+03 -0.12929687761E+04 -0.17031550946E+03  0.13097767292E+04  0.10100000352E+00 0. -1.
</event>
<event>
 5   0  0.2331375E-05  0.1857131E+04  0.7818609E-02  0.8676494E-01
       -3   -1    0    0    0  501  0.00000000000E+00  0.00000000000E+00  0.43998434801E+03  0.43998435961E+03  0.10100000352E+00 0.  1.
        3   -1    0    0  501    0  0.00000000000E+00  0.00000000000E+00 -0.19596931859E+04  0.19596931885E+04  0.10100000352E+00 0. -1.
    10030    2    1    2    0    0  0.00000000000E+00  0.00000000000E+00 -0.15197088379E+04  0.23996775481E+04  0.18571314932E+04 0.  0.
        1    1    3    3  502    0 -0.26793181916E+03  0.86973048056E+03 -0.99816889969E+03  0.13507626442E+04  0.50400001928E-02 0. -1.
       -1    1    3    3    0  502  0.26793181916E+03 -0.86973048056E+03 -0.52153993818E+03  0.10489149039E+04  0.50400001928E-02 0.  1.
</event>
<event>
 5   0  0.6648328E-05  0.2521748E+04  0.7818609E-02  0.8395278E-01
        2   -1    0    0  501    0  0.00000000000E+00  0.00000000000E+00  0.17416583364E+04  0.17416583364E+04  0.25500000920E-02 0. -1.
       -2   -1    0    0    0  501  0.00000000000E+00  0.00000000000E+00 -0.91281040430E+03  0.91281040430E+03  0.25500000920E-02 0.  1.
    10030    2    1    2    0    0  0.00000000000E+00  0.00000000000E+00  0.82884793212E+03  0.26544687407E+04  0.25217484809E+04 0.  0.
        2    1    3    3  502    0  0.94242880577E+03 -0.21442701371E+03  0.12667638771E+04  0.15933743184E+04  0.25500000920E-02 0. -1.
       -2    1    3    3    0  502 -0.94242880577E+03  0.21442701371E+03 -0.43791594501E+03  0.10610944223E+04  0.25500000920E-02 0.  1.
</event>
<event>
 5   0  0.7071821E-05  0.2456546E+04  0.7818609E-02  0.8418632E-01
       -2   -1    0    0    0  501  0.00000000000E+00  0.00000000000E+00  0.25187779659E+04  0.25187779659E+04  0.25500000920E-02 0. -1.
        2   -1    0    0  501    0  0.00000000000E+00  0.00000000000E+00 -0.59896272604E+03  0.59896272605E+03  0.25500000920E-02 0.  1.
    10030    2    1    2    0    0  0.00000000000E+00  0.00000000000E+00  0.19198152399E+04  0.31177406920E+04  0.24565456371E+04 0.  0.
        5    1    3    3  502    0  0.10837476975E+04 -0.55806650826E+03  0.11510609803E+04  0.16765770993E+04  0.46999998093E+01 0.  1.
       -5    1    3    3    0  502 -0.10837476975E+04  0.55806650826E+03  0.76875425961E+03  0.14411635927E+04  0.46999998093E+01 0. -1.
</event>
<event>
 5   0  0.2896652E-05  0.2899811E+04  0.7818609E-02  0.8272934E-01
        1   -1    0    0  501    0  0.00000000000E+00  0.00000000000E+00  0.10588011935E+04  0.10588011935E+04  0.50400001928E-02 0.  1.
       -1   -1    0    0    0  501  0.00000000000E+00  0.00000000000E+00 -0.19854781399E+04  0.19854781399E+04  0.50400001928E-02 0. -1.
    10030    2    1    2    0    0  0.00000000000E+00  0.00000000000E+00 -0.92667694641E+03  0.30442793333E+04  0.28998114588E+04 0.  0.
        4    1    3    3  502    0  0.27823187689E+03 -0.10502141520E+04  0.54463187775E+03  0.12153140490E+04  0.12699999809E+01 0.  1.
       -4    1    3    3    0  502 -0.27823187689E+03  0.10502141520E+04 -0.14713088242E+04  0.18289652844E+04  0.12699999809E+01 0. -1.
</event>
<event>
 5   0  0.6909250E-05  0.2493448E+04  0.7818609E-02  0.8405323E-01
        2   -1    0    0  501    0  0.00000000000E+00  0.00000000000E+00  0.15540519951E+04  0.15540519951E+04  0.25500000920E-02 0. -1.
       -2   -1    0    0    0  501  0.00000000000E+00  0.00000000000E+00 -0.10001730478E+04  0.10001730478E+04  0.25500000920E-02 0.  1.
    10030    2    1    2    0    0  0.00000000000E+00  0.00000000000E+00  0.55387894730E+03  0.25542250429E+04  0.24934481509E+04 0.  0.
        4    1    3    3  502    0  0.87321098286E+03 -0.35890903195E+03  0.11110384909E+04  0.14579853411E+04  0.12699999809E+01 0. -1.
       -4    1    3    3    0  502 -0.87321098286E+03  0.35890903195E+03 -0.55715954356E+03  0.10962397017E+04  0.12699999809E+01 0.  1.
</event>
<event>
 5   0  0.2980790E-05  0.2178100E+04  0.7818609E-02  0.8527599E-01
       -1   -1    0    0    0  501  0.00000000000E+00  0.00000000000E+00  0.11604506466E+04  0.11604506466E+04  0.50400001928E-02 0. -1.
        1   -1    0    0  501    0  0.00000000000E+00  0.00000000000E+00 -0.10220424735E+04  0.10220424735E+04  0.50400001928E-02 0.  1.
    10030    2    1    2    0    0  0.00000000000E+00  0.00000000000E+00  0.13840817313E+03  0.21824931201E+04  0.21780999510E+04 0.  0.
        5    1    3    3  502    0 -0.84847399234E+03  0.18926542853E+03  0.72648310706E+03  0.11329295269E+04  0.46999998093E+01 0. -1.
       -5    1    3    3    0  502  0.84847399234E+03 -0.18926542853E+03 -0.58807493393E+03  0.10495635931E+04  0.46999998093E+01 0.  1.
</event>
<event>
 5   0  0.6648328E-05  0.2524986E+04  0.7818609E-02  0.8394138E-01
       -2   -1    0    0    0  501  0.00000000000E+00  0.00000000000E+00  0.13492426350E+04  0.13492426350E+04  0.25500000920E-02 0. -1.
        2   -1    0    0  501    0  0.00000000000E+00  0.00000000000E+00 -0.11813213573E+04  0.11813213573E+04  0.25500000920E-02 0.  1.
    10030    2    1    2    0    0  0.00000000000E+00  0.00000000000E+00  0.16792127769E+03  0.25305639923E+04  0.25249864483E+04 0.  0.
        2    1    3    3  502    0  0.57262175123E+03  0.68562395175E+02  0.12095143086E+04  0.13399706470E+04  0.25500000920E-02 0. -1.
       -2    1    3    3    0  502 -0.57262175123E+03 -0.68562395175E+02 -0.10415930309E+04  0.11905933454E+04  0.25500000920E-02 0.  1.
</event>
<event>
 5   0  0.6827859E-05  0.2501260E+04  0.7818609E-02  0.8402537E-01
       -2   -1    0    0    0  501  0.00000000000E+00  0.00000000000E+00  0.72118968715E+03  0.72118968715E+03  0.25500000920E-02 0. -1.
        2   -1    0    0  501    0  0.00000000000E+00  0.00000000000E+00 -0.21687430166E+04  0.21687430166E+04  0.25500000920E-02 0.  1.
    10030    2    1    2    0    0  0.00000000000E+00  0.00000000000E+00 -0.14475533295E+04  0.28899327038E+04  0.25012597607E+04 0.  0.
        3    1    3    3  502    0  0.89082179515E+03  0.69794751553E+03 -0.13388320245E+04  0.17530446101E+04  0.10100000352E+00 0. -1.
       -3    1    3    3    0  502 -0.89082179515E+03 -0.69794751553E+03 -0.10872130502E+03  0.11368880937E+04  0.10100000352E+00 0.  1.
</event>
<event>
 5   0  0.2793920E-05  0.2236947E+04  0.7818609E-02  0.8503205E-01
       -1   -1    0    0    0  501  0.00000000000E+00  0.00000000000E+00  0.66722794680E+03  0.66722794682E+03  0.50400001928E-02 0. -1.
        1   -1    0    0  501    0  0.00000000000E+00  0.00000000000E+00 -0.18748959667E+04  0.18748959667E+04  0.50400001928E-02 0.  1.
    10030    2    1    2    0    0  0.00000000000E+00  0.00000000000E+00 -0.12076680199E+04  0.25421239135E+04  0.22369470144E+04 0.  0.
        2    1    3    3  502    0 -0.85052789367E+03 -0.64061837237E+03 -0.21479551518E+03  0.10862443143E+04  0.25500000920E-02 0. -1.
       -2    1    3    3    0  502  0.85052789367E+03  0.64061837237E+03 -0.99287250470E+03  0.14558795993E+04  0.25500000920E-02 0.  1.
</event>
<event>
 5   0  0.2980790E-05  0.2551399E+04  0.7818609E-02  0.8384900E-01
       -1   -1    0    0    0  501  0.00000000000E+00  0.00000000000E+00  0.99694304446E+03  0.99694304448E+03  0.50400001928E-02 0.  1.
        1   -1    0    0  501    0  0.00000000000E+00  0.00000000000E+00 -0.16323996086E+04  0.16323996086E+04  0.50400001928E-02 0. -1.
    10030    2    1    2    0    0  0.00000000000E+00  0.00000000000E+00 -0.63545656418E+03  0.26293426531E+04  0.25513991735E+04 0.  0.
        5    1    3    3  502    0 -0.25586055293E+03 -0.11537752886E+04 -0.81274103966E+03  0.14343054510E+04  0.46999998093E+01 0. -1.
       -5    1    3    3    0  502  0.25586055293E+03  0.11537752886E+04  0.17728447549E+03  0.11950372021E+04  0.46999998093E+01 0.  1.
</event>
<event>
 5   0  0.6827859E-05  0.2531251E+04  0.7818609E-02  0.8391936E-01
       -2   -1    0    0    0  501  0.00000000000E+00  0.00000000000E+00  0.14910184730E+04  0.14910184730E+04  0.25500000920E-02 0.  1.
        2   -1    0    0  501    0  0.00000000000E+00  0.00000000000E+00 -0.10743047671E+04  0.10743047671E+04  0.25500000920E-02 0. -1.
    10030    2    1    2    0    0  0.00000000000E+00  0.00000000000E+00  0.41671370594E+03  0.25653232400E+04  0.25312512742E+04 0.  0.
        3    1    3    3  502    0 -0.95357092166E+02 -0.87660953944E+02 -0.10675697506E+04  0.10753988100E+04  0.10100000352E+00 0. -1.
       -3    1    3    3    0  502  0.95357092166E+02  0.87660953944E+02  0.14842834565E+04  0.14899244301E+04  0.10100000352E+00 0.  1.
</event>
<event>
 5   0  0.6827859E-05  0.2474050E+04  0.7818609E-02  0.8412289E-01
       -2   -1    0    0    0  501  0.00000000000E+00  0.00000000000E+00  0.96584322943E+03  0.96584322944E+03  0.25500000920E-02 0. -1.
        2   -1    0    0  501    0  0.00000000000E+00  0.00000000000E+00 -0.15843474912E+04  0.15843474912E+04  0.25500000920E-02 0.  1.
    10030    2    1    2    0    0  0.00000000000E+00  0.00000000000E+00 -0.61850426181E+03  0.25501907207E+04  0.24740503612E+04 0.  0.
        3    1    3    3  502    0  0.10799292433E+04  0.60900299258E+02 -0.92795389126E+03  0.14251506768E+04  0.10100000352E+00 0.  1.
       -3    1    3    3    0  502 -0.10799292433E+04 -0.60900299258E+02  0.30944962945E+03  0.11250400439E+04  0.10100000352E+00 0. -1.
</event>
<event>
 5   0  0.6648328E-05  0.2528300E+04  0.7818609E-02  0.8392972E-01
       -2   -1    0    0    0  501  0.00000000000E+00  0.00000000000E+00  0.14051596915E+04  0.14051596915E+04  0.25500000920E-02 0. -1.
        2   -1    0    0  501    0  0.00000000000E+00  0.00000000000E+00 -0.11372909875E+04  0.11372909875E+04  0.25500000920E-02 0.  1.
    10030    2    1    2    0    0  0.00000000000E+00  0.00000000000E+00  0.26786870408E+03  0.25424506790E+04  0.25283001825E+04 0.  0.
        2    1    3    3  502    0 -0.12336303640E+04  0.33125779364E+02  0.40957477660E+03  0.13002663919E+04  0.25500000920E-02 0.  1.
       -2    1    3    3    0  502  0.12336303640E+04 -0.33125779364E+02 -0.14170607252E+03  0.12421842871E+04  0.25500000920E-02 0. -1.
</event>
<event>
 5   0  0.2977854E-05  0.2647498E+04  0.7818609E-02  0.8352244E-01
       -1   -1    0    0    0  501  0.00000000000E+00  0.00000000000E+00  0.10726171185E+04  0.10726171185E+04  0.50400001928E-02 0. -1.
        1   -1    0    0  501    0  0.00000000000E+00  0.00000000000E+00 -0.16336789172E+04  0.16336789172E+04  0.50400001928E-02 0.  1.
    10030    2    1    2    0    0  0.00000000000E+00  0.00000000000E+00 -0.56106179876E+03  0.27062960357E+04  0.26474984213E+04 0.  0.
        1    1    3    3  502    0 -0.24898789032E+03  0.21374925802E+01  0.10484632978E+04  0.10776246217E+04  0.50400001928E-02 0. -1.
       -1    1    3    3    0  502  0.24898789032E+03 -0.21374925802E+01 -0.16095250966E+04  0.16286714140E+04  0.50400001928E-02 0.  1.
</event>
<event>
 5   0  0.6909250E-05  0.2396788E+04  0.7818609E-02  0.8440707E-01
        2   -1    0    0  501    0  0.00000000000E+00  0.00000000000E+00  0.12099893305E+04  0.12099893305E+04  0.25500000920E-02 0. -1.
       -2   -1    0    0    0  501  0.00000000000E+00  0.00000000000E+00 -0.11869096477E+04  0.11869096477E+04  0.25500000920E-02 0.  1.
    10030    2    1    2    0    0  0.00000000000E+00  0.00000000000E+00  0.23079682726E+02  0.23968989782E+04  0.23967878588E+04 0.  0.
        4    1    3    3  502    0 -0.29275897375E+03  0.31175027503E+03  0.11310783869E+04  0.12092294989E+04  0.12699999809E+01 0. -1.
       -4    1    3    3    0  502  0.29275897375E+03 -0.31175027503E+03 -0.11079987042E+04  0.11876694793E+04  0.12699999809E+01 0.  1.
</event>
<event>
 5   0  0.6827859E-05  0.2368165E+04  0.7818609E-02  0.8451519E-01
       -2   -1    0    0    0  501  0.00000000000E+00  0.00000000000E+00  0.11274235060E+04  0.11274235060E+04  0.25500000920E-02 0.  1.
        2   -1    0    0  501    0  0.00000000000E+00  0.00000000000E+00 -0.12435885555E+04  0.12435885555E+04  0.25500000920E-02 0. -1.
    10030    2    1    2    0    0  0.00000000000E+00  0.00000000000E+00 -0.11616504946E+03  0.23710120615E+04  0.23681646643E+04 0.  0.
        3    1    3    3  502    0  0.59991257075E+03  0.42517822369E+03 -0.98730368997E+03  0.12310321689E+04  0.10100000352E+00 0. -1.
       -3    1    3    3    0  502 -0.59991257075E+03 -0.42517822369E+03  0.87113864051E+03  0.11399798926E+04  0.10100000352E+00 0.  1.
</event>
<event>
 5   0  0.2793920E-05  0.2297610E+04  0.7818609E-02  0.8478864E-01
        1   -1    0    0  501    0  0.00000000000E+00  0.00000000000E+00  0.13686575518E+04  0.13686575518E+04  0.50400001928E-02 0. -1.
       -1   -1    0    0    0  501  0.00000000000E+00  0.00000000000E+00 -0.96426783120E+03  0.96426783121E+03  0.50400001928E-02 0.  1.
    10030    2    1    2    0    0  0.00000000000E+00  0.00000000000E+00  0.40438972056E+03  0.23329253830E+04  0.22976095831E+04 0.  0.
        2    1    3    3  502    0 -0.68187854998E+03 -0.91508280814E+03  0.33619896544E+03  0.11896909880E+04  0.25500000920E-02 0. -1.
       -2    1    3    3    0  502  0.68187854998E+03  0.91508280814E+03  0.68190755120E+02  0.11432343949E+04  0.25500000920E-02 0.  1.
</event>
<event>
 5   0  0.2977854E-05  0.2488802E+04  0.7818609E-02  0.8406986E-01
        1   -1    0    0  501    0  0.00000000000E+00  0.00000000000E+00  0.17402506393E+04  0.17402506393E+04  0.50400001928E-02 0. -1.
       -1   -1    0    0    0  501  0.00000000000E+00  0.00000000000E+00 -0.88983376451E+03  0.88983376452E+03  0.50400001928E-02 0.  1.
    10030    2    1    2    0    0  0.00000000000E+00  0.00000000000E+00  0.85041687475E+03  0.26300844038E+04  0.24888019427E+04 0.  0.
        1    1    3    3  502    0 -0.26238248543E+03 -0.58235872696E+03 -0.70338115631E+03  0.95012173251E+03  0.50400001928E-02 0.  1.
       -1    1    3    3    0  502  0.26238248543E+03  0.58235872696E+03  0.15537980311E+04  0.16799626713E+04  0.50400001928E-02 0. -1.
</event>
<event>
 5   0  0.6445331E-05  0.2496594E+04  0.7818609E-02  0.8404200E-01
       -2   -1    0    0    0  501  0.00000000000E+00  0.00000000000E+00  0.11449372522E+04  0.11449372522E+04  0.25500000920E-02 0.  1.
        2   -1    0    0  501    0  0.00000000000E+00  0.00000000000E+00 -0.13609870645E+04  0.13609870645E+04  0.25500000920E-02 0. -1.
    10030    2    1    2    0    0  0.00000000000E+00  0.00000000000E+00 -0.21604981229E+03  0.25059243167E+04  0.24965935111E+04 0.  0.
        1    1    3    3  502    0 -0.54261689925E+03 -0.84736449252E+03  0.63350889734E+03  0.11890303636E+04  0.50400001928E-02 0.  1.
       -1    1    3    3    0  502  0.54261689925E+03  0.84736449252E+03 -0.84955870963E+03  0.13168939531E+04  0.50400001928E-02 0. -1.
</event>
<event>
 5   0  0.2980790E-05  0.2492516E+04  0.7818609E-02  0.8405657E-01
        1   -1    0    0  501    0  0.00000000000E+00  0.00000000000E+00  0.20019164138E+04  0.20019164138E+04  0.50400001928E-02 0. -1.
       -1   -1    0    0    0  501  0.00000000000E+00  0.00000000000E+00 -0.77583604365E+03  0.77583604367E+03  0.50400001928E-02 0.  1.
    10030    2    1    2    0    0  0.00000000000E+00  0.00000000000E+00  0.12260803701E+04  0.27777524574E+04  0.24925159259E+04 0.  0.
        5    1    3    3  502    0  0.27117903651E+03  0.36617187471E+03 -0.67966704687E+03  0.81828436150E+03  0.46999998093E+01 0.  1.
       -5    1    3    3    0  502 -0.27117903651E+03 -0.36617187471E+03  0.19057474170E+04  0.19594680959E+04  0.46999998093E+01 0. -1.
</event>
<event>
 5   0  0.2977854E-05  0.2268877E+04  0.7818609E-02  0.8490295E-01
       -1   -1    0    0    0  501  0.00000000000E+00  0.00000000000E+00  0.98082889898E+03  0.98082889899E+03  0.50400001928E-02 0.  1.
        1   -1    0    0  501    0  0.00000000000E+00  0.00000000000E+00 -0.13121049493E+04  0.13121049493E+04  0.50400001928E-02 0. -1.
    10030    2    1    2    0    0  0.00000000000E+00  0.00000000000E+00 -0.33127605028E+03  0.22929338483E+04  0.22688767730E+04 0.  0.
        1    1    3    3  502    0  0.27438265912E+03  0.10714090678E+04  0.89521177256E+02  0.11096023051E+04  0.50400001928E-02 0.  1.
       -1    1    3    3    0  502 -0.27438265912E+03 -0.10714090678E+04 -0.42079722753E+03  0.11833315432E+04  0.50400001928E-02 0. -1.
</event>
<event>
 5   0  0.6827859E-05  0.1575941E+04  0.7818609E-02  0.8835466E-01
       -2   -1    0    0    0  501  0.00000000000E+00  0.00000000000E+00  0.77559934270E+03  0.77559934271E+03  0.25500000920E-02 0.  1.
        2   -1    0    0  501    0  0.00000000000E+00  0.00000000000E+00 -0.80053921680E+03  0.80053921681E+03  0.25500000920E-02 0. -1.
    10030    2    1    2    0    0  0.00000000000E+00  0.00000000000E+00 -0.24939874096E+02  0.15761385595E+04  0.15759412303E+04 0.  0.
        3    1    3    3  502    0  0.58417680964E+03 -0.52472603486E+03  0.53095297028E+02  0.78703181470E+03  0.10100000352E+00 0.  1.
       -3    1    3    3    0  502 -0.58417680964E+03  0.52472603486E+03 -0.78035171125E+02  0.78910674482E+03  0.10100000352E+00 0. -1.
</event>
<event>
 5   0  0.2977854E-05  0.2104788E+04  0.7818609E-02  0.8559137E-01
        1   -1    0    0  501    0  0.00000000000E+00  0.00000000000E+00  0.10469520845E+04  0.10469520845E+04  0.50400001928E-02 0. -1.
       -1   -1    0    0    0  501  0.00000000000E+00  0.00000000000E+00 -0.10578641745E+04  0.10578641745E+04  0.50400001928E-02 0.  1.
    10030    2    1    2    0    0  0.00000000000E+00  0.00000000000E+00 -0.10912090034E+02  0.21048162590E+04  0.21047879728E+04 0.  0.
        1    1    3    3  502    0 -0.61350368799E+03 -0.72357845865E+02  0.84655931909E+03  0.10479909894E+04  0.50400001928E-02 0. -1.
       -1    1    3    3    0  502  0.61350368799E+03  0.72357845865E+02 -0.85747140913E+03  0.10568252696E+04  0.50400001928E-02 0.  1.
</event>
<event>
 5   0  0.2977854E-05  0.2374624E+04  0.7818609E-02  0.8449065E-01
        1   -1    0    0  501    0  0.00000000000E+00  0.00000000000E+00  0.14867456385E+04  0.14867456385E+04  0.50400001928E-02 0. -1.
       -1   -1    0    0    0  501  0.00000000000E+00  0.00000000000E+00 -0.94818487137E+03  0.94818487138E+03  0.50400001928E-02 0.  1.
    10030    2    1    2    0    0  0.00000000000E+00  0.00000000000E+00  0.53856076710E+03  0.24349305099E+04  0.23746239466E+04 0.  0.
        1    1    3    3  502    0 -0.32920935769E+02  0.91650301779E+03  0.10425190169E+04  0.13884910767E+04  0.50400001928E-02 0. -1.
       -1    1    3    3    0  502  0.32920935769E+02 -0.91650301779E+03 -0.50395824978E+03  0.10464394331E+04  0.50400001928E-02 0.  1.
</event>
<event>
 5   0  0.2793920E-05  0.2560042E+04  0.7818609E-02  0.8381902E-01
        1   -1    0    0  501    0  0.00000000000E+00  0.00000000000E+00  0.13503806128E+04  0.13503806128E+04  0.50400001928E-02 0. -1.
       -1   -1    0    0    0  501  0.00000000000E+00  0.00000000000E+00 -0.12133275040E+04  0.12133275040E+04  0.50400001928E-02 0.  1.
    10030    2    1    2    0    0  0.00000000000E+00  0.00000000000E+00  0.13705310888E+03  0.25637081168E+04  0.25600421390E+04 0.  0.
        2    1    3    3  502    0  0.79037058467E+03 -0.77131323031E+03  0.71663503750E+03  0.13165012485E+04  0.25500000920E-02 0. -1.
       -2    1    3    3    0  502 -0.79037058467E+03  0.77131323031E+03 -0.57958192862E+03  0.12472068683E+04  0.25500000920E-02 0.  1.
</event>
<event>
 5   0  0.6445331E-05  0.1609990E+04  0.7818609E-02  0.8814434E-01
        2   -1    0    0  501    0  0.00000000000E+00  0.00000000000E+00  0.35012581471E+03  0.35012581472E+03  0.25500000920E-02 0. -1.
       -2   -1    0    0    0  501  0.00000000000E+00  0.00000000000E+00 -0.18508110534E+04  0.18508110534E+04  0.25500000920E-02 0.  1.
    10030    2    1    2    0    0  0.00000000000E+00  0.00000000000E+00 -0.15006852387E+04  0.22009368681E+04  0.16099897241E+04 0.  0.
        1    1    3    3  502    0 -0.17883565367E+03 -0.68671496676E+03 -0.23076083831E+03  0.74619715968E+03  0.50400001928E-02 0. -1.
       -1    1    3    3    0  502  0.17883565367E+03  0.68671496676E+03 -0.12699244004E+04  0.14547397085E+04  0.50400001928E-02 0.  1.
</event>
<event>
 5   0  0.2331375E-05  0.2516382E+04  0.7818609E-02  0.8397173E-01
       -3   -1    0    0    0  501  0.00000000000E+00  0.00000000000E+00  0.14549869512E+04  0.14549869547E+04  0.10100000352E+00 0. -1.
        3   -1    0    0  501    0  0.00000000000E+00  0.00000000000E+00 -0.10880128644E+04  0.10880128691E+04  0.10100000352E+00 0.  1.
    10030    2    1    2    0    0  0.00000000000E+00  0.00000000000E+00  0.36697408674E+03  0.25429998238E+04  0.25163819510E+04 0.  0.
        1    1    3    3  502    0 -0.11032384661E+03  0.42133410267E+03 -0.10094018554E+04  0.10993570316E+04  0.50400001928E-02 0.  1.
       -1    1    3    3    0  502  0.11032384661E+03 -0.42133410267E+03  0.13763759421E+04  0.14436427922E+04  0.50400001928E-02 0. -1.
</event>
<event>
 5   0  0.6827859E-05  0.2480550E+04  0.7818609E-02  0.8409948E-01
       -2   -1    0    0    0  501  0.00000000000E+00  0.00000000000E+00  0.11292272163E+04  0.11292272163E+04  0.25500000920E-02 0.  1.
        2   -1    0    0  501    0  0.00000000000E+00  0.00000000000E+00 -0.13622430989E+04  0.13622430989E+04  0.25500000920E-02 0. -1.
    10030    2    1    2    0    0  0.00000000000E+00  0.00000000000E+00 -0.23301588267E+03  0.24914703152E+04  0.24805499249E+04 0.  0.
        3    1    3    3  502    0  0.44204034597E+03 -0.84113522592E+03 -0.91712051884E+03  0.13206128093E+04  0.10100000352E+00 0. -1.
       -3    1    3    3    0  502 -0.44204034597E+03  0.84113522592E+03  0.68410463618E+03  0.11708575059E+04  0.10100000352E+00 0.  1.
</event>
<event>
 5   0  0.6648328E-05  0.1440210E+04  0.7818609E-02  0.8925216E-01
       -2   -1    0    0    0  501  0.00000000000E+00  0.00000000000E+00  0.32293489771E+03  0.32293489772E+03  0.25500000920E-02 0. -1.
        2   -1    0    0  501    0  0.00000000000E+00  0.00000000000E+00 -0.16057461457E+04  0.16057461457E+04  0.25500000920E-02 0.  1.
    10030    2    1    2    0    0  0.00000000000E+00  0.00000000000E+00 -0.12828112479E+04  0.19286810434E+04  0.14402103559E+04 0.  0.
        2    1    3    3  502    0  0.57944667939E+03  0.38445022878E+03 -0.89190859124E+03  0.11309559531E+04  0.25500000920E-02 0.  1.
       -2    1    3    3    0  502 -0.57944667939E+03 -0.38445022878E+03 -0.39090265671E+03  0.79772509030E+03  0.25500000920E-02 0. -1.
</event>
<event>
 5   0  0.6909250E-05  0.1260501E+04  0.7818609E-02  0.9061488E-01
        2   -1    0    0  501    0  0.00000000000E+00  0.00000000000E+00  0.19049367520E+04  0.19049367520E+04  0.25500000920E-02 0. -1.
       -2   -1    0    0    0  501  0.00000000000E+00  0.00000000000E+00 -0.20851914631E+03  0.20851914633E+03  0.25500000920E-02 0.  1.
    10030    2    1    2    0    0  0.00000000000E+00  0.00000000000E+00  0.16964176056E+04  0.21134558983E+04  0.12605011469E+04 0.  0.
        4    1    3    3  502    0  0.99416144968E+02 -0.30190731272E+03 -0.64284526776E+02  0.32429262810E+03  0.12699999809E+01 0.  1.
       -4    1    3    3    0  502 -0.99416144968E+02  0.30190731272E+03  0.17607021324E+04  0.17891632702E+04  0.12699999809E+01 0. -1.
</event>
<event>
 5   0  0.6827859E-05  0.2409490E+04  0.7818609E-02  0.8435959E-01
        2   -1    0    0  501    0  0.00000000000E+00  0.00000000000E+00  0.24004888348E+04  0.24004888348E+04  0.25500000920E-02 0. -1.
       -2   -1    0    0    0  501  0.00000000000E+00  0.00000000000E+00 -0.60463142070E+03  0.60463142071E+03  0.25500000920E-02 0.  1.
    10030    2    1    2    0    0  0.00000000000E+00  0.00000000000E+00  0.17958574141E+04  0.30051202556E+04  0.24094903815E+04 0.  0.
        3    1    3    3  502    0  0.75244723867E+03 -0.50081685600E+03 -0.95470767358E+02  0.90890541194E+03  0.10100000352E+00 0.  1.
       -3    1    3    3    0  502 -0.75244723867E+03  0.50081685600E+03  0.18913281815E+04  0.20962148436E+04  0.10100000352E+00 0. -1.
</event>
<event>
 5   0  0.2977854E-05  0.2476656E+04  0.7818609E-02  0.8411350E-01
       -1   -1    0    0    0  501  0.00000000000E+00  0.00000000000E+00  0.12443850248E+04  0.12443850248E+04  0.50400001928E-02 0. -1.
        1   -1    0    0  501    0  0.00000000000E+00  0.00000000000E+00 -0.12323001450E+04  0.12323001450E+04  0.50400001928E-02 0.  1.
    10030    2    1    2    0    0  0.00000000000E+00  0.00000000000E+00  0.12084879795E+02  0.24766851698E+04  0.24766556858E+04 0.  0.
        1    1    3    3  502    0 -0.51252466081E+03  0.16608109014E+02 -0.11211348928E+04  0.12328425711E+04  0.50400001928E-02 0.  1.
       -1    1    3    3    0  502  0.51252466081E+03 -0.16608109014E+02  0.11332197726E+04  0.12438425987E+04  0.50400001928E-02 0. -1.
</event>
<event>
 5   0  0.2331375E-05  0.2763723E+04  0.7818609E-02  0.8314620E-01
        3   -1    0    0  501    0  0.00000000000E+00  0.00000000000E+00  0.12109709764E+04  0.12109709806E+04  0.10100000352E+00 0. -1.
       -3   -1    0    0    0  501  0.00000000000E+00  0.00000000000E+00 -0.15768682199E+04  0.15768682231E+04  0.10100000352E+00 0.  1.
    10030    2    1    2    0    0  0.00000000000E+00  0.00000000000E+00 -0.36589724348E+03  0.27878392037E+04  0.27637233279E+04 0.  0.
        4    1    3    3  502    0  0.11216952493E+04  0.77394264253E+02  0.62739794039E+03  0.12875635491E+04  0.12699999809E+01 0. -1.
       -4    1    3    3    0  502 -0.11216952493E+04 -0.77394264253E+02 -0.99329518387E+03  0.15002756546E+04  0.12699999809E+01 0.  1.
</event>
<event>
 5   0  0.6909250E-05  0.2337803E+04  0.7818609E-02  0.8463163E-01
       -2   -1    0    0    0  501  0.00000000000E+00  0.00000000000E+00  0.10809377638E+04  0.10809377638E+04  0.25500000920E-02 0.  1.
        2   -1    0    0  501    0  0.00000000000E+00  0.00000000000E+00 -0.12640237975E+04  0.12640237975E+04  0.25500000920E-02 0. -1.
    10030    2    1    2    0    0  0.00000000000E+00  0.00000000000E+00 -0.18308603365E+03  0.23449615613E+04  0.23378032912E+04 0.  0.
        4    1    3    3  502    0 -0.86363341061E+03 -0.57828489811E+03 -0.62802023445E+03  0.12143669623E+04  0.12699999809E+01 0.  1.
       -4    1    3    3    0  502  0.86363341061E+03  0.57828489811E+03  0.44493420081E+03  0.11305945990E+04  0.12699999809E+01 0. -1.
</event>
<event>
 5   0  0.6648328E-05  0.2424809E+04  0.7818609E-02  0.8430273E-01
        2   -1    0    0  501    0  0.00000000000E+00  0.00000000000E+00  0.89033883953E+03  0.89033883954E+03  0.25500000920E-02 0.  1.
       -2   -1    0    0    0  501  0.00000000000E+00  0.00000000000E+00 -0.16509725506E+04  0.16509725506E+04  0.25500000920E-02 0. -1.
    10030    2    1    2    0    0  0.00000000000E+00  0.00000000000E+00 -0.76063371109E+03  0.25413113902E+04  0.24248092583E+04 0.  0.
        2    1    3    3  502    0 -0.67753123091E+03 -0.91546668234E+03  0.55344073746E+02  0.11402590854E+04  0.25500000920E-02 0.  1.
       -2    1    3    3    0  502  0.67753123091E+03  0.91546668234E+03 -0.81597778484E+03  0.14010523048E+04  0.25500000920E-02 0. -1.
</event>
<event>
 5   0  0.2793920E-05  0.2650793E+04  0.7818609E-02  0.8351150E-01
       -1   -1    0    0    0  501  0.00000000000E+00  0.00000000000E+00  0.66888424693E+03  0.66888424695E+03  0.50400001928E-02 0. -1.
        1   -1    0    0  501    0  0.00000000000E+00  0.00000000000E+00 -0.26262784538E+04  0.26262784538E+04  0.50400001928E-02 0.  1.
    10030    2    1    2    0    0  0.00000000000E+00  0.00000000000E+00 -0.19573942068E+04  0.32951627007E+04  0.26507933045E+04 0.  0.
        2    1    3    3  502    0  0.72529720310E+03 -0.86414088661E+03 -0.18434065123E+04  0.21612364689E+04  0.25500000920E-02 0.  1.
       -2    1    3    3    0  502 -0.72529720310E+03  0.86414088661E+03 -0.11398769449E+03  0.11339262318E+04  0.25500000920E-02 0. -1.
</event>
<event>
 5   0  0.2793920E-05  0.2645196E+04  0.7818609E-02  0.8353009E-01
        1   -1    0    0  501    0  0.00000000000E+00  0.00000000000E+00  0.59056548654E+03  0.59056548656E+03  0.50400001928E-02 0.  1.
       -1   -1    0    0    0  501  0.00000000000E+00  0.00000000000E+00 -0.29620184693E+04  0.29620184693E+04  0.50400001928E-02 0. -1.
    10030    2    1    2    0    0  0.00000000000E+00  0.00000000000E+00 -0.23714529827E+04  0.35525839558E+04  0.26451963091E+04 0.  0.
        2    1    3    3  502    0 -0.91926459864E+03 -0.40073572113E+03 -0.27576773817E+02  0.10031934006E+04  0.25500000920E-02 0.  1.
       -2    1    3    3    0  502  0.91926459864E+03  0.40073572113E+03 -0.23438762089E+04  0.25493905552E+04  0.25500000920E-02 0. -1.
</event>
<event>
 5   0  0.6445331E-05  0.2907014E+04  0.7818609E-02  0.8270794E-01
       -2   -1    0    0    0  501  0.00000000000E+00  0.00000000000E+00  0.14115913685E+04  0.14115913685E+04  0.25500000920E-02 0.  1.
        2   -1    0    0  501    0  0.00000000000E+00  0.00000000000E+00 -0.14966673597E+04  0.14966673597E+04  0.25500000920E-02 0. -1.
    10030    2    1    2    0    0  0.00000000000E+00  0.00000000000E+00 -0.85075991227E+02  0.29082587282E+04  0.29070140877E+04 0.  0.
        1    1    3    3  502    0 -0.14416744336E+04 -0.27486167413E+02 -0.22565205442E+03  0.14594860437E+04  0.50400001928E-02 0. -1.
       -1    1    3    3    0  502  0.14416744336E+04  0.27486167413E+02  0.14057606320E+03  0.14487726846E+04  0.50400001928E-02 0.  1.
</event>
<event>
 5   0  0.2977854E-05  0.2390988E+04  0.7818609E-02  0.8442885E-01
       -1   -1    0    0    0  501  0.00000000000E+00  0.00000000000E+00  0.12418667038E+04  0.12418667038E+04  0.50400001928E-02 0. -1.
        1   -1    0    0  501    0  0.00000000000E+00  0.00000000000E+00 -0.11508530466E+04  0.11508530466E+04  0.50400001928E-02 0.  1.
    10030    2    1    2    0    0  0.00000000000E+00  0.00000000000E+00  0.91013657188E+02  0.23927197504E+04  0.23909881468E+04 0.  0.
        1    1    3    3  502    0 -0.93729540192E+03  0.48934787430E+03  0.60378365707E+03  0.12175954653E+04  0.50400001928E-02 0. -1.
       -1    1    3    3    0  502  0.93729540192E+03 -0.48934787430E+03 -0.51276999988E+03  0.11751242851E+04  0.50400001928E-02 0.  1.
</event>
<event>
 5   0  0.2980790E-05  0.2400472E+04  0.7818609E-02  0.8439327E-01
        1   -1    0    0  501    0  0.00000000000E+00  0.00000000000E+00  0.14915534054E+04  0.14915534054E+04  0.50400001928E-02 0.  1.
       -1   -1    0    0    0  501  0.00000000000E+00  0.00000000000E+00 -0.96581589755E+03  0.96581589756E+03  0.50400001928E-02 0. -1.
    10030    2    1    2    0    0  0.00000000000E+00  0.00000000000E+00  0.52573750786E+03  0.24573693030E+04  0.24004716128E+04 0.  0.
        5    1    3    3  502    0 -0.12309896826E+02 -0.11972250818E+04  0.17694800695E+03  0.12103024900E+04  0.46999998093E+01 0.  1.
       -5    1    3    3    0  502  0.12309896826E+02  0.11972250818E+04  0.34878950090E+03  0.12470668130E+04  0.46999998093E+01 0. -1.
</event>
<event>
 5   0  0.2977854E-05  0.2513169E+04  0.7818609E-02  0.8398309E-01
       -1   -1    0    0    0  501  0.00000000000E+00  0.00000000000E+00  0.10847463861E+04  0.10847463861E+04  0.50400001928E-02 0.  1.
        1   -1    0    0  501    0  0.00000000000E+00  0.00000000000E+00 -0.14556441705E+04  0.14556441705E+04  0.50400001928E-02 0. -1.
    10030    2    1    2    0    0  0.00000000000E+00  0.00000000000E+00 -0.37089778437E+03  0.25403905567E+04  0.25131691177E+04 0.  0.
        1    1    3    3  502    0  0.54910250170E+02  0.17865851014E+03 -0.14415146433E+04  0.14535812553E+04  0.50400001928E-02 0. -1.
       -1    1    3    3    0  502 -0.54910250170E+02 -0.17865851014E+03  0.10706168590E+04  0.10868093014E+04  0.50400001928E-02 0.  1.
</event>
<event>
 5   0  0.2777539E-05  0.2394026E+04  0.7818609E-02  0.8441744E-01
       -1   -1    0    0    0  501  0.00000000000E+00  0.00000000000E+00  0.88571739576E+03  0.88571739578E+03  0.50400001928E-02 0. -1.
        1   -1    0    0  501    0  0.00000000000E+00  0.00000000000E+00 -0.16177164949E+04  0.16177164949E+04  0.50400001928E-02 0.  1.
    10030    2    1    2    0    0  0.00000000000E+00  0.00000000000E+00 -0.73199909915E+03  0.25034338907E+04  0.23940255980E+04 0.  0.
        3    1    3    3  502    0 -0.53932930424E+03  0.94737049914E+03  0.15101733912E+03  0.11005422336E+04  0.10100000352E+00 0. -1.
       -3    1    3    3    0  502  0.53932930424E+03 -0.94737049914E+03 -0.88301643827E+03  0.14028916571E+04  0.10100000352E+00 0.  1.
</event>
<event>
 5   0  0.6445331E-05  0.2432265E+04  0.7818609E-02  0.8427522E-01
       -2   -1    0    0    0  501  0.00000000000E+00  0.00000000000E+00  0.11378757605E+04  0.11378757605E+04  0.25500000920E-02 0.  1.
        2   -1    0    0  501    0  0.00000000000E+00  0.00000000000E+00 -0.12997711790E+04  0.12997711790E+04  0.25500000920E-02 0. -1.
    10030    2    1    2    0    0  0.00000000000E+00  0.00000000000E+00 -0.16189541853E+03  0.24376469395E+04  0.24322648858E+04 0.  0.
        1    1    3    3  502    0 -0.52134369784E+03  0.92268148906E+03 -0.67878904007E+03  0.12585288803E+04  0.50400001928E-02 0. -1.
       -1    1    3    3    0  502  0.52134369784E+03 -0.92268148906E+03  0.51689362154E+03  0.11791180592E+04  0.50400001928E-02 0.  1.
</event>
<event>
 5   0  0.6445331E-05  0.2467597E+04  0.7818609E-02  0.8414621E-01
        2   -1    0    0  501    0  0.00000000000E+00  0.00000000000E+00  0.16981516886E+04  0.16981516886E+04  0.25500000920E-02 0. -1.
       -2   -1    0    0    0  501  0.00000000000E+00  0.00000000000E+00 -0.89642068943E+03  0.89642068943E+03  0.25500000920E-02 0.  1.
    10030    2    1    2    0    0  0.00000000000E+00  0.00000000000E+00  0.80173099916E+03  0.25945723780E+04  0.24675966506E+04 0.  0.
        1    1    3    3  502    0 -0.64887299056E+03  0.10370692575E+04  0.56945808597E+03  0.13493818268E+04  0.50400001928E-02 0.  1.
       -1    1    3    3    0  502  0.64887299056E+03 -0.10370692575E+04  0.23227291319E+03  0.12451905513E+04  0.50400001928E-02 0. -1.
</event>
<event>
 5   0  0.2331375E-05  0.2525456E+04  0.7818609E-02  0.8393972E-01
        3   -1    0    0  501    0  0.00000000000E+00  0.00000000000E+00  0.11819357735E+04  0.11819357778E+04  0.10100000352E+00 0. -1.
       -3   -1    0    0    0  501  0.00000000000E+00  0.00000000000E+00 -0.13490430891E+04  0.13490430928E+04  0.10100000352E+00 0.  1.
    10030    2    1    2    0    0  0.00000000000E+00  0.00000000000E+00 -0.16710731554E+03  0.25309788707E+04  0.25254562338E+04 0.  0.
        3    1    3    3  502    0 -0.87014475768E+03  0.91437163971E+03 -0.48051734295E+02  0.12631454288E+04  0.10100000352E+00 0.  1.
       -3    1    3    3    0  502  0.87014475768E+03 -0.91437163971E+03 -0.11905558124E+03  0.12678334419E+04  0.10100000352E+00 0. -1.
</event>
<event>
 5   0  0.6909250E-05  0.2457683E+04  0.7818609E-02  0.8418218E-01
       -2   -1    0    0    0  501  0.00000000000E+00  0.00000000000E+00  0.77397381114E+03  0.77397381114E+03  0.25500000920E-02 0. -1.
        2   -1    0    0  501    0  0.00000000000E+00  0.00000000000E+00 -0.19510369989E+04  0.19510369989E+04  0.25500000920E-02 0.  1.
    10030    2    1    2    0    0  0.00000000000E+00  0.00000000000E+00 -0.11770631878E+04  0.27250108101E+04  0.24576830892E+04 0.  0.
        4    1    3    3  502    0  0.61338940901E+02  0.91147743176E+03  0.32275263254E+03  0.96887793296E+03  0.12699999809E+01 0. -1.
       -4    1    3    3    0  502 -0.61338940901E+02 -0.91147743176E+03 -0.14998158203E+04  0.17561328771E+04  0.12699999809E+01 0.  1.
</event>
<event>
 5   0  0.2793920E-05  0.2439992E+04  0.7818609E-02  0.8424681E-01
       -1   -1    0    0    0  501  0.00000000000E+00  0.00000000000E+00  0.11828935973E+04  0.11828935973E+04  0.50400001928E-02 0. -1.
        1   -1    0    0  501    0  0.00000000000E+00  0.00000000000E+00 -0.12582623411E+04  0.12582623411E+04  0.50400001928E-02 0.  1.
    10030    2    1    2    0    0  0.00000000000E+00  0.00000000000E+00 -0.75368743799E+02  0.24411559384E+04  0.24399921860E+04 0.  0.
        2    1    3    3  502    0  0.66539773127E+03 -0.94586024429E+03 -0.42643722773E+03  0.12325804037E+04  0.25500000920E-02 0.  1.
       -2    1    3    3    0  502 -0.66539773127E+03  0.94586024429E+03  0.35106848393E+03  0.12085755346E+04  0.25500000920E-02 0. -1.
</event>
<event>
 5   0  0.7071821E-05  0.1503575E+04  0.7818609E-02  0.8882079E-01
        2   -1    0    0  501    0  0.00000000000E+00  0.00000000000E+00  0.15977727246E+04  0.15977727246E+04  0.25500000920E-02 0.  1.
       -2   -1    0    0    0  501  0.00000000000E+00  0.00000000000E+00 -0.35373291263E+03  0.35373291264E+03  0.25500000920E-02 0. -1.
    10030    2    1    2    0    0  0.00000000000E+00  0.00000000000E+00  0.12440398119E+04  0.19515056372E+04  0.15035754715E+04 0.  0.
        5    1    3    3  502    0 -0.31921814134E+03 -0.31972386661E+03  0.14018890168E+04  0.14729013809E+04  0.46999998093E+01 0.  1.
       -5    1    3    3    0  502  0.31921814134E+03  0.31972386661E+03 -0.15784920484E+03  0.47860425626E+03  0.46999998093E+01 0. -1.
</event>
<event>
 5   0  0.7071821E-05  0.2288791E+04  0.7818609E-02  0.8482354E-01
        2   -1    0    0  501    0  0.00000000000E+00  0.00000000000E+00  0.10599261054E+04  0.10599261054E+04  0.25500000920E-02 0.  1.
       -2   -1    0    0    0  501  0.00000000000E+00  0.00000000000E+00 -0.12355970268E+04  0.12355970268E+04  0.25500000920E-02 0. -1.
    10030    2    1    2    0    0  0.00000000000E+00  0.00000000000E+00 -0.17567092138E+03  0.22955231322E+04  0.22887914230E+04 0.  0.
        5    1    3    3  502    0  0.81665819775E+03 -0.32979083557E+03  0.64501663768E+03  0.10916781394E+04  0.46999998093E+01 0.  1.
       -5    1    3    3    0  502 -0.81665819775E+03  0.32979083557E+03 -0.82068755906E+03  0.12038449928E+04  0.46999998093E+01 0. -1.
</event>
<event>
 5   0  0.6827859E-05  0.2548376E+04  0.7818609E-02  0.8385951E-01
        2   -1    0    0  501    0  0.00000000000E+00  0.00000000000E+00  0.19524690471E+04  0.19524690471E+04  0.25500000920E-02 0. -1.
       -2   -1    0    0    0  501  0.00000000000E+00  0.00000000000E+00 -0.83153938828E+03  0.83153938828E+03  0.25500000920E-02 0.  1.
    10030    2    1    2    0    0  0.00000000000E+00  0.00000000000E+00  0.11209296588E+04  0.27840084354E+04  0.25483758883E+04 0.  0.
        3    1    3    3  502    0  0.12077042472E+04 -0.35193312301E+03  0.33885770370E+03  0.13027781950E+04  0.10100000352E+00 0.  1.
       -3    1    3    3    0  502 -0.12077042472E+04  0.35193312301E+03  0.78207195513E+03  0.14812302404E+04  0.10100000352E+00 0. -1.
</event>
<event>
 5   0  0.7071821E-05  0.2444878E+04  0.7818609E-02  0.8422890E-01
       -2   -1    0    0    0  501  0.00000000000E+00  0.00000000000E+00  0.68925125684E+03  0.68925125685E+03  0.25500000920E-02 0. -1.
        2   -1    0    0  501    0  0.00000000000E+00  0.00000000000E+00 -0.21680884795E+04  0.21680884795E+04  0.25500000920E-02 0.  1.
    10030    2    1    2    0    0  0.00000000000E+00  0.00000000000E+00 -0.14788372227E+04  0.28573397364E+04  0.24448784914E+04 0.  0.
        5    1    3    3  502    0  0.75205491409E+03  0.15072431227E+03  0.37302032042E+03  0.85291890679E+03  0.46999998093E+01 0. -1.
       -5    1    3    3    0  502 -0.75205491409E+03 -0.15072431227E+03 -0.18518575431E+04  0.20044208296E+04  0.46999998093E+01 0.  1.
</event>
<event>
 5   0  0.6648328E-05  0.2816989E+04  0.7818609E-02  0.8298013E-01
       -2   -1    0    0    0  501  0.00000000000E+00  0.00000000000E+00  0.13201954767E+04  0.13201954767E+04  0.25500000920E-02 0. -1.
        2   -1    0    0  501    0  0.00000000000E+00  0.00000000000E+00 -0.15026992909E+04  0.15026992909E+04  0.25500000920E-02 0.  1.
    10030    2    1    2    0    0  0.00000000000E+00  0.00000000000E+00 -0.18250381418E+03  0.28228947676E+04  0.28169890356E+04 0.  0.
        2    1    3    3  502    0 -0.12627526423E+04  0.41219580335E+03 -0.56064312574E+03  0.14417941359E+04  0.25500000920E-02 0. -1.
       -2    1    3    3    0  502  0.12627526423E+04 -0.41219580335E+03  0.37813931156E+03  0.13811006317E+04  0.25500000920E-02 0.  1.
</event>
<event>
 5   0  0.7071821E-05  0.2502562E+04  0.7818609E-02  0.8402074E-01
       -2   -1    0    0    0  501  0.00000000000E+00  0.00000000000E+00  0.92543472252E+03  0.92543472253E+03  0.25500000920E-02 0. -1.
        2   -1    0    0  501    0  0.00000000000E+00  0.00000000000E+00 -0.16918573867E+04  0.16918573867E+04  0.25500000920E-02 0.  1.
    10030    2    1    2    0    0  0.00000000000E+00  0.00000000000E+00 -0.76642266417E+03  0.26172921092E+04  0.25025615447E+04 0.  0.
        5    1    3    3  502    0 -0.26649529150E+03  0.32767264075E+03  0.84862052012E+03  0.94792825523E+03  0.46999998093E+01 0. -1.
       -5    1    3    3    0  502  0.26649529150E+03 -0.32767264075E+03 -0.16150431843E+04  0.16693638540E+04  0.46999998093E+01 0.  1.
</event>
<event>
 5   0  0.6648328E-05  0.2401214E+04  0.7818609E-02  0.8439049E-01
       -2   -1    0    0    0  501  0.00000000000E+00  0.00000000000E+00  0.55572293048E+03  0.55572293049E+03  0.25500000920E-02 0. -1.
        2   -1    0    0  501    0  0.00000000000E+00  0.00000000000E+00 -0.25938420492E+04  0.25938420492E+04  0.25500000920E-02 0.  1.
    10030    2    1    2    0    0  0.00000000000E+00  0.00000000000E+00 -0.20381191187E+04  0.31495649797E+04  0.24012142802E+04 0.  0.
        2    1    3    3  502    0 -0.11622689979E+04 -0.99081711764E+02 -0.64628381779E+03  0.13335550915E+04  0.25500000920E-02 0. -1.
       -2    1    3    3    0  502  0.11622689979E+04  0.99081711764E+02 -0.13918353010E+04  0.18160098882E+04  0.25500000920E-02 0.  1.
</event>
<event>
 5   0  0.6909250E-05  0.2508594E+04  0.7818609E-02  0.8399930E-01
        2   -1    0    0  501    0  0.00000000000E+00  0.00000000000E+00  0.13685878817E+04  0.13685878817E+04  0.25500000920E-02 0.  1.
       -2   -1    0    0    0  501  0.00000000000E+00  0.00000000000E+00 -0.11495506071E+04  0.11495506071E+04  0.25500000920E-02 0. -1.
    10030    2    1    2    0    0  0.00000000000E+00  0.00000000000E+00  0.21903727454E+03  0.25181384888E+04  0.25085940526E+04 0.  0.
        4    1    3    3  502    0 -0.51689114339E+03 -0.58050267242E+03  0.10976926586E+04  0.13450243836E+04  0.12699999809E+01 0.  1.
       -4    1    3    3    0  502  0.51689114339E+03  0.58050267242E+03 -0.87865538410E+03  0.11731141051E+04  0.12699999809E+01 0. -1.
</event>
<event>
 5   0  0.6445331E-05  0.2497478E+04  0.7818609E-02  0.8403884E-01
       -2   -1    0    0    0  501  0.00000000000E+00  0.00000000000E+00  0.69382670298E+03  0.69382670298E+03  0.25500000920E-02 0. -1.
        2   -1    0    0  501    0  0.00000000000E+00  0.00000000000E+00 -0.22474624090E+04  0.22474624090E+04  0.25500000920E-02 0.  1.
    10030    2    1    2    0    0  0.00000000000E+00  0.00000000000E+00 -0.15536357060E+04  0.29412891120E+04  0.24974782748E+04 0.  0.
        1    1    3    3  502    0 -0.42248717146E+03  0.10719130495E+04 -0.13438994784E+04  0.17701860930E+04  0.50400001928E-02 0. -1.
       -1    1    3    3    0  502  0.42248717146E+03 -0.10719130495E+04 -0.20973622762E+03  0.11711030190E+04  0.50400001928E-02 0.  1.
</event>
<event>
 5   0  0.2977854E-05  0.2430385E+04  0.7818609E-02  0.8428215E-01
        1   -1    0    0  501    0  0.00000000000E+00  0.00000000000E+00  0.13597710507E+04  0.13597710507E+04  0.50400001928E-02 0.  1.
       -1   -1    0    0    0  501  0.00000000000E+00  0.00000000000E+00 -0.10859867562E+04  0.10859867562E+04  0.50400001928E-02 0. -1.
    10030    2    1    2    0    0  0.00000000000E+00  0.00000000000E+00  0.27378429447E+03  0.24457578069E+04  0.24303854448E+04 0.  0.
        1    1    3    3  502    0 -0.36368549476E+03 -0.89270310229E+03  0.88150972384E+03  0.13062332721E+04  0.50400001928E-02 0.  1.
       -1    1    3    3    0  502  0.36368549476E+03  0.89270310229E+03 -0.60772542937E+03  0.11395245348E+04  0.50400001928E-02 0. -1.
</event>
<event>
 5   0  0.2980790E-05  0.2509854E+04  0.7818609E-02  0.8399484E-01
       -1   -1    0    0    0  501  0.00000000000E+00  0.00000000000E+00  0.97046790875E+03  0.97046790876E+03  0.50400001928E-02 0.  1.
        1   -1    0    0  501    0  0.00000000000E+00  0.00000000000E+00 -0.16227649304E+04  0.16227649304E+04  0.50400001928E-02 0. -1.
    10030    2    1    2    0    0  0.00000000000E+00  0.00000000000E+00 -0.65229702168E+03  0.25932328392E+04  0.25098536120E+04 0.  0.
        5    1    3    3  502    0  0.32478941172E+03  0.83045286975E+03 -0.12384766247E+04  0.15261017564E+04  0.46999998093E+01 0. -1.
       -5    1    3    3    0  502 -0.32478941172E+03 -0.83045286975E+03  0.58617960306E+03  0.10671310828E+04  0.46999998093E+01 0.  1.
</event>
<event>
 5   0  0.2793920E-05  0.1342727E+04  0.7818609E-02  0.8996352E-01
        1   -1    0    0  501    0  0.00000000000E+00  0.00000000000E+00  0.13312649453E+04  0.13312649453E+04  0.50400001928E-02 0.  1.
       -1   -1    0    0    0  501  0.00000000000E+00  0.00000000000E+00 -0.33857215125E+03  0.33857215129E+03  0.50400001928E-02 0. -1.
    10030    2    1    2    0    0  0.00000000000E+00  0.00000000000E+00  0.99269279401E+03  0.16698370966E+04  0.13427274280E+04 0.  0.
        2    1    3    3  502    0  0.27418600217E+03 -0.44203376492E+03  0.10241985843E+04  0.11487186571E+04  0.25500000920E-02 0.  1.
       -2    1    3    3    0  502 -0.27418600217E+03  0.44203376492E+03 -0.31505790277E+02  0.52111843946E+03  0.25500000920E-02 0. -1.
</event>
<event>
 5   0  0.2980790E-05  0.2543348E+04  0.7818609E-02  0.8387703E-01
        1   -1    0    0  501    0  0.00000000000E+00  0.00000000000E+00  0.14571142973E+04  0.14571142973E+04  0.50400001928E-02 0.  1.
       -1   -1    0    0    0  501  0.00000000000E+00  0.00000000000E+00 -0.11098341742E+04  0.11098341742E+04  0.50400001928E-02 0. -1.
    10030    2    1    2    0    0  0.00000000000E+00  0.00000000000E+00  0.34728012306E+03  0.25669484715E+04  0.25433483779E+04 0.  0.
        5    1    3    3  502    0 -0.65468602215E+03 -0.10677808738E+04  0.39559743630E+03  0.13135026470E+04  0.46999998093E+01 0. -1.
       -5    1    3    3    0  502  0.65468602215E+03  0.10677808738E+04 -0.48317313240E+02  0.12534458245E+04  0.46999998093E+01 0.  1.
</event>
<event>
 5   0  0.6445331E-05  0.2481712E+04  0.7818609E-02  0.8409530E-01
       -2   -1    0    0    0  501  0.00000000000E+00  0.00000000000E+00  0.92928122849E+03  0.92928122849E+03  0.25500000920E-02 0.  1.
        2   -1    0    0  501    0  0.00000000000E+00  0.00000000000E+00 -0.16568977768E+04  0.16568977768E+04  0.25500000920E-02 0. -1.
    10030    2    1    2    0    0  0.00000000000E+00  0.00000000000E+00 -0.72761654835E+03  0.25861790053E+04  0.24817123133E+04 0.  0.
        1    1    3    3  502    0 -0.11014802283E+04 -0.52060403409E+03 -0.60916954860E+03  0.13621214309E+04  0.50400001928E-02 0.  1.
       -1    1    3    3    0  502  0.11014802283E+04  0.52060403409E+03 -0.11844699975E+03  0.12240575744E+04  0.50400001928E-02 0. -1.
</event>
<event>
 5   0  0.6909250E-05  0.2501768E+04  0.7818609E-02  0.8402356E-01
       -2   -1    0    0    0  501  0.00000000000E+00  0.00000000000E+00  0.72002911178E+03  0.72002911178E+03  0.25500000920E-02 0.  1.
        2   -1    0    0  501    0  0.00000000000E+00  0.00000000000E+00 -0.21731207089E+04  0.21731207089E+04  0.25500000920E-02 0. -1.
    10030    2    1    2    0    0  0.00000000000E+00  0.00000000000E+00 -0.14530915971E+04  0.28931498207E+04  0.25017675142E+04 0.  0.
        4    1    3    3  502    0  0.31429845367E+03 -0.11335694047E+04 -0.23462203143E+03  0.11995049911E+04  0.12699999809E+01 0.  1.
       -4    1    3    3    0  502 -0.31429845367E+03  0.11335694047E+04 -0.12184695657E+04  0.16936448295E+04  0.12699999809E+01 0. -1.
</event>
<event>
 5   0  0.2896652E-05  0.2409854E+04  0.7818609E-02  0.8435824E-01
        1   -1    0    0  501    0  0.00000000000E+00  0.00000000000E+00  0.17042891534E+04  0.17042891534E+04  0.50400001928E-02 0.  1.
       -1   -1    0    0    0  501  0.00000000000E+00  0.00000000000E+00 -0.85187952007E+03  0.85187952008E+03  0.50400001928E-02 0. -1.
    10030    2    1    2    0    0  0.00000000000E+00  0.00000000000E+00  0.85240963337E+03  0.25561686735E+04  0.24098539592E+04 0.  0.
        4    1    3    3  502    0  0.34491902694E+03  0.43070083776E+03  0.15623961905E+04  0.16569718814E+04  0.12699999809E+01 0.  1.
       -4    1    3    3    0  502 -0.34491902694E+03 -0.43070083776E+03 -0.70998655712E+03  0.89919679213E+03  0.12699999809E+01 0. -1.
</event>
<event>
 5   0  0.2793920E-05  0.2505253E+04  0.7818609E-02  0.8401116E-01
        1   -1    0    0  501    0  0.00000000000E+00  0.00000000000E+00  0.11364312642E+04  0.11364312642E+04  0.50400001928E-02 0.  1.
       -1   -1    0    0    0  501  0.00000000000E+00  0.00000000000E+00 -0.13807024950E+04  0.13807024950E+04  0.50400001928E-02 0. -1.
    10030    2    1    2    0    0  0.00000000000E+00  0.00000000000E+00 -0.24427123072E+03  0.25171337592E+04  0.25052532662E+04 0.  0.
        2    1    3    3  502    0 -0.12208697111E+04 -0.27928983206E+03 -0.98619065429E+02  0.12562847535E+04  0.25500000920E-02 0.  1.
       -2    1    3    3    0  502  0.12208697111E+04  0.27928983206E+03 -0.14565216529E+03  0.12608490057E+04  0.25500000920E-02 0. -1.
</event>
<event>
 5   0  0.2793920E-05  0.2470835E+04  0.7818609E-02  0.8413450E-01
       -1   -1    0    0    0  501  0.00000000000E+00  0.00000000000E+00  0.92593868147E+03  0.92593868148E+03  0.50400001928E-02 0.  1.
        1   -1    0    0  501    0  0.00000000000E+00  0.00000000000E+00 -0.16483339447E+04  0.16483339448E+04  0.50400001928E-02 0. -1.
    10030    2    1    2    0    0  0.00000000000E+00  0.00000000000E+00 -0.72239526328E+03  0.25742726262E+04  0.24708348058E+04 0.  0.
        2    1    3    3  502    0 -0.13880899530E+03  0.12275758089E+04 -0.35414247192E+03  0.12851564863E+04  0.25500000920E-02 0. -1.
       -2    1    3    3    0  502  0.13880899530E+03 -0.12275758089E+04 -0.36825279136E+03  0.12891161399E+04  0.25500000920E-02 0.  1.
</event>
<event>
 5   0  0.6648328E-05  0.2489080E+04  0.7818609E-02  0.8406886E-01
        2   -1    0    0  501    0  0.00000000000E+00  0.00000000000E+00  0.18954186524E+04  0.18954186524E+04  0.25500000920E-02 0.  1.
       -2   -1    0    0    0  501  0.00000000000E+00  0.00000000000E+00 -0.81717002712E+03  0.81717002713E+03  0.25500000920E-02 0. -1.
    10030    2    1    2    0    0  0.00000000000E+00  0.00000000000E+00  0.10782486252E+04  0.27125886795E+04  0.24890795982E+04 0.  0.
        2    1    3    3  502    0  0.30231195349E+03  0.76237050056E+03 -0.48103058184E+03  0.95078479058E+03  0.25500000920E-02 0. -1.
       -2    1    3    3    0  502 -0.30231195349E+03 -0.76237050056E+03  0.15592792071E+04  0.17618038889E+04  0.25500000920E-02 0.  1.
</event>
<event>
 5   0  0.2977854E-05  0.2377318E+04  0.7818609E-02  0.8448044E-01
       -1   -1    0    0    0  501  0.00000000000E+00  0.00000000000E+00  0.93933984007E+03  0.93933984008E+03  0.50400001928E-02 0.  1.
        1   -1    0    0  501    0  0.00000000000E+00  0.00000000000E+00 -0.15041528916E+04  0.15041528916E+04  0.50400001928E-02 0. -1.
    10030    2    1    2    0    0  0.00000000000E+00  0.00000000000E+00 -0.56481305152E+03  0.24434927317E+04  0.23773184361E+04 0.  0.
        1    1    3    3  502    0  0.72481070778E+03 -0.70332008947E+03 -0.92667261767E+03  0.13706683956E+04  0.50400001928E-02 0.  1.
       -1    1    3    3    0  502 -0.72481070778E+03  0.70332008947E+03  0.36185956616E+03  0.10728243361E+04  0.50400001928E-02 0. -1.
</event>
<event>
 5   0  0.2793920E-05  0.2582563E+04  0.7818609E-02  0.8374148E-01
        1   -1    0    0  501    0  0.00000000000E+00  0.00000000000E+00  0.11818239086E+04  0.11818239086E+04  0.50400001928E-02 0. -1.
       -1   -1    0    0    0  501  0.00000000000E+00  0.00000000000E+00 -0.14108772339E+04  0.14108772339E+04  0.50400001928E-02 0.  1.
    10030    2    1    2    0    0  0.00000000000E+00  0.00000000000E+00 -0.22905332539E+03  0.25927011425E+04  0.25825634142E+04 0.  0.
        2    1    3    3  502    0 -0.96290239108E+03  0.17795261600E+03 -0.95959119030E+03  0.13710081695E+04  0.25500000920E-02 0.  1.
       -2    1    3    3    0  502  0.96290239108E+03 -0.17795261600E+03  0.73053786491E+03  0.12216929730E+04  0.25500000920E-02 0. -1.
</event>
<event>
 5   0  0.2777539E-05  0.2607694E+04  0.7818609E-02  0.8365593E-01
       -1   -1    0    0    0  501  0.00000000000E+00  0.00000000000E+00  0.74139115280E+03  0.74139115282E+03  0.50400001928E-02 0.  1.
        1   -1    0    0  501    0  0.00000000000E+00  0.00000000000E+00 -0.22930087959E+04  0.22930087959E+04  0.50400001928E-02 0. -1.
    10030    2    1    2    0    0  0.00000000000E+00  0.00000000000E+00 -0.15516176431E+04  0.30343999487E+04  0.26076935668E+04 0.  0.
        3    1    3    3  502    0  0.90477509274E+03 -0.62105914395E+03  0.43445451435E+02  0.10982804497E+04  0.10100000352E+00 0.  1.
       -3    1    3    3    0  502 -0.90477509274E+03  0.62105914395E+03 -0.15950630945E+04  0.19361194990E+04  0.10100000352E+00 0. -1.
</event>
<event>
 5   0  0.2896652E-05  0.2562249E+04  0.7818609E-02  0.8381139E-01
        1   -1    0    0  501    0  0.00000000000E+00  0.00000000000E+00  0.14685361607E+04  0.14685361607E+04  0.50400001928E-02 0.  1.
       -1   -1    0    0    0  501  0.00000000000E+00  0.00000000000E+00 -0.11176298315E+04  0.11176298315E+04  0.50400001928E-02 0. -1.
    10030    2    1    2    0    0  0.00000000000E+00  0.00000000000E+00  0.35090632919E+03  0.25861659923E+04  0.25622488731E+04 0.  0.
        4    1    3    3  502    0  0.55806051584E+03  0.18188137191E+03  0.13248390665E+04  0.14490384873E+04  0.12699999809E+01 0.  1.
       -4    1    3    3    0  502 -0.55806051584E+03 -0.18188137191E+03 -0.97393273729E+03  0.11371275049E+04  0.12699999809E+01 0. -1.
</event>
<event>
 5   0  0.6909250E-05  0.2513367E+04  0.7818609E-02  0.8398239E-01
        2   -1    0    0  501    0  0.00000000000E+00  0.00000000000E+00  0.48387027106E+03  0.48387027107E+03  0.25500000920E-02 0.  1.
       -2   -1    0    0    0  501  0.00000000000E+00  0.00000000000E+00 -0.32637960382E+04  0.32637960382E+04  0.25500000920E-02 0. -1.
    10030    2    1    2    0    0  0.00000000000E+00  0.00000000000E+00 -0.27799257671E+04  0.37476663093E+04  0.25133673617E+04 0.  0.
        4    1    3    3  502    0 -0.87620604577E+03  0.18833053582E+03 -0.27035198426E+04  0.28481970749E+04  0.12699999809E+01 0.  1.
       -4    1    3    3    0  502  0.87620604577E+03 -0.18833053582E+03 -0.76405924559E+02  0.89946923437E+03  0.12699999809E+01 0. -1.
</event>
<event>
 5   0  0.6648328E-05  0.1419585E+04  0.7818609E-02  0.8939763E-01
       -2   -1    0    0    0  501  0.00000000000E+00  0.00000000000E+00  0.48892093777E+03  0.48892093778E+03  0.25500000920E-02 0.  1.
        2   -1    0    0  501    0  0.00000000000E+00  0.00000000000E+00 -0.10304428471E+04  0.10304428471E+04  0.25500000920E-02 0. -1.
    10030    2    1    2    0    0  0.00000000000E+00  0.00000000000E+00 -0.54152190935E+03  0.15193637849E+04  0.14195845634E+04 0.  0.
        2    1    3    3  502    0  0.10780407138E+03 -0.46555118713E+03  0.29095700491E+03  0.55947797486E+03  0.25500000920E-02 0.  1.
       -2    1    3    3    0  502 -0.10780407138E+03  0.46555118713E+03 -0.83247891425E+03  0.95988581004E+03  0.25500000920E-02 0. -1.
</event>
<event>
 5   0  0.7071821E-05  0.2485991E+04  0.7818609E-02  0.8407993E-01
        2   -1    0    0  501    0  0.00000000000E+00  0.00000000000E+00  0.17759041758E+04  0.17759041758E+04  0.25500000920E-02 0. -1.
       -2   -1    0    0    0  501  0.00000000000E+00  0.00000000000E+00 -0.87000044700E+03  0.87000044700E+03  0.25500000920E-02 0.  1.
    10030    2    1    2    0    0  0.00000000000E+00  0.00000000000E+00  0.90590372876E+03  0.26459046228E+04  0.24859906892E+04 0.  0.
        5    1    3    3  502    0 -0.10624609881E+04  0.31164552113E+03 -0.14824544756E+03  0.11171146247E+04  0.46999998093E+01 0.  1.
       -5    1    3    3    0  502  0.10624609881E+04 -0.31164552113E+03  0.10541491763E+04  0.15287899980E+04  0.46999998093E+01 0. -1.
</event>
<event>
 5   0  0.6827859E-05  0.2526565E+04  0.7818609E-02  0.8393582E-01
        2   -1    0    0  501    0  0.00000000000E+00  0.00000000000E+00  0.12642925127E+04  0.12642925127E+04  0.25500000920E-02 0.  1.
       -2   -1    0    0    0  501  0.00000000000E+00  0.00000000000E+00 -0.12622736081E+04  0.12622736081E+04  0.25500000920E-02 0. -1.
    10030    2    1    2    0    0  0.00000000000E+00  0.00000000000E+00  0.20189045432E+01  0.25265661208E+04  0.25265653142E+04 0.  0.
        3    1    3    3  502    0  0.14101368626E+02 -0.69658291009E+03 -0.10527728646E+04  0.12624410140E+04  0.10100000352E+00 0. -1.
       -3    1    3    3    0  502 -0.14101368626E+02  0.69658291009E+03  0.10547917691E+04  0.12641251068E+04  0.10100000352E+00 0.  1.
</event>
<event>
 5   0  0.6445331E-05  0.2482116E+04  0.7818609E-02  0.8409385E-01
       -2   -1    0    0    0  501  0.00000000000E+00  0.00000000000E+00  0.51721092506E+03  0.51721092506E+03  0.25500000920E-02 0. -1.
        2   -1    0    0  501    0  0.00000000000E+00  0.00000000000E+00 -0.29779429804E+04  0.29779429804E+04  0.25500000920E-02 0.  1.
    10030    2    1    2    0    0  0.00000000000E+00  0.00000000000E+00 -0.24607320553E+04  0.34951539054E+04  0.24821157456E+04 0.  0.
        1    1    3    3  502    0  0.94527855084E+03 -0.75330115123E+03 -0.83405550972E+03  0.14685580535E+04  0.50400001928E-02 0. -1.
       -1    1    3    3    0  502 -0.94527855084E+03  0.75330115123E+03 -0.16266765456E+04  0.20265958519E+04  0.50400001928E-02 0.  1.
</event>
<event>
 5   0  0.2777539E-05  0.2516570E+04  0.7818609E-02  0.8397106E-01
       -1   -1    0    0    0  501  0.00000000000E+00  0.00000000000E+00  0.12778727695E+04  0.12778727695E+04  0.50400001928E-02 0. -1.
        1   -1    0    0  501    0  0.00000000000E+00  0.00000000000E+00 -0.12389972335E+04  0.12389972335E+04  0.50400001928E-02 0.  1.
    10030    2    1    2    0    0  0.00000000000E+00  0.00000000000E+00  0.38875536022E+02  0.25168700030E+04  0.25165697496E+04 0.  0.
        3    1    3    3  502    0 -0.11466232726E+04  0.49806372976E+03 -0.12364714466E+03  0.12562249141E+04  0.10100000352E+00 0.  1.
       -3    1    3    3    0  502  0.11466232726E+04 -0.49806372976E+03  0.16252268068E+03  0.12606450889E+04  0.10100000352E+00 0. -1.
</event>
<event>
 5   0  0.2777539E-05  0.2451655E+04  0.7818609E-02  0.8420414E-01
        1   -1    0    0  501    0  0.00000000000E+00  0.00000000000E+00  0.14668051434E+04  0.14668051434E+04  0.50400001928E-02 0.  1.
       -1   -1    0    0    0  501  0.00000000000E+00  0.00000000000E+00 -0.10244391601E+04  0.10244391601E+04  0.50400001928E-02 0. -1.
    10030    2    1    2    0    0  0.00000000000E+00  0.00000000000E+00  0.44236598334E+03  0.24912443036E+04  0.24516546488E+04 0.  0.
        3    1    3    3  502    0  0.54361511833E+03  0.28684847315E+03 -0.85653453206E+03  0.10542536973E+04  0.10100000352E+00 0. -1.
       -3    1    3    3    0  502 -0.54361511833E+03 -0.28684847315E+03  0.12989005154E+04  0.14369906063E+04  0.10100000352E+00 0.  1.
</event>
<event>
 5   0  0.7071821E-05  0.2553067E+04  0.7818609E-02  0.8384320E-01
       -2   -1    0    0    0  501  0.00000000000E+00  0.00000000000E+00  0.76470910032E+03  0.76470910032E+03  0.25500000920E-02 0.  1.
        2   -1    0    0  501    0  0.00000000000E+00  0.00000000000E+00 -0.21309252552E+04  0.21309252552E+04  0.25500000920E-02 0. -1.
    10030    2    1    2    0    0  0.00000000000E+00  0.00000000000E+00 -0.13662161549E+04  0.28956343556E+04  0.25530671239E+04 0.  0.
        5    1    3    3  502    0  0.26734224263E+03  0.10607434000E+04 -0.14293144130E+04  0.17998917236E+04  0.46999998093E+01 0. -1.
       -5    1    3    3    0  502 -0.26734224263E+03 -0.10607434000E+04  0.63098258110E+02  0.10957426320E+04  0.46999998093E+01 0.  1.
</event>
<event>
 5   0  0.2896652E-05  0.2430958E+04  0.7818609E-02  0.8428004E-01
       -1   -1    0    0    0  501  0.00000000000E+00  0.00000000000E+00  0.11790339901E+04  0.11790339901E+04  0.50400001928E-02 0.  1.
        1   -1    0    0  501    0  0.00000000000E+00  0.00000000000E+00 -0.12530501702E+04  0.12530501702E+04  0.50400001928E-02 0. -1.
    10030    2    1    2    0    0  0.00000000000E+00  0.00000000000E+00 -0.74016180140E+02  0.24320841603E+04  0.24309576237E+04 0.  0.
        4    1    3    3  502    0  0.12499477105E+03 -0.10218458332E+04 -0.68352309863E+03  0.12357176211E+04  0.12699999809E+01 0. -1.
       -4    1    3    3    0  502 -0.12499477105E+03  0.10218458332E+04  0.60950691849E+03  0.11963665393E+04  0.12699999809E+01 0.  1.
</event>
<event>
 5   0  0.6445331E-05  0.2471124E+04  0.7818609E-02  0.8413346E-01
       -2   -1    0    0    0  501  0.00000000000E+00  0.00000000000E+00  0.13560222445E+04  0.13560222445E+04  0.25500000920E-02 0. -1.
        2   -1    0    0  501    0  0.00000000000E+00  0.00000000000E+00 -0.11258024961E+04  0.11258024961E+04  0.25500000920E-02 0.  1.
    10030    2    1    2    0    0  0.00000000000E+00  0.00000000000E+00  0.23021974839E+03  0.24818247405E+04  0.24711238152E+04 0.  0.
        1    1    3    3  502    0 -0.30546615831E+03  0.77367123286E+03  0.10327054257E+04  0.13260306357E+04  0.50400001928E-02 0. -1.
       -1    1    3    3    0  502  0.30546615831E+03 -0.77367123286E+03 -0.80248567735E+03  0.11557941048E+04  0.50400001928E-02 0.  1.
</event>
<event>
 5   0  0.6827859E-05  0.2388252E+04  0.7818609E-02  0.8443915E-01
       -2   -1    0    0    0  501  0.00000000000E+00  0.00000000000E+00  0.13499647592E+04  0.13499647592E+04  0.25500000920E-02 0. -1.
        2   -1    0    0  501    0  0.00000000000E+00  0.00000000000E+00 -0.10562774332E+04  0.10562774332E+04  0.25500000920E-02 0.  1.
    10030    2    1    2    0    0  0.00000000000E+00  0.00000000000E+00  0.29368732600E+03  0.24062421924E+04  0.23882523407E+04 0.  0.
        3    1    3    3  502    0  0.57811891903E+03 -0.92038396179E+03  0.64514895627E+03  0.12639403893E+04  0.10100000352E+00 0. -1.
       -3    1    3    3    0  502 -0.57811891903E+03  0.92038396179E+03 -0.35146163028E+03  0.11423018031E+04  0.10100000352E+00 0.  1.
</event>
<event>
 5   0  0.2777539E-05  0.2497463E+04  0.7818609E-02  0.8403890E-01
        1   -1    0    0  501    0  0.00000000000E+00  0.00000000000E+00  0.20974920506E+04  0.20974920506E+04  0.50400001928E-02 0. -1.
       -1   -1    0    0    0  501  0.00000000000E+00  0.00000000000E+00 -0.74342614514E+03  0.74342614515E+03  0.50400001928E-02 0.  1.
    10030    2    1    2    0    0  0.00000000000E+00  0.00000000000E+00  0.13540659055E+04  0.28409181958E+04  0.24974630565E+04 0.  0.
        3    1    3    3  502    0 -0.52863282482E+03 -0.38540619135E+03 -0.53288575849E+03  0.84377594041E+03  0.10100000352E+00 0.  1.
       -3    1    3    3    0  502  0.52863282482E+03  0.38540619135E+03  0.18869516640E+04  0.19971422554E+04  0.10100000352E+00 0. -1.
</event>
<event>
 5   0  0.6827859E-05  0.2430883E+04  0.7818609E-02  0.8428031E-01
       -2   -1    0    0    0  501  0.00000000000E+00  0.00000000000E+00  0.73410621907E+03  0.73410621907E+03  0.25500000920E-02 0. -1.
        2   -1    0    0  501    0  0.00000000000E+00  0.00000000000E+00 -0.20123757956E+04  0.20123757956E+04  0.25500000920E-02 0.  1.
    10030    2    1    2    0    0  0.00000000000E+00  0.00000000000E+00 -0.12782695765E+04  0.27464820147E+04  0.24308826271E+04 0.  0.
        3    1    3    3  502    0  0.11537223915E+04  0.36969527302E+03 -0.74953259411E+03  0.14246224312E+04  0.10100000352E+00 0.  1.
       -3    1    3    3    0  502 -0.11537223915E+04 -0.36969527302E+03 -0.52873698241E+03  0.13218595835E+04  0.10100000352E+00 0. -1.
</event>
<event>
 5   0  0.6445331E-05  0.1293314E+04  0.7818609E-02  0.9034884E-01
        2   -1    0    0  501    0  0.00000000000E+00  0.00000000000E+00  0.13379433267E+04  0.13379433267E+04  0.25500000920E-02 0. -1.
       -2   -1    0    0    0  501  0.00000000000E+00  0.00000000000E+00 -0.31254353639E+03  0.31254353640E+03  0.25500000920E-02 0.  1.
    10030    2    1    2    0    0  0.00000000000E+00  0.00000000000E+00  0.10253997903E+04  0.16504868631E+04  0.12933144070E+04 0.  0.
        1    1    3    3  502    0  0.40361701042E+03 -0.36066354602E+03  0.61180339106E+02  0.54472737993E+03  0.50400001928E-02 0.  1.
       -1    1    3    3    0  502 -0.40361701042E+03  0.36066354602E+03  0.96421945122E+03  0.11057594832E+04  0.50400001928E-02 0. -1.
</event>
<event>
 5   0  0.2793920E-05  0.2271299E+04  0.7818609E-02  0.8489324E-01
       -1   -1    0    0    0  501  0.00000000000E+00  0.00000000000E+00  0.10388699443E+04  0.10388699443E+04  0.50400001928E-02 0.  1.
        1   -1    0    0  501    0  0.00000000000E+00  0.00000000000E+00 -0.12414449973E+04  0.12414449973E+04  0.50400001928E-02 0. -1.
    10030    2    1    2    0    0  0.00000000000E+00  0.00000000000E+00 -0.20257505301E+03  0.22803149416E+04  0.22712990954E+04 0.  0.
        2    1    3    3  502    0 -0.99391522631E+03  0.49385039678E+03 -0.34295906380E+03  0.11616267089E+04  0.25500000920E-02 0. -1.
       -2    1    3    3    0  502  0.99391522631E+03 -0.49385039678E+03  0.14038401078E+03  0.11186882327E+04  0.25500000920E-02 0.  1.
</event>
<event>
 5   0  0.6909250E-05  0.2453726E+04  0.7818609E-02  0.8419659E-01
       -2   -1    0    0    0  501  0.00000000000E+00  0.00000000000E+00  0.52113901292E+03  0.52113901293E+03  0.25500000920E-02 0. -1.
        2   -1    0    0  501    0  0.00000000000E+00  0.00000000000E+00 -0.28882746401E+04  0.28882746401E+04  0.25500000920E-02 0.  1.
    10030    2    1    2    0    0  0.00000000000E+00  0.00000000000E+00 -0.23671356272E+04  0.34094136530E+04  0.24537258160E+04 0.  0.
        4    1    3    3  502    0  0.38152525643E+03 -0.54985138053E+03  0.24516600847E+03  0.71274542901E+03  0.12699999809E+01 0. -1.
       -4    1    3    3    0  502 -0.38152525643E+03  0.54985138053E+03 -0.26123016356E+04  0.26966682240E+04  0.12699999809E+01 0.  1.
</event>
<event>
 5   0  0.6648328E-05  0.2554594E+04  0.7818609E-02  0.8383790E-01
        2   -1    0    0  501    0  0.00000000000E+00  0.00000000000E+00  0.13429172652E+04  0.13429172652E+04  0.25500000920E-02 0. -1.
       -2   -1    0    0    0  501  0.00000000000E+00  0.00000000000E+00 -0.12148832385E+04  0.12148832385E+04  0.25500000920E-02 0.  1.
    10030    2    1    2    0    0  0.00000000000E+00  0.00000000000E+00  0.12803402676E+03  0.25578005037E+04  0.25545940391E+04 0.  0.
        2    1    3    3  502    0 -0.45992595852E+03  0.73882599699E+03  0.10001193530E+04  0.13257580704E+04  0.25500000920E-02 0. -1.
       -2    1    3    3    0  502  0.45992595852E+03 -0.73882599699E+03 -0.87208532620E+03  0.12320424332E+04  0.25500000920E-02 0.  1.
</event>
<event>
 5   0  0.2777539E-05  0.2887933E+04  0.7818609E-02  0.8276477E-01
        1   -1    0    0  501    0  0.00000000000E+00  0.00000000000E+00  0.12455233096E+04  0.12455233096E+04  0.50400001928E-02 0. -1.
       -1   -1    0    0    0  501  0.00000000000E+00  0.00000000000E+00 -0.16740266369E+04  0.16740266369E+04  0.50400001928E-02 0.  1.
    10030    2    1    2    0    0  0.00000000000E+00  0.00000000000E+00 -0.42850332726E+03  0.29195499465E+04  0.28879329612E+04 0.  0.
        3    1    3    3  502    0  0.58521018078E+03 -0.11054764008E+03 -0.15440796256E+04  0.16549542704E+04  0.10100000352E+00 0.  1.
       -3    1    3    3    0  502 -0.58521018078E+03  0.11054764008E+03  0.11155762984E+04  0.12645956762E+04  0.10100000352E+00 0. -1.
</event>
<event>
 5   0  0.2896652E-05  0.2484757E+04  0.7818609E-02  0.8408436E-01
       -1   -1    0    0    0  501  0.00000000000E+00  0.00000000000E+00  0.86896316119E+03  0.86896316120E+03  0.50400001928E-02 0. -1.
        1   -1    0    0  501    0  0.00000000000E+00  0.00000000000E+00 -0.17762591225E+04  0.17762591225E+04  0.50400001928E-02 0.  1.
    10030    2    1    2    0    0  0.00000000000E+00  0.00000000000E+00 -0.90729596135E+03  0.26452222837E+04  0.24847565211E+04 0.  0.
        4    1    3    3  502    0 -0.11261338781E+04  0.11723513804E+03  0.90830913666E+02  0.11358580267E+04  0.12699999809E+01 0.  1.
       -4    1    3    3    0  502  0.11261338781E+04 -0.11723513804E+03 -0.99812687502E+03  0.15093642571E+04  0.12699999809E+01 0. -1.
</event>
<event>
 5   0  0.2980790E-05  0.2456222E+04  0.7818609E-02  0.8418750E-01
       -1   -1    0    0    0  501  0.00000000000E+00  0.00000000000E+00  0.86860841408E+03  0.86860841410E+03  0.50400001928E-02 0. -1.
        1   -1    0    0  501    0  0.00000000000E+00  0.00000000000E+00 -0.17364062616E+04  0.17364062617E+04  0.50400001928E-02 0.  1.
    10030    2    1    2    0    0  0.00000000000E+00  0.00000000000E+00 -0.86779784756E+03  0.26050146757E+04  0.24562223752E+04 0.  0.
        5    1    3    3  502    0 -0.46177960518E+02  0.25084647749E+03  0.84019820549E+03  0.87807259029E+03  0.46999998093E+01 0. -1.
       -5    1    3    3    0  502  0.46177960518E+02 -0.25084647749E+03 -0.17079960530E+04  0.17269420855E+04  0.46999998093E+01 0.  1.
</event>
<event>
 5   0  0.2896652E-05  0.2526867E+04  0.7818609E-02  0.8393476E-01
        1   -1    0    0  501    0  0.00000000000E+00  0.00000000000E+00  0.21970391988E+04  0.21970391988E+04  0.50400001928E-02 0. -1.
       -1   -1    0    0    0  501  0.00000000000E+00  0.00000000000E+00 -0.72655227364E+03  0.72655227366E+03  0.50400001928E-02 0.  1.
    10030    2    1    2    0    0  0.00000000000E+00  0.00000000000E+00  0.14704869252E+04  0.29235914725E+04  0.25268666963E+04 0.  0.
        4    1    3    3  502    0 -0.17044747067E+03 -0.85762964456E+03  0.17903900875E+04  0.19925057655E+04  0.12699999809E+01 0. -1.
       -4    1    3    3    0  502  0.17044747067E+03  0.85762964456E+03 -0.31990316231E+03  0.93108570692E+03  0.12699999809E+01 0.  1.
</event>
<event>
 5   0  0.2977854E-05  0.2839939E+04  0.7818609E-02  0.8290975E-01
       -1   -1    0    0    0  501  0.00000000000E+00  0.00000000000E+00  0.97195708719E+03  0.97195708720E+03  0.50400001928E-02 0.  1.
        1   -1    0    0  501    0  0.00000000000E+00  0.00000000000E+00 -0.20744887453E+04  0.20744887453E+04  0.50400001928E-02 0. -1.
    10030    2    1    2    0    0  0.00000000000E+00  0.00000000000E+00 -0.11025316581E+04  0.30464458325E+04  0.28399394629E+04 0.  0.
        1    1    3    3  502    0 -0.11907068827E+04  0.12712601262E+03 -0.13698887972E+04  0.18194887250E+04  0.50400001928E-02 0. -1.
       -1    1    3    3    0  502  0.11907068827E+04 -0.12712601262E+03  0.26735713916E+03  0.12269571075E+04  0.50400001928E-02 0.  1.
</event>
<event>
 5   0  0.7071821E-05  0.2470287E+04  0.7818609E-02  0.8413648E-01
        2   -1    0    0  501    0  0.00000000000E+00  0.00000000000E+00  0.14396112510E+04  0.14396112510E+04  0.25500000920E-02 0. -1.
       -2   -1    0    0    0  501  0.00000000000E+00  0.00000000000E+00 -0.10597160955E+04  0.10597160955E+04  0.25500000920E-02 0.  1.
    10030    2    1    2    0    0  0.00000000000E+00  0.00000000000E+00  0.37989515550E+03  0.24993273465E+04  0.24702867962E+04 0.  0.
        5    1    3    3  502    0 -0.62341133300E+03  0.13274825071E+03  0.12603515769E+04  0.14123639671E+04  0.46999998093E+01 0. -1.
       -5    1    3    3    0  502  0.62341133300E+03 -0.13274825071E+03 -0.88045642139E+03  0.10869633794E+04  0.46999998093E+01 0.  1.
</event>
<event>
 5   0  0.2896652E-05  0.1848272E+04  0.7818609E-02  0.8681042E-01
       -1   -1    0    0    0  501  0.00000000000E+00  0.00000000000E+00  0.81959647882E+03  0.81959647884E+03  0.50400001928E-02 0. -1.
        1   -1    0    0  501    0  0.00000000000E+00  0.00000000000E+00 -0.10420097937E+04  0.10420097937E+04  0.50400001928E-02 0.  1.
    10030    2    1    2    0    0  0.00000000000E+00  0.00000000000E+00 -0.22241331488E+03  0.18616062726E+04  0.18482722287E+04 0.  0.
        4    1    3    3  502    0 -0.26656765579E+03  0.16885569257E+03 -0.98606689220E+03  0.10353260785E+04  0.12699999809E+01 0.  1.
       -4    1    3    3    0  502  0.26656765579E+03 -0.16885569257E+03  0.76365357732E+03  0.82628019405E+03  0.12699999809E+01 0. -1.
</event>
<event>
 5   0  0.2331375E-05  0.2491515E+04  0.7818609E-02  0.8406015E-01
       -4   -1    0    0    0  501  0.00000000000E+00  0.00000000000E+00  0.13748104216E+04  0.13748110082E+04  0.12699999809E+01 0. -1.
        4   -1    0    0  501    0  0.00000000000E+00  0.00000000000E+00 -0.11288176960E+04  0.11288184104E+04  0.12699999809E+01 0.  1.
    10030    2    1    2    0    0  0.00000000000E+00  0.00000000000E+00  0.24599272562E+03  0.25036294186E+04  0.24915151704E+04 0.  0.
        1    1    3    3  502    0  0.55741750036E+03  0.10549651098E+04  0.48285252736E+03  0.12871721780E+04  0.50400001928E-02 0. -1.
       -1    1    3    3    0  502 -0.55741750036E+03 -0.10549651098E+04 -0.23685980174E+03  0.12164572406E+04  0.50400001928E-02 0.  1.
</event>
<event>
 5   0  0.6827859E-05  0.2655830E+04  0.7818609E-02  0.8349481E-01
       -2   -1    0    0    0  501  0.00000000000E+00  0.00000000000E+00  0.15571162424E+04  0.15571162424E+04  0.25500000920E-02 0.  1.
        2   -1    0    0  501    0  0.00000000000E+00  0.00000000000E+00 -0.11324509099E+04  0.11324509099E+04  0.25500000920E-02 0. -1.
    10030    2    1    2    0    0  0.00000000000E+00  0.00000000000E+00  0.42466533248E+03  0.26895671523E+04  0.26558295921E+04 0.  0.
        3    1    3    3  502    0  0.88590400546E+02  0.10137578984E+04  0.10762844643E+04  0.14811960012E+04  0.10100000352E+00 0.  1.
       -3    1    3    3    0  502 -0.88590400546E+02 -0.10137578984E+04 -0.65161913180E+03  0.12083711511E+04  0.10100000352E+00 0. -1.
</event>
<event>
 5   0  0.6827859E-05  0.2493931E+04  0.7818609E-02  0.8405151E-01
        2   -1    0    0  501    0  0.00000000000E+00  0.00000000000E+00  0.17574290510E+04  0.17574290510E+04  0.25500000920E-02 0.  1.
       -2   -1    0    0    0  501  0.00000000000E+00  0.00000000000E+00 -0.88477116781E+03  0.88477116782E+03  0.25500000920E-02 0. -1.
    10030    2    1    2    0    0  0.00000000000E+00  0.00000000000E+00  0.87265788319E+03  0.26422002188E+04  0.24939306757E+04 0.  0.
        3    1    3    3  502    0 -0.10464134948E+04  0.63056343081E+03  0.17182402616E+03  0.12337402273E+04  0.10100000352E+00 0.  1.
       -3    1    3    3    0  502  0.10464134948E+04 -0.63056343081E+03  0.70083385703E+03  0.14084599915E+04  0.10100000352E+00 0. -1.
</event>
<event>
 5   0  0.2980790E-05  0.2479757E+04  0.7818609E-02  0.8410233E-01
       -1   -1    0    0    0  501  0.00000000000E+00  0.00000000000E+00  0.83509671748E+03  0.83509671750E+03  0.50400001928E-02 0.  1.
        1   -1    0    0  501    0  0.00000000000E+00  0.00000000000E+00 -0.18408635133E+04  0.18408635133E+04  0.50400001928E-02 0. -1.
    10030    2    1    2    0    0  0.00000000000E+00  0.00000000000E+00 -0.10057667958E+04  0.26759602308E+04  0.24797573085E+04 0.  0.
        5    1    3    3  502    0  0.94420639144E+02 -0.83906271275E+03 -0.14826496495E+04  0.17062278764E+04  0.46999998093E+01 0. -1.
       -5    1    3    3    0  502 -0.94420639144E+02  0.83906271275E+03  0.47688285370E+03  0.96973235440E+03  0.46999998093E+01 0.  1.
</event>
<event>
 5   0  0.7071821E-05  0.2477108E+04  0.7818609E-02  0.8411186E-01
       -2   -1    0    0    0  501  0.00000000000E+00  0.00000000000E+00  0.90663772635E+03  0.90663772635E+03  0.25500000920E-02 0.  1.
        2   -1    0    0  501    0  0.00000000000E+00  0.00000000000E+00 -0.16919838865E+04  0.16919838865E+04  0.25500000920E-02 0. -1.
    10030    2    1    2    0    0  0.00000000000E+00  0.00000000000E+00 -0.78534616016E+03  0.25986216129E+04  0.24771083334E+04 0.  0.
        5    1    3    3  502    0  0.87915587620E+03  0.87182742287E+03 -0.35956175698E+03  0.12893040204E+04  0.46999998093E+01 0.  1.
       -5    1    3    3    0  502 -0.87915587620E+03 -0.87182742287E+03 -0.42578440318E+03  0.13093175925E+04  0.46999998093E+01 0. -1.
</event>
<event>
 5   0  0.6827859E-05  0.2514087E+04  0.7818609E-02  0.8397984E-01
       -2   -1    0    0    0  501  0.00000000000E+00  0.00000000000E+00  0.10113009164E+04  0.10113009164E+04  0.25500000920E-02 0. -1.
        2   -1    0    0  501    0  0.00000000000E+00  0.00000000000E+00 -0.15625004162E+04  0.15625004162E+04  0.25500000920E-02 0.  1.
    10030    2    1    2    0    0  0.00000000000E+00  0.00000000000E+00 -0.55119949976E+03  0.25738013326E+04  0.25140867947E+04 0.  0.
        3    1    3    3  502    0 -0.10073090054E+04 -0.68959237917E+03 -0.58263833090E+03  0.13526553577E+04  0.10100000352E+00 0.  1.
       -3    1    3    3    0  502  0.10073090054E+04  0.68959237917E+03  0.31438831138E+02  0.12211459749E+04  0.10100000352E+00 0. -1.
</event>
<event>
 5   0  0.2777539E-05  0.2493858E+04  0.7818609E-02  0.8405177E-01
       -1   -1    0    0    0  501  0.00000000000E+00  0.00000000000E+00  0.70310660436E+03  0.70310660438E+03  0.50400001928E-02 0.  1.
        1   -1    0    0  501    0  0.00000000000E+00  0.00000000000E+00 -0.22113741143E+04  0.22113741143E+04  0.50400001928E-02 0. -1.
    10030    2    1    2    0    0  0.00000000000E+00  0.00000000000E+00 -0.15082675099E+04  0.29144807186E+04  0.24938578504E+04 0.  0.
        3    1    3    3  502    0  0.85079802483E+03  0.27776761462E+03  0.26053247442E+03  0.93214232133E+03  0.10100000352E+00 0.  1.
       -3    1    3    3    0  502 -0.85079802483E+03 -0.27776761462E+03 -0.17687999843E+04  0.19823383973E+04  0.10100000352E+00 0. -1.
</event>
<event>
 5   0  0.2777539E-05  0.2666674E+04  0.7818609E-02  0.8345900E-01
        1   -1    0    0  501    0  0.00000000000E+00  0.00000000000E+00  0.17381522019E+04  0.17381522019E+04  0.50400001928E-02 0. -1.
       -1   -1    0    0    0  501  0.00000000000E+00  0.00000000000E+00 -0.10228030076E+04  0.10228030076E+04  0.50400001928E-02 0.  1.
    10030    2    1    2    0    0  0.00000000000E+00  0.00000000000E+00  0.71534919432E+03  0.27609552096E+04  0.26666738082E+04 0.  0.
        3    1    3    3  502    0  0.12972099336E+04  0.13855618055E+03  0.64279400576E+03  0.14543505668E+04  0.10100000352E+00 0. -1.
       -3    1    3    3    0  502 -0.12972099336E+04 -0.13855618055E+03  0.72555188564E+02  0.13066046428E+04  0.10100000352E+00 0.  1.
</event>
<event>
 5   0  0.2896652E-05  0.2428471E+04  0.7818609E-02  0.8428921E-01
       -1   -1    0    0    0  501  0.00000000000E+00  0.00000000000E+00  0.12707074660E+04  0.12707074660E+04  0.50400001928E-02 0. -1.
        1   -1    0    0  501    0  0.00000000000E+00  0.00000000000E+00 -0.11602728676E+04  0.11602728676E+04  0.50400001928E-02 0.  1.
    10030    2    1    2    0    0  0.00000000000E+00  0.00000000000E+00  0.11043459844E+03  0.24309803336E+04  0.24284706261E+04 0.  0.
        4    1    3    3  502    0  0.19863602543E+03  0.11976402523E+04  0.31373826751E+02  0.12144070053E+04  0.12699999809E+01 0. -1.
       -4    1    3    3    0  502 -0.19863602543E+03 -0.11976402523E+04  0.79060771690E+02  0.12165733283E+04  0.12699999809E+01 0.  1.
</event>
<event>
 5   0  0.6445331E-05  0.2320587E+04  0.7818609E-02  0.8469848E-01
       -2   -1    0    0    0  501  0.00000000000E+00  0.00000000000E+00  0.82512819396E+03  0.82512819397E+03  0.25500000920E-02 0.  1.
        2   -1    0    0  501    0  0.00000000000E+00  0.00000000000E+00 -0.16316018025E+04  0.16316018025E+04  0.25500000920E-02 0. -1.
    10030    2    1    2    0    0  0.00000000000E+00  0.00000000000E+00 -0.80647360851E+03  0.24567299964E+04  0.23205866918E+04 0.  0.
        1    1    3    3  502    0  0.11389458148E+04  0.19305019068E+03 -0.28816443811E+03  0.11905900590E+04  0.50400001928E-02 0. -1.
       -1    1    3    3    0  502 -0.11389458148E+04 -0.19305019068E+03 -0.51830917040E+03  0.12661399375E+04  0.50400001928E-02 0.  1.
</event>
<event>
 5   0  0.2331375E-05  0.2481902E+04  0.7818609E-02  0.8409461E-01
        4   -1    0    0  501    0  0.00000000000E+00  0.00000000000E+00  0.14128814486E+04  0.14128820194E+04  0.12699999809E+01 0.  1.
       -4   -1    0    0    0  501  0.00000000000E+00  0.00000000000E+00 -0.10899413972E+04  0.10899421371E+04  0.12699999809E+01 0. -1.
    10030    2    1    2    0    0  0.00000000000E+00  0.00000000000E+00  0.32294005143E+03  0.25028241565E+04  0.24819021901E+04 0.  0.
        2    1    3    3  502    0 -0.84944189369E+03 -0.39864342029E+03 -0.65746657454E+03  0.11457444758E+04  0.25500000920E-02 0. -1.
       -2    1    3    3    0  502  0.84944189369E+03  0.39864342029E+03  0.98040662597E+03  0.13570796806E+04  0.25500000920E-02 0.  1.
</event>
<event>
 5   0  0.6648328E-05  0.2486462E+04  0.7818609E-02  0.8407824E-01
       -2   -1    0    0    0  501  0.00000000000E+00  0.00000000000E+00  0.78332722114E+03  0.78332722115E+03  0.25500000920E-02 0.  1.
        2   -1    0    0  501    0  0.00000000000E+00  0.00000000000E+00 -0.19731517831E+04  0.19731517831E+04  0.25500000920E-02 0. -1.
    10030    2    1    2    0    0  0.00000000000E+00  0.00000000000E+00 -0.11898245619E+04  0.27564790042E+04  0.24864621478E+04 0.  0.
        2    1    3    3  502    0  0.92917645619E+02 -0.11403889718E+03 -0.19634701776E+04  0.19689727518E+04  0.25500000920E-02 0. -1.
       -2    1    3    3    0  502 -0.92917645619E+02  0.11403889718E+03  0.77364561568E+03  0.78750625243E+03  0.25500000920E-02 0.  1.
</event>
<event>
 5   0  0.6827859E-05  0.1797690E+04  0.7818609E-02  0.8707529E-01
       -2   -1    0    0    0  501  0.00000000000E+00  0.00000000000E+00  0.15688199667E+04  0.15688199667E+04  0.25500000920E-02 0. -1.
        2   -1    0    0  501    0  0.00000000000E+00  0.00000000000E+00 -0.51498741026E+03  0.51498741027E+03  0.25500000920E-02 0.  1.
    10030    2    1    2    0    0  0.00000000000E+00  0.00000000000E+00  0.10538325564E+04  0.20838073769E+04  0.17976902200E+04 0.  0.
        3    1    3    3  502    0  0.79680289366E+03 -0.25689140650E+03  0.14768464351E+03  0.85011693913E+03  0.10100000352E+00 0.  1.
       -3    1    3    3    0  502 -0.79680289366E+03  0.25689140650E+03  0.90614791289E+03  0.12336904378E+04  0.10100000352E+00 0. -1.
</event>
<event>
 5   0  0.2793920E-05  0.2498598E+04  0.7818609E-02  0.8403485E-01
        1   -1    0    0  501    0  0.00000000000E+00  0.00000000000E+00  0.14482924245E+04  0.14482924245E+04  0.50400001928E-02 0. -1.
       -1   -1    0    0    0  501  0.00000000000E+00  0.00000000000E+00 -0.10776471763E+04  0.10776471763E+04  0.50400001928E-02 0.  1.
    10030    2    1    2    0    0  0.00000000000E+00  0.00000000000E+00  0.37064524821E+03  0.25259396007E+04  0.24985982003E+04 0.  0.
        2    1    3    3  502    0 -0.65709136834E+02 -0.21482513938E+03 -0.10570600225E+04  0.10806680445E+04  0.25500000920E-02 0.  1.
       -2    1    3    3    0  502  0.65709136834E+02  0.21482513938E+03  0.14277052707E+04  0.14452715562E+04  0.25500000920E-02 0. -1.
</event>
<event>
 5   0  0.2977854E-05  0.2211113E+04  0.7818609E-02  0.8513817E-01
        1   -1    0    0  501    0  0.00000000000E+00  0.00000000000E+00  0.18422382021E+04  0.18422382021E+04  0.50400001928E-02 0.  1.
       -1   -1    0    0    0  501  0.00000000000E+00  0.00000000000E+00 -0.66346200518E+03  0.66346200520E+03  0.50400001928E-02 0. -1.
    10030    2    1    2    0    0  0.00000000000E+00  0.00000000000E+00  0.11787761969E+04  0.25057002073E+04  0.22111128887E+04 0.  0.
        1    1    3    3  502    0 -0.60217745311E+03 -0.58730345052E+03  0.14024064516E+04  0.16353247028E+04  0.50400001928E-02 0.  1.
       -1    1    3    3    0  502  0.60217745311E+03  0.58730345052E+03 -0.22363025468E+03  0.87037550452E+03  0.50400001928E-02 0. -1.
</event>
<event>
 5   0  0.6827859E-05  0.2412421E+04  0.7818609E-02  0.8434868E-01
        2   -1    0    0  501    0  0.00000000000E+00  0.00000000000E+00  0.16722598692E+04  0.16722598692E+04  0.25500000920E-02 0. -1.
       -2   -1    0    0    0  501  0.00000000000E+00  0.00000000000E+00 -0.87004620354E+03  0.87004620354E+03  0.25500000920E-02 0.  1.
    10030    2    1    2    0    0  0.00000000000E+00  0.00000000000E+00  0.80221366569E+03  0.25423060728E+04  0.24124206520E+04 0.  0.
        3    1    3    3  502    0  0.26834116617E+03  0.41776630840E+03  0.15595681427E+04  0.16367004832E+04  0.10100000352E+00 0. -1.
       -3    1    3    3    0  502 -0.26834116617E+03 -0.41776630840E+03 -0.75735447696E+03  0.90560558958E+03  0.10100000352E+00 0.  1.
</event>
<event>
 5   0  0.7071821E-05  0.2519642E+04  0.7818609E-02  0.8396021E-01
        2   -1    0    0  501    0  0.00000000000E+00  0.00000000000E+00  0.12589915169E+04  0.12589915169E+04  0.25500000920E-02 0. -1.
       -2   -1    0    0    0  501  0.00000000000E+00  0.00000000000E+00 -0.12606513953E+04  0.12606513953E+04  0.25500000920E-02 0.  1.
    10030    2    1    2    0    0  0.00000000000E+00  0.00000000000E+00 -0.16598783999E+01  0.25196429122E+04  0.25196423654E+04 0.  0.
        5    1    3    3  502    0 -0.84763322106E+03 -0.50079075138E+03 -0.78686692082E+03  0.12603392778E+04  0.46999998093E+01 0.  1.
       -5    1    3    3    0  502  0.84763322106E+03  0.50079075138E+03  0.78520704242E+03  0.12593036344E+04  0.46999998093E+01 0. -1.
</event>
<event>
 5   0  0.2777539E-05  0.1656689E+04  0.7818609E-02  0.8786459E-01
        1   -1    0    0  501    0  0.00000000000E+00  0.00000000000E+00  0.14539813076E+04  0.14539813076E+04  0.50400001928E-02 0.  1.
       -1   -1    0    0    0  501  0.00000000000E+00  0.00000000000E+00 -0.47191430997E+03  0.47191431000E+03  0.50400001928E-02 0. -1.
    10030    2    1    2    0    0  0.00000000000E+00  0.00000000000E+00  0.98206699762E+03  0.19258956176E+04  0.16566889696E+04 0.  0.
        3    1    3    3  502    0  0.69368699945E+03  0.31405888132E+03  0.11198120590E+03  0.76965864825E+03  0.10100000352E+00 0. -1.
       -3    1    3    3    0  502 -0.69368699945E+03 -0.31405888132E+03  0.87008579171E+03  0.11562369693E+04  0.10100000352E+00 0.  1.
</event>
<event>
 5   0  0.2793920E-05  0.2453478E+04  0.7818609E-02  0.8419749E-01
        1   -1    0    0  501    0  0.00000000000E+00  0.00000000000E+00  0.18522214869E+04  0.18522214869E+04  0.50400001928E-02 0.  1.
       -1   -1    0    0    0  501  0.00000000000E+00  0.00000000000E+00 -0.81247796507E+03  0.81247796509E+03  0.50400001928E-02 0. -1.
    10030    2    1    2    0    0  0.00000000000E+00  0.00000000000E+00  0.10397435218E+04  0.26646994520E+04  0.24534784650E+04 0.  0.
        2    1    3    3  502    0  0.11519754944E+04 -0.42170382772E+03  0.51690003330E+03  0.13311901826E+04  0.25500000920E-02 0. -1.
       -2    1    3    3    0  502 -0.11519754944E+04  0.42170382772E+03  0.52284348849E+03  0.13335092693E+04  0.25500000920E-02 0.  1.
</event>
<event>
 5   0  0.2793920E-05  0.2261431E+04  0.7818609E-02  0.8493285E-01
       -1   -1    0    0    0  501  0.00000000000E+00  0.00000000000E+00  0.11409756289E+04  0.11409756289E+04  0.50400001928E-02 0.  1.
        1   -1    0    0  501    0  0.00000000000E+00  0.00000000000E+00 -0.11205477879E+04  0.11205477880E+04  0.50400001928E-02 0. -1.
    10030    2    1    2    0    0  0.00000000000E+00  0.00000000000E+00  0.20427840943E+02  0.22615234168E+04  0.22614311549E+04 0.  0.
        2    1    3    3  502    0  0.14699058081E+03 -0.92943387108E+03  0.63718779445E+03  0.11364250248E+04  0.25500000920E-02 0.  1.
       -2    1    3    3    0  502 -0.14699058081E+03  0.92943387108E+03 -0.61675995351E+03  0.11250983921E+04  0.25500000920E-02 0. -1.
</event>
<event>
 5   0  0.6909250E-05  0.2150052E+04  0.7818609E-02  0.8539510E-01
        2   -1    0    0  501    0  0.00000000000E+00  0.00000000000E+00  0.12906297353E+04  0.12906297353E+04  0.25500000920E-02 0.  1.
       -2   -1    0    0    0  501  0.00000000000E+00  0.00000000000E+00 -0.89543951604E+03  0.89543951604E+03  0.25500000920E-02 0. -1.
    10030    2    1    2    0    0  0.00000000000E+00  0.00000000000E+00  0.39519021927E+03  0.21860692514E+04  0.21500519674E+04 0.  0.
        4    1    3    3  502    0 -0.46922500949E+02 -0.62116453162E+03 -0.69322812961E+03  0.93199460783E+03  0.12699999809E+01 0. -1.
       -4    1    3    3    0  502  0.46922500949E+02  0.62116453162E+03  0.10884183489E+04  0.12540746435E+04  0.12699999809E+01 0.  1.
</event>
<event>
 5   0  0.2980790E-05  0.2457491E+04  0.7818609E-02  0.8418288E-01
        1   -1    0    0  501    0  0.00000000000E+00  0.00000000000E+00  0.95521385319E+03  0.95521385320E+03  0.50400001928E-02 0.  1.
       -1   -1    0    0    0  501  0.00000000000E+00  0.00000000000E+00 -0.15806047297E+04  0.15806047297E+04  0.50400001928E-02 0. -1.
    10030    2    1    2    0    0  0.00000000000E+00  0.00000000000E+00 -0.62539087653E+03  0.25358185829E+04  0.24574910248E+04 0.  0.
        5    1    3    3  502    0 -0.35341453538E+02 -0.35117400615E+03 -0.15271626978E+04  0.15674247020E+04  0.46999998093E+01 0. -1.
       -5    1    3    3    0  502  0.35341453538E+02  0.35117400615E+03  0.90177182128E+03  0.96839388091E+03  0.46999998093E+01 0.  1.
</event>
<event>
 5   0  0.7071821E-05  0.2545982E+04  0.7818609E-02  0.8386785E-01
        2   -1    0    0  501    0  0.00000000000E+00  0.00000000000E+00  0.13466987528E+04  0.13466987528E+04  0.25500000920E-02 0. -1.
       -2   -1    0    0    0  501  0.00000000000E+00  0.00000000000E+00 -0.12033170202E+04  0.12033170202E+04  0.25500000920E-02 0.  1.
    10030    2    1    2    0    0  0.00000000000E+00  0.00000000000E+00  0.14338173263E+03  0.25500157730E+04  0.25459815635E+04 0.  0.
        5    1    3    3  502    0 -0.10587756920E+04  0.23664920813E+03 -0.59530324657E+03  0.12375042865E+04  0.46999998093E+01 0.  1.
       -5    1    3    3    0  502  0.10587756920E+04 -0.23664920813E+03  0.73868497920E+03  0.13125114865E+04  0.46999998093E+01 0. -1.
</event>
<event>
 5   0  0.2793920E-05  0.2495689E+04  0.7818609E-02  0.8404523E-01
       -1   -1    0    0    0  501  0.00000000000E+00  0.00000000000E+00  0.17453620658E+04  0.17453620658E+04  0.50400001928E-02 0.  1.
        1   -1    0    0  501    0  0.00000000000E+00  0.00000000000E+00 -0.89214521004E+03  0.89214521006E+03  0.50400001928E-02 0. -1.
    10030    2    1    2    0    0  0.00000000000E+00  0.00000000000E+00  0.85321685571E+03  0.26375072758E+04  0.24956894092E+04 0.  0.
        2    1    3    3  502    0 -0.87074574289E+03 -0.61665336075E+03  0.11104133965E+04  0.15399602032E+04  0.25500000920E-02 0.  1.
       -2    1    3    3    0  502  0.87074574289E+03  0.61665336075E+03 -0.25719654082E+03  0.10975470727E+04  0.25500000920E-02 0. -1.
</event>
<event>
 5   0  0.6445331E-05  0.1489152E+04  0.7818609E-02  0.8891699E-01
       -2   -1    0    0    0  501  0.00000000000E+00  0.00000000000E+00  0.80855014606E+03  0.80855014606E+03  0.25500000920E-02 0. -1.
        2   -1    0    0  501    0  0.00000000000E+00  0.00000000000E+00 -0.68566323279E+03  0.68566323279E+03  0.25500000920E-02 0.  1.
    10030    2    1    2    0    0  0.00000000000E+00  0.00000000000E+00  0.12288691327E+03  0.14942133789E+04  0.14891515800E+04 0.  0.
        1    1    3    3  502    0 -0.50057428319E+03 -0.54389706790E+03 -0.28272284398E+02  0.73972829847E+03  0.50400001928E-02 0.  1.
       -1    1    3    3    0  502  0.50057428319E+03  0.54389706790E+03  0.15115919767E+03  0.75448508039E+03  0.50400001928E-02 0. -1.
</event>
<event>
 5   0  0.2980790E-05  0.2499558E+04  0.7818609E-02  0.8403143E-01
        1   -1    0    0  501    0  0.00000000000E+00  0.00000000000E+00  0.15762684318E+04  0.15762684318E+04  0.50400001928E-02 0.  1.
       -1   -1    0    0    0  501  0.00000000000E+00  0.00000000000E+00 -0.99091487672E+03  0.99091487673E+03  0.50400001928E-02 0. -1.
    10030    2    1    2    0    0  0.00000000000E+00  0.00000000000E+00  0.58535355508E+03  0.25671833085E+04  0.24995582320E+04 0.  0.
        5    1    3    3  502    0 -0.12255652059E+04  0.28114981174E+02  0.54241212462E+03  0.13405347922E+04  0.46999998093E+01 0. -1.
       -5    1    3    3    0  502  0.12255652059E+04 -0.28114981174E+02  0.42941430459E+02  0.12266485163E+04  0.46999998093E+01 0.  1.
</event>
<event>
 5   0  0.2793920E-05  0.1370994E+04  0.7818609E-02  0.8975086E-01
       -1   -1    0    0    0  501  0.00000000000E+00  0.00000000000E+00  0.40238124950E+03  0.40238124953E+03  0.50400001928E-02 0.  1.
        1   -1    0    0  501    0  0.00000000000E+00  0.00000000000E+00 -0.11678129119E+04  0.11678129119E+04  0.50400001928E-02 0. -1.
    10030    2    1    2    0    0  0.00000000000E+00  0.00000000000E+00 -0.76543166238E+03  0.15701941614E+04  0.13709938274E+04 0.  0.
        2    1    3    3  502    0 -0.22254276918E+03  0.29132687200E+03  0.28067611882E+03  0.46170955605E+03  0.25500000920E-02 0.  1.
       -2    1    3    3    0  502  0.22254276918E+03 -0.29132687200E+03 -0.10461077812E+04  0.11084846054E+04  0.25500000920E-02 0. -1.
</event>
<event>
 5   0  0.6648328E-05  0.2184170E+04  0.7818609E-02  0.8525046E-01
       -2   -1    0    0    0  501  0.00000000000E+00  0.00000000000E+00  0.54445208203E+03  0.54445208203E+03  0.25500000920E-02 0.  1.
        2   -1    0    0  501    0  0.00000000000E+00  0.00000000000E+00 -0.21905493042E+04  0.21905493042E+04  0.25500000920E-02 0. -1.
    10030    2    1    2    0    0  0.00000000000E+00  0.00000000000E+00 -0.16460972222E+04  0.27350013862E+04  0.21841695259E+04 0.  0.
        2    1    3    3  502    0  0.40325264046E+03 -0.81223161314E+03 -0.15850532037E+04  0.18261233649E+04  0.25500000920E-02 0. -1.
       -2    1    3    3    0  502 -0.40325264046E+03  0.81223161314E+03 -0.61044018497E+02  0.90887802131E+03  0.25500000920E-02 0.  1.
</event>
<event>
 5   0  0.6648328E-05  0.2617430E+04  0.7818609E-02  0.8362305E-01
        2   -1    0    0  501    0  0.00000000000E+00  0.00000000000E+00  0.11170801358E+04  0.11170801358E+04  0.25500000920E-02 0.  1.
       -2   -1    0    0    0  501  0.00000000000E+00  0.00000000000E+00 -0.15332252174E+04  0.15332252174E+04  0.25500000920E-02 0. -1.
    10030    2    1    2    0    0  0.00000000000E+00  0.00000000000E+00 -0.41614508154E+03  0.26503053532E+04  0.26174303690E+04 0.  0.
        2    1    3    3  502    0  0.10220147547E+04 -0.80295802108E+02 -0.10317848972E+04  0.14544901680E+04  0.25500000920E-02 0. -1.
       -2    1    3    3    0  502 -0.10220147547E+04  0.80295802108E+02  0.61563981563E+03  0.11958151853E+04  0.25500000920E-02 0.  1.
</event>
<event>
 5   0  0.6909250E-05  0.2492525E+04  0.7818609E-02  0.8405653E-01
        2   -1    0    0  501    0  0.00000000000E+00  0.00000000000E+00  0.17729864897E+04  0.17729864897E+04  0.25500000920E-02 0. -1.
       -2   -1    0    0    0  501  0.00000000000E+00  0.00000000000E+00 -0.87601905814E+03  0.87601905814E+03  0.25500000920E-02 0.  1.
    10030    2    1    2    0    0  0.00000000000E+00  0.00000000000E+00  0.89696743157E+03  0.26490055479E+04  0.24925247881E+04 0.  0.
        4    1    3    3  502    0  0.91857490914E+03 -0.13490096967E+03  0.13320561735E+04  0.16236851289E+04  0.12699999809E+01 0. -1.
       -4    1    3    3    0  502 -0.91857490914E+03  0.13490096967E+03 -0.43508874197E+03  0.10253204190E+04  0.12699999809E+01 0.  1.
</event>
<event>
 5   0  0.6648328E-05  0.2598512E+04  0.7818609E-02  0.8368707E-01
       -2   -1    0    0    0  501  0.00000000000E+00  0.00000000000E+00  0.95882893062E+03  0.95882893062E+03  0.25500000920E-02 0.  1.
        2   -1    0    0  501    0  0.00000000000E+00  0.00000000000E+00 -0.17605505268E+04  0.17605505268E+04  0.25500000920E-02 0. -1.
    10030    2    1    2    0    0  0.00000000000E+00  0.00000000000E+00 -0.80172159622E+03  0.27193794575E+04  0.25985124814E+04 0.  0.
        2    1    3    3  502    0 -0.30113489848E+03  0.81356139701E+02 -0.17207823451E+04  0.17488261571E+04  0.25500000920E-02 0. -1.
       -2    1    3    3    0  502  0.30113489848E+03 -0.81356139701E+02  0.91906074892E+03  0.97055330032E+03  0.25500000920E-02 0.  1.
</event>
<event>
 5   0  0.6648328E-05  0.2496877E+04  0.7818609E-02  0.8404099E-01
       -2   -1    0    0    0  501  0.00000000000E+00  0.00000000000E+00  0.29623438905E+04  0.29623438905E+04  0.25500000920E-02 0.  1.
        2   -1    0    0  501    0  0.00000000000E+00  0.00000000000E+00 -0.52613684714E+03  0.52613684715E+03  0.25500000920E-02 0. -1.
    10030    2    1    2    0    0  0.00000000000E+00  0.00000000000E+00  0.24362070434E+04  0.34884807377E+04  0.24968766687E+04 0.  0.
        2    1    3    3  502    0  0.33442242273E+02 -0.90931651560E+03  0.24123281313E+04  0.25782362037E+04  0.25500000920E-02 0.  1.
       -2    1    3    3    0  502 -0.33442242273E+02  0.90931651560E+03  0.23878912067E+02  0.91024453394E+03  0.25500000920E-02 0. -1.
</event>
<event>
 5   0  0.6827859E-05  0.2422517E+04  0.7818609E-02  0.8431122E-01
        2   -1    0    0  501    0  0.00000000000E+00  0.00000000000E+00  0.14106222195E+04  0.14106222195E+04  0.25500000920E-02 0.  1.
       -2   -1    0    0    0  501  0.00000000000E+00  0.00000000000E+00 -0.10400705550E+04  0.10400705550E+04  0.25500000920E-02 0. -1.
    10030    2    1    2    0    0  0.00000000000E+00  0.00000000000E+00  0.37055166445E+03  0.24506927745E+04  0.24225165714E+04 0.  0.
        3    1    3    3  502    0 -0.90606626042E+03 -0.62357953715E+03  0.69846208861E+03  0.13029415976E+04  0.10100000352E+00 0. -1.
       -3    1    3    3    0  502  0.90606626042E+03  0.62357953715E+03 -0.32791042416E+03  0.11477511768E+04  0.10100000352E+00 0.  1.
</event>
<event>
 5   0  0.2896652E-05  0.2644948E+04  0.7818609E-02  0.8353092E-01
       -1   -1    0    0    0  501  0.00000000000E+00  0.00000000000E+00  0.13583448171E+04  0.13583448171E+04  0.50400001928E-02 0.  1.
        1   -1    0    0  501    0  0.00000000000E+00  0.00000000000E+00 -0.12875505268E+04  0.12875505268E+04  0.50400001928E-02 0. -1.
    10030    2    1    2    0    0  0.00000000000E+00  0.00000000000E+00  0.70794290304E+02  0.26458953440E+04  0.26449480788E+04 0.  0.
        4    1    3    3  502    0  0.46117454320E+03 -0.10553738349E+03  0.12707952522E+04  0.13560023173E+04  0.12699999809E+01 0.  1.
       -4    1    3    3    0  502 -0.46117454320E+03  0.10553738349E+03 -0.12000009619E+04  0.12898930266E+04  0.12699999809E+01 0. -1.
</event>
<event>
 5   0  0.2977854E-05  0.1304191E+04  0.7818609E-02  0.9026249E-01
       -1   -1    0    0    0  501  0.00000000000E+00  0.00000000000E+00  0.81036283808E+03  0.81036283810E+03  0.50400001928E-02 0. -1.
        1   -1    0    0  501    0  0.00000000000E+00  0.00000000000E+00 -0.52473815598E+03  0.52473815600E+03  0.50400001928E-02 0.  1.
    10030    2    1    2    0    0  0.00000000000E+00  0.00000000000E+00  0.28562468210E+03  0.13351009941E+04  0.13041906323E+04 0.  0.
        1    1    3    3  502    0  0.59170166797E+03  0.12753615595E+03  0.39115626101E+03  0.72067992584E+03  0.50400001928E-02 0. -1.
       -1    1    3    3    0  502 -0.59170166797E+03 -0.12753615595E+03 -0.10553157891E+03  0.61442106826E+03  0.50400001928E-02 0.  1.
</event>
<event>
 5   0  0.2777539E-05  0.2459067E+04  0.7818609E-02  0.8417715E-01
        1   -1    0    0  501    0  0.00000000000E+00  0.00000000000E+00  0.12670789540E+04  0.12670789540E+04  0.50400001928E-02 0. -1.
       -1   -1    0    0    0  501  0.00000000000E+00  0.00000000000E+00 -0.11931007235E+04  0.11931007235E+04  0.50400001928E-02 0.  1.
    10030    2    1    2    0    0  0.00000000000E+00  0.00000000000E+00  0.73978230540E+02  0.24601796775E+04  0.24590671538E+04 0.  0.
        3    1    3    3  502    0 -0.11322422107E+03 -0.12181138841E+04  0.16005552988E+03  0.12337904772E+04  0.10100000352E+00 0. -1.
       -3    1    3    3    0  502  0.11322422107E+03  0.12181138841E+04 -0.86077299344E+02  0.12263892002E+04  0.10100000352E+00 0.  1.
</event>
<event>
 5   0  0.2793920E-05  0.2449988E+04  0.7818609E-02  0.8421022E-01
       -1   -1    0    0    0  501  0.00000000000E+00  0.00000000000E+00  0.80514407786E+03  0.80514407788E+03  0.50400001928E-02 0. -1.
        1   -1    0    0  501    0  0.00000000000E+00  0.00000000000E+00 -0.18637786482E+04  0.18637786483E+04  0.50400001928E-02 0.  1.
    10030    2    1    2    0    0  0.00000000000E+00  0.00000000000E+00 -0.10586345704E+04  0.26689227261E+04  0.24499880335E+04 0.  0.
        2    1    3    3  502    0 -0.58362785663E+03  0.59990306888E+03  0.44510133886E+03  0.94795588977E+03  0.25500000920E-02 0. -1.
       -2    1    3    3    0  502  0.58362785663E+03 -0.59990306888E+03 -0.15037359092E+04  0.17209668364E+04  0.25500000920E-02 0.  1.
</event>
<event>
 5   0  0.2777539E-05  0.2479333E+04  0.7818609E-02  0.8410385E-01
       -1   -1    0    0    0  501  0.00000000000E+00  0.00000000000E+00  0.98699341437E+03  0.98699341439E+03  0.50400001928E-02 0. -1.
        1   -1    0    0  501    0  0.00000000000E+00  0.00000000000E+00 -0.15570251809E+04  0.15570251809E+04  0.50400001928E-02 0.  1.
    10030    2    1    2    0    0  0.00000000000E+00  0.00000000000E+00 -0.57003176652E+03  0.25440185953E+04  0.24793334585E+04 0.  0.
        3    1    3    3  502    0  0.42953729525E+03  0.73393833120E+03 -0.12105498578E+04  0.14793913378E+04  0.10100000352E+00 0.  1.
       -3    1    3    3    0  502 -0.42953729525E+03 -0.73393833120E+03  0.64051809123E+03  0.10646272575E+04  0.10100000352E+00 0. -1.
</event>
<event>
 5   0  0.6909250E-05  0.2473402E+04  0.7818609E-02  0.8412523E-01
        2   -1    0    0  501    0  0.00000000000E+00  0.00000000000E+00  0.19357006125E+04  0.19357006125E+04  0.25500000920E-02 0. -1.
       -2   -1    0    0    0  501  0.00000000000E+00  0.00000000000E+00 -0.79011677822E+03  0.79011677822E+03  0.25500000920E-02 0.  1.
    10030    2    1    2    0    0  0.00000000000E+00  0.00000000000E+00  0.11455838343E+04  0.27258173907E+04  0.24734021360E+04 0.  0.
        4    1    3    3  502    0 -0.14680394353E+03 -0.10597633039E+04  0.12564001588E+04  0.16502098745E+04  0.12699999809E+01 0. -1.
       -4    1    3    3    0  502  0.14680394353E+03  0.10597633039E+04 -0.11081632452E+03  0.10756075162E+04  0.12699999809E+01 0.  1.
</event>
<event>
 5   0  0.6909250E-05  0.2210103E+04  0.7818609E-02  0.8514235E-01
        2   -1    0    0  501    0  0.00000000000E+00  0.00000000000E+00  0.10834955330E+04  0.10834955330E+04  0.25500000920E-02 0. -1.
       -2   -1    0    0    0  501  0.00000000000E+00  0.00000000000E+00 -0.11270366350E+04  0.11270366350E+04  0.25500000920E-02 0.  1.
    10030    2    1    2    0    0  0.00000000000E+00  0.00000000000E+00 -0.43541101992E+02  0.22105321680E+04  0.22101033094E+04 0.  0.
        4    1    3    3  502    0  0.63643232730E+02  0.59208374213E+03 -0.95282385186E+03  0.11236051461E+04  0.12699999809E+01 0.  1.
       -4    1    3    3    0  502 -0.63643232730E+02 -0.59208374213E+03  0.90928274987E+03  0.10869270219E+04  0.12699999809E+01 0. -1.
</event>
<event>
 5   0  0.6648328E-05  0.2525522E+04  0.7818609E-02  0.8393949E-01
       -2   -1    0    0    0  501  0.00000000000E+00  0.00000000000E+00  0.11699644300E+04  0.11699644300E+04  0.25500000920E-02 0.  1.
        2   -1    0    0  501    0  0.00000000000E+00  0.00000000000E+00 -0.13629182941E+04  0.13629182941E+04  0.25500000920E-02 0. -1.
    10030    2    1    2    0    0  0.00000000000E+00  0.00000000000E+00 -0.19295386407E+03  0.25328827242E+04  0.25255224609E+04 0.  0.
        2    1    3    3  502    0 -0.97574486187E+03  0.47771496608E+02 -0.89893738727E+03  0.13275724378E+04  0.25500000920E-02 0. -1.
       -2    1    3    3    0  502  0.97574486187E+03 -0.47771496608E+02  0.70598352320E+03  0.12053102864E+04  0.25500000920E-02 0.  1.
</event>
<event>
 5   0  0.2331375E-05  0.2495222E+04  0.7818609E-02  0.8404690E-01
       -3   -1    0    0    0  501  0.00000000000E+00  0.00000000000E+00  0.19425295094E+04  0.19425295120E+04  0.10100000352E+00 0. -1.
        3   -1    0    0  501    0  0.00000000000E+00  0.00000000000E+00 -0.80129200627E+03  0.80129201264E+03  0.10100000352E+00 0.  1.
    10030    2    1    2    0    0  0.00000000000E+00  0.00000000000E+00  0.11412375031E+04  0.27438215247E+04  0.24952221386E+04 0.  0.
        4    1    3    3  502    0  0.67022493555E+03  0.16452977113E+03  0.17135256212E+04  0.18472799401E+04  0.12699999809E+01 0. -1.
       -4    1    3    3    0  502 -0.67022493555E+03 -0.16452977113E+03 -0.57228811806E+03  0.89654158454E+03  0.12699999809E+01 0.  1.
</event>
<event>
 5   0  0.2896652E-05  0.1792748E+04  0.7818609E-02  0.8710166E-01
       -1   -1    0    0    0  501  0.00000000000E+00  0.00000000000E+00  0.99080161281E+03  0.99080161282E+03  0.50400001928E-02 0. -1.
        1   -1    0    0  501    0  0.00000000000E+00  0.00000000000E+00 -0.81094531076E+03  0.81094531077E+03  0.50400001928E-02 0.  1.
    10030    2    1    2    0    0  0.00000000000E+00  0.00000000000E+00  0.17985630205E+03  0.18017469236E+04  0.17927475247E+04 0.  0.
        4    1    3    3  502    0  0.89000063573E+03 -0.29149600031E+02  0.19307609052E+03  0.91117002827E+03  0.12699999809E+01 0.  1.
       -4    1    3    3    0  502 -0.89000063573E+03  0.29149600031E+02 -0.13219788463E+02  0.89057689533E+03  0.12699999809E+01 0. -1.
</event>
<event>
 5   0  0.2777539E-05  0.2613082E+04  0.7818609E-02  0.8363771E-01
       -1   -1    0    0    0  501  0.00000000000E+00  0.00000000000E+00  0.17432115809E+04  0.17432115809E+04  0.50400001928E-02 0. -1.
        1   -1    0    0  501    0  0.00000000000E+00  0.00000000000E+00 -0.97925564320E+03  0.97925564322E+03  0.50400001928E-02 0.  1.
    10030    2    1    2    0    0  0.00000000000E+00  0.00000000000E+00  0.76395593765E+03  0.27224672241E+04  0.26130823009E+04 0.  0.
        3    1    3    3  502    0 -0.75621394739E+03 -0.59911740729E+02  0.14902750711E+04  0.16722346571E+04  0.10100000352E+00 0. -1.
       -3    1    3    3    0  502  0.75621394739E+03  0.59911740729E+02 -0.72631913341E+03  0.10502325669E+04  0.10100000352E+00 0.  1.
</event>
<event>
 5   0  0.2896652E-05  0.2476548E+04  0.7818609E-02  0.8411388E-01
       -1   -1    0    0    0  501  0.00000000000E+00  0.00000000000E+00  0.21793126345E+04  0.21793126345E+04  0.50400001928E-02 0.  1.
        1   -1    0    0  501    0  0.00000000000E+00  0.00000000000E+00 -0.70358090693E+03  0.70358090695E+03  0.50400001928E-02 0. -1.
    10030    2    1    2    0    0  0.00000000000E+00  0.00000000000E+00  0.14757317276E+04  0.28828935415E+04  0.24765482107E+04 0.  0.
        4    1    3    3  502    0 -0.41023092348E+03 -0.72046452366E+03  0.18085402220E+04  0.19895169987E+04  0.12699999809E+01 0.  1.
       -4    1    3    3    0  502  0.41023092348E+03  0.72046452366E+03 -0.33280849441E+03  0.89337654283E+03  0.12699999809E+01 0. -1.
</event>
<event>
 5   0  0.2896652E-05  0.2402784E+04  0.7818609E-02  0.8438462E-01
        1   -1    0    0  501    0  0.00000000000E+00  0.00000000000E+00  0.13504625597E+04  0.13504625598E+04  0.50400001928E-02 0.  1.
       -1   -1    0    0    0  501  0.00000000000E+00  0.00000000000E+00 -0.10687762367E+04  0.10687762367E+04  0.50400001928E-02 0. -1.
    10030    2    1    2    0    0  0.00000000000E+00  0.00000000000E+00  0.28168632305E+03  0.24192387965E+04  0.24027836294E+04 0.  0.
        4    1    3    3  502    0 -0.40918087519E+03 -0.10924706417E+04 -0.14821104456E+03  0.11759631025E+04  0.12699999809E+01 0. -1.
       -4    1    3    3    0  502  0.40918087519E+03  0.10924706417E+04  0.42989736761E+03  0.12432756940E+04  0.12699999809E+01 0.  1.
</event>
<event>
 5   0  0.6445331E-05  0.2511137E+04  0.7818609E-02  0.8399029E-01
       -2   -1    0    0    0  501  0.00000000000E+00  0.00000000000E+00  0.47286013851E+03  0.47286013852E+03  0.25500000920E-02 0.  1.
        2   -1    0    0  501    0  0.00000000000E+00  0.00000000000E+00 -0.33338655969E+04  0.33338655969E+04  0.25500000920E-02 0. -1.
    10030    2    1    2    0    0  0.00000000000E+00  0.00000000000E+00 -0.28610054584E+04  0.38067257355E+04  0.25111369122E+04 0.  0.
        1    1    3    3  502    0 -0.12145705803E+03  0.10667286832E+04 -0.24173652948E+04  0.26450551731E+04  0.50400001928E-02 0.  1.
       -1    1    3    3    0  502  0.12145705803E+03 -0.10667286832E+04 -0.44364016369E+03  0.11616705623E+04  0.50400001928E-02 0. -1.
</event>
<event>
 5   0  0.6648328E-05  0.2476727E+04  0.7818609E-02  0.8411324E-01
       -2   -1    0    0    0  501  0.00000000000E+00  0.00000000000E+00  0.84999464215E+03  0.84999464215E+03  0.25500000920E-02 0. -1.
        2   -1    0    0  501    0  0.00000000000E+00  0.00000000000E+00 -0.18041804380E+04  0.18041804381E+04  0.25500000920E-02 0.  1.
    10030    2    1    2    0    0  0.00000000000E+00  0.00000000000E+00 -0.95418579590E+03  0.26541750802E+04  0.24767266347E+04 0.  0.
        2    1    3    3  502    0  0.66935174105E+03  0.54162878280E+03  0.47670259240E+03  0.98419452001E+03  0.25500000920E-02 0. -1.
       -2    1    3    3    0  502 -0.66935174105E+03 -0.54162878280E+03 -0.14308883883E+04  0.16699805602E+04  0.25500000920E-02 0.  1.
</event>
<event>
 5   0  0.6827859E-05  0.2473597E+04  0.7818609E-02  0.8412453E-01
        2   -1    0    0  501    0  0.00000000000E+00  0.00000000000E+00  0.12228609469E+04  0.12228609469E+04  0.25500000920E-02 0.  1.
       -2   -1    0    0    0  501  0.00000000000E+00  0.00000000000E+00 -0.12508949968E+04  0.12508949968E+04  0.25500000920E-02 0. -1.
    10030    2    1    2    0    0  0.00000000000E+00  0.00000000000E+00 -0.28034049914E+02  0.24737559436E+04  0.24735970894E+04 0.  0.
        3    1    3    3  502    0 -0.68799958577E+03  0.83257915543E+03  0.58863195492E+03  0.12300484009E+04  0.10100000352E+00 0.  1.
       -3    1    3    3    0  502  0.68799958577E+03 -0.83257915543E+03 -0.61666600484E+03  0.12437075427E+04  0.10100000352E+00 0. -1.
</event>
<event>
 5   0  0.7071821E-05  0.2316281E+04  0.7818609E-02  0.8471529E-01
        2   -1    0    0  501    0  0.00000000000E+00  0.00000000000E+00  0.20406788385E+04  0.20406788385E+04  0.25500000920E-02 0.  1.
       -2   -1    0    0    0  501  0.00000000000E+00  0.00000000000E+00 -0.65727630908E+03  0.65727630908E+03  0.25500000920E-02 0. -1.
    10030    2    1    2    0    0  0.00000000000E+00  0.00000000000E+00  0.13834025294E+04  0.26979551476E+04  0.23162813775E+04 0.  0.
        5    1    3    3  502    0  0.98807896029E+03 -0.13942821844E+03  0.70258680627E+01  0.99790365902E+03  0.46999998093E+01 0. -1.
       -5    1    3    3    0  502 -0.98807896029E+03  0.13942821844E+03  0.13763766613E+04  0.17000514886E+04  0.46999998093E+01 0.  1.
</event>
<event>
 5   0  0.2980790E-05  0.2593863E+04  0.7818609E-02  0.8370289E-01
        1   -1    0    0  501    0  0.00000000000E+00  0.00000000000E+00  0.24904507635E+04  0.24904507635E+04  0.50400001928E-02 0. -1.
       -1   -1    0    0    0  501  0.00000000000E+00  0.00000000000E+00 -0.67539257102E+03  0.67539257104E+03  0.50400001928E-02 0.  1.
    10030    2    1    2    0    0  0.00000000000E+00  0.00000000000E+00  0.18150581925E+04  0.31658433346E+04  0.25938634846E+04 0.  0.
        5    1    3    3  502    0  0.96551930969E+02 -0.20498441449E+03  0.24660951306E+04  0.24764870621E+04  0.46999998093E+01 0. -1.
       -5    1    3    3    0  502 -0.96551930969E+02  0.20498441449E+03 -0.65103693813E+03  0.68935627245E+03  0.46999998093E+01 0.  1.
</event>
<event>
 5   0  0.2793920E-05  0.2621931E+04  0.7818609E-02  0.8360790E-01
       -1   -1    0    0    0  501  0.00000000000E+00  0.00000000000E+00  0.95787779597E+03  0.95787779599E+03  0.50400001928E-02 0. -1.
        1   -1    0    0  501    0  0.00000000000E+00  0.00000000000E+00 -0.17942067802E+04  0.17942067802E+04  0.50400001928E-02 0.  1.
    10030    2    1    2    0    0  0.00000000000E+00  0.00000000000E+00 -0.83632898426E+03  0.27520845762E+04  0.26219312243E+04 0.  0.
        2    1    3    3  502    0 -0.10185174034E+04  0.79706137351E+03 -0.19317317285E+03  0.13076698394E+04  0.25500000920E-02 0. -1.
       -2    1    3    3    0  502  0.10185174034E+04 -0.79706137351E+03 -0.64315581141E+03  0.14444147368E+04  0.25500000920E-02 0.  1.
</event>
<event>
 5   0  0.2980790E-05  0.2476416E+04  0.7818609E-02  0.8411436E-01
        1   -1    0    0  501    0  0.00000000000E+00  0.00000000000E+00  0.12944969794E+04  0.12944969794E+04  0.50400001928E-02 0.  1.
       -1   -1    0    0    0  501  0.00000000000E+00  0.00000000000E+00 -0.11843662262E+04  0.11843662262E+04  0.50400001928E-02 0. -1.
    10030    2    1    2    0    0  0.00000000000E+00  0.00000000000E+00  0.11013075322E+03  0.24788632056E+04  0.24764155567E+04 0.  0.
        5    1    3    3  502    0  0.31199412838E+03  0.11944259916E+04 -0.40646214467E+02  0.12351793352E+04  0.46999998093E+01 0.  1.
       -5    1    3    3    0  502 -0.31199412838E+03 -0.11944259916E+04  0.15077696769E+03  0.12436838704E+04  0.46999998093E+01 0. -1.
</event>
<event>
 5   0  0.6648328E-05  0.2498503E+04  0.7818609E-02  0.8403519E-01
        2   -1    0    0  501    0  0.00000000000E+00  0.00000000000E+00  0.30856541267E+04  0.30856541267E+04  0.25500000920E-02 0.  1.
       -2   -1    0    0    0  501  0.00000000000E+00  0.00000000000E+00 -0.50576934615E+03  0.50576934615E+03  0.25500000920E-02 0. -1.
    10030    2    1    2    0    0  0.00000000000E+00  0.00000000000E+00  0.25798847806E+04  0.35914234729E+04  0.24985029679E+04 0.  0.
        2    1    3    3  502    0 -0.21839235616E+03 -0.82281451570E+03 -0.24273128010E+02  0.85165024114E+03  0.25500000920E-02 0. -1.
       -2    1    3    3    0  502  0.21839235616E+03  0.82281451570E+03  0.26041579086E+04  0.27397732317E+04  0.25500000920E-02 0.  1.
</event>
<event>
 5   0  0.6445331E-05  0.2386380E+04  0.7818609E-02  0.8444620E-01
        2   -1    0    0  501    0  0.00000000000E+00  0.00000000000E+00  0.18792556971E+04  0.18792556971E+04  0.25500000920E-02 0. -1.
       -2   -1    0    0    0  501  0.00000000000E+00  0.00000000000E+00 -0.75758862165E+03  0.75758862166E+03  0.25500000920E-02 0.  1.
    10030    2    1    2    0    0  0.00000000000E+00  0.00000000000E+00  0.11216670755E+04  0.26368443188E+04  0.23863802994E+04 0.  0.
        1    1    3    3  502    0  0.23097416072E+03 -0.76193816149E+03  0.15428176780E+04  0.17361408965E+04  0.50400001928E-02 0. -1.
       -1    1    3    3    0  502 -0.23097416072E+03  0.76193816149E+03 -0.42115060255E+03  0.90070342228E+03  0.50400001928E-02 0.  1.
</event>
<event>
 5   0  0.6445331E-05  0.2426946E+04  0.7818609E-02  0.8429484E-01
       -2   -1    0    0    0  501  0.00000000000E+00  0.00000000000E+00  0.11377191812E+04  0.11377191812E+04  0.25500000920E-02 0.  1.
        2   -1    0    0  501    0  0.00000000000E+00  0.00000000000E+00 -0.12942711934E+04  0.12942711934E+04  0.25500000920E-02 0. -1.
    10030    2    1    2    0    0  0.00000000000E+00  0.00000000000E+00 -0.15655201215E+03  0.24319903746E+04  0.24269463632E+04 0.  0.
        1    1    3    3  502    0 -0.76676990907E+03  0.85220638247E+03 -0.47700416063E+03  0.12416621042E+04  0.50400001928E-02 0. -1.
       -1    1    3    3    0  502  0.76676990907E+03 -0.85220638247E+03  0.32045214848E+03  0.11903282704E+04  0.50400001928E-02 0.  1.
</event>
<event>
 5   0  0.6827859E-05  0.2544858E+04  0.7818609E-02  0.8387177E-01
        2   -1    0    0  501    0  0.00000000000E+00  0.00000000000E+00  0.10480352015E+04  0.10480352015E+04  0.25500000920E-02 0.  1.
       -2   -1    0    0    0  501  0.00000000000E+00  0.00000000000E+00 -0.15448681335E+04  0.15448681335E+04  0.25500000920E-02 0. -1.
    10030    2    1    2    0    0  0.00000000000E+00  0.00000000000E+00 -0.49683293199E+03  0.25929033350E+04  0.25448584916E+04 0.  0.
        3    1    3    3  502    0 -0.95181593487E+03 -0.81675482102E+03 -0.46702283847E+03  0.13383394014E+04  0.10100000352E+00 0. -1.
       -3    1    3    3    0  502  0.95181593487E+03  0.81675482102E+03 -0.29810093528E+02  0.12545639336E+04  0.10100000352E+00 0.  1.
</event>
<event>
 5   0  0.2896652E-05  0.2257267E+04  0.7818609E-02  0.8494963E-01
       -1   -1    0    0    0  501  0.00000000000E+00  0.00000000000E+00  0.85416033382E+03  0.85416033383E+03  0.50400001928E-02 0.  1.
        1   -1    0    0  501    0  0.00000000000E+00  0.00000000000E+00 -0.14913047731E+04  0.14913047731E+04  0.50400001928E-02 0. -1.
    10030    2    1    2    0    0  0.00000000000E+00  0.00000000000E+00 -0.63714443929E+03  0.23454651070E+04  0.22572668277E+04 0.  0.
        4    1    3    3  502    0  0.56327956776E+03  0.12853122873E+03  0.68885055476E+03  0.89906665377E+03  0.12699999809E+01 0.  1.
       -4    1    3    3    0  502 -0.56327956776E+03 -0.12853122873E+03 -0.13259949941E+04  0.14463984532E+04  0.12699999809E+01 0. -1.
</event>
<event>
 5   0  0.6827859E-05  0.2505927E+04  0.7818609E-02  0.8400877E-01
        2   -1    0    0  501    0  0.00000000000E+00  0.00000000000E+00  0.19340709743E+04  0.19340709743E+04  0.25500000920E-02 0.  1.
       -2   -1    0    0    0  501  0.00000000000E+00  0.00000000000E+00 -0.81171673756E+03  0.81171673756E+03  0.25500000920E-02 0. -1.
    10030    2    1    2    0    0  0.00000000000E+00  0.00000000000E+00  0.11223542368E+04  0.27457877119E+04  0.25059271989E+04 0.  0.
        3    1    3    3  502    0  0.47466072663E+03 -0.73894069849E+03 -0.41799301837E+03  0.97265324494E+03  0.10100000352E+00 0. -1.
       -3    1    3    3    0  502 -0.47466072663E+03  0.73894069849E+03  0.15403472551E+04  0.17731344669E+04  0.10100000352E+00 0.  1.
</event>
<event>
 5   0  0.2793920E-05  0.2481898E+04  0.7818609E-02  0.8409463E-01
        1   -1    0    0  501    0  0.00000000000E+00  0.00000000000E+00  0.11086637917E+04  0.11086637917E+04  0.50400001928E-02 0.  1.
       -1   -1    0    0    0  501  0.00000000000E+00  0.00000000000E+00 -0.13890179034E+04  0.13890179035E+04  0.50400001928E-02 0. -1.
    10030    2    1    2    0    0  0.00000000000E+00  0.00000000000E+00 -0.28035411172E+03  0.24976816952E+04  0.24818975447E+04 0.  0.
        2    1    3    3  502    0 -0.68535702972E+03 -0.75797039766E+03 -0.84872896026E+03  0.13283727752E+04  0.25500000920E-02 0. -1.
       -2    1    3    3    0  502  0.68535702972E+03  0.75797039766E+03  0.56837484854E+03  0.11693089200E+04  0.25500000920E-02 0.  1.
</event>
<event>
 5   0  0.7071821E-05  0.1410234E+04  0.7818609E-02  0.8946444E-01
       -2   -1    0    0    0  501  0.00000000000E+00  0.00000000000E+00  0.59695701616E+03  0.59695701617E+03  0.25500000920E-02 0.  1.
        2   -1    0    0  501    0  0.00000000000E+00  0.00000000000E+00 -0.83287372389E+03  0.83287372390E+03  0.25500000920E-02 0. -1.
    10030    2    1    2    0    0  0.00000000000E+00  0.00000000000E+00 -0.23591670773E+03  0.14298307401E+04  0.14102337580E+04 0.  0.
        5    1    3    3  502    0 -0.13753049895E+03 -0.43177878504E+03  0.42975228024E+03  0.62454517028E+03  0.46999998093E+01 0.  1.
       -5    1    3    3    0  502  0.13753049895E+03  0.43177878504E+03 -0.66566898798E+03  0.80528556978E+03  0.46999998093E+01 0. -1.
</event>
<event>
 5   0  0.6827859E-05  0.2462761E+04  0.7818609E-02  0.8416374E-01
        2   -1    0    0  501    0  0.00000000000E+00  0.00000000000E+00  0.17570607178E+04  0.17570607178E+04  0.25500000920E-02 0. -1.
       -2   -1    0    0    0  501  0.00000000000E+00  0.00000000000E+00 -0.86297392485E+03  0.86297392485E+03  0.25500000920E-02 0.  1.
    10030    2    1    2    0    0  0.00000000000E+00  0.00000000000E+00  0.89408679293E+03  0.26200346426E+04  0.24627607142E+04 0.  0.
        3    1    3    3  502    0  0.51026776946E+03 -0.78252117615E+02 -0.74229447343E+03  0.90415578632E+03  0.10100000352E+00 0.  1.
       -3    1    3    3    0  502 -0.51026776946E+03  0.78252117615E+02  0.16363812664E+04  0.17158788563E+04  0.10100000352E+00 0. -1.
</event>
<event>
 5   0  0.2793920E-05  0.2243433E+04  0.7818609E-02  0.8500565E-01
       -1   -1    0    0    0  501  0.00000000000E+00  0.00000000000E+00  0.89951068672E+03  0.89951068673E+03  0.50400001928E-02 0. -1.
        1   -1    0    0  501    0  0.00000000000E+00  0.00000000000E+00 -0.13988139229E+04  0.13988139229E+04  0.50400001928E-02 0.  1.
    10030    2    1    2    0    0  0.00000000000E+00  0.00000000000E+00 -0.49930323614E+03  0.22983246096E+04  0.22434331480E+04 0.  0.
        2    1    3    3  502    0  0.13662568087E+03 -0.16440541594E+03  0.87845068152E+03  0.90408590152E+03  0.25500000920E-02 0. -1.
       -2    1    3    3    0  502 -0.13662568087E+03  0.16440541594E+03 -0.13777539177E+04  0.13942387081E+04  0.25500000920E-02 0.  1.
</event>
<event>
 5   0  0.2793920E-05  0.2507081E+04  0.7818609E-02  0.8400467E-01
       -1   -1    0    0    0  501  0.00000000000E+00  0.00000000000E+00  0.15679321335E+04  0.15679321335E+04  0.50400001928E-02 0.  1.
        1   -1    0    0  501    0  0.00000000000E+00  0.00000000000E+00 -0.10021885286E+04  0.10021885286E+04  0.50400001928E-02 0. -1.
    10030    2    1    2    0    0  0.00000000000E+00  0.00000000000E+00  0.56574360490E+03  0.25701206621E+04  0.25070808506E+04 0.  0.
        2    1    3    3  502    0  0.48574747803E+03 -0.43266109873E+02  0.14666991394E+04  0.15456483863E+04  0.25500000920E-02 0.  1.
       -2    1    3    3    0  502 -0.48574747803E+03  0.43266109873E+02 -0.90095553449E+03  0.10244722758E+04  0.25500000920E-02 0. -1.
</event>
<event>
 5   0  0.2980790E-05  0.2484425E+04  0.7818609E-02  0.8408555E-01
       -1   -1    0    0    0  501  0.00000000000E+00  0.00000000000E+00  0.18459585965E+04  0.18459585965E+04  0.50400001928E-02 0. -1.
        1   -1    0    0  501    0  0.00000000000E+00  0.00000000000E+00 -0.83593013989E+03  0.83593013990E+03  0.50400001928E-02 0.  1.
    10030    2    1    2    0    0  0.00000000000E+00  0.00000000000E+00  0.10100284566E+04  0.26818887364E+04  0.24844254288E+04 0.  0.
        5    1    3    3  502    0 -0.10717462939E+04 -0.62791419084E+03  0.51840971781E+03  0.13459892552E+04  0.46999998093E+01 0. -1.
       -5    1    3    3    0  502  0.10717462939E+04  0.62791419084E+03  0.49161873883E+03  0.13358994812E+04  0.46999998093E+01 0.  1.
</event>
<event>
 5   0  0.6648328E-05  0.2723505E+04  0.7818609E-02  0.8327418E-01
       -2   -1    0    0    0  501  0.00000000000E+00  0.00000000000E+00  0.12147807889E+04  0.12147807889E+04  0.25500000920E-02 0. -1.
        2   -1    0    0  501    0  0.00000000000E+00  0.00000000000E+00 -0.15265058706E+04  0.15265058706E+04  0.25500000920E-02 0.  1.
    10030    2    1    2    0    0  0.00000000000E+00  0.00000000000E+00 -0.31172508179E+03  0.27412866595E+04  0.27235050988E+04 0.  0.
        2    1    3    3  502    0 -0.86803814261E+03  0.85488543458E+03 -0.76815211528E+03  0.14402697648E+04  0.25500000920E-02 0.  1.
       -2    1    3    3    0  502  0.86803814261E+03 -0.85488543458E+03  0.45642703349E+03  0.13010168947E+04  0.25500000920E-02 0. -1.
</event>
<event>
 5   0  0.6648328E-05  0.2407598E+04  0.7818609E-02  0.8436664E-01
       -2   -1    0    0    0  501  0.00000000000E+00  0.00000000000E+00  0.61301499887E+03  0.61301499888E+03  0.25500000920E-02 0.  1.
        2   -1    0    0  501    0  0.00000000000E+00  0.00000000000E+00 -0.23639422284E+04  0.23639422284E+04  0.25500000920E-02 0. -1.
    10030    2    1    2    0    0  0.00000000000E+00  0.00000000000E+00 -0.17509272295E+04  0.29769572273E+04  0.24075980084E+04 0.  0.
        2    1    3    3  502    0 -0.11289422528E+01 -0.63382239266E+03 -0.21409133295E+04  0.22327655462E+04  0.25500000920E-02 0. -1.
       -2    1    3    3    0  502  0.11289422528E+01  0.63382239266E+03  0.38998609999E+03  0.74419168104E+03  0.25500000920E-02 0.  1.
</event>
<event>
 5   0  0.2777539E-05  0.2516203E+04  0.7818609E-02  0.8397236E-01
        1   -1    0    0  501    0  0.00000000000E+00  0.00000000000E+00  0.12942867303E+04  0.12942867303E+04  0.50400001928E-02 0.  1.
       -1   -1    0    0    0  501  0.00000000000E+00  0.00000000000E+00 -0.12229280682E+04  0.12229280682E+04  0.50400001928E-02 0. -1.
    10030    2    1    2    0    0  0.00000000000E+00  0.00000000000E+00  0.71358662155E+02  0.25172147985E+04  0.25162031482E+04 0.  0.
        3    1    3    3  502    0  0.57724251681E+03  0.68069305442E+03  0.92275315813E+03  0.12837543996E+04  0.10100000352E+00 0.  1.
       -3    1    3    3    0  502 -0.57724251681E+03 -0.68069305442E+03 -0.85139449598E+03  0.12334603989E+04  0.10100000352E+00 0. -1.
</event>
<event>
 5   0  0.6909250E-05  0.2402380E+04  0.7818609E-02  0.8438613E-01
        2   -1    0    0  501    0  0.00000000000E+00  0.00000000000E+00  0.10892022340E+04  0.10892022340E+04  0.25500000920E-02 0. -1.
       -2   -1    0    0    0  501  0.00000000000E+00  0.00000000000E+00 -0.13246914811E+04  0.13246914811E+04  0.25500000920E-02 0.  1.
    10030    2    1    2    0    0  0.00000000000E+00  0.00000000000E+00 -0.23548924710E+03  0.24138937150E+04  0.24023795874E+04 0.  0.
        4    1    3    3  502    0 -0.81031339453E+03  0.72107322981E+03 -0.63626143067E+03  0.12575311611E+04  0.12699999809E+01 0.  1.
       -4    1    3    3    0  502  0.81031339453E+03 -0.72107322981E+03  0.40077218357E+03  0.11563625539E+04  0.12699999809E+01 0. -1.
</event>
<event>
 5   0  0.2977854E-05  0.2620688E+04  0.7818609E-02  0.8361208E-01
       -1   -1    0    0    0  501  0.00000000000E+00  0.00000000000E+00  0.95732037472E+03  0.95732037473E+03  0.50400001928E-02 0.  1.
        1   -1    0    0  501    0  0.00000000000E+00  0.00000000000E+00 -0.17935491822E+04  0.17935491822E+04  0.50400001928E-02 0. -1.
    10030    2    1    2    0    0  0.00000000000E+00  0.00000000000E+00 -0.83622880751E+03  0.27508695570E+04  0.26206878297E+04 0.  0.
        1    1    3    3  502    0  0.11339227812E+04 -0.10622710205E+03 -0.10983295729E+04  0.15822114024E+04  0.50400001928E-02 0. -1.
       -1    1    3    3    0  502 -0.11339227812E+04  0.10622710205E+03  0.26210076543E+03  0.11686581546E+04  0.50400001928E-02 0.  1.
</event>
<event>
 5   0  0.6648328E-05  0.2525869E+04  0.7818609E-02  0.8393827E-01
        2   -1    0    0  501    0  0.00000000000E+00  0.00000000000E+00  0.16199703585E+04  0.16199703585E+04  0.25500000920E-02 0. -1.
       -2   -1    0    0    0  501  0.00000000000E+00  0.00000000000E+00 -0.98458792495E+03  0.98458792496E+03  0.25500000920E-02 0.  1.
    10030    2    1    2    0    0  0.00000000000E+00  0.00000000000E+00  0.63538243359E+03  0.26045582835E+04  0.25258687645E+04 0.  0.
        2    1    3    3  502    0  0.41703901362E+03 -0.57693818076E+03 -0.75798720791E+03  0.10398672082E+04  0.25500000920E-02 0.  1.
       -2    1    3    3    0  502 -0.41703901362E+03  0.57693818076E+03  0.13933696415E+04  0.15646910753E+04  0.25500000920E-02 0. -1.
</event>
<event>
 5   0  0.2777539E-05  0.2423717E+04  0.7818609E-02  0.8430677E-01
        1   -1    0    0  501    0  0.00000000000E+00  0.00000000000E+00  0.17628302703E+04  0.17628302703E+04  0.50400001928E-02 0. -1.
       -1   -1    0    0    0  501  0.00000000000E+00  0.00000000000E+00 -0.83309293973E+03  0.83309293974E+03  0.50400001928E-02 0.  1.
    10030    2    1    2    0    0  0.00000000000E+00  0.00000000000E+00  0.92973733060E+03  0.25959232101E+04  0.24237173533E+04 0.  0.
        3    1    3    3  502    0  0.95334393667E+03 -0.30874827022E+03 -0.26502778544E+03  0.10365471013E+04  0.10100000352E+00 0.  1.
       -3    1    3    3    0  502 -0.95334393667E+03  0.30874827022E+03  0.11947651160E+04  0.15593761088E+04  0.10100000352E+00 0. -1.
</event>
<event>
 5   0  0.6445331E-05  0.2527565E+04  0.7818609E-02  0.8393231E-01
       -2   -1    0    0    0  501  0.00000000000E+00  0.00000000000E+00  0.12134575036E+04  0.12134575036E+04  0.25500000920E-02 0. -1.
        2   -1    0    0  501    0  0.00000000000E+00  0.00000000000E+00 -0.13161943613E+04  0.13161943613E+04  0.25500000920E-02 0.  1.
    10030    2    1    2    0    0  0.00000000000E+00  0.00000000000E+00 -0.10273685778E+03  0.25296518649E+04  0.25275647757E+04 0.  0.
        1    1    3    3  502    0 -0.84317933960E+03 -0.16345801187E+03  0.87647637595E+03  0.12271433323E+04  0.50400001928E-02 0. -1.
       -1    1    3    3    0  502  0.84317933960E+03  0.16345801187E+03 -0.97921323373E+03  0.13025085326E+04  0.50400001928E-02 0.  1.
</event>
<event>
 5   0  0.7071821E-05  0.2348855E+04  0.7818609E-02  0.8458903E-01
       -2   -1    0    0    0  501  0.00000000000E+00  0.00000000000E+00  0.11348766994E+04  0.11348766994E+04  0.25500000920E-02 0.  1.
        2   -1    0    0  501    0  0.00000000000E+00  0.00000000000E+00 -0.12153570915E+04  0.12153570915E+04  0.25500000920E-02 0. -1.
    10030    2    1    2    0    0  0.00000000000E+00  0.00000000000E+00 -0.80480392086E+02  0.23502337909E+04  0.23488554188E+04 0.  0.
        5    1    3    3  502    0  0.58271702886E+03 -0.99962006359E+03 -0.24150232891E+03  0.11820088291E+04  0.46999998093E+01 0.  1.
       -5    1    3    3    0  502 -0.58271702886E+03  0.99962006359E+03  0.16102193682E+03  0.11682249618E+04  0.46999998093E+01 0. -1.
</event>
<event>
 5   0  0.2977854E-05  0.2606703E+04  0.7818609E-02  0.8365928E-01
        1   -1    0    0  501    0  0.00000000000E+00  0.00000000000E+00  0.12344811896E+04  0.12344811896E+04  0.50400001928E-02 0. -1.
       -1   -1    0    0    0  501  0.00000000000E+00  0.00000000000E+00 -0.13760641026E+04  0.13760641027E+04  0.50400001928E-02 0.  1.
    10030    2    1    2    0    0  0.00000000000E+00  0.00000000000E+00 -0.14158291307E+03  0.26105452922E+04  0.26067030904E+04 0.  0.
        1    1    3    3  502    0 -0.12238797423E+04 -0.12635085270E+03 -0.50140091176E+03  0.13286267481E+04  0.50400001928E-02 0.  1.
       -1    1    3    3    0  502  0.12238797423E+04  0.12635085270E+03  0.35981799869E+03  0.12819185441E+04  0.50400001928E-02 0. -1.
</event>
<event>
 5   0  0.2896652E-05  0.2368422E+04  0.7818609E-02  0.8451421E-01
       -1   -1    0    0    0  501  0.00000000000E+00  0.00000000000E+00  0.11512133196E+04  0.11512133196E+04  0.50400001928E-02 0.  1.
        1   -1    0    0  501    0  0.00000000000E+00  0.00000000000E+00 -0.12181545193E+04  0.12181545193E+04  0.50400001928E-02 0. -1.
    10030    2    1    2    0    0  0.00000000000E+00  0.00000000000E+00 -0.66941199673E+02  0.23693678389E+04  0.23684220130E+04 0.  0.
        4    1    3    3  502    0  0.74531518047E+03  0.48486741445E+03  0.74899452913E+03  0.11625771137E+04  0.12699999809E+01 0.  1.
       -4    1    3    3    0  502 -0.74531518047E+03 -0.48486741445E+03 -0.81593572880E+03  0.12067907251E+04  0.12699999809E+01 0. -1.
</event>
<event>
 5   0  0.2896652E-05  0.2495905E+04  0.7818609E-02  0.8404446E-01
        1   -1    0    0  501    0  0.00000000000E+00  0.00000000000E+00  0.25426957824E+04  0.25426957824E+04  0.50400001928E-02 0. -1.
       -1   -1    0    0    0  501  0.00000000000E+00  0.00000000000E+00 -0.61249360432E+03  0.61249360434E+03  0.50400001928E-02 0.  1.
    10030    2    1    2    0    0  0.00000000000E+00  0.00000000000E+00  0.19302021781E+04  0.31551893868E+04  0.24959045691E+04 0.  0.
        4    1    3    3  502    0  0.80154657650E+03  0.61586570664E+03  0.39925533255E+02  0.10116141280E+04  0.12699999809E+01 0.  1.
       -4    1    3    3    0  502 -0.80154657650E+03 -0.61586570664E+03  0.18902766449E+04  0.21435752587E+04  0.12699999809E+01 0. -1.
</event>
<event>
 5   0  0.6648328E-05  0.2723583E+04  0.7818609E-02  0.8327394E-01
        2   -1    0    0  501    0  0.00000000000E+00  0.00000000000E+00  0.13453530494E+04  0.13453530494E+04  0.25500000920E-02 0. -1.
       -2   -1    0    0    0  501  0.00000000000E+00  0.00000000000E+00 -0.13784306335E+04  0.13784306335E+04  0.25500000920E-02 0.  1.
    10030    2    1    2    0    0  0.00000000000E+00  0.00000000000E+00 -0.33077584116E+02  0.27237836829E+04  0.27235828287E+04 0.  0.
        2    1    3    3  502    0 -0.63218206534E+03 -0.38222613857E+03  0.11275407095E+04  0.13479981589E+04  0.25500000920E-02 0. -1.
       -2    1    3    3    0  502  0.63218206534E+03  0.38222613857E+03 -0.11606182936E+04  0.13757855240E+04  0.25500000920E-02 0.  1.
</event>
<event>
 5   0  0.6648328E-05  0.2492482E+04  0.7818609E-02  0.8405669E-01
        2   -1    0    0  501    0  0.00000000000E+00  0.00000000000E+00  0.25546669576E+04  0.25546669576E+04  0.25500000920E-02 0. -1.
       -2   -1    0    0    0  501  0.00000000000E+00  0.00000000000E+00 -0.60795283237E+03  0.60795283238E+03  0.25500000920E-02 0.  1.
    10030    2    1    2    0    0  0.00000000000E+00  0.00000000000E+00  0.19467141252E+04  0.31626197900E+04  0.24924823070E+04 0.  0.
        2    1    3    3  502    0  0.82177648175E+03  0.74162713741E+03  0.24689574238E+03  0.11341450104E+04  0.25500000920E-02 0.  1.
       -2    1    3    3    0  502 -0.82177648175E+03 -0.74162713741E+03  0.16998183828E+04  0.20284747796E+04  0.25500000920E-02 0. -1.
</event>
<event>
 5   0  0.6909250E-05  0.2510848E+04  0.7818609E-02  0.8399131E-01
       -2   -1    0    0    0  501  0.00000000000E+00  0.00000000000E+00  0.14840969806E+04  0.14840969806E+04  0.25500000920E-02 0. -1.
        2   -1    0    0  501    0  0.00000000000E+00  0.00000000000E+00 -0.10619851278E+04  0.10619851278E+04  0.25500000920E-02 0.  1.
    10030    2    1    2    0    0  0.00000000000E+00  0.00000000000E+00  0.42211185283E+03  0.25460821084E+04  0.25108476032E+04 0.  0.
        4    1    3    3  502    0 -0.39073699800E+03 -0.86342739166E+03  0.10459598167E+04  0.14114587536E+04  0.12699999809E+01 0. -1.
       -4    1    3    3    0  502  0.39073699800E+03  0.86342739166E+03 -0.62384796384E+03  0.11346233548E+04  0.12699999809E+01 0.  1.
</event>
<event>
 5   0  0.7071821E-05  0.2493887E+04  0.7818609E-02  0.8405166E-01
        2   -1    0    0  501    0  0.00000000000E+00  0.00000000000E+00  0.17095335048E+04  0.17095335048E+04  0.25500000920E-02 0. -1.
       -2   -1    0    0    0  501  0.00000000000E+00  0.00000000000E+00 -0.90952806587E+03  0.90952806587E+03  0.25500000920E-02 0.  1.
    10030    2    1    2    0    0  0.00000000000E+00  0.00000000000E+00  0.80000543895E+03  0.26190615707E+04  0.24938874892E+04 0.  0.
        5    1    3    3  502    0 -0.39528510849E+03  0.58980431083E+03 -0.67649678183E+03  0.98070863557E+03  0.46999998093E+01 0.  1.
       -5    1    3    3    0  502  0.39528510849E+03 -0.58980431083E+03  0.14765022208E+04  0.16383529351E+04  0.46999998093E+01 0. -1.
</event>
<event>
 5   0  0.6648328E-05  0.2439096E+04  0.7818609E-02  0.8425010E-01
        2   -1    0    0  501    0  0.00000000000E+00  0.00000000000E+00  0.17130277713E+04  0.17130277713E+04  0.25500000920E-02 0.  1.
       -2   -1    0    0    0  501  0.00000000000E+00  0.00000000000E+00 -0.86822730476E+03  0.86822730476E+03  0.25500000920E-02 0. -1.
    10030    2    1    2    0    0  0.00000000000E+00  0.00000000000E+00  0.84480046654E+03  0.25812550761E+04  0.24390961316E+04 0.  0.
        2    1    3    3  502    0 -0.38596082965E+03  0.47265471208E+03  0.15398439541E+04  0.16563476815E+04  0.25500000920E-02 0.  1.
       -2    1    3    3    0  502  0.38596082965E+03 -0.47265471208E+03 -0.69504348760E+03  0.92490739457E+03  0.25500000920E-02 0. -1.
</event>
<event>
 5   0  0.6445331E-05  0.2165841E+04  0.7818609E-02  0.8532782E-01
        2   -1    0    0  501    0  0.00000000000E+00  0.00000000000E+00  0.16667328855E+04  0.16667328855E+04  0.25500000920E-02 0. -1.
       -2   -1    0    0    0  501  0.00000000000E+00  0.00000000000E+00 -0.70360231018E+03  0.70360231019E+03  0.25500000920E-02 0.  1.
    10030    2    1    2    0    0  0.00000000000E+00  0.00000000000E+00  0.96313057531E+03  0.23703351957E+04  0.21658412764E+04 0.  0.
        1    1    3    3  502    0  0.83125774036E+03 -0.19182721438E+03  0.12115755789E+04  0.14817903004E+04  0.50400001928E-02 0. -1.
       -1    1    3    3    0  502 -0.83125774036E+03  0.19182721438E+03 -0.24844500355E+03  0.88854489527E+03  0.50400001928E-02 0.  1.
</event>
<event>
 5   0  0.6909250E-05  0.2065115E+04  0.7818609E-02  0.8576768E-01
        2   -1    0    0  501    0  0.00000000000E+00  0.00000000000E+00  0.96355258783E+03  0.96355258783E+03  0.25500000920E-02 0.  1.
       -2   -1    0    0    0  501  0.00000000000E+00  0.00000000000E+00 -0.11065040383E+04  0.11065040383E+04  0.25500000920E-02 0. -1.
    10030    2    1    2    0    0  0.00000000000E+00  0.00000000000E+00 -0.14295145050E+03  0.20700566262E+04  0.20651148439E+04 0.  0.
        4    1    3    3  502    0 -0.78968164871E+03 -0.66253077935E+03 -0.13186170208E+03  0.10391983744E+04  0.12699999809E+01 0.  1.
       -4    1    3    3    0  502  0.78968164871E+03  0.66253077935E+03 -0.11089748423E+02  0.10308582518E+04  0.12699999809E+01 0. -1.
</event>
<event>
 5   0  0.6909250E-05  0.2488345E+04  0.7818609E-02  0.8407149E-01
        2   -1    0    0  501    0  0.00000000000E+00  0.00000000000E+00  0.18911975979E+04  0.18911975979E+04  0.25500000920E-02 0.  1.
       -2   -1    0    0    0  501  0.00000000000E+00  0.00000000000E+00 -0.81851088797E+03  0.81851088798E+03  0.25500000920E-02 0. -1.
    10030    2    1    2    0    0  0.00000000000E+00  0.00000000000E+00  0.10726867099E+04  0.27097084859E+04  0.24883454947E+04 0.  0.
        4    1    3    3  502    0  0.53843043804E+03  0.64338264115E+03  0.15368336226E+04  0.17509162618E+04  0.12699999809E+01 0.  1.
       -4    1    3    3    0  502 -0.53843043804E+03 -0.64338264115E+03 -0.46414691263E+03  0.95879222407E+03  0.12699999809E+01 0. -1.
</event>
<event>
 5   0  0.7071821E-05  0.2476673E+04  0.7818609E-02  0.8411343E-01
       -2   -1    0    0    0  501  0.00000000000E+00  0.00000000000E+00  0.46448832387E+03  0.46448832388E+03  0.25500000920E-02 0.  1.
        2   -1    0    0  501    0  0.00000000000E+00  0.00000000000E+00 -0.33014345612E+04  0.33014345612E+04  0.25500000920E-02 0. -1.
    10030    2    1    2    0    0  0.00000000000E+00  0.00000000000E+00 -0.28369462373E+04  0.37659228851E+04  0.24766734187E+04 0.  0.
        5    1    3    3  502    0  0.88725389786E+03  0.63490592542E+01 -0.27319702131E+04  0.28724454956E+04  0.46999998093E+01 0. -1.
       -5    1    3    3    0  502 -0.88725389786E+03 -0.63490592542E+01 -0.10497602419E+03  0.89347738946E+03  0.46999998093E+01 0.  1.
</event>
<event>
 5   0  0.2896652E-05  0.2514527E+04  0.7818609E-02  0.8397828E-01
       -1   -1    0    0    0  501  0.00000000000E+00  0.00000000000E+00  0.95938387921E+03  0.95938387922E+03  0.50400001928E-02 0. -1.
        1   -1    0    0  501    0  0.00000000000E+00  0.00000000000E+00 -0.16476323070E+04  0.16476323070E+04  0.50400001928E-02 0.  1.
    10030    2    1    2    0    0  0.00000000000E+00  0.00000000000E+00 -0.68824842781E+03  0.26070161863E+04  0.25145272910E+04 0.  0.
        4    1    3    3  502    0  0.11702009311E+03  0.71312808402E+03 -0.14107832173E+04  0.15851044967E+04  0.12699999809E+01 0.  1.
       -4    1    3    3    0  502 -0.11702009311E+03 -0.71312808402E+03  0.72253478945E+03  0.10219116896E+04  0.12699999809E+01 0. -1.
</event>
<event>
 5   0  0.7071821E-05  0.2527015E+04  0.7818609E-02  0.8393424E-01
        2   -1    0    0  501    0  0.00000000000E+00  0.00000000000E+00  0.13119357662E+04  0.13119357662E+04  0.25500000920E-02 0.  1.
       -2   -1    0    0    0  501  0.00000000000E+00  0.00000000000E+00 -0.12168671772E+04  0.12168671772E+04  0.25500000920E-02 0. -1.
    10030    2    1    2    0    0  0.00000000000E+00  0.00000000000E+00  0.95068589026E+02  0.25288029435E+04  0.25270152928E+04 0.  0.
        5    1    3    3  502    0  0.49373874709E+03  0.11141653239E+04  0.38136759358E+03  0.12769517026E+04  0.46999998093E+01 0.  1.
       -5    1    3    3    0  502 -0.49373874709E+03 -0.11141653239E+04 -0.28629900455E+03  0.12518512409E+04  0.46999998093E+01 0. -1.
</event>
<event>
 5   0  0.6827859E-05  0.2606569E+04  0.7818609E-02  0.8365973E-01
        2   -1    0    0  501    0  0.00000000000E+00  0.00000000000E+00  0.13019486846E+04  0.13019486846E+04  0.25500000920E-02 0. -1.
       -2   -1    0    0    0  501  0.00000000000E+00  0.00000000000E+00 -0.13046220803E+04  0.13046220803E+04  0.25500000920E-02 0.  1.
    10030    2    1    2    0    0  0.00000000000E+00  0.00000000000E+00 -0.26733957155E+01  0.26065707648E+04  0.26065693939E+04 0.  0.
        3    1    3    3  502    0 -0.17606371137E+03 -0.76420591258E+03  0.10395970290E+04  0.13022177622E+04  0.10100000352E+00 0. -1.
       -3    1    3    3    0  502  0.17606371137E+03  0.76420591258E+03 -0.10422704247E+04  0.13043530027E+04  0.10100000352E+00 0.  1.
</event>
<event>
 5   0  0.2331375E-05  0.2506479E+04  0.7818609E-02  0.8400681E-01
        4   -1    0    0  501    0  0.00000000000E+00  0.00000000000E+00  0.53650211918E+03  0.53650362234E+03  0.12699999809E+01 0. -1.
       -4   -1    0    0    0  501  0.00000000000E+00  0.00000000000E+00 -0.29274929789E+04  0.29274932544E+04  0.12699999809E+01 0.  1.
    10030    2    1    2    0    0  0.00000000000E+00  0.00000000000E+00 -0.23909908597E+04  0.34639968767E+04  0.25064790186E+04 0.  0.
        3    1    3    3  502    0  0.94160251798E+02 -0.13244767051E+03 -0.29128710501E+04  0.29174006073E+04  0.10100000352E+00 0.  1.
       -3    1    3    3    0  502 -0.94160251798E+02  0.13244767051E+03  0.52188019040E+03  0.54659626945E+03  0.10100000352E+00 0. -1.
</event>
<event>
 5   0  0.2977854E-05  0.2320581E+04  0.7818609E-02  0.8469850E-01
        1   -1    0    0  501    0  0.00000000000E+00  0.00000000000E+00  0.14876462660E+04  0.14876462660E+04  0.50400001928E-02 0.  1.
       -1   -1    0    0    0  501  0.00000000000E+00  0.00000000000E+00 -0.90496921433E+03  0.90496921434E+03  0.50400001928E-02 0. -1.
    10030    2    1    2    0    0  0.00000000000E+00  0.00000000000E+00  0.58267705169E+03  0.23926154804E+04  0.23205810243E+04 0.  0.
        1    1    3    3  502    0  0.37598952726E+03  0.79565719719E+03 -0.48833314731E+03  0.10064331885E+04  0.50400001928E-02 0. -1.
       -1    1    3    3    0  502 -0.37598952726E+03 -0.79565719719E+03  0.10710101990E+04  0.13861822919E+04  0.50400001928E-02 0.  1.
</event>
<event>
 5   0  0.2980790E-05  0.2355953E+04  0.7818609E-02  0.8456181E-01
        1   -1    0    0  501    0  0.00000000000E+00  0.00000000000E+00  0.13514367565E+04  0.13514367566E+04  0.50400001928E-02 0.  1.
       -1   -1    0    0    0  501  0.00000000000E+00  0.00000000000E+00 -0.10267803325E+04  0.10267803325E+04  0.50400001928E-02 0. -1.
    10030    2    1    2    0    0  0.00000000000E+00  0.00000000000E+00  0.32465642405E+03  0.23782170891E+04  0.23559530405E+04 0.  0.
        5    1    3    3  502    0 -0.54218871127E+03 -0.10436417911E+04  0.22966546314E+03  0.11983009228E+04  0.46999998093E+01 0. -1.
       -5    1    3    3    0  502  0.54218871127E+03  0.10436417911E+04  0.94990960905E+02  0.11799161662E+04  0.46999998093E+01 0.  1.
</event>
<event>
 5   0  0.2980790E-05  0.2489667E+04  0.7818609E-02  0.8406676E-01
       -1   -1    0    0    0  501  0.00000000000E+00  0.00000000000E+00  0.80959927519E+03  0.80959927520E+03  0.50400001928E-02 0.  1.
        1   -1    0    0  501    0  0.00000000000E+00  0.00000000000E+00 -0.19140457865E+04  0.19140457865E+04  0.50400001928E-02 0. -1.
    10030    2    1    2    0    0  0.00000000000E+00  0.00000000000E+00 -0.11044465113E+04  0.27236450617E+04  0.24896667098E+04 0.  0.
        5    1    3    3  502    0  0.15672038263E+03 -0.11780180148E+04 -0.14685942613E+03  0.11974462420E+04  0.46999998093E+01 0.  1.
       -5    1    3    3    0  502 -0.15672038263E+03  0.11780180148E+04 -0.95758708521E+03  0.15261988197E+04  0.46999998093E+01 0. -1.
</event>
<event>
 5   0  0.6445331E-05  0.2500723E+04  0.7818609E-02  0.8402728E-01
       -2   -1    0    0    0  501  0.00000000000E+00  0.00000000000E+00  0.20140075460E+04  0.20140075460E+04  0.25500000920E-02 0. -1.
        2   -1    0    0  501    0  0.00000000000E+00  0.00000000000E+00 -0.77626501238E+03  0.77626501239E+03  0.25500000920E-02 0.  1.
    10030    2    1    2    0    0  0.00000000000E+00  0.00000000000E+00  0.12377425336E+04  0.27902725584E+04  0.25007227697E+04 0.  0.
        1    1    3    3  502    0  0.10846249042E+04  0.38515470336E+03  0.11639512320E+04  0.16369293811E+04  0.50400001928E-02 0. -1.
       -1    1    3    3    0  502 -0.10846249042E+04 -0.38515470336E+03  0.73791301626E+02  0.11533431773E+04  0.50400001928E-02 0.  1.
</event>
<event>
 5   0  0.6445331E-05  0.2409197E+04  0.7818609E-02  0.8436068E-01
       -2   -1    0    0    0  501  0.00000000000E+00  0.00000000000E+00  0.10342973045E+04  0.10342973045E+04  0.25500000920E-02 0. -1.
        2   -1    0    0  501    0  0.00000000000E+00  0.00000000000E+00 -0.14029409535E+04  0.14029409535E+04  0.25500000920E-02 0.  1.
    10030    2    1    2    0    0  0.00000000000E+00  0.00000000000E+00 -0.36864364901E+03  0.24372382579E+04  0.24091974153E+04 0.  0.
        1    1    3    3  502    0 -0.87161556876E+03 -0.17863503857E+03 -0.10058287386E+04  0.13428758796E+04  0.50400001928E-02 0.  1.
       -1    1    3    3    0  502  0.87161556876E+03  0.17863503857E+03  0.63718508955E+03  0.10943623783E+04  0.50400001928E-02 0. -1.
</event>
<event>
 5   0  0.2896652E-05  0.2502745E+04  0.7818609E-02  0.8402008E-01
       -1   -1    0    0    0  501  0.00000000000E+00  0.00000000000E+00  0.98443471364E+03  0.98443471365E+03  0.50400001928E-02 0.  1.
        1   -1    0    0  501    0  0.00000000000E+00  0.00000000000E+00 -0.15906931395E+04  0.15906931395E+04  0.50400001928E-02 0. -1.
    10030    2    1    2    0    0  0.00000000000E+00  0.00000000000E+00 -0.60625842589E+03  0.25751278532E+04  0.25027453289E+04 0.  0.
        4    1    3    3  502    0  0.88775363599E+03 -0.18890551844E+03 -0.11895197107E+04  0.14962454906E+04  0.12699999809E+01 0. -1.
       -4    1    3    3    0  502 -0.88775363599E+03  0.18890551844E+03  0.58326128478E+03  0.10788823626E+04  0.12699999809E+01 0.  1.
</event>
<event>
 5   0  0.6648328E-05  0.2472589E+04  0.7818609E-02  0.8412816E-01
        2   -1    0    0  501    0  0.00000000000E+00  0.00000000000E+00  0.11187860194E+04  0.11187860194E+04  0.25500000920E-02 0. -1.
       -2   -1    0    0    0  501  0.00000000000E+00  0.00000000000E+00 -0.13661454516E+04  0.13661454516E+04  0.25500000920E-02 0.  1.
    10030    2    1    2    0    0  0.00000000000E+00  0.00000000000E+00 -0.24735943219E+03  0.24849314711E+04  0.24725892759E+04 0.  0.
        2    1    3    3  502    0 -0.11173267823E+04 -0.49299085828E+03  0.69543627702E+02  0.12232315566E+04  0.25500000920E-02 0. -1.
       -2    1    3    3    0  502  0.11173267823E+04  0.49299085828E+03 -0.31690305989E+03  0.12616999145E+04  0.25500000920E-02 0.  1.
</event>
<event>
 5   0  0.2331375E-05  0.2488872E+04  0.7818609E-02  0.8406961E-01
       -3   -1    0    0    0  501  0.00000000000E+00  0.00000000000E+00  0.13069825692E+04  0.13069825731E+04  0.10100000352E+00 0. -1.
        3   -1    0    0  501    0  0.00000000000E+00  0.00000000000E+00 -0.11848827364E+04  0.11848827407E+04  0.10100000352E+00 0.  1.
    10030    2    1    2    0    0  0.00000000000E+00  0.00000000000E+00  0.12209983278E+03  0.24918653138E+04  0.24888721086E+04 0.  0.
        3    1    3    3  502    0 -0.79109577297E+03  0.84636381680E+03 -0.39387176230E+03  0.12236417808E+04  0.10100000352E+00 0. -1.
       -3    1    3    3    0  502  0.79109577297E+03 -0.84636381680E+03  0.51597159508E+03  0.12682235330E+04  0.10100000352E+00 0.  1.
</event>
<event>
 5   0  0.7071821E-05  0.2435769E+04  0.7818609E-02  0.8426232E-01
       -2   -1    0    0    0  501  0.00000000000E+00  0.00000000000E+00  0.69194679634E+03  0.69194679634E+03  0.25500000920E-02 0. -1.
        2   -1    0    0  501    0  0.00000000000E+00  0.00000000000E+00 -0.21435797049E+04  0.21435797049E+04  0.25500000920E-02 0.  1.
    10030    2    1    2    0    0  0.00000000000E+00  0.00000000000E+00 -0.14516329085E+04  0.28355265012E+04  0.24357693729E+04 0.  0.
        5    1    3    3  502    0 -0.24632096166E+03  0.19781982889E+03  0.64340494628E+03  0.71679754168E+03  0.46999998093E+01 0. -1.
       -5    1    3    3    0  502  0.24632096166E+03 -0.19781982889E+03 -0.20950378548E+04  0.21187289595E+04  0.46999998093E+01 0.  1.
</event>
<event>
 5   0  0.7071821E-05  0.2473462E+04  0.7818609E-02  0.8412501E-01
       -2   -1    0    0    0  501  0.00000000000E+00  0.00000000000E+00  0.67152861672E+03  0.67152861673E+03  0.25500000920E-02 0.  1.
        2   -1    0    0  501    0  0.00000000000E+00  0.00000000000E+00 -0.22776438656E+04  0.22776438656E+04  0.25500000920E-02 0. -1.
    10030    2    1    2    0    0  0.00000000000E+00  0.00000000000E+00 -0.16061152489E+04  0.29491724823E+04  0.24734615699E+04 0.  0.
        5    1    3    3  502    0  0.10336844901E+04  0.94932407422E+02 -0.14764967043E+01  0.10380462693E+04  0.46999998093E+01 0.  1.
       -5    1    3    3    0  502 -0.10336844901E+04 -0.94932407422E+02 -0.16046387522E+04  0.19111262130E+04  0.46999998093E+01 0. -1.
</event>
<event>
 5   0  0.2977854E-05  0.2527699E+04  0.7818609E-02  0.8393184E-01
       -1   -1    0    0    0  501  0.00000000000E+00  0.00000000000E+00  0.92531042040E+03  0.92531042041E+03  0.50400001928E-02 0.  1.
        1   -1    0    0  501    0  0.00000000000E+00  0.00000000000E+00 -0.17262477089E+04  0.17262477090E+04  0.50400001928E-02 0. -1.
    10030    2    1    2    0    0  0.00000000000E+00  0.00000000000E+00 -0.80093728855E+03  0.26515581294E+04  0.25276985527E+04 0.  0.
        1    1    3    3  502    0 -0.12292256304E+03  0.47354341139E+03  0.82194905455E+03  0.95653205240E+03  0.50400001928E-02 0.  1.
       -1    1    3    3    0  502  0.12292256304E+03 -0.47354341139E+03 -0.16228863431E+04  0.16950260770E+04  0.50400001928E-02 0. -1.
</event>
<event>
 5   0  0.2896652E-05  0.1787852E+04  0.7818609E-02  0.8712787E-01
       -1   -1    0    0    0  501  0.00000000000E+00  0.00000000000E+00  0.82036072033E+03  0.82036072034E+03  0.50400001928E-02 0. -1.
        1   -1    0    0  501    0  0.00000000000E+00  0.00000000000E+00 -0.97408765049E+03  0.97408765050E+03  0.50400001928E-02 0.  1.
    10030    2    1    2    0    0  0.00000000000E+00  0.00000000000E+00 -0.15372693016E+03  0.17944483708E+04  0.17878515001E+04 0.  0.
        4    1    3    3  502    0  0.69863349865E+03  0.46711763330E+03  0.22891453370E+03  0.87102877416E+03  0.12699999809E+01 0. -1.
       -4    1    3    3    0  502 -0.69863349865E+03 -0.46711763330E+03 -0.38264146386E+03  0.92341959669E+03  0.12699999809E+01 0.  1.
</event>
<event>
 5   0  0.6827859E-05  0.2560959E+04  0.7818609E-02  0.8381585E-01
        2   -1    0    0  501    0  0.00000000000E+00  0.00000000000E+00  0.20837274598E+04  0.20837274598E+04  0.25500000920E-02 0.  1.
       -2   -1    0    0    0  501  0.00000000000E+00  0.00000000000E+00 -0.78687263090E+03  0.78687263090E+03  0.25500000920E-02 0. -1.
    10030    2    1    2    0    0  0.00000000000E+00  0.00000000000E+00  0.12968548289E+04  0.28706000907E+04  0.25609592799E+04 0.  0.
        3    1    3    3  502    0  0.46340857084E+03  0.10129656232E+04  0.13562711313E+04  0.17550835447E+04  0.10100000352E+00 0.  1.
       -3    1    3    3    0  502 -0.46340857084E+03 -0.10129656232E+04 -0.59416302355E+02  0.11155165460E+04  0.10100000352E+00 0. -1.
</event>
<event>
 5   0  0.6445331E-05  0.2466076E+04  0.7818609E-02  0.8415172E-01
       -2   -1    0    0    0  501  0.00000000000E+00  0.00000000000E+00  0.10489738810E+04  0.10489738810E+04  0.25500000920E-02 0. -1.
        2   -1    0    0  501    0  0.00000000000E+00  0.00000000000E+00 -0.14493998724E+04  0.14493998724E+04  0.25500000920E-02 0.  1.
    10030    2    1    2    0    0  0.00000000000E+00  0.00000000000E+00 -0.40042599141E+03  0.24983737534E+04  0.24660759187E+04 0.  0.
        1    1    3    3  502    0  0.41344630413E+03 -0.20303572493E+03 -0.13589678521E+04  0.14349059115E+04  0.50400001928E-02 0.  1.
       -1    1    3    3    0  502 -0.41344630413E+03  0.20303572493E+03  0.95854186065E+03  0.10634678418E+04  0.50400001928E-02 0. -1.
</event>
<event>
 5   0  0.7071821E-05  0.2496528E+04  0.7818609E-02  0.8404224E-01
        2   -1    0    0  501    0  0.00000000000E+00  0.00000000000E+00  0.16516700526E+04  0.16516700526E+04  0.25500000920E-02 0.  1.
       -2   -1    0    0    0  501  0.00000000000E+00  0.00000000000E+00 -0.94338599922E+03  0.94338599922E+03  0.25500000920E-02 0. -1.
    10030    2    1    2    0    0  0.00000000000E+00  0.00000000000E+00  0.70828405336E+03  0.25950560518E+04  0.24965275107E+04 0.  0.
        5    1    3    3  502    0 -0.21102278730E+03  0.11978665016E+04  0.64579621124E+03  0.13771309339E+04  0.46999998093E+01 0. -1.
       -5    1    3    3    0  502  0.21102278730E+03 -0.11978665016E+04  0.62487842123E+02  0.12179251179E+04  0.46999998093E+01 0.  1.
</event>
<event>
 5   0  0.2331375E-05  0.1970133E+04  0.7818609E-02  0.8620713E-01
       -4   -1    0    0    0  501  0.00000000000E+00  0.00000000000E+00  0.11038680828E+04  0.11038688134E+04  0.12699999809E+01 0. -1.
        4   -1    0    0  501    0  0.00000000000E+00  0.00000000000E+00 -0.87904932403E+03  0.87905024144E+03  0.12699999809E+01 0.  1.
    10030    2    1    2    0    0  0.00000000000E+00  0.00000000000E+00  0.22481875880E+03  0.19829190548E+04  0.19701331183E+04 0.  0.
        5    1    3    3  502    0 -0.28092289365E+03 -0.24456131616E+03 -0.80543331303E+03  0.88739665386E+03  0.46999998093E+01 0.  1.
       -5    1    3    3    0  502  0.28092289365E+03  0.24456131616E+03  0.10302520718E+04  0.10955224010E+04  0.46999998093E+01 0. -1.
</event>
<event>
 5   0  0.6827859E-05  0.2542959E+04  0.7818609E-02  0.8387839E-01
       -2   -1    0    0    0  501  0.00000000000E+00  0.00000000000E+00  0.10988746027E+04  0.10988746027E+04  0.25500000920E-02 0. -1.
        2   -1    0    0  501    0  0.00000000000E+00  0.00000000000E+00 -0.14711960084E+04  0.14711960084E+04  0.25500000920E-02 0.  1.
    10030    2    1    2    0    0  0.00000000000E+00  0.00000000000E+00 -0.37232140572E+03  0.25700706112E+04  0.25429588509E+04 0.  0.
        3    1    3    3  502    0 -0.15119293123E+03 -0.26056965163E+03  0.10622840805E+04  0.11041754044E+04  0.10100000352E+00 0. -1.
       -3    1    3    3    0  502  0.15119293123E+03  0.26056965163E+03 -0.14346054862E+04  0.14658952067E+04  0.10100000352E+00 0.  1.
</event>
<event>
 5   0  0.6909250E-05  0.2464471E+04  0.7818609E-02  0.8415753E-01
        2   -1    0    0  501    0  0.00000000000E+00  0.00000000000E+00  0.11114253944E+04  0.11114253944E+04  0.25500000920E-02 0.  1.
       -2   -1    0    0    0  501  0.00000000000E+00  0.00000000000E+00 -0.13661771815E+04  0.13661771815E+04  0.25500000920E-02 0. -1.
    10030    2    1    2    0    0  0.00000000000E+00  0.00000000000E+00 -0.25475178711E+03  0.24776025759E+04  0.24644707446E+04 0.  0.
        4    1    3    3  502    0 -0.26802844799E+03 -0.50202871245E+03  0.97139353184E+03  0.11258237356E+04  0.12699999809E+01 0.  1.
       -4    1    3    3    0  502  0.26802844799E+03  0.50202871245E+03 -0.12261453189E+04  0.13517788403E+04  0.12699999809E+01 0. -1.
</event>
<event>
 5   0  0.2331375E-05  0.2529140E+04  0.7818609E-02  0.8392677E-01
       -3   -1    0    0    0  501  0.00000000000E+00  0.00000000000E+00  0.61042043675E+03  0.61042044511E+03  0.10100000352E+00 0. -1.
        3   -1    0    0  501    0  0.00000000000E+00  0.00000000000E+00 -0.26197317367E+04  0.26197317386E+04  0.10100000352E+00 0.  1.
    10030    2    1    2    0    0  0.00000000000E+00  0.00000000000E+00 -0.20093112999E+04  0.32301521837E+04  0.25291404133E+04 0.  0.
        4    1    3    3  502    0  0.41907973517E+03  0.11797260451E+04 -0.77706473055E+03  0.14735035033E+04  0.12699999809E+01 0. -1.
       -4    1    3    3    0  502 -0.41907973517E+03 -0.11797260451E+04 -0.12322465693E+04  0.17566486804E+04  0.12699999809E+01 0.  1.
</event>
<event>
 5   0  0.6827859E-05  0.2467734E+04  0.7818609E-02  0.8414571E-01
        2   -1    0    0  501    0  0.00000000000E+00  0.00000000000E+00  0.16173604567E+04  0.16173604567E+04  0.25500000920E-02 0.  1.
       -2   -1    0    0    0  501  0.00000000000E+00  0.00000000000E+00 -0.94130396027E+03  0.94130396027E+03  0.25500000920E-02 0. -1.
    10030    2    1    2    0    0  0.00000000000E+00  0.00000000000E+00  0.67605649645E+03  0.25586644170E+04  0.24677340238E+04 0.  0.
        3    1    3    3  502    0  0.11094593361E+04  0.39699193224E+03  0.71747085945E+03  0.13795894523E+04  0.10100000352E+00 0. -1.
       -3    1    3    3    0  502 -0.11094593361E+04 -0.39699193224E+03 -0.41414363002E+02  0.11790749647E+04  0.10100000352E+00 0.  1.
</event>
<event>
 5   0  0.6909250E-05  0.2452905E+04  0.7818609E-02  0.8419958E-01
        2   -1    0    0  501    0  0.00000000000E+00  0.00000000000E+00  0.93861254527E+03  0.93861254527E+03  0.25500000920E-02 0. -1.
       -2   -1    0    0    0  501  0.00000000000E+00  0.00000000000E+00 -0.16025629473E+04  0.16025629473E+04  0.25500000920E-02 0.  1.
    10030    2    1    2    0    0  0.00000000000E+00  0.00000000000E+00 -0.66395040200E+03  0.25411754925E+04  0.24529049610E+04 0.  0.
        4    1    3    3  502    0  0.48569912952E+03  0.11081478912E+04 -0.12403164780E+03  0.12162569037E+04  0.12699999809E+01 0. -1.
       -4    1    3    3    0  502 -0.48569912952E+03 -0.11081478912E+04 -0.53991875420E+03  0.13249185889E+04  0.12699999809E+01 0.  1.
</event>
<event>
 5   0  0.6445331E-05  0.2542933E+04  0.7818609E-02  0.8387848E-01
        2   -1    0    0  501    0  0.00000000000E+00  0.00000000000E+00  0.23777487259E+04  0.23777487259E+04  0.25500000920E-02 0.  1.
       -2   -1    0    0    0  501  0.00000000000E+00  0.00000000000E+00 -0.67989823588E+03  0.67989823588E+03  0.25500000920E-02 0. -1.
    10030    2    1    2    0    0  0.00000000000E+00  0.00000000000E+00  0.16978504900E+04  0.30576469618E+04  0.25429330814E+04 0.  0.
        1    1    3    3  502    0 -0.88893808503E+03 -0.80365440482E+03  0.33799903561E+03  0.12451163277E+04  0.50400001928E-02 0.  1.
       -1    1    3    3    0  502  0.88893808503E+03  0.80365440482E+03  0.13598514544E+04  0.18125306341E+04  0.50400001928E-02 0. -1.
</event>
<event>
 5   0  0.2896652E-05  0.2010578E+04  0.7818609E-02  0.8601691E-01
        1   -1    0    0  501    0  0.00000000000E+00  0.00000000000E+00  0.76937780653E+03  0.76937780654E+03  0.50400001928E-02 0.  1.
       -1   -1    0    0    0  501  0.00000000000E+00  0.00000000000E+00 -0.13135363376E+04  0.13135363376E+04  0.50400001928E-02 0. -1.
    10030    2    1    2    0    0  0.00000000000E+00  0.00000000000E+00 -0.54415853109E+03  0.20829141442E+04  0.20105777341E+04 0.  0.
        4    1    3    3  502    0 -0.51569361305E+02  0.95230467086E+03  0.57258276041E+02  0.95541808034E+03  0.12699999809E+01 0.  1.
       -4    1    3    3    0  502  0.51569361305E+02 -0.95230467086E+03 -0.60141680713E+03  0.11274960638E+04  0.12699999809E+01 0. -1.
</event>
<event>
 5   0  0.6827859E-05  0.1297741E+04  0.7818609E-02  0.9031358E-01
       -2   -1    0    0    0  501  0.00000000000E+00  0.00000000000E+00  0.38304617677E+03  0.38304617678E+03  0.25500000920E-02 0. -1.
        2   -1    0    0  501    0  0.00000000000E+00  0.00000000000E+00 -0.10991701429E+04  0.10991701429E+04  0.25500000920E-02 0.  1.
    10030    2    1    2    0    0  0.00000000000E+00  0.00000000000E+00 -0.71612396609E+03  0.14822163196E+04  0.12977409924E+04 0.  0.
        3    1    3    3  502    0 -0.10582943914E+03 -0.58768741140E+03 -0.68089301050E+02  0.60100958963E+03  0.10100000352E+00 0. -1.
       -3    1    3    3    0  502  0.10582943914E+03  0.58768741140E+03 -0.64803466504E+03  0.88120673001E+03  0.10100000352E+00 0.  1.
</event>
<event>
 5   0  0.7071821E-05  0.2406629E+04  0.7818609E-02  0.8437026E-01
        2   -1    0    0  501    0  0.00000000000E+00  0.00000000000E+00  0.23147292338E+04  0.23147292338E+04  0.25500000920E-02 0.  1.
       -2   -1    0    0    0  501  0.00000000000E+00  0.00000000000E+00 -0.62554418145E+03  0.62554418146E+03  0.25500000920E-02 0. -1.
    10030    2    1    2    0    0  0.00000000000E+00  0.00000000000E+00  0.16891850524E+04  0.29402734153E+04  0.24066286825E+04 0.  0.
        5    1    3    3  502    0 -0.59098264047E+02  0.11975090900E+04  0.71986322051E+03  0.13984798074E+04  0.46999998093E+01 0. -1.
       -5    1    3    3    0  502  0.59098264047E+02 -0.11975090900E+04  0.96932183185E+03  0.15417936079E+04  0.46999998093E+01 0.  1.
</event>
<event>
 5   0  0.2777539E-05  0.2495001E+04  0.7818609E-02  0.8404768E-01
       -1   -1    0    0    0  501  0.00000000000E+00  0.00000000000E+00  0.94275249726E+03  0.94275249728E+03  0.50400001928E-02 0.  1.
        1   -1    0    0  501    0  0.00000000000E+00  0.00000000000E+00 -0.16507600045E+04  0.16507600045E+04  0.50400001928E-02 0. -1.
    10030    2    1    2    0    0  0.00000000000E+00  0.00000000000E+00 -0.70800750728E+03  0.25935125018E+04  0.24950014963E+04 0.  0.
        3    1    3    3  502    0  0.11968457901E+04  0.12274292185E+03 -0.69680076963E+03  0.13903370070E+04  0.10100000352E+00 0. -1.
       -3    1    3    3    0  502 -0.11968457901E+04 -0.12274292185E+03 -0.11206737651E+02  0.12031754948E+04  0.10100000352E+00 0.  1.
</event>
<event>
 5   0  0.2896652E-05  0.2513505E+04  0.7818609E-02  0.8398190E-01
        1   -1    0    0  501    0  0.00000000000E+00  0.00000000000E+00  0.14315402848E+04  0.14315402848E+04  0.50400001928E-02 0.  1.
       -1   -1    0    0    0  501  0.00000000000E+00  0.00000000000E+00 -0.11033059844E+04  0.11033059844E+04  0.50400001928E-02 0. -1.
    10030    2    1    2    0    0  0.00000000000E+00  0.00000000000E+00  0.32823430042E+03  0.25348462693E+04  0.25135050931E+04 0.  0.
        4    1    3    3  502    0  0.11416351101E+04  0.41982650445E+03 -0.15454087780E+03  0.12261604766E+04  0.12699999809E+01 0. -1.
       -4    1    3    3    0  502 -0.11416351101E+04 -0.41982650445E+03  0.48277517822E+03  0.13086857927E+04  0.12699999809E+01 0.  1.
</event>
<event>
 5   0  0.6909250E-05  0.1771335E+04  0.7818609E-02  0.8721693E-01
       -2   -1    0    0    0  501  0.00000000000E+00  0.00000000000E+00  0.13947141186E+04  0.13947141186E+04  0.25500000920E-02 0. -1.
        2   -1    0    0  501    0  0.00000000000E+00  0.00000000000E+00 -0.56241409030E+03  0.56241409031E+03  0.25500000920E-02 0.  1.
    10030    2    1    2    0    0  0.00000000000E+00  0.00000000000E+00  0.83230002830E+03  0.19571282089E+04  0.17713349455E+04 0.  0.
        4    1    3    3  502    0 -0.79076942076E+02 -0.64771791904E+03  0.10778055648E+04  0.12599436947E+04  0.12699999809E+01 0. -1.
       -4    1    3    3    0  502  0.79076942076E+02  0.64771791904E+03 -0.24550553655E+03  0.69718451417E+03  0.12699999809E+01 0.  1.
</event>
<event>
 5   0  0.2777539E-05  0.2440416E+04  0.7818609E-02  0.8424526E-01
        1   -1    0    0  501    0  0.00000000000E+00  0.00000000000E+00  0.17548234653E+04  0.17548234653E+04  0.50400001928E-02 0.  1.
       -1   -1    0    0    0  501  0.00000000000E+00  0.00000000000E+00 -0.84846569212E+03  0.84846569214E+03  0.50400001928E-02 0. -1.
    10030    2    1    2    0    0  0.00000000000E+00  0.00000000000E+00  0.90635777320E+03  0.26032891575E+04  0.24404159531E+04 0.  0.
        3    1    3    3  502    0  0.73892808170E+03  0.77746756954E+02 -0.57932851596E+03  0.94216814197E+03  0.10100000352E+00 0. -1.
       -3    1    3    3    0  502 -0.73892808170E+03 -0.77746756954E+02  0.14856862892E+04  0.16611210155E+04  0.10100000352E+00 0.  1.
</event>
<event>
 5   0  0.7071821E-05  0.2514691E+04  0.7818609E-02  0.8397770E-01
       -2   -1    0    0    0  501  0.00000000000E+00  0.00000000000E+00  0.13430044491E+04  0.13430044491E+04  0.25500000920E-02 0. -1.
        2   -1    0    0  501    0  0.00000000000E+00  0.00000000000E+00 -0.11771500879E+04  0.11771500879E+04  0.25500000920E-02 0.  1.
    10030    2    1    2    0    0  0.00000000000E+00  0.00000000000E+00  0.16585436125E+03  0.25201545370E+04  0.25146910787E+04 0.  0.
        5    1    3    3  502    0 -0.60643333899E+03 -0.10729472909E+04 -0.16644758532E+03  0.12436656192E+04  0.46999998093E+01 0. -1.
       -5    1    3    3    0  502  0.60643333899E+03  0.10729472909E+04  0.33230194656E+03  0.12764889178E+04  0.46999998093E+01 0.  1.
</event>
<event>
 5   0  0.6648328E-05  0.1799689E+04  0.7818609E-02  0.8706465E-01
       -2   -1    0    0    0  501  0.00000000000E+00  0.00000000000E+00  0.10967909242E+04  0.10967909242E+04  0.25500000920E-02 0. -1.
        2   -1    0    0  501    0  0.00000000000E+00  0.00000000000E+00 -0.73826277415E+03  0.73826277415E+03  0.25500000920E-02 0.  1.
    10030    2    1    2    0    0  0.00000000000E+00  0.00000000000E+00  0.35852815002E+03  0.18350536983E+04  0.17996887624E+04 0.  0.
        2    1    3    3  502    0 -0.61176608501E+03 -0.49594765611E+03 -0.26460387858E+03  0.83080505110E+03  0.25500000920E-02 0.  1.
       -2    1    3    3    0  502  0.61176608501E+03  0.49594765611E+03  0.62313202860E+03  0.10042486472E+04  0.25500000920E-02 0. -1.
</event>
<event>
 5   0  0.7071821E-05  0.2526954E+04  0.7818609E-02  0.8393446E-01
        2   -1    0    0  501    0  0.00000000000E+00  0.00000000000E+00  0.16545843730E+04  0.16545843730E+04  0.25500000920E-02 0. -1.
       -2   -1    0    0    0  501  0.00000000000E+00  0.00000000000E+00 -0.96481863610E+03  0.96481863610E+03  0.25500000920E-02 0.  1.
    10030    2    1    2    0    0  0.00000000000E+00  0.00000000000E+00  0.68976573691E+03  0.26194030091E+04  0.25269537693E+04 0.  0.
        5    1    3    3  502    0 -0.11022940112E+04 -0.61600284006E+03  0.38934937846E+03  0.13214108425E+04  0.46999998093E+01 0.  1.
       -5    1    3    3    0  502  0.11022940112E+04  0.61600284006E+03  0.30041635845E+03  0.12979921666E+04  0.46999998093E+01 0. -1.
</event>
<event>
 5   0  0.2980790E-05  0.2445636E+04  0.7818609E-02  0.8422613E-01
        1   -1    0    0  501    0  0.00000000000E+00  0.00000000000E+00  0.10925894510E+04  0.10925894510E+04  0.50400001928E-02 0. -1.
       -1   -1    0    0    0  501  0.00000000000E+00  0.00000000000E+00 -0.13685683899E+04  0.13685683899E+04  0.50400001928E-02 0.  1.
    10030    2    1    2    0    0  0.00000000000E+00  0.00000000000E+00 -0.27597893890E+03  0.24611578409E+04  0.24456356113E+04 0.  0.
        5    1    3    3  502    0  0.14050377646E+03  0.12019510701E+04 -0.31469897111E+03  0.12503940253E+04  0.46999998093E+01 0.  1.
       -5    1    3    3    0  502 -0.14050377646E+03 -0.12019510701E+04  0.38720032211E+02  0.12107638156E+04  0.46999998093E+01 0. -1.
</event>
<event>
 5   0  0.2896652E-05  0.2542717E+04  0.7818609E-02  0.8387924E-01
        1   -1    0    0  501    0  0.00000000000E+00  0.00000000000E+00  0.10425740928E+04  0.10425740928E+04  0.50400001928E-02 0.  1.
       -1   -1    0    0    0  501  0.00000000000E+00  0.00000000000E+00 -0.15503476138E+04  0.15503476138E+04  0.50400001928E-02 0. -1.
    10030    2    1    2    0    0  0.00000000000E+00  0.00000000000E+00 -0.50777352103E+03  0.25929217067E+04  0.25427168596E+04 0.  0.
        4    1    3    3  502    0  0.74353525133E+03  0.83352127365E+03 -0.87312303760E+03  0.14177262907E+04  0.12699999809E+01 0. -1.
       -4    1    3    3    0  502 -0.74353525133E+03 -0.83352127365E+03  0.36534951657E+03  0.11751954160E+04  0.12699999809E+01 0.  1.
</event>
<event>
 5   0  0.6827859E-05  0.2442590E+04  0.7818609E-02  0.8423728E-01
        2   -1    0    0  501    0  0.00000000000E+00  0.00000000000E+00  0.84512446803E+03  0.84512446803E+03  0.25500000920E-02 0.  1.
       -2   -1    0    0    0  501  0.00000000000E+00  0.00000000000E+00 -0.17649013524E+04  0.17649013524E+04  0.25500000920E-02 0. -1.
    10030    2    1    2    0    0  0.00000000000E+00  0.00000000000E+00 -0.91977688433E+03  0.26100258204E+04  0.24425898686E+04 0.  0.
        3    1    3    3  502    0 -0.81583957837E+03 -0.61417666619E+03  0.25592273027E+03  0.10527600149E+04  0.10100000352E+00 0.  1.
       -3    1    3    3    0  502  0.81583957837E+03  0.61417666619E+03 -0.11756996146E+04  0.15572658055E+04  0.10100000352E+00 0. -1.
</event>
<event>
 5   0  0.2793920E-05  0.2507871E+04  0.7818609E-02  0.8400187E-01
       -1   -1    0    0    0  501  0.00000000000E+00  0.00000000000E+00  0.62223045502E+03  0.62223045504E+03  0.50400001928E-02 0.  1.
        1   -1    0    0  501    0  0.00000000000E+00  0.00000000000E+00 -0.25269640075E+04  0.25269640075E+04  0.50400001928E-02 0. -1.
    10030    2    1    2    0    0  0.00000000000E+00  0.00000000000E+00 -0.19047335525E+04  0.31491944625E+04  0.25078707815E+04 0.  0.
        2    1    3    3  502    0 -0.39647622757E+03 -0.19070984439E+03 -0.24268622251E+04  0.24664192473E+04  0.25500000920E-02 0. -1.
       -2    1    3    3    0  502  0.39647622757E+03  0.19070984439E+03  0.52212867262E+03  0.68277521525E+03  0.25500000920E-02 0.  1.
</event>
<event>
 5   0  0.6909250E-05  0.2478840E+04  0.7818609E-02  0.8410563E-01
       -2   -1    0    0    0  501  0.00000000000E+00  0.00000000000E+00  0.12837903882E+04  0.12837903882E+04  0.25500000920E-02 0.  1.
        2   -1    0    0  501    0  0.00000000000E+00  0.00000000000E+00 -0.11965827776E+04  0.11965827776E+04  0.25500000920E-02 0. -1.
    10030    2    1    2    0    0  0.00000000000E+00  0.00000000000E+00  0.87207610538E+02  0.24803731658E+04  0.24788396225E+04 0.  0.
        4    1    3    3  502    0  0.10844521097E+04  0.32491249857E+03 -0.46124310849E+03  0.12224366356E+04  0.12699999809E+01 0. -1.
       -4    1    3    3    0  502 -0.10844521097E+04 -0.32491249857E+03  0.54845071902E+03  0.12579365302E+04  0.12699999809E+01 0.  1.
</event>
<event>
 5   0  0.2896652E-05  0.2496369E+04  0.7818609E-02  0.8404280E-01
       -1   -1    0    0    0  501  0.00000000000E+00  0.00000000000E+00  0.77439256429E+03  0.77439256431E+03  0.50400001928E-02 0. -1.
        1   -1    0    0  501    0  0.00000000000E+00  0.00000000000E+00 -0.20118541749E+04  0.20118541749E+04  0.50400001928E-02 0.  1.
    10030    2    1    2    0    0  0.00000000000E+00  0.00000000000E+00 -0.12374616106E+04  0.27862467393E+04  0.24963692944E+04 0.  0.
        4    1    3    3  502    0 -0.78813461876E+03 -0.89119447386E+03 -0.19728732933E+03  0.12059467943E+04  0.12699999809E+01 0.  1.
       -4    1    3    3    0  502  0.78813461876E+03  0.89119447386E+03 -0.10401742813E+04  0.15802999449E+04  0.12699999809E+01 0. -1.
</event>
<event>
 5   0  0.2977854E-05  0.1857119E+04  0.7818609E-02  0.8676501E-01
        1   -1    0    0  501    0  0.00000000000E+00  0.00000000000E+00  0.12502739591E+04  0.12502739591E+04  0.50400001928E-02 0.  1.
       -1   -1    0    0    0  501  0.00000000000E+00  0.00000000000E+00 -0.68962675590E+03  0.68962675591E+03  0.50400001928E-02 0. -1.
    10030    2    1    2    0    0  0.00000000000E+00  0.00000000000E+00  0.56064720320E+03  0.19399007150E+04  0.18571186009E+04 0.  0.
        1    1    3    3  502    0  0.62802986685E+02  0.81662890137E+03  0.73731245519E+03  0.11020238810E+04  0.50400001928E-02 0.  1.
       -1    1    3    3    0  502 -0.62802986685E+02 -0.81662890137E+03 -0.17666525199E+03  0.83787683402E+03  0.50400001928E-02 0. -1.
</event>
<event>
 5   0  0.2980790E-05  0.2516005E+04  0.7818609E-02  0.8397306E-01
        1   -1    0    0  501    0  0.00000000000E+00  0.00000000000E+00  0.22742203336E+04  0.22742203336E+04  0.50400001928E-02 0.  1.
       -1   -1    0    0    0  501  0.00000000000E+00  0.00000000000E+00 -0.69587358333E+03  0.69587358335E+03  0.50400001928E-02 0. -1.
    10030    2    1    2    0    0  0.00000000000E+00  0.00000000000E+00  0.15783467503E+04  0.29700939170E+04  0.25160046525E+04 0.  0.
        5    1    3    3  502    0 -0.60281766274E+03 -0.10988720284E+04  0.66181878879E+03  0.14173690658E+04  0.46999998093E+01 0. -1.
       -5    1    3    3    0  502  0.60281766274E+03  0.10988720284E+04  0.91652796149E+03  0.15527248512E+04  0.46999998093E+01 0.  1.
</event>
<event>
 5   0  0.2777539E-05  0.1458423E+04  0.7818609E-02  0.8912582E-01
       -1   -1    0    0    0  501  0.00000000000E+00  0.00000000000E+00  0.10394113769E+04  0.10394113769E+04  0.50400001928E-02 0.  1.
        1   -1    0    0  501    0  0.00000000000E+00  0.00000000000E+00 -0.51158692494E+03  0.51158692497E+03  0.50400001928E-02 0. -1.
    10030    2    1    2    0    0  0.00000000000E+00  0.00000000000E+00  0.52782445191E+03  0.15509983018E+04  0.14584228057E+04 0.  0.
        3    1    3    3  502    0 -0.57051755854E+03 -0.24890580100E+03 -0.14007569552E+03  0.63801692223E+03  0.10100000352E+00 0. -1.
       -3    1    3    3    0  502  0.57051755854E+03  0.24890580100E+03  0.66790014743E+03  0.91298137961E+03  0.10100000352E+00 0.  1.
</event>
<event>
 5   0  0.6648328E-05  0.2222134E+04  0.7818609E-02  0.8509271E-01
       -2   -1    0    0    0  501  0.00000000000E+00  0.00000000000E+00  0.60466916519E+03  0.60466916520E+03  0.25500000920E-02 0.  1.
        2   -1    0    0  501    0  0.00000000000E+00  0.00000000000E+00 -0.20415629431E+04  0.20415629431E+04  0.25500000920E-02 0. -1.
    10030    2    1    2    0    0  0.00000000000E+00  0.00000000000E+00 -0.14368937779E+04  0.26462321083E+04  0.22221342538E+04 0.  0.
        2    1    3    3  502    0 -0.64576984535E+03  0.68978359198E+03 -0.14145096399E+04  0.17010754300E+04  0.25500000920E-02 0. -1.
       -2    1    3    3    0  502  0.64576984535E+03 -0.68978359198E+03 -0.22384137940E+02  0.94515667831E+03  0.25500000920E-02 0.  1.
</event>
<event>
 5   0  0.2896652E-05  0.2359113E+04  0.7818609E-02  0.8454972E-01
        1   -1    0    0  501    0  0.00000000000E+00  0.00000000000E+00  0.15330318940E+04  0.15330318940E+04  0.50400001928E-02 0.  1.
       -1   -1    0    0    0  501  0.00000000000E+00  0.00000000000E+00 -0.90758271097E+03  0.90758271098E+03  0.50400001928E-02 0. -1.
    10030    2    1    2    0    0  0.00000000000E+00  0.00000000000E+00  0.62544918301E+03  0.24406146050E+04  0.23591127505E+04 0.  0.
        4    1    3    3  502    0 -0.68040950047E+03 -0.96030800476E+03  0.23124401398E+03  0.11994265126E+04  0.12699999809E+01 0. -1.
       -4    1    3    3    0  502  0.68040950047E+03  0.96030800476E+03  0.39420516902E+03  0.12411880923E+04  0.12699999809E+01 0.  1.
</event>
<event>
 5   0  0.6827859E-05  0.1846656E+04  0.7818609E-02  0.8681874E-01
        2   -1    0    0  501    0  0.00000000000E+00  0.00000000000E+00  0.24015146723E+04  0.24015146723E+04  0.25500000920E-02 0.  1.
       -2   -1    0    0    0  501  0.00000000000E+00  0.00000000000E+00 -0.35499883492E+03  0.35499883493E+03  0.25500000920E-02 0. -1.
    10030    2    1    2    0    0  0.00000000000E+00  0.00000000000E+00  0.20465158373E+04  0.27565135072E+04  0.18466563413E+04 0.  0.
        3    1    3    3  502    0 -0.80459554169E+03  0.45044506077E+03  0.95229298019E+03  0.13255703183E+04  0.10100000352E+00 0.  1.
       -3    1    3    3    0  502  0.80459554169E+03 -0.45044506077E+03  0.10942228571E+04  0.14309431889E+04  0.10100000352E+00 0. -1.
</event>
<event>
 5   0  0.6909250E-05  0.2523160E+04  0.7818609E-02  0.8394781E-01
       -2   -1    0    0    0  501  0.00000000000E+00  0.00000000000E+00  0.80506503052E+03  0.80506503052E+03  0.25500000920E-02 0.  1.
        2   -1    0    0  501    0  0.00000000000E+00  0.00000000000E+00 -0.19769627982E+04  0.19769627982E+04  0.25500000920E-02 0. -1.
    10030    2    1    2    0    0  0.00000000000E+00  0.00000000000E+00 -0.11718977677E+04  0.27820278287E+04  0.25231596188E+04 0.  0.
        4    1    3    3  502    0  0.87955814465E+03  0.84893067902E+03 -0.92983923220E+03  0.15358738354E+04  0.12699999809E+01 0. -1.
       -4    1    3    3    0  502 -0.87955814465E+03 -0.84893067902E+03 -0.24205853547E+03  0.12461539933E+04  0.12699999809E+01 0.  1.
</event>
<event>
 5   0  0.2977854E-05  0.2477836E+04  0.7818609E-02  0.8410924E-01
       -1   -1    0    0    0  501  0.00000000000E+00  0.00000000000E+00  0.11231265531E+04  0.11231265531E+04  0.50400001928E-02 0. -1.
        1   -1    0    0  501    0  0.00000000000E+00  0.00000000000E+00 -0.13666468734E+04  0.13666468734E+04  0.50400001928E-02 0.  1.
    10030    2    1    2    0    0  0.00000000000E+00  0.00000000000E+00 -0.24352032028E+03  0.24897734265E+04  0.24778356622E+04 0.  0.
        1    1    3    3  502    0 -0.94579946339E+02 -0.79781805814E+03  0.82589458546E+03  0.11521982843E+04  0.50400001928E-02 0. -1.
       -1    1    3    3    0  502  0.94579946339E+02  0.79781805814E+03 -0.10694149057E+04  0.13375751421E+04  0.50400001928E-02 0.  1.
</event>
<event>
 5   0  0.7071821E-05  0.2498930E+04  0.7818609E-02  0.8403367E-01
        2   -1    0    0  501    0  0.00000000000E+00  0.00000000000E+00  0.15841556108E+04  0.15841556108E+04  0.25500000920E-02 0.  1.
       -2   -1    0    0    0  501  0.00000000000E+00  0.00000000000E+00 -0.98548548098E+03  0.98548548098E+03  0.25500000920E-02 0. -1.
    10030    2    1    2    0    0  0.00000000000E+00  0.00000000000E+00  0.59867012981E+03  0.25696410918E+04  0.24989296541E+04 0.  0.
        5    1    3    3  502    0  0.48499510718E+03  0.11443172129E+04  0.43125445450E+03  0.13155548762E+04  0.46999998093E+01 0.  1.
       -5    1    3    3    0  502 -0.48499510718E+03 -0.11443172129E+04  0.16741567531E+03  0.12540862156E+04  0.46999998093E+01 0. -1.
</event>
<event>
 5   0  0.6445331E-05  0.2486481E+04  0.7818609E-02  0.8407818E-01
        2   -1    0    0  501    0  0.00000000000E+00  0.00000000000E+00  0.14035106663E+04  0.14035106663E+04  0.25500000920E-02 0.  1.
       -2   -1    0    0    0  501  0.00000000000E+00  0.00000000000E+00 -0.11012719465E+04  0.11012719465E+04  0.25500000920E-02 0. -1.
    10030    2    1    2    0    0  0.00000000000E+00  0.00000000000E+00  0.30223871983E+03  0.25047826129E+04  0.24864809860E+04 0.  0.
        1    1    3    3  502    0 -0.11252807026E+04  0.20550150356E+03  0.64169396730E+03  0.13115863202E+04  0.50400001928E-02 0.  1.
       -1    1    3    3    0  502  0.11252807026E+04 -0.20550150356E+03 -0.33945524747E+03  0.11931962926E+04  0.50400001928E-02 0. -1.
</event>
<event>
 5   0  0.6827859E-05  0.1827550E+04  0.7818609E-02  0.8691784E-01
        2   -1    0    0  501    0  0.00000000000E+00  0.00000000000E+00  0.76389425562E+03  0.76389425562E+03  0.25500000920E-02 0. -1.
       -2   -1    0    0    0  501  0.00000000000E+00  0.00000000000E+00 -0.10930634283E+04  0.10930634283E+04  0.25500000920E-02 0.  1.
    10030    2    1    2    0    0  0.00000000000E+00  0.00000000000E+00 -0.32916917267E+03  0.18569576839E+04  0.18275501349E+04 0.  0.
        3    1    3    3  502    0 -0.67756584140E+03 -0.56215817681E+03 -0.41320028803E+03  0.97254911106E+03  0.10100000352E+00 0. -1.
       -3    1    3    3    0  502  0.67756584140E+03  0.56215817681E+03  0.84031115363E+02  0.88440857285E+03  0.10100000352E+00 0.  1.
</event>
<event>
 5   0  0.2977854E-05  0.2306804E+04  0.7818609E-02  0.8475243E-01
       -1   -1    0    0    0  501  0.00000000000E+00  0.00000000000E+00  0.10669043121E+04  0.10669043121E+04  0.50400001928E-02 0.  1.
        1   -1    0    0  501    0  0.00000000000E+00  0.00000000000E+00 -0.12469124056E+04  0.12469124056E+04  0.50400001928E-02 0. -1.
    10030    2    1    2    0    0  0.00000000000E+00  0.00000000000E+00 -0.18000809345E+03  0.23138167177E+04  0.23068040423E+04 0.  0.
        1    1    3    3  502    0  0.60669213257E+03 -0.89529384916E+03 -0.49210901042E+03  0.11881909351E+04  0.50400001928E-02 0. -1.
       -1    1    3    3    0  502 -0.60669213257E+03  0.89529384916E+03  0.31210091697E+03  0.11256257826E+04  0.50400001928E-02 0.  1.
</event>
<event>
 5   0  0.2793920E-05  0.2531627E+04  0.7818609E-02  0.8391804E-01
       -1   -1    0    0    0  501  0.00000000000E+00  0.00000000000E+00  0.10377871399E+04  0.10377871400E+04  0.50400001928E-02 0. -1.
        1   -1    0    0  501    0  0.00000000000E+00  0.00000000000E+00 -0.15439432101E+04  0.15439432101E+04  0.50400001928E-02 0.  1.
    10030    2    1    2    0    0  0.00000000000E+00  0.00000000000E+00 -0.50615607011E+03  0.25817303500E+04  0.25316274672E+04 0.  0.
        2    1    3    3  502    0 -0.19105951673E+03  0.92833297677E+03 -0.11087174766E+04  0.14586158842E+04  0.25500000920E-02 0.  1.
       -2    1    3    3    0  502  0.19105951673E+03 -0.92833297677E+03  0.60256140651E+03  0.11231144658E+04  0.25500000920E-02 0. -1.
</event>
<event>
 5   0  0.6445331E-05  0.2515812E+04  0.7818609E-02  0.8397374E-01
        2   -1    0    0  501    0  0.00000000000E+00  0.00000000000E+00  0.11788187221E+04  0.11788187221E+04  0.25500000920E-02 0. -1.
       -2   -1    0    0    0  501  0.00000000000E+00  0.00000000000E+00 -0.13422996834E+04  0.13422996834E+04  0.25500000920E-02 0.  1.
    10030    2    1    2    0    0  0.00000000000E+00  0.00000000000E+00 -0.16348096134E+03  0.25211184055E+04  0.25158123916E+04 0.  0.
        1    1    3    3  502    0 -0.12531522976E+04 -0.10749394479E+03 -0.62144999350E+02  0.12592885412E+04  0.50400001928E-02 0.  1.
       -1    1    3    3    0  502  0.12531522976E+04  0.10749394479E+03 -0.10133596199E+03  0.12618298643E+04  0.50400001928E-02 0. -1.
</event>
<event>
 5   0  0.6827859E-05  0.2566345E+04  0.7818609E-02  0.8379724E-01
        2   -1    0    0  501    0  0.00000000000E+00  0.00000000000E+00  0.87743117691E+03  0.87743117692E+03  0.25500000920E-02 0. -1.
       -2   -1    0    0    0  501  0.00000000000E+00  0.00000000000E+00 -0.18765370787E+04  0.18765370787E+04  0.25500000920E-02 0.  1.
    10030    2    1    2    0    0  0.00000000000E+00  0.00000000000E+00 -0.99910590176E+03  0.27539682556E+04  0.25663453684E+04 0.  0.
        3    1    3    3  502    0 -0.44204814047E+03 -0.31064844688E+03 -0.17485260049E+04  0.18300962313E+04  0.10100000352E+00 0.  1.
       -3    1    3    3    0  502  0.44204814047E+03  0.31064844688E+03  0.74942010311E+03  0.92387202425E+03  0.10100000352E+00 0. -1.
</event>
<event>
 5   0  0.2980790E-05  0.2744017E+04  0.7818609E-02  0.8320863E-01
        1   -1    0    0  501    0  0.00000000000E+00  0.00000000000E+00  0.14599105612E+04  0.14599105612E+04  0.50400001928E-02 0.  1.
       -1   -1    0    0    0  501  0.00000000000E+00  0.00000000000E+00 -0.12893987998E+04  0.12893987998E+04  0.50400001928E-02 0. -1.
    10030    2    1    2    0    0  0.00000000000E+00  0.00000000000E+00  0.17051176137E+03  0.27493093610E+04  0.27440167094E+04 0.  0.
        5    1    3    3  502    0 -0.11703327282E+04  0.57610398825E+03 -0.34078226437E+03  0.13482318575E+04  0.46999998093E+01 0. -1.
       -5    1    3    3    0  502  0.11703327282E+04 -0.57610398825E+03  0.51129402574E+03  0.14010775035E+04  0.46999998093E+01 0.  1.
</event>
<event>
 5   0  0.6827859E-05  0.2640744E+04  0.7818609E-02  0.8354492E-01
        2   -1    0    0  501    0  0.00000000000E+00  0.00000000000E+00  0.10129591954E+04  0.10129591954E+04  0.25500000920E-02 0. -1.
       -2   -1    0    0    0  501  0.00000000000E+00  0.00000000000E+00 -0.17210782923E+04  0.17210782923E+04  0.25500000920E-02 0.  1.
    10030    2    1    2    0    0  0.00000000000E+00  0.00000000000E+00 -0.70811909692E+03  0.27340374877E+04  0.26407438969E+04 0.  0.
        3    1    3    3  502    0  0.94515576665E+03  0.16795150004E+03  0.58453011257E+03  0.11239228587E+04  0.10100000352E+00 0. -1.
       -3    1    3    3    0  502 -0.94515576665E+03 -0.16795150004E+03 -0.12926492095E+04  0.16101146290E+04  0.10100000352E+00 0.  1.
</event>
<event>
 5   0  0.2896652E-05  0.2530333E+04  0.7818609E-02  0.8392258E-01
       -1   -1    0    0    0  501  0.00000000000E+00  0.00000000000E+00  0.24538976553E+04  0.24538976553E+04  0.50400001928E-02 0. -1.
        1   -1    0    0  501    0  0.00000000000E+00  0.00000000000E+00 -0.65228742572E+03  0.65228742574E+03  0.50400001928E-02 0.  1.
    10030    2    1    2    0    0  0.00000000000E+00  0.00000000000E+00  0.18016102296E+04  0.31061850811E+04  0.25303332465E+04 0.  0.
        4    1    3    3  502    0 -0.90774277404E+02 -0.51496932523E+03  0.23150339614E+04  0.23733556898E+04  0.12699999809E+01 0. -1.
       -4    1    3    3    0  502  0.90774277404E+02  0.51496932523E+03 -0.51342373177E+03  0.73282939121E+03  0.12699999809E+01 0.  1.
</event>
<event>
 5   0  0.2896652E-05  0.2388752E+04  0.7818609E-02  0.8443727E-01
        1   -1    0    0  501    0  0.00000000000E+00  0.00000000000E+00  0.13220654754E+04  0.13220654754E+04  0.50400001928E-02 0. -1.
       -1   -1    0    0    0  501  0.00000000000E+00  0.00000000000E+00 -0.10790192760E+04  0.10790192760E+04  0.50400001928E-02 0.  1.
    10030    2    1    2    0    0  0.00000000000E+00  0.00000000000E+00  0.24304619937E+03  0.24010847514E+04  0.23887520860E+04 0.  0.
        4    1    3    3  502    0 -0.26443679943E+03  0.17781541793E+03  0.12785468678E+04  0.13176603697E+04  0.12699999809E+01 0. -1.
       -4    1    3    3    0  502  0.26443679943E+03 -0.17781541793E+03 -0.10355006684E+04  0.10834243818E+04  0.12699999809E+01 0.  1.
</event>
<event>
 5   0  0.6827859E-05  0.2441481E+04  0.7818609E-02  0.8424135E-01
        2   -1    0    0  501    0  0.00000000000E+00  0.00000000000E+00  0.23067238156E+04  0.23067238156E+04  0.25500000920E-02 0.  1.
       -2   -1    0    0    0  501  0.00000000000E+00  0.00000000000E+00 -0.64602789011E+03  0.64602789012E+03  0.25500000920E-02 0. -1.
    10030    2    1    2    0    0  0.00000000000E+00  0.00000000000E+00  0.16606959255E+04  0.29527517057E+04  0.24414814516E+04 0.  0.
        3    1    3    3  502    0  0.25392139512E+03  0.41603483944E+03 -0.52324417966E+03  0.71508429173E+03  0.10100000352E+00 0. -1.
       -3    1    3    3    0  502 -0.25392139512E+03 -0.41603483944E+03  0.21839401051E+04  0.22376674140E+04  0.10100000352E+00 0.  1.
</event>
<event>
 5   0  0.2777539E-05  0.1966370E+04  0.7818609E-02  0.8622507E-01
        1   -1    0    0  501    0  0.00000000000E+00  0.00000000000E+00  0.22299087420E+04  0.22299087420E+04  0.50400001928E-02 0. -1.
       -1   -1    0    0    0  501  0.00000000000E+00  0.00000000000E+00 -0.43349425872E+03  0.43349425875E+03  0.50400001928E-02 0.  1.
    10030    2    1    2    0    0  0.00000000000E+00  0.00000000000E+00  0.17964144833E+04  0.26634030008E+04  0.19663698911E+04 0.  0.
        3    1    3    3  502    0 -0.39532372531E+03 -0.72219659684E+03  0.16261096592E+04  0.18226577864E+04  0.10100000352E+00 0. -1.
       -3    1    3    3    0  502  0.39532372531E+03  0.72219659684E+03  0.17030482413E+03  0.84074521444E+03  0.10100000352E+00 0.  1.
</event>
<event>
 5   0  0.2977854E-05  0.1829378E+04  0.7818609E-02  0.8690831E-01
        1   -1    0    0  501    0  0.00000000000E+00  0.00000000000E+00  0.12291075230E+04  0.12291075230E+04  0.50400001928E-02 0. -1.
       -1   -1    0    0    0  501  0.00000000000E+00  0.00000000000E+00 -0.68070176112E+03  0.68070176114E+03  0.50400001928E-02 0.  1.
    10030    2    1    2    0    0  0.00000000000E+00  0.00000000000E+00  0.54840576184E+03  0.19098092841E+04  0.18293776598E+04 0.  0.
        1    1    3    3  502    0 -0.14056272257E+03 -0.53598154443E+03 -0.48554492988E+03  0.73674145662E+03  0.50400001928E-02 0.  1.
       -1    1    3    3    0  502  0.14056272257E+03  0.53598154443E+03  0.10339506917E+04  0.11730678275E+04  0.50400001928E-02 0. -1.
</event>
<event>
 5   0  0.2896652E-05  0.1485720E+04  0.7818609E-02  0.8894005E-01
        1   -1    0    0  501    0  0.00000000000E+00  0.00000000000E+00  0.60592619455E+03  0.60592619458E+03  0.50400001928E-02 0.  1.
       -1   -1    0    0    0  501  0.00000000000E+00  0.00000000000E+00 -0.91073987117E+03  0.91073987118E+03  0.50400001928E-02 0. -1.
    10030    2    1    2    0    0  0.00000000000E+00  0.00000000000E+00 -0.30481367661E+03  0.15166660658E+04  0.14857202218E+04 0.  0.
        4    1    3    3  502    0  0.17090558174E+03 -0.26384422577E+03  0.53467774423E+03  0.62024543240E+03  0.12699999809E+01 0.  1.
       -4    1    3    3    0  502 -0.17090558174E+03  0.26384422577E+03 -0.83949142084E+03  0.89642063336E+03  0.12699999809E+01 0. -1.
</event>
<event>
 5   0  0.6648328E-05  0.1355228E+04  0.7818609E-02  0.8986880E-01
       -2   -1    0    0    0  501  0.00000000000E+00  0.00000000000E+00  0.61034846797E+03  0.61034846797E+03  0.25500000920E-02 0.  1.
        2   -1    0    0  501    0  0.00000000000E+00  0.00000000000E+00 -0.75229238527E+03  0.75229238527E+03  0.25500000920E-02 0. -1.
    10030    2    1    2    0    0  0.00000000000E+00  0.00000000000E+00 -0.14194391730E+03  0.13626408532E+04  0.13552276633E+04 0.  0.
        2    1    3    3  502    0 -0.58174324840E+03  0.30358720173E+03  0.98979577227E+02  0.66361687202E+03  0.25500000920E-02 0.  1.
       -2    1    3    3    0  502  0.58174324840E+03 -0.30358720173E+03 -0.24092349453E+03  0.69902398123E+03  0.25500000920E-02 0. -1.
</event>
<event>
 5   0  0.6648328E-05  0.2521001E+04  0.7818609E-02  0.8395542E-01
        2   -1    0    0  501    0  0.00000000000E+00  0.00000000000E+00  0.12399454939E+04  0.12399454939E+04  0.25500000920E-02 0.  1.
       -2   -1    0    0    0  501  0.00000000000E+00  0.00000000000E+00 -0.12813963797E+04  0.12813963797E+04  0.25500000920E-02 0. -1.
    10030    2    1    2    0    0  0.00000000000E+00  0.00000000000E+00 -0.41450885793E+02  0.25213418735E+04  0.25210011240E+04 0.  0.
        2    1    3    3  502    0 -0.74756426204E+03 -0.78640926094E+03  0.62089834242E+03  0.12501226353E+04  0.25500000920E-02 0.  1.
       -2    1    3    3    0  502  0.74756426204E+03  0.78640926094E+03 -0.66234922821E+03  0.12712192382E+04  0.25500000920E-02 0. -1.
</event>
<event>
 5   0  0.6648328E-05  0.2894939E+04  0.7818609E-02  0.8274385E-01
        2   -1    0    0  501    0  0.00000000000E+00  0.00000000000E+00  0.20892242564E+04  0.20892242564E+04  0.25500000920E-02 0.  1.
       -2   -1    0    0    0  501  0.00000000000E+00  0.00000000000E+00 -0.10028451391E+04  0.10028451391E+04  0.25500000920E-02 0. -1.
    10030    2    1    2    0    0  0.00000000000E+00  0.00000000000E+00  0.10863791173E+04  0.30920693955E+04  0.28949393016E+04 0.  0.
        2    1    3    3  502    0  0.10337677597E+04  0.25415669954E+03 -0.50435872784E+03  0.11779852017E+04  0.25500000920E-02 0. -1.
       -2    1    3    3    0  502 -0.10337677597E+04 -0.25415669954E+03  0.15907378452E+04  0.19140841938E+04  0.25500000920E-02 0.  1.
</event>
<event>
 5   0  0.2793920E-05  0.2528979E+04  0.7818609E-02  0.8392734E-01
        1   -1    0    0  501    0  0.00000000000E+00  0.00000000000E+00  0.16012257042E+04  0.16012257042E+04  0.50400001928E-02 0. -1.
       -1   -1    0    0    0  501  0.00000000000E+00  0.00000000000E+00 -0.99856887938E+03  0.99856887939E+03  0.50400001928E-02 0.  1.
    10030    2    1    2    0    0  0.00000000000E+00  0.00000000000E+00  0.60265682483E+03  0.25997945836E+04  0.25289793650E+04 0.  0.
        2    1    3    3  502    0  0.18992140518E+03  0.11353515156E+04  0.83927969540E+03  0.14245994564E+04  0.25500000920E-02 0. -1.
       -2    1    3    3    0  502 -0.18992140518E+03 -0.11353515156E+04 -0.23662287057E+03  0.11751951272E+04  0.25500000920E-02 0.  1.
</event>
<event>
 5   0  0.2896652E-05  0.2497584E+04  0.7818609E-02  0.8403847E-01
       -1   -1    0    0    0  501  0.00000000000E+00  0.00000000000E+00  0.13889715453E+04  0.13889715453E+04  0.50400001928E-02 0.  1.
        1   -1    0    0  501    0  0.00000000000E+00  0.00000000000E+00 -0.11227598675E+04  0.11227598675E+04  0.50400001928E-02 0. -1.
    10030    2    1    2    0    0  0.00000000000E+00  0.00000000000E+00  0.26621167782E+03  0.25117314129E+04  0.24975840392E+04 0.  0.
        4    1    3    3  502    0 -0.81832629376E+03  0.16415010289E+03  0.10672791634E+04  0.13548762323E+04  0.12699999809E+01 0.  1.
       -4    1    3    3    0  502  0.81832629376E+03 -0.16415010289E+03 -0.80106748561E+03  0.11568551805E+04  0.12699999809E+01 0. -1.
</event>
<event>
 5   0  0.2777539E-05  0.1230402E+04  0.7818609E-02  0.9086654E-01
       -1   -1    0    0    0  501  0.00000000000E+00  0.00000000000E+00  0.10935981326E+04  0.10935981326E+04  0.50400001928E-02 0.  1.
        1   -1    0    0  501    0  0.00000000000E+00  0.00000000000E+00 -0.34607971267E+03  0.34607971271E+03  0.50400001928E-02 0. -1.
    10030    2    1    2    0    0  0.00000000000E+00  0.00000000000E+00  0.74751841989E+03  0.14396778453E+04  0.12304017678E+04 0.  0.
        3    1    3    3  502    0 -0.39784001941E+03 -0.37187775065E+02  0.92109575283E+03  0.10040303819E+04  0.10100000352E+00 0.  1.
       -3    1    3    3    0  502  0.39784001941E+03  0.37187775065E+02 -0.17357733294E+03  0.43564746340E+03  0.10100000352E+00 0. -1.
</event>
<event>
 5   0  0.7071821E-05  0.1423100E+04  0.7818609E-02  0.8937265E-01
       -2   -1    0    0    0  501  0.00000000000E+00  0.00000000000E+00  0.15157236591E+04  0.15157236591E+04  0.25500000920E-02 0.  1.
        2   -1    0    0  501    0  0.00000000000E+00  0.00000000000E+00 -0.33403426964E+03  0.33403426965E+03  0.25500000920E-02 0. -1.
    10030    2    1    2    0    0  0.00000000000E+00  0.00000000000E+00  0.11816893895E+04  0.18497579288E+04  0.14231003414E+04 0.  0.
        5    1    3    3  502    0  0.20725590060E+03 -0.16929751966E+03  0.14477970149E+04  0.14723297677E+04  0.46999998093E+01 0.  1.
       -5    1    3    3    0  502 -0.20725590060E+03  0.16929751966E+03 -0.26610762539E+03  0.37742816110E+03  0.46999998093E+01 0. -1.
</event>
<event>
 5   0  0.2896652E-05  0.2455871E+04  0.7818609E-02  0.8418878E-01
        1   -1    0    0  501    0  0.00000000000E+00  0.00000000000E+00  0.21178869510E+04  0.21178869510E+04  0.50400001928E-02 0.  1.
       -1   -1    0    0    0  501  0.00000000000E+00  0.00000000000E+00 -0.71194815293E+03  0.71194815295E+03  0.50400001928E-02 0. -1.
    10030    2    1    2    0    0  0.00000000000E+00  0.00000000000E+00  0.14059387981E+04  0.28298351039E+04  0.24558710902E+04 0.  0.
        4    1    3    3  502    0  0.21920950609E+03 -0.98502089979E+03 -0.10321460643E+03  0.10143834820E+04  0.12699999809E+01 0. -1.
       -4    1    3    3    0  502 -0.21920950609E+03  0.98502089979E+03  0.15091534045E+04  0.18154516220E+04  0.12699999809E+01 0.  1.
</event>
<event>
 5   0  0.7071821E-05  0.2517319E+04  0.7818609E-02  0.8396841E-01
       -2   -1    0    0    0  501  0.00000000000E+00  0.00000000000E+00  0.13806091668E+04  0.13806091668E+04  0.25500000920E-02 0.  1.
        2   -1    0    0  501    0  0.00000000000E+00  0.00000000000E+00 -0.11474818117E+04  0.11474818117E+04  0.25500000920E-02 0. -1.
    10030    2    1    2    0    0  0.00000000000E+00  0.00000000000E+00  0.23312735510E+03  0.25280909786E+04  0.25173191359E+04 0.  0.
        5    1    3    3  502    0 -0.91199539401E+03  0.43172319498E+03  0.87216694422E+03  0.13337232788E+04  0.46999998093E+01 0.  1.
       -5    1    3    3    0  502  0.91199539401E+03 -0.43172319498E+03 -0.63903958912E+03  0.11943676998E+04  0.46999998093E+01 0. -1.
</event>
<event>
 5   0  0.2896652E-05  0.2449263E+04  0.7818609E-02  0.8421287E-01
       -1   -1    0    0    0  501  0.00000000000E+00  0.00000000000E+00  0.77739157548E+03  0.77739157549E+03  0.50400001928E-02 0.  1.
        1   -1    0    0  501    0  0.00000000000E+00  0.00000000000E+00 -0.19291722823E+04  0.19291722823E+04  0.50400001928E-02 0. -1.
    10030    2    1    2    0    0  0.00000000000E+00  0.00000000000E+00 -0.11517807069E+04  0.27065638578E+04  0.24492629748E+04 0.  0.
        4    1    3    3  502    0 -0.70078545796E+03 -0.97053854277E+03 -0.86123222119E+03  0.14747094198E+04  0.12699999809E+01 0. -1.
       -4    1    3    3    0  502  0.70078545796E+03  0.97053854277E+03 -0.29054848567E+03  0.12318544380E+04  0.12699999809E+01 0.  1.
</event>
<event>
 5   0  0.2980790E-05  0.2470655E+04  0.7818609E-02  0.8413515E-01
       -1   -1    0    0    0  501  0.00000000000E+00  0.00000000000E+00  0.99839842921E+03  0.99839842923E+03  0.50400001928E-02 0. -1.
        1   -1    0    0  501    0  0.00000000000E+00  0.00000000000E+00 -0.15284816531E+04  0.15284816531E+04  0.50400001928E-02 0.  1.
    10030    2    1    2    0    0  0.00000000000E+00  0.00000000000E+00 -0.53008322384E+03  0.25268800823E+04  0.24706547161E+04 0.  0.
        5    1    3    3  502    0  0.94650074125E+03  0.17017523496E+03  0.52796689638E+03  0.10970844988E+04  0.46999998093E+01 0. -1.
       -5    1    3    3    0  502 -0.94650074125E+03 -0.17017523496E+03 -0.10580501202E+04  0.14297955835E+04  0.46999998093E+01 0.  1.
</event>
<event>
 5   0  0.2777539E-05  0.2406011E+04  0.7818609E-02  0.8437257E-01
       -1   -1    0    0    0  501  0.00000000000E+00  0.00000000000E+00  0.99591369110E+03  0.99591369112E+03  0.50400001928E-02 0. -1.
        1   -1    0    0  501    0  0.00000000000E+00  0.00000000000E+00 -0.14531599951E+04  0.14531599951E+04  0.50400001928E-02 0.  1.
    10030    2    1    2    0    0  0.00000000000E+00  0.00000000000E+00 -0.45724630395E+03  0.24490736862E+04  0.24060107518E+04 0.  0.
        3    1    3    3  502    0 -0.10597500537E+04 -0.40131330840E+03  0.18246072008E+03  0.11477867713E+04  0.10100000352E+00 0. -1.
       -3    1    3    3    0  502  0.10597500537E+04  0.40131330840E+03 -0.63970702403E+03  0.13012869148E+04  0.10100000352E+00 0.  1.
</event>
<event>
 5   0  0.2777539E-05  0.2502671E+04  0.7818609E-02  0.8402035E-01
       -1   -1    0    0    0  501  0.00000000000E+00  0.00000000000E+00  0.12268943072E+04  0.12268943072E+04  0.50400001928E-02 0.  1.
        1   -1    0    0  501    0  0.00000000000E+00  0.00000000000E+00 -0.12762634103E+04  0.12762634103E+04  0.50400001928E-02 0. -1.
    10030    2    1    2    0    0  0.00000000000E+00  0.00000000000E+00 -0.49369103124E+02  0.25031577174E+04  0.25026708234E+04 0.  0.
        3    1    3    3  502    0 -0.35517111314E+03 -0.11457491972E+04 -0.38105789755E+03  0.12586075139E+04  0.10100000352E+00 0. -1.
       -3    1    3    3    0  502  0.35517111314E+03  0.11457491972E+04  0.33168879442E+03  0.12445502035E+04  0.10100000352E+00 0.  1.
</event>
<event>
 5   0  0.6909250E-05  0.2319598E+04  0.7818609E-02  0.8470234E-01
       -2   -1    0    0    0  501  0.00000000000E+00  0.00000000000E+00  0.65631718875E+03  0.65631718876E+03  0.25500000920E-02 0.  1.
        2   -1    0    0  501    0  0.00000000000E+00  0.00000000000E+00 -0.20495178935E+04  0.20495178935E+04  0.25500000920E-02 0. -1.
    10030    2    1    2    0    0  0.00000000000E+00  0.00000000000E+00 -0.13932007048E+04  0.27058350823E+04  0.23195980878E+04 0.  0.
        4    1    3    3  502    0  0.83153701855E+03  0.80782059323E+03 -0.65783629649E+03  0.13329584127E+04  0.12699999809E+01 0.  1.
       -4    1    3    3    0  502 -0.83153701855E+03 -0.80782059323E+03 -0.73536440828E+03  0.13728766696E+04  0.12699999809E+01 0. -1.
</event>
<event>
 5   0  0.6648328E-05  0.2425761E+04  0.7818609E-02  0.8429921E-01
        2   -1    0    0  501    0  0.00000000000E+00  0.00000000000E+00  0.10608694610E+04  0.10608694610E+04  0.25500000920E-02 0. -1.
       -2   -1    0    0    0  501  0.00000000000E+00  0.00000000000E+00 -0.13866732372E+04  0.13866732372E+04  0.25500000920E-02 0.  1.
    10030    2    1    2    0    0  0.00000000000E+00  0.00000000000E+00 -0.32580377622E+03  0.24475426983E+04  0.24257611505E+04 0.  0.
        2    1    3    3  502    0 -0.44971159125E+03  0.11234065392E+04 -0.79720605603E+02  0.12126987023E+04  0.25500000920E-02 0. -1.
       -2    1    3    3    0  502  0.44971159125E+03 -0.11234065392E+04 -0.24608317062E+03  0.12348439960E+04  0.25500000920E-02 0.  1.
</event>
<event>
 5   0  0.2777539E-05  0.2565045E+04  0.7818609E-02  0.8380172E-01
        1   -1    0    0  501    0  0.00000000000E+00  0.00000000000E+00  0.11490121496E+04  0.11490121496E+04  0.50400001928E-02 0.  1.
       -1   -1    0    0    0  501  0.00000000000E+00  0.00000000000E+00 -0.14315466042E+04  0.14315466042E+04  0.50400001928E-02 0. -1.
    10030    2    1    2    0    0  0.00000000000E+00  0.00000000000E+00 -0.28253445460E+03  0.25805587538E+04  0.25650453726E+04 0.  0.
        3    1    3    3  502    0  0.88959836198E+03 -0.80588919858E+03 -0.59568673927E+03  0.13400318457E+04  0.10100000352E+00 0. -1.
       -3    1    3    3    0  502 -0.88959836198E+03  0.80588919858E+03  0.31315228466E+03  0.12405269081E+04  0.10100000352E+00 0.  1.
</event>
<event>
 5   0  0.6827859E-05  0.2492850E+04  0.7818609E-02  0.8405537E-01
       -2   -1    0    0    0  501  0.00000000000E+00  0.00000000000E+00  0.73280888835E+03  0.73280888835E+03  0.25500000920E-02 0. -1.
        2   -1    0    0  501    0  0.00000000000E+00  0.00000000000E+00 -0.21200278522E+04  0.21200278522E+04  0.25500000920E-02 0.  1.
    10030    2    1    2    0    0  0.00000000000E+00  0.00000000000E+00 -0.13872189639E+04  0.28528367406E+04  0.24928499784E+04 0.  0.
        3    1    3    3  502    0  0.27066325976E+03 -0.12144780873E+04 -0.60982806126E+03  0.13856788587E+04  0.10100000352E+00 0.  1.
       -3    1    3    3    0  502 -0.27066325976E+03  0.12144780873E+04 -0.77739090262E+03  0.14671578819E+04  0.10100000352E+00 0. -1.
</event>
<event>
 5   0  0.2977854E-05  0.2527430E+04  0.7818609E-02  0.8393278E-01
       -1   -1    0    0    0  501  0.00000000000E+00  0.00000000000E+00  0.13595727027E+04  0.13595727027E+04  0.50400001928E-02 0.  1.
        1   -1    0    0  501    0  0.00000000000E+00  0.00000000000E+00 -0.11746157243E+04  0.11746157243E+04  0.50400001928E-02 0. -1.
    10030    2    1    2    0    0  0.00000000000E+00  0.00000000000E+00  0.18495697837E+03  0.25341884270E+04  0.25274299000E+04 0.  0.
        1    1    3    3  502    0 -0.89503794394E+02  0.50303348746E+03 -0.10664331160E+04  0.11825113994E+04  0.50400001928E-02 0. -1.
       -1    1    3    3    0  502  0.89503794394E+02 -0.50303348746E+03  0.12513900943E+04  0.13516770276E+04  0.50400001928E-02 0.  1.
</event>
<event>
 5   0  0.2896652E-05  0.2296557E+04  0.7818609E-02  0.8479280E-01
       -1   -1    0    0    0  501  0.00000000000E+00  0.00000000000E+00  0.94631822416E+03  0.94631822418E+03  0.50400001928E-02 0. -1.
        1   -1    0    0  501    0  0.00000000000E+00  0.00000000000E+00 -0.13933407157E+04  0.13933407157E+04  0.50400001928E-02 0.  1.
    10030    2    1    2    0    0  0.00000000000E+00  0.00000000000E+00 -0.44702249155E+03  0.23396589399E+04  0.22965571726E+04 0.  0.
        4    1    3    3  502    0 -0.10394921048E+04 -0.32200292335E+03  0.14985350574E+03  0.10984932428E+04  0.12699999809E+01 0. -1.
       -4    1    3    3    0  502  0.10394921048E+04  0.32200292335E+03 -0.59687599729E+03  0.12411656971E+04  0.12699999809E+01 0.  1.
</event>
<event>
 5   0  0.2980790E-05  0.2099895E+04  0.7818609E-02  0.8561289E-01
        1   -1    0    0  501    0  0.00000000000E+00  0.00000000000E+00  0.16579747867E+04  0.16579747867E+04  0.50400001928E-02 0. -1.
       -1   -1    0    0    0  501  0.00000000000E+00  0.00000000000E+00 -0.66490161161E+03  0.66490161163E+03  0.50400001928E-02 0.  1.
    10030    2    1    2    0    0  0.00000000000E+00  0.00000000000E+00  0.99307317506E+03  0.23228763983E+04  0.20998953381E+04 0.  0.
        5    1    3    3  502    0 -0.86323681711E+03  0.36652640402E+03  0.10187324388E+04  0.13846867080E+04  0.46999998093E+01 0. -1.
       -5    1    3    3    0  502  0.86323681711E+03 -0.36652640402E+03 -0.25659263783E+02  0.93818969034E+03  0.46999998093E+01 0.  1.
</event>
<event>
 5   0  0.6827859E-05  0.2521600E+04  0.7818609E-02  0.8395331E-01
        2   -1    0    0  501    0  0.00000000000E+00  0.00000000000E+00  0.15169199952E+04  0.15169199952E+04  0.25500000920E-02 0. -1.
       -2   -1    0    0    0  501  0.00000000000E+00  0.00000000000E+00 -0.10479240393E+04  0.10479240393E+04  0.25500000920E-02 0.  1.
    10030    2    1    2    0    0  0.00000000000E+00  0.00000000000E+00  0.46899595585E+03  0.25648440345E+04  0.25216002290E+04 0.  0.
        3    1    3    3  502    0 -0.43778096477E+03 -0.90617743261E+03  0.10070007823E+04  0.14236784392E+04  0.10100000352E+00 0. -1.
       -3    1    3    3    0  502  0.43778096477E+03  0.90617743261E+03 -0.53800482641E+03  0.11411655953E+04  0.10100000352E+00 0.  1.
</event>
<event>
 5   0  0.2977854E-05  0.2553304E+04  0.7818609E-02  0.8384238E-01
       -1   -1    0    0    0  501  0.00000000000E+00  0.00000000000E+00  0.69111527760E+03  0.69111527762E+03  0.50400001928E-02 0.  1.
        1   -1    0    0  501    0  0.00000000000E+00  0.00000000000E+00 -0.23582757599E+04  0.23582757599E+04  0.50400001928E-02 0. -1.
    10030    2    1    2    0    0  0.00000000000E+00  0.00000000000E+00 -0.16671604823E+04  0.30493910375E+04  0.25533040606E+04 0.  0.
        1    1    3    3  502    0  0.81333982950E+03  0.65458716708E+03  0.43907077863E+02  0.10449563958E+04  0.50400001928E-02 0.  1.
       -1    1    3    3    0  502 -0.81333982950E+03 -0.65458716708E+03 -0.17110675601E+04  0.20044346417E+04  0.50400001928E-02 0. -1.
</event>
<event>
 5   0  0.6445331E-05  0.1636676E+04  0.7818609E-02  0.8798328E-01
        2   -1    0    0  501    0  0.00000000000E+00  0.00000000000E+00  0.16834484297E+04  0.16834484297E+04  0.25500000920E-02 0.  1.
       -2   -1    0    0    0  501  0.00000000000E+00  0.00000000000E+00 -0.39780094950E+03  0.39780094951E+03  0.25500000920E-02 0. -1.
    10030    2    1    2    0    0  0.00000000000E+00  0.00000000000E+00  0.12856474802E+04  0.20812493792E+04  0.16366763685E+04 0.  0.
        1    1    3    3  502    0  0.30806405836E+03  0.37254692279E+03 -0.19682171744E+03  0.52195158991E+03  0.50400001928E-02 0. -1.
       -1    1    3    3    0  502 -0.30806405836E+03 -0.37254692279E+03  0.14824691976E+04  0.15592977893E+04  0.50400001928E-02 0.  1.
</event>
<event>
 5   0  0.2896652E-05  0.2432645E+04  0.7818609E-02  0.8427382E-01
       -1   -1    0    0    0  501  0.00000000000E+00  0.00000000000E+00  0.11917569899E+04  0.11917569899E+04  0.50400001928E-02 0.  1.
        1   -1    0    0  501    0  0.00000000000E+00  0.00000000000E+00 -0.12413940201E+04  0.12413940201E+04  0.50400001928E-02 0. -1.
    10030    2    1    2    0    0  0.00000000000E+00  0.00000000000E+00 -0.49637030208E+02  0.24331510101E+04  0.24326446520E+04 0.  0.
        4    1    3    3  502    0 -0.38652718242E+03  0.22891910835E+03  0.11057402420E+04  0.11935117581E+04  0.12699999809E+01 0.  1.
       -4    1    3    3    0  502  0.38652718242E+03 -0.22891910835E+03 -0.11553772723E+04  0.12396392520E+04  0.12699999809E+01 0. -1.
</event>
<event>
 5   0  0.2980790E-05  0.2429752E+04  0.7818609E-02  0.8428448E-01
       -1   -1    0    0    0  501  0.00000000000E+00  0.00000000000E+00  0.87279034131E+03  0.87279034132E+03  0.50400001928E-02 0. -1.
        1   -1    0    0  501    0  0.00000000000E+00  0.00000000000E+00 -0.16910397817E+04  0.16910397817E+04  0.50400001928E-02 0.  1.
    10030    2    1    2    0    0  0.00000000000E+00  0.00000000000E+00 -0.81824944037E+03  0.25638301230E+04  0.24297515826E+04 0.  0.
        5    1    3    3  502    0  0.47641907975E+02 -0.53460353121E+03 -0.15591425991E+04  0.16489446386E+04  0.46999998093E+01 0.  1.
       -5    1    3    3    0  502 -0.47641907975E+02  0.53460353121E+03  0.74089315869E+03  0.91488548440E+03  0.46999998093E+01 0. -1.
</event>
<event>
 5   0  0.2793920E-05  0.2474618E+04  0.7818609E-02  0.8412084E-01
        1   -1    0    0  501    0  0.00000000000E+00  0.00000000000E+00  0.66202976706E+03  0.66202976708E+03  0.50400001928E-02 0.  1.
       -1   -1    0    0    0  501  0.00000000000E+00  0.00000000000E+00 -0.23124842875E+04  0.23124842875E+04  0.50400001928E-02 0. -1.
    10030    2    1    2    0    0  0.00000000000E+00  0.00000000000E+00 -0.16504545205E+04  0.29745140546E+04  0.24746178972E+04 0.  0.
        2    1    3    3  502    0 -0.38825960084E+03 -0.62056276568E+03 -0.20242819902E+04  0.21525708443E+04  0.25500000920E-02 0. -1.
       -2    1    3    3    0  502  0.38825960084E+03  0.62056276568E+03  0.37382746977E+03  0.82194321030E+03  0.25500000920E-02 0.  1.
</event>
<event>
 5   0  0.2896652E-05  0.2783189E+04  0.7818609E-02  0.8308507E-01
       -1   -1    0    0    0  501  0.00000000000E+00  0.00000000000E+00  0.16051694732E+04  0.16051694732E+04  0.50400001928E-02 0.  1.
        1   -1    0    0  501    0  0.00000000000E+00  0.00000000000E+00 -0.12064367663E+04  0.12064367663E+04  0.50400001928E-02 0. -1.
    10030    2    1    2    0    0  0.00000000000E+00  0.00000000000E+00  0.39873270695E+03  0.28116062395E+04  0.27831891553E+04 0.  0.
        4    1    3    3  502    0 -0.11270856495E+04 -0.41540106446E+03 -0.51041240012E+03  0.13051446421E+04  0.12699999809E+01 0. -1.
       -4    1    3    3    0  502  0.11270856495E+04  0.41540106446E+03  0.90914510706E+03  0.15064615974E+04  0.12699999809E+01 0.  1.
</event>
<event>
 5   0  0.2980790E-05  0.1395166E+04  0.7818609E-02  0.8957325E-01
       -1   -1    0    0    0  501  0.00000000000E+00  0.00000000000E+00  0.32705639062E+03  0.32705639066E+03  0.50400001928E-02 0.  1.
        1   -1    0    0  501    0  0.00000000000E+00  0.00000000000E+00 -0.14878846609E+04  0.14878846609E+04  0.50400001928E-02 0. -1.
    10030    2    1    2    0    0  0.00000000000E+00  0.00000000000E+00 -0.11608282703E+04  0.18149410516E+04  0.13951662079E+04 0.  0.
        5    1    3    3  502    0  0.21182127159E+03 -0.65647731762E+03 -0.44541472519E+03  0.82112550019E+03  0.46999998093E+01 0.  1.
       -5    1    3    3    0  502 -0.21182127159E+03  0.65647731762E+03 -0.71541354510E+03  0.99381555138E+03  0.46999998093E+01 0. -1.
</event>
<event>
 5   0  0.6648328E-05  0.2432173E+04  0.7818609E-02  0.8427556E-01
       -2   -1    0    0    0  501  0.00000000000E+00  0.00000000000E+00  0.71586068688E+03  0.71586068689E+03  0.25500000920E-02 0. -1.
        2   -1    0    0  501    0  0.00000000000E+00  0.00000000000E+00 -0.20658582505E+04  0.20658582505E+04  0.25500000920E-02 0.  1.
    10030    2    1    2    0    0  0.00000000000E+00  0.00000000000E+00 -0.13499975636E+04  0.27817189374E+04  0.24321732719E+04 0.  0.
        2    1    3    3  502    0 -0.26394260646E+03 -0.10398291233E+03  0.67748687122E+03  0.73448390469E+03  0.25500000920E-02 0. -1.
       -2    1    3    3    0  502  0.26394260646E+03  0.10398291233E+03 -0.20274844348E+04  0.20472350327E+04  0.25500000920E-02 0.  1.
</event>
<event>
 5   0  0.2977854E-05  0.2515517E+04  0.7818609E-02  0.8397478E-01
        1   -1    0    0  501    0  0.00000000000E+00  0.00000000000E+00  0.18010825878E+04  0.18010825878E+04  0.50400001928E-02 0.  1.
       -1   -1    0    0    0  501  0.00000000000E+00  0.00000000000E+00 -0.87833614251E+03  0.87833614252E+03  0.50400001928E-02 0. -1.
    10030    2    1    2    0    0  0.00000000000E+00  0.00000000000E+00  0.92274644526E+03  0.26794187303E+04  0.25155165931E+04 0.  0.
        1    1    3    3  502    0  0.11431962106E+04 -0.10844440367E+03 -0.85186118403E+02  0.11514835819E+04  0.50400001928E-02 0. -1.
       -1    1    3    3    0  502 -0.11431962106E+04  0.10844440367E+03  0.10079325637E+04  0.15279351484E+04  0.50400001928E-02 0.  1.
</event>
<event>
 5   0  0.2977854E-05  0.2212263E+04  0.7818609E-02  0.8513341E-01
        1   -1    0    0  501    0  0.00000000000E+00  0.00000000000E+00  0.17016136522E+04  0.17016136522E+04  0.50400001928E-02 0. -1.
       -1   -1    0    0    0  501  0.00000000000E+00  0.00000000000E+00 -0.71903924828E+03  0.71903924829E+03  0.50400001928E-02 0.  1.
    10030    2    1    2    0    0  0.00000000000E+00  0.00000000000E+00  0.98257440388E+03  0.24206529005E+04  0.22122630959E+04 0.  0.
        1    1    3    3  502    0  0.26109241889E+03 -0.42549778279E+03 -0.58876361255E+03  0.77191981828E+03  0.50400001928E-02 0.  1.
       -1    1    3    3    0  502 -0.26109241889E+03  0.42549778279E+03  0.15713380164E+04  0.16487330822E+04  0.50400001928E-02 0. -1.
</event>
<event>
 5   0  0.2977854E-05  0.1720788E+04  0.7818609E-02  0.8749596E-01
       -1   -1    0    0    0  501  0.00000000000E+00  0.00000000000E+00  0.14949566124E+04  0.14949566124E+04  0.50400001928E-02 0. -1.
        1   -1    0    0  501    0  0.00000000000E+00  0.00000000000E+00 -0.49518332704E+03  0.49518332707E+03  0.50400001928E-02 0.  1.
    10030    2    1    2    0    0  0.00000000000E+00  0.00000000000E+00  0.99977328536E+03  0.19901399395E+04  0.17207877140E+04 0.  0.
        1    1    3    3  502    0  0.17108241309E+02 -0.29359649122E+03 -0.43524795754E+03  0.52529265761E+03  0.50400001928E-02 0.  1.
       -1    1    3    3    0  502 -0.17108241309E+02  0.29359649122E+03  0.14350212429E+04  0.14648472819E+04  0.50400001928E-02 0. -1.
</event>
<event>
 5   0  0.6909250E-05  0.2597852E+04  0.7818609E-02  0.8368931E-01
       -2   -1    0    0    0  501  0.00000000000E+00  0.00000000000E+00  0.12091142081E+04  0.12091142081E+04  0.25500000920E-02 0.  1.
        2   -1    0    0  501    0  0.00000000000E+00  0.00000000000E+00 -0.13954087712E+04  0.13954087712E+04  0.25500000920E-02 0. -1.
    10030    2    1    2    0    0  0.00000000000E+00  0.00000000000E+00 -0.18629456309E+03  0.26045229793E+04  0.25978518598E+04 0.  0.
        4    1    3    3  502    0  0.53041010107E+03  0.40908884646E+03 -0.12088925213E+04  0.13820677627E+04  0.12699999809E+01 0. -1.
       -4    1    3    3    0  502 -0.53041010107E+03 -0.40908884646E+03  0.10225979582E+04  0.12224552166E+04  0.12699999809E+01 0.  1.
</event>
<event>
 5   0  0.2777539E-05  0.1854155E+04  0.7818609E-02  0.8678019E-01
       -1   -1    0    0    0  501  0.00000000000E+00  0.00000000000E+00  0.35016738348E+03  0.35016738352E+03  0.50400001928E-02 0.  1.
        1   -1    0    0  501    0  0.00000000000E+00  0.00000000000E+00 -0.24544619279E+04  0.24544619279E+04  0.50400001928E-02 0. -1.
    10030    2    1    2    0    0  0.00000000000E+00  0.00000000000E+00 -0.21042945444E+04  0.28046293114E+04  0.18541548060E+04 0.  0.
        3    1    3    3  502    0  0.39437540550E+03 -0.75992753521E+03 -0.51426148983E+03  0.99874256411E+03  0.10100000352E+00 0.  1.
       -3    1    3    3    0  502 -0.39437540550E+03  0.75992753521E+03 -0.15900330546E+04  0.18058867473E+04  0.10100000352E+00 0. -1.
</event>
<event>
 5   0  0.6909250E-05  0.2562383E+04  0.7818609E-02  0.8381092E-01
       -2   -1    0    0    0  501  0.00000000000E+00  0.00000000000E+00  0.97976687878E+03  0.97976687878E+03  0.25500000920E-02 0. -1.
        2   -1    0    0  501    0  0.00000000000E+00  0.00000000000E+00 -0.16753489802E+04  0.16753489802E+04  0.25500000920E-02 0.  1.
    10030    2    1    2    0    0  0.00000000000E+00  0.00000000000E+00 -0.69558210139E+03  0.26551158589E+04  0.25623828295E+04 0.  0.
        4    1    3    3  502    0 -0.78841962080E+03  0.25185639785E+03 -0.13611472414E+04  0.15930350183E+04  0.12699999809E+01 0.  1.
       -4    1    3    3    0  502  0.78841962080E+03 -0.25185639785E+03  0.66556514006E+03  0.10620808407E+04  0.12699999809E+01 0. -1.
</event>
<event>
 5   0  0.6827859E-05  0.2354170E+04  0.7818609E-02  0.8456864E-01
        2   -1    0    0  501    0  0.00000000000E+00  0.00000000000E+00  0.14323671373E+04  0.14323671373E+04  0.25500000920E-02 0.  1.
       -2   -1    0    0    0  501  0.00000000000E+00  0.00000000000E+00 -0.96730048108E+03  0.96730048108E+03  0.25500000920E-02 0. -1.
    10030    2    1    2    0    0  0.00000000000E+00  0.00000000000E+00  0.46506665626E+03  0.23996676184E+04  0.23541702751E+04 0.  0.
        3    1    3    3  502    0 -0.93182579114E+03  0.65900304462E+03 -0.61034573436E+02  0.11429389954E+04  0.10100000352E+00 0. -1.
       -3    1    3    3    0  502  0.93182579114E+03 -0.65900304462E+03  0.52610122970E+03  0.12567286230E+04  0.10100000352E+00 0.  1.
</event>
<event>
 5   0  0.6445331E-05  0.2491991E+04  0.7818609E-02  0.8405844E-01
        2   -1    0    0  501    0  0.00000000000E+00  0.00000000000E+00  0.17733251711E+04  0.17733251711E+04  0.25500000920E-02 0.  1.
       -2   -1    0    0    0  501  0.00000000000E+00  0.00000000000E+00 -0.87547652880E+03  0.87547652880E+03  0.25500000920E-02 0. -1.
    10030    2    1    2    0    0  0.00000000000E+00  0.00000000000E+00  0.89784864234E+03  0.26488016999E+04  0.24919908228E+04 0.  0.
        1    1    3    3  502    0  0.15362338531E+03  0.12141125612E+04  0.20002004098E+03  0.12400312386E+04  0.50400001928E-02 0.  1.
       -1    1    3    3    0  502 -0.15362338531E+03 -0.12141125612E+04  0.69782860136E+03  0.14087704613E+04  0.50400001928E-02 0. -1.
</event>
<event>
 5   0  0.6909250E-05  0.2463520E+04  0.7818609E-02  0.8416098E-01
        2   -1    0    0  501    0  0.00000000000E+00  0.00000000000E+00  0.11766678976E+04  0.11766678976E+04  0.25500000920E-02 0.  1.
       -2   -1    0    0    0  501  0.00000000000E+00  0.00000000000E+00 -0.12894311408E+04  0.12894311408E+04  0.25500000920E-02 0. -1.
    10030    2    1    2    0    0  0.00000000000E+00  0.00000000000E+00 -0.11276324323E+03  0.24660990384E+04  0.24635196200E+04 0.  0.
        4    1    3    3  502    0  0.55988057153E+02 -0.85304867652E+03  0.83134106812E+03  0.11924580879E+04  0.12699999809E+01 0.  1.
       -4    1    3    3    0  502 -0.55988057153E+02  0.85304867652E+03 -0.94410431135E+03  0.12736409504E+04  0.12699999809E+01 0. -1.
</event>
<event>
 5   0  0.2777539E-05  0.1716834E+04  0.7818609E-02  0.8751821E-01
       -1   -1    0    0    0  501  0.00000000000E+00  0.00000000000E+00  0.84127671014E+03  0.84127671015E+03  0.50400001928E-02 0.  1.
        1   -1    0    0  501    0  0.00000000000E+00  0.00000000000E+00 -0.87590686979E+03  0.87590686980E+03  0.50400001928E-02 0. -1.
    10030    2    1    2    0    0  0.00000000000E+00  0.00000000000E+00 -0.34630159651E+02  0.17171835800E+04  0.17168343541E+04 0.  0.
        3    1    3    3  502    0  0.42814877503E+03 -0.71592404434E+03 -0.21989375357E+03  0.86267716087E+03  0.10100000352E+00 0. -1.
       -3    1    3    3    0  502 -0.42814877503E+03  0.71592404434E+03  0.18526359392E+03  0.85450641909E+03  0.10100000352E+00 0.  1.
</event>
<event>
 5   0  0.6827859E-05  0.2512645E+04  0.7818609E-02  0.8398495E-01
        2   -1    0    0  501    0  0.00000000000E+00  0.00000000000E+00  0.23909045723E+04  0.23909045723E+04  0.25500000920E-02 0. -1.
       -2   -1    0    0    0  501  0.00000000000E+00  0.00000000000E+00 -0.66014582110E+03  0.66014582110E+03  0.25500000920E-02 0.  1.
    10030    2    1    2    0    0  0.00000000000E+00  0.00000000000E+00  0.17307587512E+04  0.30510503934E+04  0.25126445527E+04 0.  0.
        3    1    3    3  502    0  0.88320604353E+03 -0.12671154531E+03  0.19393378266E+04  0.21347458741E+04  0.10100000352E+00 0. -1.
       -3    1    3    3    0  502 -0.88320604353E+03  0.12671154531E+03 -0.20857907548E+03  0.91630451924E+03  0.10100000352E+00 0.  1.
</event>
<event>
 5   0  0.2777539E-05  0.2625934E+04  0.7818609E-02  0.8359445E-01
       -1   -1    0    0    0  501  0.00000000000E+00  0.00000000000E+00  0.17084851113E+04  0.17084851113E+04  0.50400001928E-02 0. -1.
        1   -1    0    0  501    0  0.00000000000E+00  0.00000000000E+00 -0.10090121611E+04  0.10090121611E+04  0.50400001928E-02 0.  1.
    10030    2    1    2    0    0  0.00000000000E+00  0.00000000000E+00  0.69947295020E+03  0.27174972724E+04  0.26259339324E+04 0.  0.
        3    1    3    3  502    0 -0.10873389618E+04 -0.72311864085E+03  0.49116052608E+03  0.13951506224E+04  0.10100000352E+00 0.  1.
       -3    1    3    3    0  502  0.10873389618E+04  0.72311864085E+03  0.20831242412E+03  0.13223466500E+04  0.10100000352E+00 0. -1.
</event>
<event>
 5   0  0.6909250E-05  0.2452390E+04  0.7818609E-02  0.8420146E-01
        2   -1    0    0  501    0  0.00000000000E+00  0.00000000000E+00  0.10077194914E+04  0.10077194914E+04  0.25500000920E-02 0. -1.
       -2   -1    0    0    0  501  0.00000000000E+00  0.00000000000E+00 -0.14920358181E+04  0.14920358181E+04  0.25500000920E-02 0.  1.
    10030    2    1    2    0    0  0.00000000000E+00  0.00000000000E+00 -0.48431632670E+03  0.24997553095E+04  0.24523895088E+04 0.  0.
        4    1    3    3  502    0 -0.54645345833E+03  0.97675808971E+03  0.26839940520E+03  0.11509594265E+04  0.12699999809E+01 0. -1.
       -4    1    3    3    0  502  0.54645345833E+03 -0.97675808971E+03 -0.75271573190E+03  0.13487958830E+04  0.12699999809E+01 0.  1.
</event>
<event>
 5   0  0.6648328E-05  0.1576924E+04  0.7818609E-02  0.8834852E-01
       -2   -1    0    0    0  501  0.00000000000E+00  0.00000000000E+00  0.46422793142E+03  0.46422793142E+03  0.25500000920E-02 0. -1.
        2   -1    0    0  501    0  0.00000000000E+00  0.00000000000E+00 -0.13391523725E+04  0.13391523725E+04  0.25500000920E-02 0.  1.
    10030    2    1    2    0    0  0.00000000000E+00  0.00000000000E+00 -0.87492444112E+03  0.18033803040E+04  0.15769235058E+04 0.  0.
        2    1    3    3  502    0  0.49971798326E+03 -0.28604773186E+03 -0.10534519050E+04  0.12005424957E+04  0.25500000920E-02 0.  1.
       -2    1    3    3    0  502 -0.49971798326E+03  0.28604773186E+03  0.17852746393E+03  0.60283780827E+03  0.25500000920E-02 0. -1.
</event>
<event>
 5   0  0.6445331E-05  0.2651182E+04  0.7818609E-02  0.8351021E-01
        2   -1    0    0  501    0  0.00000000000E+00  0.00000000000E+00  0.23192084099E+04  0.23192084099E+04  0.25500000920E-02 0.  1.
       -2   -1    0    0    0  501  0.00000000000E+00  0.00000000000E+00 -0.75766842724E+03  0.75766842725E+03  0.25500000920E-02 0. -1.
    10030    2    1    2    0    0  0.00000000000E+00  0.00000000000E+00  0.15615399826E+04  0.30768768371E+04  0.26511816146E+04 0.  0.
        1    1    3    3  502    0  0.98508482956E+03  0.87372335723E+03  0.95832690654E+03  0.16285499950E+04  0.50400001928E-02 0. -1.
       -1    1    3    3    0  502 -0.98508482956E+03 -0.87372335723E+03  0.60321307607E+03  0.14483268421E+04  0.50400001928E-02 0.  1.
</event>
<event>
 5   0  0.6827859E-05  0.2434902E+04  0.7818609E-02  0.8426551E-01
       -2   -1    0    0    0  501  0.00000000000E+00  0.00000000000E+00  0.15344141617E+04  0.15344141617E+04  0.25500000920E-02 0. -1.
        2   -1    0    0  501    0  0.00000000000E+00  0.00000000000E+00 -0.96596309285E+03  0.96596309286E+03  0.25500000920E-02 0.  1.
    10030    2    1    2    0    0  0.00000000000E+00  0.00000000000E+00  0.56845106880E+03  0.25003772545E+04  0.24349024205E+04 0.  0.
        3    1    3    3  502    0  0.71994286706E+03  0.54240297607E+02 -0.72240322466E+03  0.10213354840E+04  0.10100000352E+00 0.  1.
       -3    1    3    3    0  502 -0.71994286706E+03 -0.54240297607E+02  0.12908542935E+04  0.14790417705E+04  0.10100000352E+00 0. -1.
</event>
<event>
 5   0  0.6648328E-05  0.2511148E+04  0.7818609E-02  0.8399025E-01
       -2   -1    0    0    0  501  0.00000000000E+00  0.00000000000E+00  0.98726868517E+03  0.98726868518E+03  0.25500000920E-02 0.  1.
        2   -1    0    0  501    0  0.00000000000E+00  0.00000000000E+00 -0.15967958639E+04  0.15967958639E+04  0.25500000920E-02 0. -1.
    10030    2    1    2    0    0  0.00000000000E+00  0.00000000000E+00 -0.60952717873E+03  0.25840645491E+04  0.25111483851E+04 0.  0.
        2    1    3    3  502    0  0.27379734681E+03  0.11286978758E+04 -0.79562897474E+03  0.14078172280E+04  0.25500000920E-02 0. -1.
       -2    1    3    3    0  502 -0.27379734681E+03 -0.11286978758E+04  0.18610179601E+03  0.11762473211E+04  0.25500000920E-02 0.  1.
</event>
<event>
 5   0  0.2793920E-05  0.2488988E+04  0.7818609E-02  0.8406919E-01
       -1   -1    0    0    0  501  0.00000000000E+00  0.00000000000E+00  0.11498577664E+04  0.11498577665E+04  0.50400001928E-02 0.  1.
        1   -1    0    0  501    0  0.00000000000E+00  0.00000000000E+00 -0.13469185947E+04  0.13469185948E+04  0.50400001928E-02 0. -1.
    10030    2    1    2    0    0  0.00000000000E+00  0.00000000000E+00 -0.19706082830E+03  0.24967763612E+04  0.24889875909E+04 0.  0.
        2    1    3    3  502    0  0.35629508576E+02  0.10417342800E+04 -0.78057353007E+03  0.13022191858E+04  0.25500000920E-02 0. -1.
       -2    1    3    3    0  502 -0.35629508576E+02 -0.10417342800E+04  0.58351270177E+03  0.11945571754E+04  0.25500000920E-02 0.  1.
</event>
<event>
 5   0  0.2793920E-05  0.1931170E+04  0.7818609E-02  0.8639495E-01
       -1   -1    0    0    0  501  0.00000000000E+00  0.00000000000E+00  0.78017790331E+03  0.78017790333E+03  0.50400001928E-02 0.  1.
        1   -1    0    0  501    0  0.00000000000E+00  0.00000000000E+00 -0.11950530572E+04  0.11950530572E+04  0.50400001928E-02 0. -1.
    10030    2    1    2    0    0  0.00000000000E+00  0.00000000000E+00 -0.41487515391E+03  0.19752309606E+04  0.19311695819E+04 0.  0.
        2    1    3    3  502    0 -0.83814568717E+03  0.35289409071E+03 -0.53939067239E+03  0.10573385123E+04  0.25500000920E-02 0.  1.
       -2    1    3    3    0  502  0.83814568717E+03 -0.35289409071E+03  0.12451551848E+03  0.91789244824E+03  0.25500000920E-02 0. -1.
</event>
<event>
 5   0  0.2896652E-05  0.2501257E+04  0.7818609E-02  0.8402538E-01
       -1   -1    0    0    0  501  0.00000000000E+00  0.00000000000E+00  0.87369202402E+03  0.87369202403E+03  0.50400001928E-02 0. -1.
        1   -1    0    0  501    0  0.00000000000E+00  0.00000000000E+00 -0.17901862815E+04  0.17901862815E+04  0.50400001928E-02 0.  1.
    10030    2    1    2    0    0  0.00000000000E+00  0.00000000000E+00 -0.91649425752E+03  0.26638783056E+04  0.25012568646E+04 0.  0.
        4    1    3    3  502    0 -0.20326562547E+03  0.10127799648E+04 -0.12090868746E+04  0.15902618824E+04  0.12699999809E+01 0.  1.
       -4    1    3    3    0  502  0.20326562547E+03 -0.10127799648E+04  0.29259261703E+03  0.10736164231E+04  0.12699999809E+01 0. -1.
</event>
<event>
 5   0  0.2980790E-05  0.1972161E+04  0.7818609E-02  0.8619748E-01
       -1   -1    0    0    0  501  0.00000000000E+00  0.00000000000E+00  0.19698632040E+04  0.19698632040E+04  0.50400001928E-02 0.  1.
        1   -1    0    0  501    0  0.00000000000E+00  0.00000000000E+00 -0.49361531314E+03  0.49361531316E+03  0.50400001928E-02 0. -1.
    10030    2    1    2    0    0  0.00000000000E+00  0.00000000000E+00  0.14762478909E+04  0.24634785172E+04  0.19721608883E+04 0.  0.
        5    1    3    3  502    0  0.86404711967E+03 -0.11607348085E+03  0.13136474951E+04  0.15766237057E+04  0.46999998093E+01 0.  1.
       -5    1    3    3    0  502 -0.86404711967E+03  0.11607348085E+03  0.16260039577E+03  0.88685481149E+03  0.46999998093E+01 0. -1.
</event>
<event>
 5   0  0.2980790E-05  0.2519059E+04  0.7818609E-02  0.8396227E-01
       -1   -1    0    0    0  501  0.00000000000E+00  0.00000000000E+00  0.13371938769E+04  0.13371938770E+04  0.50400001928E-02 0. -1.
        1   -1    0    0  501    0  0.00000000000E+00  0.00000000000E+00 -0.11863758661E+04  0.11863758662E+04  0.50400001928E-02 0.  1.
    10030    2    1    2    0    0  0.00000000000E+00  0.00000000000E+00  0.15081801080E+03  0.25235697431E+04  0.25190589862E+04 0.  0.
        5    1    3    3  502    0  0.10310352433E+04  0.62549925346E+03 -0.28871049782E+03  0.12400237218E+04  0.46999998093E+01 0.  1.
       -5    1    3    3    0  502 -0.10310352433E+04 -0.62549925346E+03  0.43952850862E+03  0.12835460213E+04  0.46999998093E+01 0. -1.
</event>
<event>
 5   0  0.6827859E-05  0.2396317E+04  0.7818609E-02  0.8440884E-01
       -2   -1    0    0    0  501  0.00000000000E+00  0.00000000000E+00  0.17507884240E+04  0.17507884240E+04  0.25500000920E-02 0. -1.
        2   -1    0    0  501    0  0.00000000000E+00  0.00000000000E+00 -0.81996398955E+03  0.81996398956E+03  0.25500000920E-02 0.  1.
    10030    2    1    2    0    0  0.00000000000E+00  0.00000000000E+00  0.93082443441E+03  0.25707524135E+04  0.23963167245E+04 0.  0.
        3    1    3    3  502    0  0.58349413108E+03 -0.95436096449E+03  0.48436954443E+01  0.11186124097E+04  0.10100000352E+00 0.  1.
       -3    1    3    3    0  502 -0.58349413108E+03  0.95436096449E+03  0.92598073897E+03  0.14521400038E+04  0.10100000352E+00 0. -1.
</event>
<event>
 5   0  0.6827859E-05  0.2187370E+04  0.7818609E-02  0.8523703E-01
        2   -1    0    0  501    0  0.00000000000E+00  0.00000000000E+00  0.16152415163E+04  0.16152415163E+04  0.25500000920E-02 0.  1.
       -2   -1    0    0    0  501  0.00000000000E+00  0.00000000000E+00 -0.74053774260E+03  0.74053774260E+03  0.25500000920E-02 0. -1.
    10030    2    1    2    0    0  0.00000000000E+00  0.00000000000E+00  0.87470377372E+03  0.23557792589E+04  0.21873703904E+04 0.  0.
        3    1    3    3  502    0 -0.86790574277E+03 -0.15571041883E+02 -0.27918702781E+03  0.91183783776E+03  0.10100000352E+00 0. -1.
       -3    1    3    3    0  502  0.86790574277E+03  0.15571041883E+02  0.11538908015E+04  0.14439414212E+04  0.10100000352E+00 0.  1.
</event>
<event>
 5   0  0.2980790E-05  0.2501983E+04  0.7818609E-02  0.8402280E-01
        1   -1    0    0  501    0  0.00000000000E+00  0.00000000000E+00  0.26817011104E+04  0.26817011104E+04  0.50400001928E-02 0. -1.
       -1   -1    0    0    0  501  0.00000000000E+00  0.00000000000E+00 -0.58357712024E+03  0.58357712026E+03  0.50400001928E-02 0.  1.
    10030    2    1    2    0    0  0.00000000000E+00  0.00000000000E+00  0.20981239901E+04  0.32652782306E+04  0.25019827428E+04 0.  0.
        5    1    3    3  502    0 -0.49321218130E+03 -0.27415076239E+03 -0.40803702673E+03  0.69637145367E+03  0.46999998093E+01 0.  1.
       -5    1    3    3    0  502  0.49321218130E+03  0.27415076239E+03  0.25061610168E+04  0.25689067769E+04  0.46999998093E+01 0. -1.
</event>
<event>
 5   0  0.6445331E-05  0.2511636E+04  0.7818609E-02  0.8398852E-01
       -2   -1    0    0    0  501  0.00000000000E+00  0.00000000000E+00  0.10400935589E+04  0.10400935589E+04  0.25500000920E-02 0. -1.
        2   -1    0    0  501    0  0.00000000000E+00  0.00000000000E+00 -0.15162852252E+04  0.15162852252E+04  0.25500000920E-02 0.  1.
    10030    2    1    2    0    0  0.00000000000E+00  0.00000000000E+00 -0.47619166631E+03  0.25563787841E+04  0.25116357190E+04 0.  0.
        1    1    3    3  502    0 -0.67744100463E+03  0.10267655418E+04  0.19201311252E+02  0.12302611442E+04  0.50400001928E-02 0. -1.
       -1    1    3    3    0  502  0.67744100463E+03 -0.10267655418E+04 -0.49539297756E+03  0.13261176399E+04  0.50400001928E-02 0.  1.
</event>
<event>
 5   0  0.2793920E-05  0.2502159E+04  0.7818609E-02  0.8402217E-01
        1   -1    0    0  501    0  0.00000000000E+00  0.00000000000E+00  0.14960767058E+04  0.14960767058E+04  0.50400001928E-02 0.  1.
       -1   -1    0    0    0  501  0.00000000000E+00  0.00000000000E+00 -0.10462030427E+04  0.10462030427E+04  0.50400001928E-02 0. -1.
    10030    2    1    2    0    0  0.00000000000E+00  0.00000000000E+00  0.44987366309E+03  0.25422797486E+04  0.25021590691E+04 0.  0.
        2    1    3    3  502    0 -0.47946657266E+03 -0.29700423748E+03  0.13595795035E+04  0.14719225991E+04  0.25500000920E-02 0.  1.
       -2    1    3    3    0  502  0.47946657266E+03  0.29700423748E+03 -0.90970584040E+03  0.10703571495E+04  0.25500000920E-02 0. -1.
</event>
<event>
 5   0  0.6827859E-05  0.2324989E+04  0.7818609E-02  0.8468133E-01
       -2   -1    0    0    0  501  0.00000000000E+00  0.00000000000E+00  0.12478408523E+04  0.12478408523E+04  0.25500000920E-02 0.  1.
        2   -1    0    0  501    0  0.00000000000E+00  0.00000000000E+00 -0.10829849993E+04  0.10829849993E+04  0.25500000920E-02 0. -1.
    10030    2    1    2    0    0  0.00000000000E+00  0.00000000000E+00  0.16485585299E+03  0.23308258516E+04  0.23249885372E+04 0.  0.
        3    1    3    3  502    0  0.11503708586E+04  0.11597323883E+03  0.20352030311E+03  0.11739776099E+04  0.10100000352E+00 0.  1.
       -3    1    3    3    0  502 -0.11503708586E+04 -0.11597323883E+03 -0.38664450120E+02  0.11568482417E+04  0.10100000352E+00 0. -1.
</event>
<event>
 5   0  0.6909250E-05  0.2657060E+04  0.7818609E-02  0.8349074E-01
        2   -1    0    0  501    0  0.00000000000E+00  0.00000000000E+00  0.18697449786E+04  0.18697449786E+04  0.25500000920E-02 0. -1.
       -2   -1    0    0    0  501  0.00000000000E+00  0.00000000000E+00 -0.94397455138E+03  0.94397455138E+03  0.25500000920E-02 0.  1.
    10030    2    1    2    0    0  0.00000000000E+00  0.00000000000E+00  0.92577042719E+03  0.28137195299E+04  0.26570597866E+04 0.  0.
        4    1    3    3  502    0  0.25825302865E+03  0.47914014012E+02 -0.91620400110E+03  0.95311162205E+03  0.12699999809E+01 0.  1.
       -4    1    3    3    0  502 -0.25825302865E+03 -0.47914014012E+02  0.18419744283E+04  0.18606079079E+04  0.12699999809E+01 0. -1.
</event>
<event>
 5   0  0.7071821E-05  0.2452798E+04  0.7818609E-02  0.8419997E-01
       -2   -1    0    0    0  501  0.00000000000E+00  0.00000000000E+00  0.51983402725E+03  0.51983402726E+03  0.25500000920E-02 0.  1.
        2   -1    0    0  501    0  0.00000000000E+00  0.00000000000E+00 -0.28933351927E+04  0.28933351927E+04  0.25500000920E-02 0. -1.
    10030    2    1    2    0    0  0.00000000000E+00  0.00000000000E+00 -0.23735011655E+04  0.34131692200E+04  0.24527976561E+04 0.  0.
        5    1    3    3  502    0 -0.10591964612E+04 -0.18383261215E+03 -0.36545774540E+03  0.11354615918E+04  0.46999998093E+01 0.  1.
       -5    1    3    3    0  502  0.10591964612E+04  0.18383261215E+03 -0.20080434201E+04  0.22777076282E+04  0.46999998093E+01 0. -1.
</event>
<event>
 5   0  0.2977854E-05  0.1786747E+04  0.7818609E-02  0.8713379E-01
       -1   -1    0    0    0  501  0.00000000000E+00  0.00000000000E+00  0.78697840340E+03  0.78697840342E+03  0.50400001928E-02 0.  1.
        1   -1    0    0  501    0  0.00000000000E+00  0.00000000000E+00 -0.10141530074E+04  0.10141530074E+04  0.50400001928E-02 0. -1.
    10030    2    1    2    0    0  0.00000000000E+00  0.00000000000E+00 -0.22717460398E+03  0.18011314108E+04  0.17867473404E+04 0.  0.
        1    1    3    3  502    0  0.16666713576E+03  0.11246708918E+03  0.76387397015E+03  0.78989253864E+03  0.50400001928E-02 0.  1.
       -1    1    3    3    0  502 -0.16666713576E+03 -0.11246708918E+03 -0.99104857414E+03  0.10112388722E+04  0.50400001928E-02 0. -1.
</event>
<event>
 5   0  0.2777539E-05  0.2492699E+04  0.7818609E-02  0.8405591E-01
        1   -1    0    0  501    0  0.00000000000E+00  0.00000000000E+00  0.20646436518E+04  0.20646436518E+04  0.50400001928E-02 0. -1.
       -1   -1    0    0    0  501  0.00000000000E+00  0.00000000000E+00 -0.75237525857E+03  0.75237525859E+03  0.50400001928E-02 0.  1.
    10030    2    1    2    0    0  0.00000000000E+00  0.00000000000E+00  0.13122683932E+04  0.28170189104E+04  0.24926987796E+04 0.  0.
        3    1    3    3  502    0 -0.74802463771E+03 -0.85218614358E+03  0.12407668464E+04  0.16808523014E+04  0.10100000352E+00 0. -1.
       -3    1    3    3    0  502  0.74802463771E+03  0.85218614358E+03  0.71501546834E+02  0.11361666090E+04  0.10100000352E+00 0.  1.
</event>
<event>
 5   0  0.2896652E-05  0.2603511E+04  0.7818609E-02  0.8367010E-01
       -1   -1    0    0    0  501  0.00000000000E+00  0.00000000000E+00  0.64843096173E+03  0.64843096175E+03  0.50400001928E-02 0. -1.
        1   -1    0    0  501    0  0.00000000000E+00  0.00000000000E+00 -0.26133341866E+04  0.26133341866E+04  0.50400001928E-02 0.  1.
    10030    2    1    2    0    0  0.00000000000E+00  0.00000000000E+00 -0.19649032249E+04  0.32617651484E+04  0.26035105531E+04 0.  0.
        4    1    3    3  502    0 -0.89094022636E+03  0.41565548065E+03  0.86518013369E+02  0.98693006089E+03  0.12699999809E+01 0. -1.
       -4    1    3    3    0  502  0.89094022636E+03 -0.41565548065E+03 -0.20514212382E+04  0.22748350875E+04  0.12699999809E+01 0.  1.
</event>
<event>
 5   0  0.2980790E-05  0.2401977E+04  0.7818609E-02  0.8438764E-01
       -1   -1    0    0    0  501  0.00000000000E+00  0.00000000000E+00  0.73333014974E+03  0.73333014975E+03  0.50400001928E-02 0.  1.
        1   -1    0    0  501    0  0.00000000000E+00  0.00000000000E+00 -0.19668810599E+04  0.19668810599E+04  0.50400001928E-02 0. -1.
    10030    2    1    2    0    0  0.00000000000E+00  0.00000000000E+00 -0.12335509102E+04  0.27002112097E+04  0.24019768377E+04 0.  0.
        5    1    3    3  502    0 -0.23813055771E+03  0.55476247332E+03  0.55034273622E+03  0.81692519953E+03  0.46999998093E+01 0.  1.
       -5    1    3    3    0  502  0.23813055771E+03 -0.55476247332E+03 -0.17838936464E+04  0.18832860101E+04  0.46999998093E+01 0. -1.
</event>
<event>
 5   0  0.6827859E-05  0.2114598E+04  0.7818609E-02  0.8554840E-01
       -2   -1    0    0    0  501  0.00000000000E+00  0.00000000000E+00  0.40545423672E+03  0.40545423672E+03  0.25500000920E-02 0. -1.
        2   -1    0    0  501    0  0.00000000000E+00  0.00000000000E+00 -0.27571077563E+04  0.27571077563E+04  0.25500000920E-02 0.  1.
    10030    2    1    2    0    0  0.00000000000E+00  0.00000000000E+00 -0.23516535196E+04  0.31625619930E+04  0.21145978539E+04 0.  0.
        3    1    3    3  502    0  0.54052720600E+03 -0.57777369234E+03 -0.22247525803E+04  0.23612530897E+04  0.10100000352E+00 0.  1.
       -3    1    3    3    0  502 -0.54052720600E+03  0.57777369234E+03 -0.12690093933E+03  0.80130890335E+03  0.10100000352E+00 0. -1.
</event>
<event>
 5   0  0.2793920E-05  0.2423285E+04  0.7818609E-02  0.8430837E-01
       -1   -1    0    0    0  501  0.00000000000E+00  0.00000000000E+00  0.10476345215E+04  0.10476345216E+04  0.50400001928E-02 0.  1.
        1   -1    0    0  501    0  0.00000000000E+00  0.00000000000E+00 -0.14013262999E+04  0.14013262999E+04  0.50400001928E-02 0. -1.
    10030    2    1    2    0    0  0.00000000000E+00  0.00000000000E+00 -0.35369177832E+03  0.24489608214E+04  0.24232852145E+04 0.  0.
        2    1    3    3  502    0  0.10599658028E+03  0.11496839752E+04 -0.54825761709E+03  0.12781216423E+04  0.25500000920E-02 0. -1.
       -2    1    3    3    0  502 -0.10599658028E+03 -0.11496839752E+04  0.19456583877E+03  0.11708391791E+04  0.25500000920E-02 0.  1.
</event>
<event>
 5   0  0.2896652E-05  0.2364386E+04  0.7818609E-02  0.8452959E-01
       -1   -1    0    0    0  501  0.00000000000E+00  0.00000000000E+00  0.84076010331E+03  0.84076010333E+03  0.50400001928E-02 0. -1.
        1   -1    0    0  501    0  0.00000000000E+00  0.00000000000E+00 -0.16622813115E+04  0.16622813115E+04  0.50400001928E-02 0.  1.
    10030    2    1    2    0    0  0.00000000000E+00  0.00000000000E+00 -0.82152120820E+03  0.25030414149E+04  0.23643855923E+04 0.  0.
        4    1    3    3  502    0 -0.36921876808E+03  0.20679985964E+03 -0.15793464699E+04  0.16350613339E+04  0.12699999809E+01 0.  1.
       -4    1    3    3    0  502  0.36921876808E+03 -0.20679985964E+03  0.75782526175E+03  0.86798008093E+03  0.12699999809E+01 0. -1.
</event>
<event>
 5   0  0.2777539E-05  0.2443293E+04  0.7818609E-02  0.8423471E-01
       -1   -1    0    0    0  501  0.00000000000E+00  0.00000000000E+00  0.14249421651E+04  0.14249421651E+04  0.50400001928E-02 0.  1.
        1   -1    0    0  501    0  0.00000000000E+00  0.00000000000E+00 -0.10473549785E+04  0.10473549785E+04  0.50400001928E-02 0. -1.
    10030    2    1    2    0    0  0.00000000000E+00  0.00000000000E+00  0.37758718660E+03  0.24722971435E+04  0.24432930816E+04 0.  0.
        3    1    3    3  502    0 -0.20996056778E+03  0.15662618308E+03  0.13961913586E+04  0.14205511330E+04  0.10100000352E+00 0.  1.
       -3    1    3    3    0  502  0.20996056778E+03 -0.15662618308E+03 -0.10186041720E+04  0.10517460106E+04  0.10100000352E+00 0. -1.
</event>
<event>
 5   0  0.2896652E-05  0.2498136E+04  0.7818609E-02  0.8403650E-01
       -1   -1    0    0    0  501  0.00000000000E+00  0.00000000000E+00  0.12569713238E+04  0.12569713238E+04  0.50400001928E-02 0. -1.
        1   -1    0    0  501    0  0.00000000000E+00  0.00000000000E+00 -0.12412142126E+04  0.12412142126E+04  0.50400001928E-02 0.  1.
    10030    2    1    2    0    0  0.00000000000E+00  0.00000000000E+00  0.15757111167E+02  0.24981855364E+04  0.24981358426E+04 0.  0.
        4    1    3    3  502    0 -0.10518900605E+04  0.47858999432E+03  0.48185842301E+03  0.12520823594E+04  0.12699999809E+01 0. -1.
       -4    1    3    3    0  502  0.10518900605E+04 -0.47858999432E+03 -0.46610131184E+03  0.12461031770E+04  0.12699999809E+01 0.  1.
</event>
<event>
 5   0  0.6648328E-05  0.2508056E+04  0.7818609E-02  0.8400121E-01
       -2   -1    0    0    0  501  0.00000000000E+00  0.00000000000E+00  0.12660941108E+04  0.12660941108E+04  0.25500000920E-02 0. -1.
        2   -1    0    0  501    0  0.00000000000E+00  0.00000000000E+00 -0.12420771453E+04  0.12420771453E+04  0.25500000920E-02 0.  1.
    10030    2    1    2    0    0  0.00000000000E+00  0.00000000000E+00  0.24016965462E+02  0.25081712561E+04  0.25080562663E+04 0.  0.
        2    1    3    3  502    0 -0.33407764417E+03 -0.11185916085E+04  0.46999399768E+03  0.12584710631E+04  0.25500000920E-02 0. -1.
       -2    1    3    3    0  502  0.33407764417E+03  0.11185916085E+04 -0.44597703222E+03  0.12497001929E+04  0.25500000920E-02 0.  1.
</event>
<event>
 5   0  0.7071821E-05  0.2344336E+04  0.7818609E-02  0.8460642E-01
       -2   -1    0    0    0  501  0.00000000000E+00  0.00000000000E+00  0.73142081095E+03  0.73142081095E+03  0.25500000920E-02 0.  1.
        2   -1    0    0  501    0  0.00000000000E+00  0.00000000000E+00 -0.18785050907E+04  0.18785050907E+04  0.25500000920E-02 0. -1.
    10030    2    1    2    0    0  0.00000000000E+00  0.00000000000E+00 -0.11470842798E+04  0.26099259017E+04  0.23443359118E+04 0.  0.
        5    1    3    3  502    0 -0.22287134205E+03  0.79963329769E+03 -0.14948665817E+04  0.17098927548E+04  0.46999998093E+01 0. -1.
       -5    1    3    3    0  502  0.22287134205E+03 -0.79963329769E+03  0.34778230194E+03  0.90003314685E+03  0.46999998093E+01 0.  1.
</event>
<event>
 5   0  0.6827859E-05  0.2630462E+04  0.7818609E-02  0.8357927E-01
        2   -1    0    0  501    0  0.00000000000E+00  0.00000000000E+00  0.12149177459E+04  0.12149177459E+04  0.25500000920E-02 0. -1.
       -2   -1    0    0    0  501  0.00000000000E+00  0.00000000000E+00 -0.14238265817E+04  0.14238265817E+04  0.25500000920E-02 0.  1.
    10030    2    1    2    0    0  0.00000000000E+00  0.00000000000E+00 -0.20890883575E+03  0.26387443276E+04  0.26304616942E+04 0.  0.
        3    1    3    3  502    0  0.66505758787E+03  0.65021800819E+03 -0.10373002865E+04  0.13932253758E+04  0.10100000352E+00 0.  1.
       -3    1    3    3    0  502 -0.66505758787E+03 -0.65021800819E+03  0.82839145075E+03  0.12455189518E+04  0.10100000352E+00 0. -1.
</event>
<event>
 5   0  0.7071821E-05  0.2498591E+04  0.7818609E-02  0.8403488E-01
        2   -1    0    0  501    0  0.00000000000E+00  0.00000000000E+00  0.14135685371E+04  0.14135685371E+04  0.25500000920E-02 0.  1.
       -2   -1    0    0    0  501  0.00000000000E+00  0.00000000000E+00 -0.11041129073E+04  0.11041129073E+04  0.25500000920E-02 0. -1.
    10030    2    1    2    0    0  0.00000000000E+00  0.00000000000E+00  0.30945562980E+03  0.25176814443E+04  0.24985910166E+04 0.  0.
        5    1    3    3  502    0  0.10470549672E+04  0.35953162553E+03 -0.42859949827E+03  0.11871422468E+04  0.46999998093E+01 0.  1.
       -5    1    3    3    0  502 -0.10470549672E+04 -0.35953162553E+03  0.73805512807E+03  0.13305391975E+04  0.46999998093E+01 0. -1.
</event>
<event>
 5   0  0.2896652E-05  0.2543812E+04  0.7818609E-02  0.8387541E-01
       -1   -1    0    0    0  501  0.00000000000E+00  0.00000000000E+00  0.11544245938E+04  0.11544245938E+04  0.50400001928E-02 0.  1.
        1   -1    0    0  501    0  0.00000000000E+00  0.00000000000E+00 -0.14013434118E+04  0.14013434118E+04  0.50400001928E-02 0. -1.
    10030    2    1    2    0    0  0.00000000000E+00  0.00000000000E+00 -0.24691881805E+03  0.25557680056E+04  0.25438123350E+04 0.  0.
        4    1    3    3  502    0 -0.12007357275E+04  0.32182388901E+03 -0.39380916819E+03  0.13040031352E+04  0.12699999809E+01 0. -1.
       -4    1    3    3    0  502  0.12007357275E+04 -0.32182388901E+03  0.14689035014E+03  0.12517648704E+04  0.12699999809E+01 0.  1.
</event>
<event>
 5   0  0.2777539E-05  0.2525296E+04  0.7818609E-02  0.8394029E-01
        1   -1    0    0  501    0  0.00000000000E+00  0.00000000000E+00  0.85757905733E+03  0.85757905735E+03  0.50400001928E-02 0.  1.
       -1   -1    0    0    0  501  0.00000000000E+00  0.00000000000E+00 -0.18590466370E+04  0.18590466370E+04  0.50400001928E-02 0. -1.
    10030    2    1    2    0    0  0.00000000000E+00  0.00000000000E+00 -0.10014675796E+04  0.27166256943E+04  0.25252955966E+04 0.  0.
        3    1    3    3  502    0  0.37199962863E+03  0.67342408292E+03 -0.15777870688E+04  0.17553620037E+04  0.10100000352E+00 0. -1.
       -3    1    3    3    0  502 -0.37199962863E+03 -0.67342408292E+03  0.57631948919E+03  0.96126369066E+03  0.10100000352E+00 0.  1.
</event>
<event>
 5   0  0.2777539E-05  0.2586515E+04  0.7818609E-02  0.8372796E-01
        1   -1    0    0  501    0  0.00000000000E+00  0.00000000000E+00  0.12761900108E+04  0.12761900108E+04  0.50400001928E-02 0. -1.
       -1   -1    0    0    0  501  0.00000000000E+00  0.00000000000E+00 -0.13105530838E+04  0.13105530838E+04  0.50400001928E-02 0.  1.
    10030    2    1    2    0    0  0.00000000000E+00  0.00000000000E+00 -0.34363073007E+02  0.25867430946E+04  0.25865148398E+04 0.  0.
        3    1    3    3  502    0 -0.40241000393E+03  0.14470492534E+03  0.12034348425E+04  0.12771565123E+04  0.10100000352E+00 0. -1.
       -3    1    3    3    0  502  0.40241000393E+03 -0.14470492534E+03 -0.12377979155E+04  0.13095865823E+04  0.10100000352E+00 0.  1.
</event>
<event>
 5   0  0.2980790E-05  0.2480941E+04  0.7818609E-02  0.8409807E-01
       -1   -1    0    0    0  501  0.00000000000E+00  0.00000000000E+00  0.14196550204E+04  0.14196550204E+04  0.50400001928E-02 0.  1.
        1   -1    0    0  501    0  0.00000000000E+00  0.00000000000E+00 -0.10839024767E+04  0.10839024767E+04  0.50400001928E-02 0. -1.
    10030    2    1    2    0    0  0.00000000000E+00  0.00000000000E+00  0.33575254370E+03  0.25035574971E+04  0.24809414283E+04 0.  0.
        5    1    3    3  502    0  0.41170875441E+03  0.82728432451E+03  0.10029720116E+04  0.13637735876E+04  0.46999998093E+01 0.  1.
       -5    1    3    3    0  502 -0.41170875441E+03 -0.82728432451E+03 -0.66721946794E+03  0.11397839095E+04  0.46999998093E+01 0. -1.
</event>
<event>
 5   0  0.6648328E-05  0.1977323E+04  0.7818609E-02  0.8617297E-01
       -2   -1    0    0    0  501  0.00000000000E+00  0.00000000000E+00  0.38866059352E+03  0.38866059352E+03  0.25500000920E-02 0.  1.
        2   -1    0    0  501    0  0.00000000000E+00  0.00000000000E+00 -0.25149243774E+04  0.25149243774E+04  0.25500000920E-02 0. -1.
    10030    2    1    2    0    0  0.00000000000E+00  0.00000000000E+00 -0.21262637838E+04  0.29035849709E+04  0.19773234446E+04 0.  0.
        2    1    3    3  502    0  0.72656485139E+03  0.48529409179E+03 -0.38375693722E+03  0.95429357416E+03  0.25500000920E-02 0.  1.
       -2    1    3    3    0  502 -0.72656485139E+03 -0.48529409179E+03 -0.17425068466E+04  0.19492913967E+04  0.25500000920E-02 0. -1.
</event>
<event>
 5   0  0.6827859E-05  0.1909275E+04  0.7818609E-02  0.8650253E-01
       -2   -1    0    0    0  501  0.00000000000E+00  0.00000000000E+00  0.91236249818E+03  0.91236249818E+03  0.25500000920E-02 0. -1.
        2   -1    0    0  501    0  0.00000000000E+00  0.00000000000E+00 -0.99887146769E+03  0.99887146769E+03  0.25500000920E-02 0.  1.
    10030    2    1    2    0    0  0.00000000000E+00  0.00000000000E+00 -0.86508969509E+02  0.19112339659E+04  0.19092751165E+04 0.  0.
        3    1    3    3  502    0 -0.89205899614E+03  0.33980241824E+03 -0.33348808684E+02  0.95516861824E+03  0.10100000352E+00 0. -1.
       -3    1    3    3    0  502  0.89205899614E+03 -0.33980241824E+03 -0.53160160825E+02  0.95606534763E+03  0.10100000352E+00 0.  1.
</event>
<event>
 5   0  0.6827859E-05  0.2526131E+04  0.7818609E-02  0.8393735E-01
       -2   -1    0    0    0  501  0.00000000000E+00  0.00000000000E+00  0.84754449119E+03  0.84754449119E+03  0.25500000920E-02 0. -1.
        2   -1    0    0  501    0  0.00000000000E+00  0.00000000000E+00 -0.18823019798E+04  0.18823019798E+04  0.25500000920E-02 0.  1.
    10030    2    1    2    0    0  0.00000000000E+00  0.00000000000E+00 -0.10347574886E+04  0.27298464710E+04  0.25261311714E+04 0.  0.
        3    1    3    3  502    0  0.87759998078E+02 -0.98617315838E+03  0.33014826224E+03  0.10436652724E+04  0.10100000352E+00 0. -1.
       -3    1    3    3    0  502 -0.87759998078E+02  0.98617315838E+03 -0.13649057509E+04  0.16861811986E+04  0.10100000352E+00 0.  1.
</event>
<event>
 5   0  0.2793920E-05  0.2506622E+04  0.7818609E-02  0.8400630E-01
       -1   -1    0    0    0  501  0.00000000000E+00  0.00000000000E+00  0.15396003280E+04  0.15396003280E+04  0.50400001928E-02 0.  1.
        1   -1    0    0  501    0  0.00000000000E+00  0.00000000000E+00 -0.10202569794E+04  0.10202569794E+04  0.50400001928E-02 0. -1.
    10030    2    1    2    0    0  0.00000000000E+00  0.00000000000E+00  0.51934334855E+03  0.25598573074E+04  0.25066216149E+04 0.  0.
        2    1    3    3  502    0 -0.40490141491E+03  0.98577315870E+03 -0.41395391431E+03  0.11432636264E+04  0.25500000920E-02 0. -1.
       -2    1    3    3    0  502  0.40490141491E+03 -0.98577315870E+03  0.93329726286E+03  0.14165936810E+04  0.25500000920E-02 0.  1.
</event>
<event>
 5   0  0.6909250E-05  0.2529528E+04  0.7818609E-02  0.8392541E-01
        2   -1    0    0  501    0  0.00000000000E+00  0.00000000000E+00  0.17072319339E+04  0.17072319339E+04  0.25500000920E-02 0. -1.
       -2   -1    0    0    0  501  0.00000000000E+00  0.00000000000E+00 -0.93697186324E+03  0.93697186324E+03  0.25500000920E-02 0.  1.
    10030    2    1    2    0    0  0.00000000000E+00  0.00000000000E+00  0.77026007063E+03  0.26442037971E+04  0.25295282454E+04 0.  0.
        4    1    3    3  502    0 -0.68556747836E+03  0.20976550913E+00 -0.72589109853E+03  0.99845996976E+03  0.12699999809E+01 0.  1.
       -4    1    3    3    0  502  0.68556747836E+03 -0.20976550913E+00  0.14961511692E+04  0.16457438274E+04  0.12699999809E+01 0. -1.
</event>
<event>
 5   0  0.6827859E-05  0.2480654E+04  0.7818609E-02  0.8409910E-01
        2   -1    0    0  501    0  0.00000000000E+00  0.00000000000E+00  0.24711837322E+04  0.24711837322E+04  0.25500000920E-02 0. -1.
       -2   -1    0    0    0  501  0.00000000000E+00  0.00000000000E+00 -0.62254021863E+03  0.62254021863E+03  0.25500000920E-02 0.  1.
    10030    2    1    2    0    0  0.00000000000E+00  0.00000000000E+00  0.18486435136E+04  0.30937239508E+04  0.24806541564E+04 0.  0.
        3    1    3    3  502    0 -0.10921485931E+03  0.22660192395E+03 -0.59039424243E+03  0.64174892998E+03  0.10100000352E+00 0.  1.
       -3    1    3    3    0  502  0.10921485931E+03 -0.22660192395E+03  0.24390377560E+04  0.24519750208E+04  0.10100000352E+00 0. -1.
</event>
<event>
 5   0  0.6827859E-05  0.2498994E+04  0.7818609E-02  0.8403344E-01
       -2   -1    0    0    0  501  0.00000000000E+00  0.00000000000E+00  0.81689419338E+03  0.81689419338E+03  0.25500000920E-02 0.  1.
        2   -1    0    0  501    0  0.00000000000E+00  0.00000000000E+00 -0.19111928535E+04  0.19111928535E+04  0.25500000920E-02 0. -1.
    10030    2    1    2    0    0  0.00000000000E+00  0.00000000000E+00 -0.10942986601E+04  0.27280870468E+04  0.24989936730E+04 0.  0.
        3    1    3    3  502    0  0.77636221318E+03 -0.63040759033E+03  0.27057977261E+03  0.10360335128E+04  0.10100000352E+00 0.  1.
       -3    1    3    3    0  502 -0.77636221318E+03  0.63040759033E+03 -0.13648784327E+04  0.16920535341E+04  0.10100000352E+00 0. -1.
</event>
<event>
 5   0  0.6827859E-05  0.2596513E+04  0.7818609E-02  0.8369386E-01
       -2   -1    0    0    0  501  0.00000000000E+00  0.00000000000E+00  0.27806899220E+04  0.27806899220E+04  0.25500000920E-02 0. -1.
        2   -1    0    0  501    0  0.00000000000E+00  0.00000000000E+00 -0.60613390735E+03  0.60613390735E+03  0.25500000920E-02 0.  1.
    10030    2    1    2    0    0  0.00000000000E+00  0.00000000000E+00  0.21745560147E+04  0.33868238294E+04  0.25965133911E+04 0.  0.
        3    1    3    3  502    0 -0.10967441687E+04 -0.29398103344E+03  0.19083062176E+04  0.22205641738E+04  0.10100000352E+00 0. -1.
       -3    1    3    3    0  502  0.10967441687E+04  0.29398103344E+03  0.26624979708E+03  0.11662596556E+04  0.10100000352E+00 0.  1.
</event>
<event>
 5   0  0.7071821E-05  0.2499380E+04  0.7818609E-02  0.8403206E-01
       -2   -1    0    0    0  501  0.00000000000E+00  0.00000000000E+00  0.14246914060E+04  0.14246914060E+04  0.25500000920E-02 0. -1.
        2   -1    0    0  501    0  0.00000000000E+00  0.00000000000E+00 -0.10961851667E+04  0.10961851667E+04  0.25500000920E-02 0.  1.
    10030    2    1    2    0    0  0.00000000000E+00  0.00000000000E+00  0.32850623931E+03  0.25208765727E+04  0.24993803923E+04 0.  0.
        5    1    3    3  502    0 -0.29904830742E+02  0.10736251204E+04  0.80860470080E+03  0.13444065048E+04  0.46999998093E+01 0. -1.
       -5    1    3    3    0  502  0.29904830742E+02 -0.10736251204E+04 -0.48009846149E+03  0.11764700679E+04  0.46999998093E+01 0.  1.
</event>
<event>
 5   0  0.2777539E-05  0.2432745E+04  0.7818609E-02  0.8427345E-01
        1   -1    0    0  501    0  0.00000000000E+00  0.00000000000E+00  0.10479968711E+04  0.10479968711E+04  0.50400001928E-02 0.  1.
       -1   -1    0    0    0  501  0.00000000000E+00  0.00000000000E+00 -0.14118000640E+04  0.14118000640E+04  0.50400001928E-02 0. -1.
    10030    2    1    2    0    0  0.00000000000E+00  0.00000000000E+00 -0.36380319290E+03  0.24597969350E+04  0.24327449925E+04 0.  0.
        3    1    3    3  502    0 -0.11587271930E+04  0.24059104188E+03 -0.46614911831E+03  0.12719385866E+04  0.10100000352E+00 0. -1.
       -3    1    3    3    0  502  0.11587271930E+04 -0.24059104188E+03  0.10234592541E+03  0.11878583485E+04  0.10100000352E+00 0.  1.
</event>
<event>
 5   0  0.2793920E-05  0.1470132E+04  0.7818609E-02  0.8904561E-01
        1   -1    0    0  501    0  0.00000000000E+00  0.00000000000E+00  0.11056090731E+04  0.11056090731E+04  0.50400001928E-02 0. -1.
       -1   -1    0    0    0  501  0.00000000000E+00  0.00000000000E+00 -0.48871013684E+03  0.48871013687E+03  0.50400001928E-02 0.  1.
    10030    2    1    2    0    0  0.00000000000E+00  0.00000000000E+00  0.61689893621E+03  0.15943192099E+04  0.14701324586E+04 0.  0.
        2    1    3    3  502    0  0.29469255585E+03  0.44109937127E+03 -0.24336518407E+03  0.58364284510E+03  0.25500000920E-02 0.  1.
       -2    1    3    3    0  502 -0.29469255585E+03 -0.44109937127E+03  0.86026412028E+03  0.10106763648E+04  0.25500000920E-02 0. -1.
</event>
<event>
 5   0  0.2896652E-05  0.2580807E+04  0.7818609E-02  0.8374750E-01
       -1   -1    0    0    0  501  0.00000000000E+00  0.00000000000E+00  0.92411787330E+03  0.92411787331E+03  0.50400001928E-02 0. -1.
        1   -1    0    0  501    0  0.00000000000E+00  0.00000000000E+00 -0.18018710493E+04  0.18018710493E+04  0.50400001928E-02 0.  1.
    10030    2    1    2    0    0  0.00000000000E+00  0.00000000000E+00 -0.87775317602E+03  0.27259889226E+04  0.25808070382E+04 0.  0.
        4    1    3    3  502    0 -0.12103507391E+04 -0.26939373063E+03 -0.61544212987E+02  0.12414955484E+04  0.12699999809E+01 0. -1.
       -4    1    3    3    0  502  0.12103507391E+04  0.26939373063E+03 -0.81620896304E+03  0.14844933742E+04  0.12699999809E+01 0.  1.
</event>
<event>
 5   0  0.6827859E-05  0.2465430E+04  0.7818609E-02  0.8415406E-01
       -2   -1    0    0    0  501  0.00000000000E+00  0.00000000000E+00  0.98966066407E+03  0.98966066407E+03  0.25500000920E-02 0.  1.
        2   -1    0    0  501    0  0.00000000000E+00  0.00000000000E+00 -0.15354617902E+04  0.15354617902E+04  0.25500000920E-02 0. -1.
    10030    2    1    2    0    0  0.00000000000E+00  0.00000000000E+00 -0.54580112614E+03  0.25251224543E+04  0.24654298895E+04 0.  0.
        3    1    3    3  502    0 -0.44584214255E+02  0.10977947259E+04  0.29960097094E+03  0.11388159484E+04  0.10100000352E+00 0.  1.
       -3    1    3    3    0  502  0.44584214255E+02 -0.10977947259E+04 -0.84540209707E+03  0.13863065059E+04  0.10100000352E+00 0. -1.
</event>
<event>
 5   0  0.6827859E-05  0.2472671E+04  0.7818609E-02  0.8412787E-01
       -2   -1    0    0    0  501  0.00000000000E+00  0.00000000000E+00  0.83824394819E+03  0.83824394819E+03  0.25500000920E-02 0. -1.
        2   -1    0    0  501    0  0.00000000000E+00  0.00000000000E+00 -0.18234857882E+04  0.18234857882E+04  0.25500000920E-02 0.  1.
    10030    2    1    2    0    0  0.00000000000E+00  0.00000000000E+00 -0.98524183999E+03  0.26617297364E+04  0.24726713704E+04 0.  0.
        3    1    3    3  502    0 -0.12671708404E+03 -0.23261782474E+03  0.80733784712E+03  0.84968387143E+03  0.10100000352E+00 0. -1.
       -3    1    3    3    0  502  0.12671708404E+03  0.23261782474E+03 -0.17925796871E+04  0.18120458649E+04  0.10100000352E+00 0.  1.
</event>
<event>
 5   0  0.6445331E-05  0.2580411E+04  0.7818609E-02  0.8374886E-01
       -2   -1    0    0    0  501  0.00000000000E+00  0.00000000000E+00  0.18582752146E+04  0.18582752146E+04  0.25500000920E-02 0. -1.
        2   -1    0    0  501    0  0.00000000000E+00  0.00000000000E+00 -0.89579330296E+03  0.89579330297E+03  0.25500000920E-02 0.  1.
    10030    2    1    2    0    0  0.00000000000E+00  0.00000000000E+00  0.96248191163E+03  0.27540685176E+04  0.25804112016E+04 0.  0.
        1    1    3    3  502    0 -0.55769968087E+03  0.22390991388E+03 -0.73728745836E+03  0.95118735266E+03  0.50400001928E-02 0.  1.
       -1    1    3    3    0  502  0.55769968087E+03 -0.22390991388E+03  0.16997693700E+04  0.18028811649E+04  0.50400001928E-02 0. -1.
</event>
<event>
 5   0  0.2977854E-05  0.2425662E+04  0.7818609E-02  0.8429958E-01
       -1   -1    0    0    0  501  0.00000000000E+00  0.00000000000E+00  0.66272426207E+03  0.66272426209E+03  0.50400001928E-02 0.  1.
        1   -1    0    0  501    0  0.00000000000E+00  0.00000000000E+00 -0.22195636534E+04  0.22195636535E+04  0.50400001928E-02 0. -1.
    10030    2    1    2    0    0  0.00000000000E+00  0.00000000000E+00 -0.15568393914E+04  0.28822879155E+04  0.24256617113E+04 0.  0.
        1    1    3    3  502    0 -0.86019553199E+03 -0.85462515673E+03 -0.74840207973E+03  0.14249302386E+04  0.50400001928E-02 0. -1.
       -1    1    3    3    0  502  0.86019553199E+03  0.85462515673E+03 -0.80843731165E+03  0.14573576770E+04  0.50400001928E-02 0.  1.
</event>
<event>
 5   0  0.6648328E-05  0.2509124E+04  0.7818609E-02  0.8399742E-01
        2   -1    0    0  501    0  0.00000000000E+00  0.00000000000E+00  0.10657887891E+04  0.10657887891E+04  0.25500000920E-02 0. -1.
       -2   -1    0    0    0  501  0.00000000000E+00  0.00000000000E+00 -0.14767707919E+04  0.14767707919E+04  0.25500000920E-02 0.  1.
    10030    2    1    2    0    0  0.00000000000E+00  0.00000000000E+00 -0.41098200285E+03  0.25425595810E+04  0.25091239539E+04 0.  0.
        2    1    3    3  502    0 -0.71377180388E+03 -0.57800496913E+03  0.66051169256E+03  0.11312982049E+04  0.25500000920E-02 0. -1.
       -2    1    3    3    0  502  0.71377180388E+03  0.57800496913E+03 -0.10714936954E+04  0.14112613761E+04  0.25500000920E-02 0.  1.
</event>
<event>
 5   0  0.6827859E-05  0.2633023E+04  0.7818609E-02  0.8357070E-01
        2   -1    0    0  501    0  0.00000000000E+00  0.00000000000E+00  0.19988499210E+04  0.19988499210E+04  0.25500000920E-02 0.  1.
       -2   -1    0    0    0  501  0.00000000000E+00  0.00000000000E+00 -0.86710001703E+03  0.86710001703E+03  0.25500000920E-02 0. -1.
    10030    2    1    2    0    0  0.00000000000E+00  0.00000000000E+00  0.11317499040E+04  0.28659499380E+04  0.26330232058E+04 0.  0.
        3    1    3    3  502    0  0.32367183972E+03 -0.63009698042E+03 -0.64198479379E+03  0.95599694049E+03  0.10100000352E+00 0. -1.
       -3    1    3    3    0  502 -0.32367183972E+03  0.63009698042E+03  0.17737346978E+04  0.19099529975E+04  0.10100000352E+00 0.  1.
</event>
<event>
 5   0  0.2977854E-05  0.2504623E+04  0.7818609E-02  0.8401340E-01
        1   -1    0    0  501    0  0.00000000000E+00  0.00000000000E+00  0.16137454513E+04  0.16137454513E+04  0.50400001928E-02 0.  1.
       -1   -1    0    0    0  501  0.00000000000E+00  0.00000000000E+00 -0.97182889919E+03  0.97182889920E+03  0.50400001928E-02 0. -1.
    10030    2    1    2    0    0  0.00000000000E+00  0.00000000000E+00  0.64191655213E+03  0.25855743505E+04  0.25046232975E+04 0.  0.
        1    1    3    3  502    0 -0.14901995274E+03  0.10557910556E+04  0.99898374890E+03  0.14611195126E+04  0.50400001928E-02 0.  1.
       -1    1    3    3    0  502  0.14901995274E+03 -0.10557910556E+04 -0.35706719678E+03  0.11244548379E+04  0.50400001928E-02 0. -1.
</event>
<event>
 5   0  0.6909250E-05  0.2494948E+04  0.7818609E-02  0.8404788E-01
       -2   -1    0    0    0  501  0.00000000000E+00  0.00000000000E+00  0.71166878241E+03  0.71166878242E+03  0.25500000920E-02 0.  1.
        2   -1    0    0  501    0  0.00000000000E+00  0.00000000000E+00 -0.21866792261E+04  0.21866792261E+04  0.25500000920E-02 0. -1.
    10030    2    1    2    0    0  0.00000000000E+00  0.00000000000E+00 -0.14750104436E+04  0.28983480085E+04  0.24949479693E+04 0.  0.
        4    1    3    3  502    0  0.35680900653E+03 -0.11894388474E+04 -0.87550798858E+03  0.15194055712E+04  0.12699999809E+01 0. -1.
       -4    1    3    3    0  502 -0.35680900653E+03  0.11894388474E+04 -0.59950245506E+03  0.13789424373E+04  0.12699999809E+01 0.  1.
</event>
<event>
 5   0  0.2331375E-05  0.2557138E+04  0.7818609E-02  0.8382908E-01
        3   -1    0    0  501    0  0.00000000000E+00  0.00000000000E+00  0.16819150261E+04  0.16819150291E+04  0.10100000352E+00 0. -1.
       -3   -1    0    0    0  501  0.00000000000E+00  0.00000000000E+00 -0.97195105914E+03  0.97195106439E+03  0.10100000352E+00 0.  1.
    10030    2    1    2    0    0  0.00000000000E+00  0.00000000000E+00  0.70996396692E+03  0.26538660935E+04  0.25571383240E+04 0.  0.
        2    1    3    3  502    0  0.85664519333E+03 -0.63063251427E+03  0.10911813225E+04  0.15238815682E+04  0.25500000920E-02 0. -1.
       -2    1    3    3    0  502 -0.85664519333E+03  0.63063251427E+03 -0.38121735553E+03  0.11299845253E+04  0.25500000920E-02 0.  1.
</event>
<event>
 5   0  0.7071821E-05  0.1887650E+04  0.7818609E-02  0.8661028E-01
       -2   -1    0    0    0  501  0.00000000000E+00  0.00000000000E+00  0.10180751806E+04  0.10180751806E+04  0.25500000920E-02 0. -1.
        2   -1    0    0  501    0  0.00000000000E+00  0.00000000000E+00 -0.87498968650E+03  0.87498968651E+03  0.25500000920E-02 0.  1.
    10030    2    1    2    0    0  0.00000000000E+00  0.00000000000E+00  0.14308549409E+03  0.18930648671E+04  0.18876496318E+04 0.  0.
        5    1    3    3  502    0 -0.44182792782E+03  0.73343544401E+03  0.46972550631E+03  0.97662869588E+03  0.46999998093E+01 0. -1.
       -5    1    3    3    0  502  0.44182792782E+03 -0.73343544401E+03 -0.32664001223E+03  0.91643617122E+03  0.46999998093E+01 0.  1.
</event>
<event>
 5   0  0.6909250E-05  0.2299813E+04  0.7818609E-02  0.8477995E-01
        2   -1    0    0  501    0  0.00000000000E+00  0.00000000000E+00  0.83324331278E+03  0.83324331279E+03  0.25500000920E-02 0. -1.
       -2   -1    0    0    0  501  0.00000000000E+00  0.00000000000E+00 -0.15869136917E+04  0.15869136917E+04  0.25500000920E-02 0.  1.
    10030    2    1    2    0    0  0.00000000000E+00  0.00000000000E+00 -0.75367037888E+03  0.24201570045E+04  0.22998132285E+04 0.  0.
        4    1    3    3  502    0  0.69980076920E+03 -0.47129311129E+03 -0.11990292761E+04  0.14661211175E+04  0.12699999809E+01 0.  1.
       -4    1    3    3    0  502 -0.69980076920E+03  0.47129311129E+03  0.44535889724E+03  0.95403588694E+03  0.12699999809E+01 0. -1.
</event>
<event>
 5   0  0.6827859E-05  0.2518889E+04  0.7818609E-02  0.8396287E-01
        2   -1    0    0  501    0  0.00000000000E+00  0.00000000000E+00  0.22872305307E+04  0.22872305307E+04  0.25500000920E-02 0.  1.
       -2   -1    0    0    0  501  0.00000000000E+00  0.00000000000E+00 -0.69350239597E+03  0.69350239597E+03  0.25500000920E-02 0. -1.
    10030    2    1    2    0    0  0.00000000000E+00  0.00000000000E+00  0.15937281348E+04  0.29807329267E+04  0.25188885273E+04 0.  0.
        3    1    3    3  502    0  0.89345355864E+03 -0.48773884315E+03  0.16745027460E+04  0.19596193245E+04  0.10100000352E+00 0. -1.
       -3    1    3    3    0  502 -0.89345355864E+03  0.48773884315E+03 -0.80774611198E+02  0.10211136022E+04  0.10100000352E+00 0.  1.
</event>
<event>
 5   0  0.6827859E-05  0.2443902E+04  0.7818609E-02  0.8423248E-01
       -2   -1    0    0    0  501  0.00000000000E+00  0.00000000000E+00  0.20701711065E+04  0.20701711065E+04  0.25500000920E-02 0.  1.
        2   -1    0    0  501    0  0.00000000000E+00  0.00000000000E+00 -0.72127553321E+03  0.72127553322E+03  0.25500000920E-02 0. -1.
    10030    2    1    2    0    0  0.00000000000E+00  0.00000000000E+00  0.13488955733E+04  0.27914466397E+04  0.24439016090E+04 0.  0.
        3    1    3    3  502    0 -0.47892750684E+03 -0.61943248071E+02  0.19565515380E+04  0.20152673405E+04  0.10100000352E+00 0.  1.
       -3    1    3    3    0  502  0.47892750684E+03  0.61943248071E+02 -0.60765596473E+03  0.77617929917E+03  0.10100000352E+00 0. -1.
</event>
<event>
 5   0  0.6648328E-05  0.2499954E+04  0.7818609E-02  0.8403002E-01
        2   -1    0    0  501    0  0.00000000000E+00  0.00000000000E+00  0.17202568617E+04  0.17202568617E+04  0.25500000920E-02 0. -1.
       -2   -1    0    0    0  501  0.00000000000E+00  0.00000000000E+00 -0.90826118211E+03  0.90826118212E+03  0.25500000920E-02 0.  1.
    10030    2    1    2    0    0  0.00000000000E+00  0.00000000000E+00  0.81199567958E+03  0.26285180438E+04  0.24999540242E+04 0.  0.
        2    1    3    3  502    0  0.90300140388E+03 -0.68546097365E+03 -0.14755028075E+03  0.11432582242E+04  0.25500000920E-02 0.  1.
       -2    1    3    3    0  502 -0.90300140388E+03  0.68546097365E+03  0.95954596033E+03  0.14852598196E+04  0.25500000920E-02 0. -1.
</event>
<event>
 5   0  0.6827859E-05  0.2506429E+04  0.7818609E-02  0.8400699E-01
        2   -1    0    0  501    0  0.00000000000E+00  0.00000000000E+00  0.21871295158E+04  0.21871295158E+04  0.25500000920E-02 0.  1.
       -2   -1    0    0    0  501  0.00000000000E+00  0.00000000000E+00 -0.71808574729E+03  0.71808574730E+03  0.25500000920E-02 0. -1.
    10030    2    1    2    0    0  0.00000000000E+00  0.00000000000E+00  0.14690437685E+04  0.29052152631E+04  0.25064289599E+04 0.  0.
        3    1    3    3  502    0 -0.54958278245E+03 -0.61716735894E+03  0.18265503183E+04  0.20047999549E+04  0.10100000352E+00 0.  1.
       -3    1    3    3    0  502  0.54958278245E+03  0.61716735894E+03 -0.35750654986E+03  0.90041530812E+03  0.10100000352E+00 0. -1.
</event>
<event>
 5   0  0.2980790E-05  0.2516508E+04  0.7818609E-02  0.8397128E-01
        1   -1    0    0  501    0  0.00000000000E+00  0.00000000000E+00  0.14119138146E+04  0.14119138146E+04  0.50400001928E-02 0.  1.
       -1   -1    0    0    0  501  0.00000000000E+00  0.00000000000E+00 -0.11213174322E+04  0.11213174322E+04  0.50400001928E-02 0. -1.
    10030    2    1    2    0    0  0.00000000000E+00  0.00000000000E+00  0.29059638237E+03  0.25332312468E+04  0.25165083533E+04 0.  0.
        5    1    3    3  502    0  0.82331912501E+03 -0.28918090747E+03 -0.76720312800E+03  0.11619392017E+04  0.46999998093E+01 0. -1.
       -5    1    3    3    0  502 -0.82331912501E+03  0.28918090747E+03  0.10577995104E+04  0.13712920451E+04  0.46999998093E+01 0.  1.
</event>
<event>
 5   0  0.6445331E-05  0.2473498E+04  0.7818609E-02  0.8412488E-01
        2   -1    0    0  501    0  0.00000000000E+00  0.00000000000E+00  0.15503870579E+04  0.15503870579E+04  0.25500000920E-02 0.  1.
       -2   -1    0    0    0  501  0.00000000000E+00  0.00000000000E+00 -0.98655917438E+03  0.98655917439E+03  0.25500000920E-02 0. -1.
    10030    2    1    2    0    0  0.00000000000E+00  0.00000000000E+00  0.56382788351E+03  0.25369462323E+04  0.24734983936E+04 0.  0.
        1    1    3    3  502    0 -0.51150351631E+03 -0.10309276119E+03 -0.86813528485E+03  0.10128784910E+04  0.50400001928E-02 0. -1.
       -1    1    3    3    0  502  0.51150351631E+03  0.10309276119E+03  0.14319631684E+04  0.15240677413E+04  0.50400001928E-02 0.  1.
</event>
<event>
 5   0  0.2777539E-05  0.2476591E+04  0.7818609E-02  0.8411373E-01
       -1   -1    0    0    0  501  0.00000000000E+00  0.00000000000E+00  0.18060213735E+04  0.18060213735E+04  0.50400001928E-02 0.  1.
        1   -1    0    0  501    0  0.00000000000E+00  0.00000000000E+00 -0.84903500610E+03  0.84903500612E+03  0.50400001928E-02 0. -1.
    10030    2    1    2    0    0  0.00000000000E+00  0.00000000000E+00  0.95698636741E+03  0.26550563796E+04  0.24765906952E+04 0.  0.
        3    1    3    3  502    0 -0.99109356238E+02 -0.28039808527E+03  0.17671665587E+04  0.17920165756E+04  0.10100000352E+00 0.  1.
       -3    1    3    3    0  502  0.99109356238E+02  0.28039808527E+03 -0.81018019133E+03  0.86303980403E+03  0.10100000352E+00 0. -1.
</event>
<event>
 5   0  0.6909250E-05  0.2447829E+04  0.7818609E-02  0.8421811E-01
        2   -1    0    0  501    0  0.00000000000E+00  0.00000000000E+00  0.15721711396E+04  0.15721711396E+04  0.25500000920E-02 0.  1.
       -2   -1    0    0    0  501  0.00000000000E+00  0.00000000000E+00 -0.95280168435E+03  0.95280168435E+03  0.25500000920E-02 0. -1.
    10030    2    1    2    0    0  0.00000000000E+00  0.00000000000E+00  0.61936945528E+03  0.25249728240E+04  0.24478294956E+04 0.  0.
        4    1    3    3  502    0 -0.12654456607E+03 -0.88196797370E+03  0.11752264090E+04  0.14748016000E+04  0.12699999809E+01 0.  1.
       -4    1    3    3    0  502  0.12654456607E+03  0.88196797370E+03 -0.55585695376E+03  0.10501712240E+04  0.12699999809E+01 0. -1.
</event>
<event>
 5   0  0.6909250E-05  0.2533882E+04  0.7818609E-02  0.8391014E-01
        2   -1    0    0  501    0  0.00000000000E+00  0.00000000000E+00  0.25289806003E+04  0.25289806004E+04  0.25500000920E-02 0.  1.
       -2   -1    0    0    0  501  0.00000000000E+00  0.00000000000E+00 -0.63469797856E+03  0.63469797856E+03  0.25500000920E-02 0. -1.
    10030    2    1    2    0    0  0.00000000000E+00  0.00000000000E+00  0.18942826218E+04  0.31636785789E+04  0.25338815086E+04 0.  0.
        4    1    3    3  502    0 -0.11834363325E+04 -0.17891219349E+03  0.14658627127E+04  0.18924286595E+04  0.12699999809E+01 0.  1.
       -4    1    3    3    0  502  0.11834363325E+04  0.17891219349E+03  0.42841990913E+03  0.12712499194E+04  0.12699999809E+01 0. -1.
</event>
<event>
 5   0  0.2331375E-05  0.1721044E+04  0.7818609E-02  0.8749453E-01
        3   -1    0    0  501    0  0.00000000000E+00  0.00000000000E+00  0.81950458664E+03  0.81950459287E+03  0.10100000352E+00 0.  1.
       -3   -1    0    0    0  501  0.00000000000E+00  0.00000000000E+00 -0.90359198825E+03  0.90359199390E+03  0.10100000352E+00 0. -1.
    10030    2    1    2    0    0  0.00000000000E+00  0.00000000000E+00 -0.84087401611E+02  0.17230965868E+04  0.17210436241E+04 0.  0.
        5    1    3    3  502    0  0.27853157169E+03 -0.81091600133E+03  0.30920535446E+02  0.85798762645E+03  0.46999998093E+01 0.  1.
       -5    1    3    3    0  502 -0.27853157169E+03  0.81091600133E+03 -0.11500793706E+03  0.86510896032E+03  0.46999998093E+01 0. -1.
</event>
<event>
 5   0  0.6909250E-05  0.2476424E+04  0.7818609E-02  0.8411433E-01
       -2   -1    0    0    0  501  0.00000000000E+00  0.00000000000E+00  0.14859595572E+04  0.14859595572E+04  0.25500000920E-02 0.  1.
        2   -1    0    0  501    0  0.00000000000E+00  0.00000000000E+00 -0.10317699609E+04  0.10317699610E+04  0.25500000920E-02 0. -1.
    10030    2    1    2    0    0  0.00000000000E+00  0.00000000000E+00  0.45418959621E+03  0.25177295181E+04  0.24764235779E+04 0.  0.
        4    1    3    3  502    0 -0.39655190217E+03  0.39060735106E+03  0.13515899998E+04  0.14617197591E+04  0.12699999809E+01 0.  1.
       -4    1    3    3    0  502  0.39655190217E+03 -0.39060735106E+03 -0.89740040358E+03  0.10560097590E+04  0.12699999809E+01 0. -1.
</event>
<event>
 5   0  0.6445331E-05  0.2536833E+04  0.7818609E-02  0.8389980E-01
       -2   -1    0    0    0  501  0.00000000000E+00  0.00000000000E+00  0.12247794653E+04  0.12247794653E+04  0.25500000920E-02 0.  1.
        2   -1    0    0  501    0  0.00000000000E+00  0.00000000000E+00 -0.13136080444E+04  0.13136080444E+04  0.25500000920E-02 0. -1.
    10030    2    1    2    0    0  0.00000000000E+00  0.00000000000E+00 -0.88828579157E+02  0.25383875097E+04  0.25368327956E+04 0.  0.
        1    1    3    3  502    0  0.52533800932E+03  0.97733470853E+03 -0.65937779745E+03  0.12907138476E+04  0.50400001928E-02 0. -1.
       -1    1    3    3    0  502 -0.52533800932E+03 -0.97733470853E+03  0.57054921830E+03  0.12476736621E+04  0.50400001928E-02 0.  1.
</event>
<event>
 5   0  0.2896652E-05  0.1551814E+04  0.7818609E-02  0.8850710E-01
       -1   -1    0    0    0  501  0.00000000000E+00  0.00000000000E+00  0.13632930183E+04  0.13632930183E+04  0.50400001928E-02 0. -1.
        1   -1    0    0  501    0  0.00000000000E+00  0.00000000000E+00 -0.44160130994E+03  0.44160130997E+03  0.50400001928E-02 0.  1.
    10030    2    1    2    0    0  0.00000000000E+00  0.00000000000E+00  0.92169170835E+03  0.18048943283E+04  0.15518143997E+04 0.  0.
        4    1    3    3  502    0  0.76420095488E+03  0.84936355538E+02  0.33990115756E+03  0.84068525249E+03  0.12699999809E+01 0.  1.
       -4    1    3    3    0  502 -0.76420095488E+03 -0.84936355538E+02  0.58179055079E+03  0.96420907578E+03  0.12699999809E+01 0. -1.
</event>
<event>
 5   0  0.2980790E-05  0.2635257E+04  0.7818609E-02  0.8356323E-01
        1   -1    0    0  501    0  0.00000000000E+00  0.00000000000E+00  0.21388177124E+04  0.21388177124E+04  0.50400001928E-02 0.  1.
       -1   -1    0    0    0  501  0.00000000000E+00  0.00000000000E+00 -0.81173117389E+03  0.81173117391E+03  0.50400001928E-02 0. -1.
    10030    2    1    2    0    0  0.00000000000E+00  0.00000000000E+00  0.13270865385E+04  0.29505488863E+04  0.26352571126E+04 0.  0.
        5    1    3    3  502    0  0.44573835754E+03 -0.10669148720E+04 -0.43813610084E+02  0.11571221845E+04  0.46999998093E+01 0. -1.
       -5    1    3    3    0  502 -0.44573835754E+03  0.10669148720E+04  0.13709001486E+04  0.17934267018E+04  0.46999998093E+01 0.  1.
</event>
<event>
 5   0  0.6909250E-05  0.2500176E+04  0.7818609E-02  0.8402923E-01
        2   -1    0    0  501    0  0.00000000000E+00  0.00000000000E+00  0.12844039794E+04  0.12844039794E+04  0.25500000920E-02 0.  1.
       -2   -1    0    0    0  501  0.00000000000E+00  0.00000000000E+00 -0.12166893278E+04  0.12166893278E+04  0.25500000920E-02 0. -1.
    10030    2    1    2    0    0  0.00000000000E+00  0.00000000000E+00  0.67714651620E+02  0.25010933072E+04  0.25001764853E+04 0.  0.
        4    1    3    3  502    0  0.70221261746E+03  0.19049148710E+03  0.10507582175E+04  0.12780782493E+04  0.12699999809E+01 0.  1.
       -4    1    3    3    0  502 -0.70221261746E+03 -0.19049148710E+03 -0.98304356584E+03  0.12230150580E+04  0.12699999809E+01 0. -1.
</event>
<event>
 5   0  0.6445331E-05  0.2459751E+04  0.7818609E-02  0.8417466E-01
        2   -1    0    0  501    0  0.00000000000E+00  0.00000000000E+00  0.10183979768E+04  0.10183979768E+04  0.25500000920E-02 0.  1.
       -2   -1    0    0    0  501  0.00000000000E+00  0.00000000000E+00 -0.14852680593E+04  0.14852680593E+04  0.25500000920E-02 0. -1.
    10030    2    1    2    0    0  0.00000000000E+00  0.00000000000E+00 -0.46687008248E+03  0.25036660360E+04  0.24597511960E+04 0.  0.
        1    1    3    3  502    0 -0.55312384257E+03 -0.96480396199E+03 -0.76797894956E+03  0.13515118709E+04  0.50400001928E-02 0. -1.
       -1    1    3    3    0  502  0.55312384257E+03  0.96480396199E+03  0.30110886707E+03  0.11521541651E+04  0.50400001928E-02 0.  1.
</event>
<event>
 5   0  0.6648328E-05  0.2509540E+04  0.7818609E-02  0.8399595E-01
        2   -1    0    0  501    0  0.00000000000E+00  0.00000000000E+00  0.93471429554E+03  0.93471429554E+03  0.25500000920E-02 0.  1.
       -2   -1    0    0    0  501  0.00000000000E+00  0.00000000000E+00 -0.16844156710E+04  0.16844156710E+04  0.25500000920E-02 0. -1.
    10030    2    1    2    0    0  0.00000000000E+00  0.00000000000E+00 -0.74970137544E+03  0.26191299665E+04  0.25095397246E+04 0.  0.
        2    1    3    3  502    0  0.12265775085E+04  0.25510882502E+03 -0.30198409411E+03  0.12887076046E+04  0.25500000920E-02 0. -1.
       -2    1    3    3    0  502 -0.12265775085E+04 -0.25510882502E+03 -0.44771728134E+03  0.13304223619E+04  0.25500000920E-02 0.  1.
</event>
<event>
 5   0  0.7071821E-05  0.2527947E+04  0.7818609E-02  0.8393097E-01
        2   -1    0    0  501    0  0.00000000000E+00  0.00000000000E+00  0.15236254435E+04  0.15236254435E+04  0.25500000920E-02 0.  1.
       -2   -1    0    0    0  501  0.00000000000E+00  0.00000000000E+00 -0.10485703726E+04  0.10485703727E+04  0.25500000920E-02 0. -1.
    10030    2    1    2    0    0  0.00000000000E+00  0.00000000000E+00  0.47505507086E+03  0.25721958162E+04  0.25279465968E+04 0.  0.
        5    1    3    3  502    0 -0.45172133304E+03 -0.48418474808E+03 -0.85794177455E+03  0.10837772887E+04  0.46999998093E+01 0. -1.
       -5    1    3    3    0  502  0.45172133304E+03  0.48418474808E+03  0.13329968454E+04  0.14884185275E+04  0.46999998093E+01 0.  1.
</event>
<event>
 5   0  0.6648328E-05  0.2541507E+04  0.7818609E-02  0.8388346E-01
       -2   -1    0    0    0  501  0.00000000000E+00  0.00000000000E+00  0.57806120823E+03  0.57806120823E+03  0.25500000920E-02 0.  1.
        2   -1    0    0  501    0  0.00000000000E+00  0.00000000000E+00 -0.27935002749E+04  0.27935002749E+04  0.25500000920E-02 0. -1.
    10030    2    1    2    0    0  0.00000000000E+00  0.00000000000E+00 -0.22154390667E+04  0.33715614831E+04  0.25415067532E+04 0.  0.
        2    1    3    3  502    0  0.73300926000E+03 -0.74436319618E+03 -0.14794063882E+03  0.10551140108E+04  0.25500000920E-02 0.  1.
       -2    1    3    3    0  502 -0.73300926000E+03  0.74436319618E+03 -0.20674984278E+04  0.23164474724E+04  0.25500000920E-02 0. -1.
</event>
<event>
 5   0  0.2777539E-05  0.2549664E+04  0.7818609E-02  0.8385503E-01
       -1   -1    0    0    0  501  0.00000000000E+00  0.00000000000E+00  0.80227527284E+03  0.80227527286E+03  0.50400001928E-02 0.  1.
        1   -1    0    0  501    0  0.00000000000E+00  0.00000000000E+00 -0.20257337713E+04  0.20257337713E+04  0.50400001928E-02 0. -1.
    10030    2    1    2    0    0  0.00000000000E+00  0.00000000000E+00 -0.12234584985E+04  0.28280090442E+04  0.25496635967E+04 0.  0.
        3    1    3    3  502    0  0.12662579354E+04  0.13942117513E+03 -0.55797535564E+03  0.13907494133E+04  0.10100000352E+00 0.  1.
       -3    1    3    3    0  502 -0.12662579354E+04 -0.13942117513E+03 -0.66548314283E+03  0.14372596309E+04  0.10100000352E+00 0. -1.
</event>
<event>
 5   0  0.6445331E-05  0.2485483E+04  0.7818609E-02  0.8408175E-01
       -2   -1    0    0    0  501  0.00000000000E+00  0.00000000000E+00  0.75221462090E+03  0.75221462090E+03  0.25500000920E-02 0. -1.
        2   -1    0    0  501    0  0.00000000000E+00  0.00000000000E+00 -0.20531464758E+04  0.20531464758E+04  0.25500000920E-02 0.  1.
    10030    2    1    2    0    0  0.00000000000E+00  0.00000000000E+00 -0.13009318549E+04  0.28053610967E+04  0.24854832914E+04 0.  0.
        1    1    3    3  502    0 -0.11809684748E+04 -0.15922967384E+03 -0.10485080678E+04  0.15872648789E+04  0.50400001928E-02 0.  1.
       -1    1    3    3    0  502  0.11809684748E+04  0.15922967384E+03 -0.25242378712E+03  0.12180962178E+04  0.50400001928E-02 0. -1.
</event>
<event>
 5   0  0.2793920E-05  0.2490157E+04  0.7818609E-02  0.8406501E-01
       -1   -1    0    0    0  501  0.00000000000E+00  0.00000000000E+00  0.19435380687E+04  0.19435380688E+04  0.50400001928E-02 0.  1.
        1   -1    0    0  501    0  0.00000000000E+00  0.00000000000E+00 -0.79762791577E+03  0.79762791579E+03  0.50400001928E-02 0. -1.
    10030    2    1    2    0    0  0.00000000000E+00  0.00000000000E+00  0.11459101530E+04  0.27411659845E+04  0.24901567975E+04 0.  0.
        2    1    3    3  502    0  0.12308849907E+04  0.10282427708E+03  0.74550192628E+03  0.14427140446E+04  0.25500000920E-02 0.  1.
       -2    1    3    3    0  502 -0.12308849907E+04 -0.10282427708E+03  0.40040822670E+03  0.12984519400E+04  0.25500000920E-02 0. -1.
</event>
<event>
 5   0  0.2896652E-05  0.2439560E+04  0.7818609E-02  0.8424840E-01
        1   -1    0    0  501    0  0.00000000000E+00  0.00000000000E+00  0.13852320687E+04  0.13852320687E+04  0.50400001928E-02 0. -1.
       -1   -1    0    0    0  501  0.00000000000E+00  0.00000000000E+00 -0.10740898415E+04  0.10740898416E+04  0.50400001928E-02 0.  1.
    10030    2    1    2    0    0  0.00000000000E+00  0.00000000000E+00  0.31114222718E+03  0.24593219103E+04  0.24395603647E+04 0.  0.
        4    1    3    3  502    0 -0.28520706359E+03  0.99259959697E+02 -0.10358084989E+04  0.10789330230E+04  0.12699999809E+01 0.  1.
       -4    1    3    3    0  502  0.28520706359E+03 -0.99259959697E+02  0.13469507261E+04  0.13803888873E+04  0.12699999809E+01 0. -1.
</event>
<event>
 5   0  0.6827859E-05  0.2487044E+04  0.7818609E-02  0.8407616E-01
        2   -1    0    0  501    0  0.00000000000E+00  0.00000000000E+00  0.24496470313E+04  0.24496470313E+04  0.25500000920E-02 0.  1.
       -2   -1    0    0    0  501  0.00000000000E+00  0.00000000000E+00 -0.63125304820E+03  0.63125304821E+03  0.25500000920E-02 0. -1.
    10030    2    1    2    0    0  0.00000000000E+00  0.00000000000E+00  0.18183939831E+04  0.30809000795E+04  0.24870441536E+04 0.  0.
        3    1    3    3  502    0  0.56765602190E+03  0.10685349143E+04  0.12646791479E+04  0.17502610033E+04  0.10100000352E+00 0.  1.
       -3    1    3    3    0  502 -0.56765602190E+03 -0.10685349143E+04  0.55371483516E+03  0.13306390762E+04  0.10100000352E+00 0. -1.
</event>
<event>
 5   0  0.7071821E-05  0.2456084E+04  0.7818609E-02  0.8418800E-01
       -2   -1    0    0    0  501  0.00000000000E+00  0.00000000000E+00  0.67735727822E+03  0.67735727822E+03  0.25500000920E-02 0.  1.
        2   -1    0    0  501    0  0.00000000000E+00  0.00000000000E+00 -0.22264284841E+04  0.22264284841E+04  0.25500000920E-02 0. -1.
    10030    2    1    2    0    0  0.00000000000E+00  0.00000000000E+00 -0.15490712059E+04  0.29037857623E+04  0.24560843130E+04 0.  0.
        5    1    3    3  502    0  0.88582240273E+03  0.74062112734E+03 -0.28014286638E+03  0.11881511263E+04  0.46999998093E+01 0.  1.
       -5    1    3    3    0  502 -0.88582240273E+03 -0.74062112734E+03 -0.12689283395E+04  0.17156346360E+04  0.46999998093E+01 0. -1.
</event>
<event>
 5   0  0.7071821E-05  0.2495008E+04  0.7818609E-02  0.8404766E-01
        2   -1    0    0  501    0  0.00000000000E+00  0.00000000000E+00  0.15020385191E+04  0.15020385191E+04  0.25500000920E-02 0.  1.
       -2   -1    0    0    0  501  0.00000000000E+00  0.00000000000E+00 -0.10361028199E+04  0.10361028199E+04  0.25500000920E-02 0. -1.
    10030    2    1    2    0    0  0.00000000000E+00  0.00000000000E+00  0.46593569923E+03  0.25381413389E+04  0.24950080923E+04 0.  0.
        5    1    3    3  502    0 -0.11207570271E+04 -0.50822187349E+03  0.44109824644E+03  0.13072779121E+04  0.46999998093E+01 0.  1.
       -5    1    3    3    0  502  0.11207570271E+04  0.50822187349E+03  0.24837452787E+02  0.12308634268E+04  0.46999998093E+01 0. -1.
</event>
<event>
 5   0  0.6445331E-05  0.2590205E+04  0.7818609E-02  0.8371536E-01
       -2   -1    0    0    0  501  0.00000000000E+00  0.00000000000E+00  0.16786386353E+04  0.16786386353E+04  0.25500000920E-02 0. -1.
        2   -1    0    0  501    0  0.00000000000E+00  0.00000000000E+00 -0.99919655313E+03  0.99919655314E+03  0.25500000920E-02 0.  1.
    10030    2    1    2    0    0  0.00000000000E+00  0.00000000000E+00  0.67944208219E+03  0.26778351885E+04  0.25902045775E+04 0.  0.
        1    1    3    3  502    0 -0.26201616370E+03 -0.10232572765E+04  0.11144617431E+04  0.15354910944E+04  0.50400001928E-02 0. -1.
       -1    1    3    3    0  502  0.26201616370E+03  0.10232572765E+04 -0.43501966095E+03  0.11423440941E+04  0.50400001928E-02 0.  1.
</event>
<event>
 5   0  0.2896652E-05  0.2437055E+04  0.7818609E-02  0.8425760E-01
        1   -1    0    0  501    0  0.00000000000E+00  0.00000000000E+00  0.13501931713E+04  0.13501931713E+04  0.50400001928E-02 0.  1.
       -1   -1    0    0    0  501  0.00000000000E+00  0.00000000000E+00 -0.10997012155E+04  0.10997012155E+04  0.50400001928E-02 0. -1.
    10030    2    1    2    0    0  0.00000000000E+00  0.00000000000E+00  0.25049195578E+03  0.24498943868E+04  0.24370548387E+04 0.  0.
        4    1    3    3  502    0  0.10177261944E+04 -0.29174078610E+03  0.73168884891E+03  0.12869535646E+04  0.12699999809E+01 0.  1.
       -4    1    3    3    0  502 -0.10177261944E+04  0.29174078610E+03 -0.48119689313E+03  0.11629408222E+04  0.12699999809E+01 0. -1.
</event>
<event>
 5   0  0.2331375E-05  0.2443818E+04  0.7818609E-02  0.8423279E-01
        3   -1    0    0  501    0  0.00000000000E+00  0.00000000000E+00  0.15103723538E+04  0.15103723571E+04  0.10100000352E+00 0. -1.
       -3   -1    0    0    0  501  0.00000000000E+00  0.00000000000E+00 -0.98853850905E+03  0.98853851421E+03  0.10100000352E+00 0.  1.
    10030    2    1    2    0    0  0.00000000000E+00  0.00000000000E+00  0.52183384472E+03  0.24989108714E+04  0.24438177063E+04 0.  0.
        2    1    3    3  502    0 -0.40094750038E+03  0.66980544434E+03 -0.70030861026E+03  0.10487279823E+04  0.25500000920E-02 0.  1.
       -2    1    3    3    0  502  0.40094750038E+03 -0.66980544434E+03  0.12221424550E+04  0.14501828890E+04  0.25500000920E-02 0. -1.
</event>
<event>
 5   0  0.7071821E-05  0.2498210E+04  0.7818609E-02  0.8403623E-01
       -2   -1    0    0    0  501  0.00000000000E+00  0.00000000000E+00  0.92788899683E+03  0.92788899683E+03  0.25500000920E-02 0.  1.
        2   -1    0    0  501    0  0.00000000000E+00  0.00000000000E+00 -0.16815196055E+04  0.16815196055E+04  0.25500000920E-02 0. -1.
    10030    2    1    2    0    0  0.00000000000E+00  0.00000000000E+00 -0.75363060864E+03  0.26094086023E+04  0.24982101912E+04 0.  0.
        5    1    3    3  502    0  0.40618815828E+02 -0.12139280811E+04 -0.68128661159E+03  0.13926395124E+04  0.46999998093E+01 0. -1.
       -5    1    3    3    0  502 -0.40618815828E+02  0.12139280811E+04 -0.72343997057E+02  0.12167690899E+04  0.46999998093E+01 0.  1.
</event>
<event>
 5   0  0.6648328E-05  0.2487578E+04  0.7818609E-02  0.8407424E-01
       -2   -1    0    0    0  501  0.00000000000E+00  0.00000000000E+00  0.27060217573E+04  0.27060217573E+04  0.25500000920E-02 0.  1.
        2   -1    0    0  501    0  0.00000000000E+00  0.00000000000E+00 -0.57169223441E+03  0.57169223442E+03  0.25500000920E-02 0. -1.
    10030    2    1    2    0    0  0.00000000000E+00  0.00000000000E+00  0.21343295228E+04  0.32777139917E+04  0.24875784408E+04 0.  0.
        2    1    3    3  502    0 -0.47339118935E+03 -0.47767030838E+03  0.24458034283E+04  0.25365769359E+04  0.25500000920E-02 0.  1.
       -2    1    3    3    0  502  0.47339118935E+03  0.47767030838E+03 -0.31147390549E+03  0.74113705579E+03  0.25500000920E-02 0. -1.
</event>
<event>
 5   0  0.6827859E-05  0.1706091E+04  0.7818609E-02  0.8757898E-01
       -2   -1    0    0    0  501  0.00000000000E+00  0.00000000000E+00  0.44041112299E+03  0.44041112300E+03  0.25500000920E-02 0. -1.
        2   -1    0    0  501    0  0.00000000000E+00  0.00000000000E+00 -0.16522890425E+04  0.16522890425E+04  0.25500000920E-02 0.  1.
    10030    2    1    2    0    0  0.00000000000E+00  0.00000000000E+00 -0.12118779195E+04  0.20927001655E+04  0.17060908214E+04 0.  0.
        3    1    3    3  502    0 -0.84006706298E+03 -0.14625715857E+03 -0.57633134423E+03  0.10292043797E+04  0.10100000352E+00 0. -1.
       -3    1    3    3    0  502  0.84006706298E+03  0.14625715857E+03 -0.63554657525E+03  0.10634957857E+04  0.10100000352E+00 0.  1.
</event>
<event>
 5   0  0.2977854E-05  0.2513727E+04  0.7818609E-02  0.8398111E-01
        1   -1    0    0  501    0  0.00000000000E+00  0.00000000000E+00  0.12119515375E+04  0.12119515375E+04  0.50400001928E-02 0.  1.
       -1   -1    0    0    0  501  0.00000000000E+00  0.00000000000E+00 -0.13034400302E+04  0.13034400302E+04  0.50400001928E-02 0. -1.
    10030    2    1    2    0    0  0.00000000000E+00  0.00000000000E+00 -0.91488492734E+02  0.25153915677E+04  0.25137272315E+04 0.  0.
        1    1    3    3  502    0  0.30610249779E+03 -0.73013873076E+03  0.93107052400E+03  0.12221675933E+04  0.50400001928E-02 0.  1.
       -1    1    3    3    0  502 -0.30610249779E+03  0.73013873076E+03 -0.10225590167E+04  0.12932239744E+04  0.50400001928E-02 0. -1.
</event>
<event>
 5   0  0.6827859E-05  0.2559328E+04  0.7818609E-02  0.8382149E-01
        2   -1    0    0  501    0  0.00000000000E+00  0.00000000000E+00  0.94629748757E+03  0.94629748758E+03  0.25500000920E-02 0. -1.
       -2   -1    0    0    0  501  0.00000000000E+00  0.00000000000E+00 -0.17304707343E+04  0.17304707343E+04  0.25500000920E-02 0.  1.
    10030    2    1    2    0    0  0.00000000000E+00  0.00000000000E+00 -0.78417324677E+03  0.26767682219E+04  0.25593281214E+04 0.  0.
        3    1    3    3  502    0 -0.71464680750E+02  0.11547966792E+04 -0.96386987454E+03  0.15058910041E+04  0.10100000352E+00 0.  1.
       -3    1    3    3    0  502  0.71464680750E+02 -0.11547966792E+04  0.17969662777E+03  0.11708772178E+04  0.10100000352E+00 0. -1.
</event>
<event>
 5   0  0.7071821E-05  0.2496581E+04  0.7818609E-02  0.8404204E-01
       -2   -1    0    0    0  501  0.00000000000E+00  0.00000000000E+00  0.13615756736E+04  0.13615756736E+04  0.25500000920E-02 0.  1.
        2   -1    0    0  501    0  0.00000000000E+00  0.00000000000E+00 -0.11444310632E+04  0.11444310632E+04  0.25500000920E-02 0. -1.
    10030    2    1    2    0    0  0.00000000000E+00  0.00000000000E+00  0.21714461043E+03  0.25060067367E+04  0.24965812590E+04 0.  0.
        5    1    3    3  502    0  0.90461386962E+03  0.74635489335E+03  0.53777932914E+03  0.12901940074E+04  0.46999998093E+01 0.  1.
       -5    1    3    3    0  502 -0.90461386962E+03 -0.74635489335E+03 -0.32063471871E+03  0.12158127293E+04  0.46999998093E+01 0. -1.
</event>
<event>
 5   0  0.2977854E-05  0.2432643E+04  0.7818609E-02  0.8427383E-01
        1   -1    0    0  501    0  0.00000000000E+00  0.00000000000E+00  0.17640723757E+04  0.17640723757E+04  0.50400001928E-02 0.  1.
       -1   -1    0    0    0  501  0.00000000000E+00  0.00000000000E+00 -0.83864935155E+03  0.83864935157E+03  0.50400001928E-02 0. -1.
    10030    2    1    2    0    0  0.00000000000E+00  0.00000000000E+00  0.92542302413E+03  0.26027217273E+04  0.24326431337E+04 0.  0.
        1    1    3    3  502    0  0.21335921439E+03  0.42472040938E+03 -0.73517714746E+03  0.87543990010E+03  0.50400001928E-02 0. -1.
       -1    1    3    3    0  502 -0.21335921439E+03 -0.42472040938E+03  0.16606001716E+04  0.17272818272E+04  0.50400001928E-02 0.  1.
</event>
<event>
 5   0  0.2793920E-05  0.2485286E+04  0.7818609E-02  0.8408246E-01
        1   -1    0    0  501    0  0.00000000000E+00  0.00000000000E+00  0.21924218972E+04  0.21924218972E+04  0.50400001928E-02 0.  1.
       -1   -1    0    0    0  501  0.00000000000E+00  0.00000000000E+00 -0.70431749556E+03  0.70431749557E+03  0.50400001928E-02 0. -1.
    10030    2    1    2    0    0  0.00000000000E+00  0.00000000000E+00  0.14881044017E+04  0.28967393928E+04  0.24852855771E+04 0.  0.
        2    1    3    3  502    0 -0.12754970182E+03  0.11446827708E+04  0.20035623271E+03  0.11690638102E+04  0.25500000920E-02 0. -1.
       -2    1    3    3    0  502  0.12754970182E+03 -0.11446827708E+04  0.12877481690E+04  0.17276755827E+04  0.25500000920E-02 0.  1.
</event>
<event>
 5   0  0.6909250E-05  0.2503811E+04  0.7818609E-02  0.8401629E-01
        2   -1    0    0  501    0  0.00000000000E+00  0.00000000000E+00  0.14573422223E+04  0.14573422223E+04  0.25500000920E-02 0. -1.
       -2   -1    0    0    0  501  0.00000000000E+00  0.00000000000E+00 -0.10754281055E+04  0.10754281055E+04  0.25500000920E-02 0.  1.
    10030    2    1    2    0    0  0.00000000000E+00  0.00000000000E+00  0.38191411685E+03  0.25327703278E+04  0.25038105241E+04 0.  0.
        4    1    3    3  502    0 -0.16863562299E+03  0.12323828540E+04  0.47686627144E+02  0.12447815469E+04  0.12699999809E+01 0.  1.
       -4    1    3    3    0  502  0.16863562299E+03 -0.12323828540E+04  0.33422748970E+03  0.12879887810E+04  0.12699999809E+01 0. -1.
</event>
<event>
 5   0  0.6909250E-05  0.2354446E+04  0.7818609E-02  0.8456758E-01
        2   -1    0    0  501    0  0.00000000000E+00  0.00000000000E+00  0.12686391942E+04  0.12686391942E+04  0.25500000920E-02 0. -1.
       -2   -1    0    0    0  501  0.00000000000E+00  0.00000000000E+00 -0.10923938454E+04  0.10923938454E+04  0.25500000920E-02 0.  1.
    10030    2    1    2    0    0  0.00000000000E+00  0.00000000000E+00  0.17624534883E+03  0.23610330396E+04  0.23544457078E+04 0.  0.
        4    1    3    3  502    0  0.10472852007E+04 -0.14451337188E+03  0.60741475741E+03  0.12192804052E+04  0.12699999809E+01 0. -1.
       -4    1    3    3    0  502 -0.10472852007E+04  0.14451337188E+03 -0.43116940858E+03  0.11417526343E+04  0.12699999809E+01 0.  1.
</event>
<event>
 5   0  0.6648328E-05  0.2468604E+04  0.7818609E-02  0.8414257E-01
       -2   -1    0    0    0  501  0.00000000000E+00  0.00000000000E+00  0.10772038663E+04  0.10772038663E+04  0.25500000920E-02 0. -1.
        2   -1    0    0  501    0  0.00000000000E+00  0.00000000000E+00 -0.14143106840E+04  0.14143106840E+04  0.25500000920E-02 0.  1.
    10030    2    1    2    0    0  0.00000000000E+00  0.00000000000E+00 -0.33710681772E+03  0.24915145504E+04  0.24686036029E+04 0.  0.
        2    1    3    3  502    0  0.86195560949E+03  0.65983438478E+03 -0.76150234912E+03  0.13259844327E+04  0.25500000920E-02 0.  1.
       -2    1    3    3    0  502 -0.86195560949E+03 -0.65983438478E+03  0.42439553140E+03  0.11655301177E+04  0.25500000920E-02 0. -1.
</event>
<event>
 5   0  0.6445331E-05  0.2264734E+04  0.7818609E-02  0.8491957E-01
        2   -1    0    0  501    0  0.00000000000E+00  0.00000000000E+00  0.20522227126E+04  0.20522227126E+04  0.25500000920E-02 0.  1.
       -2   -1    0    0    0  501  0.00000000000E+00  0.00000000000E+00 -0.62481284415E+03  0.62481284416E+03  0.25500000920E-02 0. -1.
    10030    2    1    2    0    0  0.00000000000E+00  0.00000000000E+00  0.14274098684E+04  0.26770355567E+04  0.22647340770E+04 0.  0.
        1    1    3    3  502    0 -0.65680287685E+03 -0.32158499304E+03 -0.30823994061E+03  0.79361123215E+03  0.50400001928E-02 0. -1.
       -1    1    3    3    0  502  0.65680287685E+03  0.32158499304E+03  0.17356498090E+04  0.18834243246E+04  0.50400001928E-02 0.  1.
</event>
<event>
 5   0  0.6909250E-05  0.2552503E+04  0.7818609E-02  0.8384516E-01
        2   -1    0    0  501    0  0.00000000000E+00  0.00000000000E+00  0.19923069162E+04  0.19923069162E+04  0.25500000920E-02 0. -1.
       -2   -1    0    0    0  501  0.00000000000E+00  0.00000000000E+00 -0.81755398462E+03  0.81755398462E+03  0.25500000920E-02 0.  1.
    10030    2    1    2    0    0  0.00000000000E+00  0.00000000000E+00  0.11747529316E+04  0.28098609008E+04  0.25525034440E+04 0.  0.
        4    1    3    3  502    0  0.74388265958E+03  0.10344515077E+04  0.50674137652E+03  0.13712183519E+04  0.12699999809E+01 0.  1.
       -4    1    3    3    0  502 -0.74388265958E+03 -0.10344515077E+04  0.66801155509E+03  0.14386425489E+04  0.12699999809E+01 0. -1.
</event>
<event>
 5   0  0.6827859E-05  0.2300375E+04  0.7818609E-02  0.8477773E-01
        2   -1    0    0  501    0  0.00000000000E+00  0.00000000000E+00  0.17936681725E+04  0.17936681725E+04  0.25500000920E-02 0.  1.
       -2   -1    0    0    0  501  0.00000000000E+00  0.00000000000E+00 -0.73755661684E+03  0.73755661684E+03  0.25500000920E-02 0. -1.
    10030    2    1    2    0    0  0.00000000000E+00  0.00000000000E+00  0.10561115556E+04  0.25312247893E+04  0.23003754729E+04 0.  0.
        3    1    3    3  502    0 -0.55787747071E+03  0.19533533829E+02 -0.57850921331E+03  0.80391650770E+03  0.10100000352E+00 0. -1.
       -3    1    3    3    0  502  0.55787747071E+03 -0.19533533829E+02  0.16346207690E+04  0.17273082816E+04  0.10100000352E+00 0.  1.
</event>
<event>
 5   0  0.2777539E-05  0.2450168E+04  0.7818609E-02  0.8420957E-01
        1   -1    0    0  501    0  0.00000000000E+00  0.00000000000E+00  0.13366716982E+04  0.13366716982E+04  0.50400001928E-02 0.  1.
       -1   -1    0    0    0  501  0.00000000000E+00  0.00000000000E+00 -0.11228114571E+04  0.11228114571E+04  0.50400001928E-02 0. -1.
    10030    2    1    2    0    0  0.00000000000E+00  0.00000000000E+00  0.21386024105E+03  0.24594831553E+04  0.24501675838E+04 0.  0.
        3    1    3    3  502    0 -0.86639591325E+02 -0.10134113468E+04 -0.57854341768E+03  0.11701373735E+04  0.10100000352E+00 0. -1.
       -3    1    3    3    0  502  0.86639591325E+02  0.10134113468E+04  0.79240365873E+03  0.12893457818E+04  0.10100000352E+00 0.  1.
</event>
<event>
 5   0  0.2777539E-05  0.2556440E+04  0.7818609E-02  0.8383150E-01
       -1   -1    0    0    0  501  0.00000000000E+00  0.00000000000E+00  0.11854652020E+04  0.11854652020E+04  0.50400001928E-02 0. -1.
        1   -1    0    0  501    0  0.00000000000E+00  0.00000000000E+00 -0.13782324451E+04  0.13782324451E+04  0.50400001928E-02 0.  1.
    10030    2    1    2    0    0  0.00000000000E+00  0.00000000000E+00 -0.19276724309E+03  0.25636976472E+04  0.25564401843E+04 0.  0.
        3    1    3    3  502    0  0.30990557085E+03 -0.72450878793E+03  0.91289894414E+03  0.12059597585E+04  0.10100000352E+00 0. -1.
       -3    1    3    3    0  502 -0.30990557085E+03  0.72450878793E+03 -0.11056661872E+04  0.13577378887E+04  0.10100000352E+00 0.  1.
</event>
<event>
 5   0  0.2896652E-05  0.2473785E+04  0.7818609E-02  0.8412385E-01
        1   -1    0    0  501    0  0.00000000000E+00  0.00000000000E+00  0.98745945326E+03  0.98745945327E+03  0.50400001928E-02 0.  1.
       -1   -1    0    0    0  501  0.00000000000E+00  0.00000000000E+00 -0.15493326705E+04  0.15493326705E+04  0.50400001928E-02 0. -1.
    10030    2    1    2    0    0  0.00000000000E+00  0.00000000000E+00 -0.56187321723E+03  0.25367921238E+04  0.24737851093E+04 0.  0.
        4    1    3    3  502    0 -0.11989596087E+04  0.27039084051E+03 -0.42334860279E+03  0.12999388456E+04  0.12699999809E+01 0. -1.
       -4    1    3    3    0  502  0.11989596087E+04 -0.27039084051E+03 -0.13852461445E+03  0.12368532782E+04  0.12699999809E+01 0.  1.
</event>
<event>
 5   0  0.2977854E-05  0.2456278E+04  0.7818609E-02  0.8418729E-01
       -1   -1    0    0    0  501  0.00000000000E+00  0.00000000000E+00  0.16614330688E+04  0.16614330689E+04  0.50400001928E-02 0. -1.
        1   -1    0    0  501    0  0.00000000000E+00  0.00000000000E+00 -0.90784586829E+03  0.90784586830E+03  0.50400001928E-02 0.  1.
    10030    2    1    2    0    0  0.00000000000E+00  0.00000000000E+00  0.75358720056E+03  0.25692789372E+04  0.24562777913E+04 0.  0.
        1    1    3    3  502    0  0.24528153062E+03 -0.11909187811E+04  0.55758786114E+03  0.13376676700E+04  0.50400001928E-02 0.  1.
       -1    1    3    3    0  502 -0.24528153062E+03  0.11909187811E+04  0.19599933942E+03  0.12316112672E+04  0.50400001928E-02 0. -1.
</event>
<event>
 5   0  0.6445331E-05  0.2493936E+04  0.7818609E-02  0.8405149E-01
        2   -1    0    0  501    0  0.00000000000E+00  0.00000000000E+00  0.29269016073E+04  0.29269016073E+04  0.25500000920E-02 0.  1.
       -2   -1    0    0    0  501  0.00000000000E+00  0.00000000000E+00 -0.53125454459E+03  0.53125454460E+03  0.25500000920E-02 0. -1.
    10030    2    1    2    0    0  0.00000000000E+00  0.00000000000E+00  0.23956470627E+04  0.34581561519E+04  0.24939364711E+04 0.  0.
        1    1    3    3  502    0 -0.11993194027E+04 -0.21255328217E+02  0.16703170162E+04  0.20563992204E+04  0.50400001928E-02 0.  1.
       -1    1    3    3    0  502  0.11993194027E+04  0.21255328217E+02  0.72533004647E+03  0.14017569315E+04  0.50400001928E-02 0. -1.
</event>
<event>
 5   0  0.6909250E-05  0.2341082E+04  0.7818609E-02  0.8461897E-01
       -2   -1    0    0    0  501  0.00000000000E+00  0.00000000000E+00  0.10007236404E+04  0.10007236405E+04  0.25500000920E-02 0.  1.
        2   -1    0    0  501    0  0.00000000000E+00  0.00000000000E+00 -0.13691751817E+04  0.13691751817E+04  0.25500000920E-02 0. -1.
    10030    2    1    2    0    0  0.00000000000E+00  0.00000000000E+00 -0.36845154129E+03  0.23698988222E+04  0.23410817775E+04 0.  0.
        4    1    3    3  502    0 -0.42712366212E+03 -0.35352783144E+03 -0.12278119760E+04  0.13471972430E+04  0.12699999809E+01 0. -1.
       -4    1    3    3    0  502  0.42712366212E+03  0.35352783144E+03  0.85936043471E+03  0.10227015792E+04  0.12699999809E+01 0.  1.
</event>
<event>
 5   0  0.6648328E-05  0.2479796E+04  0.7818609E-02  0.8410219E-01
       -2   -1    0    0    0  501  0.00000000000E+00  0.00000000000E+00  0.98958704047E+03  0.98958704047E+03  0.25500000920E-02 0.  1.
        2   -1    0    0  501    0  0.00000000000E+00  0.00000000000E+00 -0.15535239432E+04  0.15535239432E+04  0.25500000920E-02 0. -1.
    10030    2    1    2    0    0  0.00000000000E+00  0.00000000000E+00 -0.56393690273E+03  0.25431109837E+04  0.24797960894E+04 0.  0.
        2    1    3    3  502    0 -0.49661802056E+03  0.37043050543E+03 -0.13834010941E+04  0.15157990648E+04  0.25500000920E-02 0. -1.
       -2    1    3    3    0  502  0.49661802056E+03 -0.37043050543E+03  0.81946419137E+03  0.10273119189E+04  0.25500000920E-02 0.  1.
</event>
<event>
 5   0  0.2980790E-05  0.2444502E+04  0.7818609E-02  0.8423028E-01
        1   -1    0    0  501    0  0.00000000000E+00  0.00000000000E+00  0.17145467638E+04  0.17145467638E+04  0.50400001928E-02 0.  1.
       -1   -1    0    0    0  501  0.00000000000E+00  0.00000000000E+00 -0.87130760686E+03  0.87130760687E+03  0.50400001928E-02 0. -1.
    10030    2    1    2    0    0  0.00000000000E+00  0.00000000000E+00  0.84323915698E+03  0.25858543707E+04  0.24445021069E+04 0.  0.
        5    1    3    3  502    0  0.94803975512E+03  0.48410437489E+03  0.10569655351E+04  0.15001115477E+04  0.46999998093E+01 0.  1.
       -5    1    3    3    0  502 -0.94803975512E+03 -0.48410437489E+03 -0.21372637813E+03  0.10857428230E+04  0.46999998093E+01 0. -1.
</event>
<event>
 5   0  0.2777539E-05  0.2393457E+04  0.7818609E-02  0.8441957E-01
       -1   -1    0    0    0  501  0.00000000000E+00  0.00000000000E+00  0.10916353016E+04  0.10916353017E+04  0.50400001928E-02 0.  1.
        1   -1    0    0  501    0  0.00000000000E+00  0.00000000000E+00 -0.13119388241E+04  0.13119388241E+04  0.50400001928E-02 0. -1.
    10030    2    1    2    0    0  0.00000000000E+00  0.00000000000E+00 -0.22030352248E+03  0.24035741258E+04  0.23934566919E+04 0.  0.
        3    1    3    3  502    0 -0.80974956634E+03  0.86008188956E+03 -0.30259560399E+03  0.12194258184E+04  0.10100000352E+00 0. -1.
       -3    1    3    3    0  502  0.80974956634E+03 -0.86008188956E+03  0.82292081502E+02  0.11841483074E+04  0.10100000352E+00 0.  1.
</event>
<event>
 5   0  0.6445331E-05  0.2576905E+04  0.7818609E-02  0.8376089E-01
       -2   -1    0    0    0  501  0.00000000000E+00  0.00000000000E+00  0.14373560844E+04  0.14373560844E+04  0.25500000920E-02 0.  1.
        2   -1    0    0  501    0  0.00000000000E+00  0.00000000000E+00 -0.11549748135E+04  0.11549748135E+04  0.25500000920E-02 0. -1.
    10030    2    1    2    0    0  0.00000000000E+00  0.00000000000E+00  0.28238127093E+03  0.25923308979E+04  0.25769051791E+04 0.  0.
        1    1    3    3  502    0  0.89090184266E+03  0.92631399468E+03  0.23309596520E+03  0.13061766492E+04  0.50400001928E-02 0.  1.
       -1    1    3    3    0  502 -0.89090184266E+03 -0.92631399468E+03  0.49285305727E+02  0.12861542487E+04  0.50400001928E-02 0. -1.
</event>
<event>
 5   0  0.2896652E-05  0.2718854E+04  0.7818609E-02  0.8328913E-01
        1   -1    0    0  501    0  0.00000000000E+00  0.00000000000E+00  0.17094454472E+04  0.17094454472E+04  0.50400001928E-02 0. -1.
       -1   -1    0    0    0  501  0.00000000000E+00  0.00000000000E+00 -0.10810765310E+04  0.10810765310E+04  0.50400001928E-02 0.  1.
    10030    2    1    2    0    0  0.00000000000E+00  0.00000000000E+00  0.62836891619E+03  0.27905219783E+04  0.27188536953E+04 0.  0.
        4    1    3    3  502    0 -0.70994902300E+03 -0.91621641371E+03  0.10432319997E+04  0.15594276996E+04  0.12699999809E+01 0. -1.
       -4    1    3    3    0  502  0.70994902300E+03  0.91621641371E+03 -0.41486308355E+03  0.12310942787E+04  0.12699999809E+01 0.  1.
</event>
<event>
 5   0  0.2777539E-05  0.2390428E+04  0.7818609E-02  0.8443096E-01
        1   -1    0    0  501    0  0.00000000000E+00  0.00000000000E+00  0.12169927271E+04  0.12169927271E+04  0.50400001928E-02 0. -1.
       -1   -1    0    0    0  501  0.00000000000E+00  0.00000000000E+00 -0.11738254512E+04  0.11738254512E+04  0.50400001928E-02 0.  1.
    10030    2    1    2    0    0  0.00000000000E+00  0.00000000000E+00  0.43167275883E+02  0.23908181782E+04  0.23904284444E+04 0.  0.
        3    1    3    3  502    0 -0.13783749858E+03 -0.71304414724E+02 -0.11637060021E+04  0.11740081623E+04  0.10100000352E+00 0.  1.
       -3    1    3    3    0  502  0.13783749858E+03  0.71304414724E+02  0.12068732780E+04  0.12168100159E+04  0.10100000352E+00 0. -1.
</event>
<event>
 5   0  0.2977854E-05  0.2098398E+04  0.7818609E-02  0.8561949E-01
        1   -1    0    0  501    0  0.00000000000E+00  0.00000000000E+00  0.10883749080E+04  0.10883749080E+04  0.50400001928E-02 0.  1.
       -1   -1    0    0    0  501  0.00000000000E+00  0.00000000000E+00 -0.10114333677E+04  0.10114333677E+04  0.50400001928E-02 0. -1.
    10030    2    1    2    0    0  0.00000000000E+00  0.00000000000E+00  0.76941540298E+02  0.20998082756E+04  0.20983981495E+04 0.  0.
        1    1    3    3  502    0 -0.24582355868E+03  0.83511181994E+03 -0.54756578365E+03  0.10284304844E+04  0.50400001928E-02 0.  1.
       -1    1    3    3    0  502  0.24582355868E+03 -0.83511181994E+03  0.62450732395E+03  0.10713777912E+04  0.50400001928E-02 0. -1.
</event>
<event>
 5   0  0.2980790E-05  0.2497799E+04  0.7818609E-02  0.8403770E-01
       -1   -1    0    0    0  501  0.00000000000E+00  0.00000000000E+00  0.86728098750E+03  0.86728098751E+03  0.50400001928E-02 0. -1.
        1   -1    0    0  501    0  0.00000000000E+00  0.00000000000E+00 -0.17984363639E+04  0.17984363639E+04  0.50400001928E-02 0.  1.
    10030    2    1    2    0    0  0.00000000000E+00  0.00000000000E+00 -0.93115537641E+03  0.26657173514E+04  0.24977987634E+04 0.  0.
        5    1    3    3  502    0  0.29970961736E+03 -0.96294025463E+03  0.32059086982E+03  0.10582440099E+04  0.46999998093E+01 0.  1.
       -5    1    3    3    0  502 -0.29970961736E+03  0.96294025463E+03 -0.12517462462E+04  0.16074733415E+04  0.46999998093E+01 0. -1.
</event>
<event>
 5   0  0.2777539E-05  0.2521566E+04  0.7818609E-02  0.8395343E-01
       -1   -1    0    0    0  501  0.00000000000E+00  0.00000000000E+00  0.14145348677E+04  0.14145348677E+04  0.50400001928E-02 0.  1.
        1   -1    0    0  501    0  0.00000000000E+00  0.00000000000E+00 -0.11237431500E+04  0.11237431500E+04  0.50400001928E-02 0. -1.
    10030    2    1    2    0    0  0.00000000000E+00  0.00000000000E+00  0.29079171770E+03  0.25382780177E+04  0.25215660753E+04 0.  0.
        3    1    3    3  502    0 -0.62288609262E+03  0.95544104634E+03  0.68628299626E+03  0.13311044431E+04  0.10100000352E+00 0.  1.
       -3    1    3    3    0  502  0.62288609262E+03 -0.95544104634E+03 -0.39549127856E+03  0.12071735745E+04  0.10100000352E+00 0. -1.
</event>
<event>
 5   0  0.6909250E-05  0.2325288E+04  0.7818609E-02  0.8468017E-01
       -2   -1    0    0    0  501  0.00000000000E+00  0.00000000000E+00  0.44403900788E+03  0.44403900788E+03  0.25500000920E-02 0.  1.
        2   -1    0    0  501    0  0.00000000000E+00  0.00000000000E+00 -0.30441931304E+04  0.30441931304E+04  0.25500000920E-02 0. -1.
    10030    2    1    2    0    0  0.00000000000E+00  0.00000000000E+00 -0.26001541225E+04  0.34882321383E+04  0.23252875069E+04 0.  0.
        4    1    3    3  502    0  0.65787697933E+03 -0.76479926001E+03 -0.43308681180E+03  0.10978551031E+04  0.12699999809E+01 0.  1.
       -4    1    3    3    0  502 -0.65787697933E+03  0.76479926001E+03 -0.21670673107E+04  0.23903770351E+04  0.12699999809E+01 0. -1.
</event>
<event>
 5   0  0.6445331E-05  0.1669272E+04  0.7818609E-02  0.8779086E-01
        2   -1    0    0  501    0  0.00000000000E+00  0.00000000000E+00  0.13769462011E+04  0.13769462011E+04  0.25500000920E-02 0. -1.
       -2   -1    0    0    0  501  0.00000000000E+00  0.00000000000E+00 -0.50591474118E+03  0.50591474118E+03  0.25500000920E-02 0.  1.
    10030    2    1    2    0    0  0.00000000000E+00  0.00000000000E+00  0.87103145997E+03  0.18828609423E+04  0.16692721539E+04 0.  0.
        1    1    3    3  502    0 -0.21845606415E+02 -0.58347604907E+03  0.11082297786E+04  0.12526351314E+04  0.50400001928E-02 0. -1.
       -1    1    3    3    0  502  0.21845606415E+02  0.58347604907E+03 -0.23719831860E+03  0.63022581090E+03  0.50400001928E-02 0.  1.
</event>
<event>
 5   0  0.2896652E-05  0.2526896E+04  0.7818609E-02  0.8393466E-01
        1   -1    0    0  501    0  0.00000000000E+00  0.00000000000E+00  0.86403258030E+03  0.86403258031E+03  0.50400001928E-02 0.  1.
       -1   -1    0    0    0  501  0.00000000000E+00  0.00000000000E+00 -0.18475011702E+04  0.18475011702E+04  0.50400001928E-02 0. -1.
    10030    2    1    2    0    0  0.00000000000E+00  0.00000000000E+00 -0.98346858987E+03  0.27115337505E+04  0.25268962806E+04 0.  0.
        4    1    3    3  502    0 -0.84439384952E+03  0.92967817607E+02 -0.14953007571E+04  0.17197586910E+04  0.12699999809E+01 0. -1.
       -4    1    3    3    0  502  0.84439384952E+03 -0.92967817607E+02  0.51183216726E+03  0.99177505946E+03  0.12699999809E+01 0.  1.
</event>
<event>
 5   0  0.7071821E-05  0.2464686E+04  0.7818609E-02  0.8415675E-01
        2   -1    0    0  501    0  0.00000000000E+00  0.00000000000E+00  0.15912361402E+04  0.15912361402E+04  0.25500000920E-02 0. -1.
       -2   -1    0    0    0  501  0.00000000000E+00  0.00000000000E+00 -0.95439605674E+03  0.95439605674E+03  0.25500000920E-02 0.  1.
    10030    2    1    2    0    0  0.00000000000E+00  0.00000000000E+00  0.63684008350E+03  0.25456321970E+04  0.24646861850E+04 0.  0.
        5    1    3    3  502    0  0.98626267836E+03 -0.63673540293E+03  0.70556561161E+03  0.13696681957E+04  0.46999998093E+01 0. -1.
       -5    1    3    3    0  502 -0.98626267836E+03  0.63673540293E+03 -0.68725528106E+02  0.11759640013E+04  0.46999998093E+01 0.  1.
</event>
<event>
 5   0  0.2896652E-05  0.2755962E+04  0.7818609E-02  0.8317072E-01
       -1   -1    0    0    0  501  0.00000000000E+00  0.00000000000E+00  0.10938480236E+04  0.10938480236E+04  0.50400001928E-02 0.  1.
        1   -1    0    0  501    0  0.00000000000E+00  0.00000000000E+00 -0.17359190347E+04  0.17359190347E+04  0.50400001928E-02 0. -1.
    10030    2    1    2    0    0  0.00000000000E+00  0.00000000000E+00 -0.64207101116E+03  0.28297670583E+04  0.27559619774E+04 0.  0.
        4    1    3    3  502    0  0.37938257228E+03 -0.64766385186E+03 -0.15075911041E+04  0.16841116802E+04  0.12699999809E+01 0. -1.
       -4    1    3    3    0  502 -0.37938257228E+03  0.64766385186E+03  0.86552009297E+03  0.11456553781E+04  0.12699999809E+01 0.  1.
</event>
<event>
 5   0  0.2977854E-05  0.2579113E+04  0.7818609E-02  0.8375331E-01
        1   -1    0    0  501    0  0.00000000000E+00  0.00000000000E+00  0.18307646654E+04  0.18307646654E+04  0.50400001928E-02 0. -1.
       -1   -1    0    0    0  501  0.00000000000E+00  0.00000000000E+00 -0.90833980709E+03  0.90833980711E+03  0.50400001928E-02 0.  1.
    10030    2    1    2    0    0  0.00000000000E+00  0.00000000000E+00  0.92242485833E+03  0.27391044725E+04  0.25791133539E+04 0.  0.
        1    1    3    3  502    0 -0.94143502658E+02  0.80333311437E+03 -0.60545687352E+03  0.10103391101E+04  0.50400001928E-02 0.  1.
       -1    1    3    3    0  502  0.94143502658E+02 -0.80333311437E+03  0.15278817319E+04  0.17287653624E+04  0.50400001928E-02 0. -1.
</event>
<event>
 5   0  0.2977854E-05  0.2465251E+04  0.7818609E-02  0.8415471E-01
        1   -1    0    0  501    0  0.00000000000E+00  0.00000000000E+00  0.89761639179E+03  0.89761639181E+03  0.50400001928E-02 0.  1.
       -1   -1    0    0    0  501  0.00000000000E+00  0.00000000000E+00 -0.16926670400E+04  0.16926670400E+04  0.50400001928E-02 0. -1.
    10030    2    1    2    0    0  0.00000000000E+00  0.00000000000E+00 -0.79505064821E+03  0.25902834318E+04  0.24652510468E+04 0.  0.
        1    1    3    3  502    0  0.37311917289E+03  0.82831178777E+03 -0.12728732050E+04  0.15638172946E+04  0.50400001928E-02 0. -1.
       -1    1    3    3    0  502 -0.37311917289E+03 -0.82831178777E+03  0.47782255681E+03  0.10264661372E+04  0.50400001928E-02 0.  1.
</event>
<event>
 5   0  0.2777539E-05  0.2438083E+04  0.7818609E-02  0.8425382E-01
        1   -1    0    0  501    0  0.00000000000E+00  0.00000000000E+00  0.15406450517E+04  0.15406450517E+04  0.50400001928E-02 0.  1.
       -1   -1    0    0    0  501  0.00000000000E+00  0.00000000000E+00 -0.96457105226E+03  0.96457105227E+03  0.50400001928E-02 0. -1.
    10030    2    1    2    0    0  0.00000000000E+00  0.00000000000E+00  0.57607399944E+03  0.25052161040E+04  0.24380825406E+04 0.  0.
        3    1    3    3  502    0 -0.52886335454E+03  0.58598954235E+03 -0.66651042936E+03  0.10331100397E+04  0.10100000352E+00 0. -1.
       -3    1    3    3    0  502  0.52886335454E+03 -0.58598954235E+03  0.12425844288E+04  0.14721060643E+04  0.10100000352E+00 0.  1.
</event>
<event>
 5   0  0.7071821E-05  0.2086578E+04  0.7818609E-02  0.8567179E-01
       -2   -1    0    0    0  501  0.00000000000E+00  0.00000000000E+00  0.87104472228E+03  0.87104472228E+03  0.25500000920E-02 0. -1.
        2   -1    0    0  501    0  0.00000000000E+00  0.00000000000E+00 -0.12495940731E+04  0.12495940731E+04  0.25500000920E-02 0.  1.
    10030    2    1    2    0    0  0.00000000000E+00  0.00000000000E+00 -0.37854935084E+03  0.21206387954E+04  0.20865783689E+04 0.  0.
        5    1    3    3  502    0 -0.10140363527E+04 -0.23255610784E+03 -0.11003946286E+03  0.10461753396E+04  0.46999998093E+01 0.  1.
       -5    1    3    3    0  502  0.10140363527E+04  0.23255610784E+03 -0.26850988798E+03  0.10744634558E+04  0.46999998093E+01 0. -1.
</event>
<event>
 5   0  0.6445331E-05  0.1947914E+04  0.7818609E-02  0.8631367E-01
        2   -1    0    0  501    0  0.00000000000E+00  0.00000000000E+00  0.19156503960E+04  0.19156503960E+04  0.25500000920E-02 0. -1.
       -2   -1    0    0    0  501  0.00000000000E+00  0.00000000000E+00 -0.49518033984E+03  0.49518033984E+03  0.25500000920E-02 0.  1.
    10030    2    1    2    0    0  0.00000000000E+00  0.00000000000E+00  0.14204700562E+04  0.24108307359E+04  0.19479141810E+04 0.  0.
        1    1    3    3  502    0  0.53536706851E+03 -0.23777672536E+02  0.17167772470E+04  0.17984736283E+04  0.50400001928E-02 0. -1.
       -1    1    3    3    0  502 -0.53536706851E+03  0.23777672536E+02 -0.29630719088E+03  0.61235710753E+03  0.50400001928E-02 0.  1.
</event>
<event>
 5   0  0.2896652E-05  0.2434106E+04  0.7818609E-02  0.8426844E-01
        1   -1    0    0  501    0  0.00000000000E+00  0.00000000000E+00  0.19879021892E+04  0.19879021892E+04  0.50400001928E-02 0.  1.
       -1   -1    0    0    0  501  0.00000000000E+00  0.00000000000E+00 -0.74511627136E+03  0.74511627138E+03  0.50400001928E-02 0. -1.
    10030    2    1    2    0    0  0.00000000000E+00  0.00000000000E+00  0.12427859178E+04  0.27330184605E+04  0.24341062155E+04 0.  0.
        4    1    3    3  502    0 -0.85275228525E+02  0.67011272033E+03 -0.51529813783E+03  0.84962150767E+03  0.12699999809E+01 0. -1.
       -4    1    3    3    0  502  0.85275228525E+02 -0.67011272033E+03  0.17580840556E+04  0.18833969529E+04  0.12699999809E+01 0.  1.
</event>
<event>
 5   0  0.2777539E-05  0.2524022E+04  0.7818609E-02  0.8394477E-01
       -1   -1    0    0    0  501  0.00000000000E+00  0.00000000000E+00  0.17571057883E+04  0.17571057883E+04  0.50400001928E-02 0. -1.
        1   -1    0    0  501    0  0.00000000000E+00  0.00000000000E+00 -0.90641771487E+03  0.90641771489E+03  0.50400001928E-02 0.  1.
    10030    2    1    2    0    0  0.00000000000E+00  0.00000000000E+00  0.85068807341E+03  0.26635235032E+04  0.25240220391E+04 0.  0.
        3    1    3    3  502    0  0.38881767690E+03 -0.11703467013E+04  0.70807202101E+03  0.14220606823E+04  0.10100000352E+00 0.  1.
       -3    1    3    3    0  502 -0.38881767690E+03  0.11703467013E+04  0.14261605240E+03  0.12414628209E+04  0.10100000352E+00 0. -1.
</event>
<event>
 5   0  0.7071821E-05  0.1875364E+04  0.7818609E-02  0.8667217E-01
       -2   -1    0    0    0  501  0.00000000000E+00  0.00000000000E+00  0.57262484826E+03  0.57262484827E+03  0.25500000920E-02 0.  1.
        2   -1    0    0  501    0  0.00000000000E+00  0.00000000000E+00 -0.15354693910E+04  0.15354693910E+04  0.25500000920E-02 0. -1.
    10030    2    1    2    0    0  0.00000000000E+00  0.00000000000E+00 -0.96284454275E+03  0.21080942393E+04  0.18753644201E+04 0.  0.
        5    1    3    3  502    0 -0.33700617339E+03  0.15308594899E+03 -0.14498559979E+04  0.14963665906E+04  0.46999998093E+01 0. -1.
       -5    1    3    3    0  502  0.33700617339E+03 -0.15308594899E+03  0.48701145519E+03  0.61172764869E+03  0.46999998093E+01 0.  1.
</event>
<event>
 5   0  0.2777539E-05  0.2618682E+04  0.7818609E-02  0.8361883E-01
       -1   -1    0    0    0  501  0.00000000000E+00  0.00000000000E+00  0.72596845340E+03  0.72596845342E+03  0.50400001928E-02 0.  1.
        1   -1    0    0  501    0  0.00000000000E+00  0.00000000000E+00 -0.23614995646E+04  0.23614995646E+04  0.50400001928E-02 0. -1.
    10030    2    1    2    0    0  0.00000000000E+00  0.00000000000E+00 -0.16355311112E+04  0.30874680181E+04  0.26186822539E+04 0.  0.
        3    1    3    3  502    0  0.11822664220E+04 -0.55040245742E+03 -0.95565205147E+03  0.16167769207E+04  0.10100000352E+00 0.  1.
       -3    1    3    3    0  502 -0.11822664220E+04  0.55040245742E+03 -0.67987905976E+03  0.14706910973E+04  0.10100000352E+00 0. -1.
</event>
<event>
 5   0  0.2777539E-05  0.2480785E+04  0.7818609E-02  0.8409863E-01
        1   -1    0    0  501    0  0.00000000000E+00  0.00000000000E+00  0.11642822403E+04  0.11642822403E+04  0.50400001928E-02 0. -1.
       -1   -1    0    0    0  501  0.00000000000E+00  0.00000000000E+00 -0.13214778240E+04  0.13214778240E+04  0.50400001928E-02 0.  1.
    10030    2    1    2    0    0  0.00000000000E+00  0.00000000000E+00 -0.15719558378E+03  0.24857600643E+04  0.24807846835E+04 0.  0.
        3    1    3    3  502    0 -0.23663671801E+03  0.58340782046E+02  0.11400537901E+04  0.11658144096E+04  0.10100000352E+00 0. -1.
       -3    1    3    3    0  502  0.23663671801E+03 -0.58340782046E+02 -0.12972493739E+04  0.13199456547E+04  0.10100000352E+00 0.  1.
</event>
<event>
 5   0  0.6909250E-05  0.2501462E+04  0.7818609E-02  0.8402465E-01
        2   -1    0    0  501    0  0.00000000000E+00  0.00000000000E+00  0.20367127514E+04  0.20367127514E+04  0.25500000920E-02 0. -1.
       -2   -1    0    0    0  501  0.00000000000E+00  0.00000000000E+00 -0.76806511793E+03  0.76806511794E+03  0.25500000920E-02 0.  1.
    10030    2    1    2    0    0  0.00000000000E+00  0.00000000000E+00  0.12686476335E+04  0.28047778693E+04  0.25014619882E+04 0.  0.
        4    1    3    3  502    0 -0.38718725034E+03  0.10616959563E+04  0.12352311028E+04  0.16741892846E+04  0.12699999809E+01 0.  1.
       -4    1    3    3    0  502  0.38718725034E+03 -0.10616959563E+04  0.33416530620E+02  0.11305885847E+04  0.12699999809E+01 0. -1.
</event>
<event>
 5   0  0.6648328E-05  0.1588668E+04  0.7818609E-02  0.8827540E-01
       -2   -1    0    0    0  501  0.00000000000E+00  0.00000000000E+00  0.30407952404E+03  0.30407952405E+03  0.25500000920E-02 0.  1.
        2   -1    0    0  501    0  0.00000000000E+00  0.00000000000E+00 -0.20750058490E+04  0.20750058490E+04  0.25500000920E-02 0. -1.
    10030    2    1    2    0    0  0.00000000000E+00  0.00000000000E+00 -0.17709263249E+04  0.23790853730E+04  0.15886683618E+04 0.  0.
        2    1    3    3  502    0 -0.66219271350E+03 -0.12206658424E+03 -0.15165052667E+04  0.16592732339E+04  0.25500000920E-02 0. -1.
       -2    1    3    3    0  502  0.66219271350E+03  0.12206658424E+03 -0.25442105829E+03  0.71981213918E+03  0.25500000920E-02 0.  1.
</event>
<event>
 5   0  0.2793920E-05  0.2481968E+04  0.7818609E-02  0.8409438E-01
        1   -1    0    0  501    0  0.00000000000E+00  0.00000000000E+00  0.16360824648E+04  0.16360824648E+04  0.50400001928E-02 0. -1.
       -1   -1    0    0    0  501  0.00000000000E+00  0.00000000000E+00 -0.94129776456E+03  0.94129776458E+03  0.50400001928E-02 0.  1.
    10030    2    1    2    0    0  0.00000000000E+00  0.00000000000E+00  0.69478470024E+03  0.25773802294E+04  0.24819675798E+04 0.  0.
        2    1    3    3  502    0  0.86841806008E+03 -0.62837399351E+02 -0.57087626782E+03  0.10411523323E+04  0.25500000920E-02 0.  1.
       -2    1    3    3    0  502 -0.86841806008E+03  0.62837399351E+02  0.12656609681E+04  0.15362278971E+04  0.25500000920E-02 0. -1.
</event>
<event>
 5   0  0.6648328E-05  0.2646314E+04  0.7818609E-02  0.8352638E-01
        2   -1    0    0  501    0  0.00000000000E+00  0.00000000000E+00  0.12256282060E+04  0.12256282060E+04  0.25500000920E-02 0.  1.
       -2   -1    0    0    0  501  0.00000000000E+00  0.00000000000E+00 -0.14284461273E+04  0.14284461273E+04  0.25500000920E-02 0. -1.
    10030    2    1    2    0    0  0.00000000000E+00  0.00000000000E+00 -0.20281792134E+03  0.26540743333E+04  0.26463135600E+04 0.  0.
        2    1    3    3  502    0 -0.29580849168E+03 -0.12532355286E+04  0.20385499758E+03  0.13037096356E+04  0.25500000920E-02 0.  1.
       -2    1    3    3    0  502  0.29580849168E+03  0.12532355286E+04 -0.40667291892E+03  0.13503646977E+04  0.25500000920E-02 0. -1.
</event>
<event>
 5   0  0.2793920E-05  0.2495222E+04  0.7818609E-02  0.8404690E-01
       -1   -1    0    0    0  501  0.00000000000E+00  0.00000000000E+00  0.74431674694E+03  0.74431674696E+03  0.50400001928E-02 0.  1.
        1   -1    0    0  501    0  0.00000000000E+00  0.00000000000E+00 -0.20912234505E+04  0.20912234505E+04  0.50400001928E-02 0. -1.
    10030    2    1    2    0    0  0.00000000000E+00  0.00000000000E+00 -0.13469067035E+04  0.28355401974E+04  0.24952215419E+04 0.  0.
        2    1    3    3  502    0  0.11815439735E+04  0.10889290667E+02 -0.11285309061E+04  0.16339359669E+04  0.25500000920E-02 0. -1.
       -2    1    3    3    0  502 -0.11815439735E+04 -0.10889290667E+02 -0.21837579745E+03  0.12016042305E+04  0.25500000920E-02 0.  1.
</event>
<event>
 5   0  0.2331375E-05  0.2420927E+04  0.7818609E-02  0.8431710E-01
       -3   -1    0    0    0  501  0.00000000000E+00  0.00000000000E+00  0.18320542338E+04  0.18320542366E+04  0.10100000352E+00 0. -1.
        3   -1    0    0  501    0  0.00000000000E+00  0.00000000000E+00 -0.79976966032E+03  0.79976966669E+03  0.10100000352E+00 0.  1.
    10030    2    1    2    0    0  0.00000000000E+00  0.00000000000E+00  0.10322845735E+04  0.26318239033E+04  0.24209266030E+04 0.  0.
        5    1    3    3  502    0 -0.56827684433E+03  0.30661236451E+03  0.16291740468E+04  0.17524782106E+04  0.46999998093E+01 0. -1.
       -5    1    3    3    0  502  0.56827684433E+03 -0.30661236451E+03 -0.59688947332E+03  0.87934569268E+03  0.46999998093E+01 0.  1.
</event>
<event>
 5   0  0.2977854E-05  0.2576601E+04  0.7818609E-02  0.8376193E-01
        1   -1    0    0  501    0  0.00000000000E+00  0.00000000000E+00  0.15969950361E+04  0.15969950361E+04  0.50400001928E-02 0. -1.
       -1   -1    0    0    0  501  0.00000000000E+00  0.00000000000E+00 -0.10392753554E+04  0.10392753554E+04  0.50400001928E-02 0.  1.
    10030    2    1    2    0    0  0.00000000000E+00  0.00000000000E+00  0.55771968070E+03  0.26362703915E+04  0.25766005385E+04 0.  0.
        1    1    3    3  502    0 -0.54786575143E+03  0.94057773658E+03 -0.42621003099E+03  0.11689732036E+04  0.50400001928E-02 0.  1.
       -1    1    3    3    0  502  0.54786575143E+03 -0.94057773658E+03  0.98392971170E+03  0.14672971879E+04  0.50400001928E-02 0. -1.
</event>
<event>
 5   0  0.6648328E-05  0.2573965E+04  0.7818609E-02  0.8377099E-01
       -2   -1    0    0    0  501  0.00000000000E+00  0.00000000000E+00  0.94688461294E+03  0.94688461295E+03  0.25500000920E-02 0.  1.
        2   -1    0    0  501    0  0.00000000000E+00  0.00000000000E+00 -0.17492348190E+04  0.17492348190E+04  0.25500000920E-02 0. -1.
    10030    2    1    2    0    0  0.00000000000E+00  0.00000000000E+00 -0.80235020605E+03  0.26961194319E+04  0.25739646731E+04 0.  0.
        2    1    3    3  502    0  0.10002533583E+04 -0.80872136955E+03 -0.44544801321E+03  0.13612350888E+04  0.25500000920E-02 0. -1.
       -2    1    3    3    0  502 -0.10002533583E+04  0.80872136955E+03 -0.35690219284E+03  0.13348843432E+04  0.25500000920E-02 0.  1.
</event>
<event>
 5   0  0.6909250E-05  0.2503891E+04  0.7818609E-02  0.8401601E-01
       -2   -1    0    0    0  501  0.00000000000E+00  0.00000000000E+00  0.78500728464E+03  0.78500728464E+03  0.25500000920E-02 0.  1.
        2   -1    0    0  501    0  0.00000000000E+00  0.00000000000E+00 -0.19966274833E+04  0.19966274833E+04  0.25500000920E-02 0. -1.
    10030    2    1    2    0    0  0.00000000000E+00  0.00000000000E+00 -0.12116201987E+04  0.27816347680E+04  0.25038906678E+04 0.  0.
        4    1    3    3  502    0  0.62053608560E+03 -0.95008296527E+03 -0.11932813121E+04  0.16467071923E+04  0.12699999809E+01 0. -1.
       -4    1    3    3    0  502 -0.62053608560E+03  0.95008296527E+03 -0.18338886604E+02  0.11349275757E+04  0.12699999809E+01 0.  1.
</event>
<event>
 5   0  0.6445331E-05  0.2560829E+04  0.7818609E-02  0.8381630E-01
       -2   -1    0    0    0  501  0.00000000000E+00  0.00000000000E+00  0.12444428692E+04  0.12444428692E+04  0.25500000920E-02 0. -1.
        2   -1    0    0  501    0  0.00000000000E+00  0.00000000000E+00 -0.13174255980E+04  0.13174255980E+04  0.25500000920E-02 0.  1.
    10030    2    1    2    0    0  0.00000000000E+00  0.00000000000E+00 -0.72982728789E+02  0.25618684672E+04  0.25608286870E+04 0.  0.
        1    1    3    3  502    0  0.10382040070E+04  0.74406091945E+03 -0.12578386053E+03  0.12834780059E+04  0.50400001928E-02 0.  1.
       -1    1    3    3    0  502 -0.10382040070E+04 -0.74406091945E+03  0.52801131738E+02  0.12783904613E+04  0.50400001928E-02 0. -1.
</event>
<event>
 5   0  0.6445331E-05  0.2510442E+04  0.7818609E-02  0.8399275E-01
       -2   -1    0    0    0  501  0.00000000000E+00  0.00000000000E+00  0.11348973944E+04  0.11348973944E+04  0.25500000920E-02 0. -1.
        2   -1    0    0  501    0  0.00000000000E+00  0.00000000000E+00 -0.13883019806E+04  0.13883019806E+04  0.25500000920E-02 0.  1.
    10030    2    1    2    0    0  0.00000000000E+00  0.00000000000E+00 -0.25340458620E+03  0.25231993749E+04  0.25104424314E+04 0.  0.
        1    1    3    3  502    0  0.92284995257E+03  0.84077234091E+03 -0.25786499710E+03  0.12747723408E+04  0.50400001928E-02 0.  1.
       -1    1    3    3    0  502 -0.92284995257E+03 -0.84077234091E+03  0.44604109062E+01  0.12484270341E+04  0.50400001928E-02 0. -1.
</event>
<event>
 5   0  0.2793920E-05  0.2451417E+04  0.7818609E-02  0.8420501E-01
       -1   -1    0    0    0  501  0.00000000000E+00  0.00000000000E+00  0.63885358260E+03  0.63885358262E+03  0.50400001928E-02 0. -1.
        1   -1    0    0  501    0  0.00000000000E+00  0.00000000000E+00 -0.23516514855E+04  0.23516514855E+04  0.50400001928E-02 0.  1.
    10030    2    1    2    0    0  0.00000000000E+00  0.00000000000E+00 -0.17127979029E+04  0.29905050681E+04  0.24514167141E+04 0.  0.
        2    1    3    3  502    0 -0.38347485845E+03 -0.11116371820E+04 -0.43456654516E+03  0.12536499805E+04  0.25500000920E-02 0. -1.
       -2    1    3    3    0  502  0.38347485845E+03  0.11116371820E+04 -0.12782313577E+04  0.17368550876E+04  0.25500000920E-02 0.  1.
</event>
<event>
 5   0  0.2331375E-05  0.2538854E+04  0.7818609E-02  0.8389273E-01
        4   -1    0    0  501    0  0.00000000000E+00  0.00000000000E+00  0.10933320038E+04  0.10933327414E+04  0.12699999809E+01 0.  1.
       -4   -1    0    0    0  501  0.00000000000E+00  0.00000000000E+00 -0.14738831631E+04  0.14738837102E+04  0.12699999809E+01 0. -1.
    10030    2    1    2    0    0  0.00000000000E+00  0.00000000000E+00 -0.38055115932E+03  0.25672164516E+04  0.25388542937E+04 0.  0.
        5    1    3    3  502    0  0.54721323160E+03 -0.15214494101E+03  0.95767448781E+03  0.11134419242E+04  0.46999998093E+01 0.  1.
       -5    1    3    3    0  502 -0.54721323160E+03  0.15214494101E+03 -0.13382256471E+04  0.14537745274E+04  0.46999998093E+01 0. -1.
</event>
<event>
 5   0  0.6445331E-05  0.2504982E+04  0.7818609E-02  0.8401213E-01
       -2   -1    0    0    0  501  0.00000000000E+00  0.00000000000E+00  0.55232578249E+03  0.55232578249E+03  0.25500000920E-02 0.  1.
        2   -1    0    0  501    0  0.00000000000E+00  0.00000000000E+00 -0.28402333394E+04  0.28402333394E+04  0.25500000920E-02 0. -1.
    10030    2    1    2    0    0  0.00000000000E+00  0.00000000000E+00 -0.22879075569E+04  0.33925591219E+04  0.25049823166E+04 0.  0.
        1    1    3    3  502    0 -0.11861765182E+04 -0.26950236872E+03 -0.15481869799E+04  0.19688903433E+04  0.50400001928E-02 0. -1.
       -1    1    3    3    0  502  0.11861765182E+04  0.26950236872E+03 -0.73972057698E+03  0.14236687786E+04  0.50400001928E-02 0.  1.
</event>
<event>
 5   0  0.7071821E-05  0.2373463E+04  0.7818609E-02  0.8449506E-01
        2   -1    0    0  501    0  0.00000000000E+00  0.00000000000E+00  0.24124457387E+04  0.24124457387E+04  0.25500000920E-02 0. -1.
       -2   -1    0    0    0  501  0.00000000000E+00  0.00000000000E+00 -0.58377731674E+03  0.58377731674E+03  0.25500000920E-02 0.  1.
    10030    2    1    2    0    0  0.00000000000E+00  0.00000000000E+00  0.18286684220E+04  0.29962230554E+04  0.23734625340E+04 0.  0.
        5    1    3    3  502    0  0.32575241919E+03  0.88116281459E+03  0.18296689430E+04  0.20567627660E+04  0.46999998093E+01 0. -1.
       -5    1    3    3    0  502 -0.32575241919E+03 -0.88116281459E+03 -0.10005210758E+01  0.93946028946E+03  0.46999998093E+01 0.  1.
</event>
<event>
 5   0  0.6909250E-05  0.2500914E+04  0.7818609E-02  0.8402660E-01
       -2   -1    0    0    0  501  0.00000000000E+00  0.00000000000E+00  0.72153299718E+03  0.72153299718E+03  0.25500000920E-02 0. -1.
        2   -1    0    0  501    0  0.00000000000E+00  0.00000000000E+00 -0.21671115944E+04  0.21671115944E+04  0.25500000920E-02 0.  1.
    10030    2    1    2    0    0  0.00000000000E+00  0.00000000000E+00 -0.14455785972E+04  0.28886445916E+04  0.25009138521E+04 0.  0.
        4    1    3    3  502    0  0.23466812723E+03 -0.10221201672E+04  0.63858772791E+02  0.10506561387E+04  0.12699999809E+01 0. -1.
       -4    1    3    3    0  502 -0.23466812723E+03  0.10221201672E+04 -0.15094373700E+04  0.18379884529E+04  0.12699999809E+01 0.  1.
</event>
<event>
 5   0  0.2977854E-05  0.2498664E+04  0.7818609E-02  0.8403462E-01
       -1   -1    0    0    0  501  0.00000000000E+00  0.00000000000E+00  0.87120761728E+03  0.87120761729E+03  0.50400001928E-02 0. -1.
        1   -1    0    0  501    0  0.00000000000E+00  0.00000000000E+00 -0.17915715564E+04  0.17915715564E+04  0.50400001928E-02 0.  1.
    10030    2    1    2    0    0  0.00000000000E+00  0.00000000000E+00 -0.92036393915E+03  0.26627791737E+04  0.24986642727E+04 0.  0.
        1    1    3    3  502    0 -0.54148921838E+03 -0.33517880114E+03  0.68525185714E+03  0.93548143226E+03  0.50400001928E-02 0. -1.
       -1    1    3    3    0  502  0.54148921838E+03  0.33517880114E+03 -0.16056157963E+04  0.17272977415E+04  0.50400001928E-02 0.  1.
</event>
<event>
 5   0  0.6827859E-05  0.2505587E+04  0.7818609E-02  0.8400998E-01
        2   -1    0    0  501    0  0.00000000000E+00  0.00000000000E+00  0.10749115873E+04  0.10749115873E+04  0.25500000920E-02 0.  1.
       -2   -1    0    0    0  501  0.00000000000E+00  0.00000000000E+00 -0.14601120922E+04  0.14601120922E+04  0.25500000920E-02 0. -1.
    10030    2    1    2    0    0  0.00000000000E+00  0.00000000000E+00 -0.38520050485E+03  0.25350236795E+04  0.25055868827E+04 0.  0.
        3    1    3    3  502    0 -0.38786195050E+03  0.81862248531E+02 -0.13949870355E+04  0.14502162459E+04  0.10100000352E+00 0. -1.
       -3    1    3    3    0  502  0.38786195050E+03 -0.81862248531E+02  0.10097865306E+04  0.10848074336E+04  0.10100000352E+00 0.  1.
</event>
<event>
 5   0  0.6445331E-05  0.2388766E+04  0.7818609E-02  0.8443722E-01
        2   -1    0    0  501    0  0.00000000000E+00  0.00000000000E+00  0.14245732844E+04  0.14245732844E+04  0.25500000920E-02 0. -1.
       -2   -1    0    0    0  501  0.00000000000E+00  0.00000000000E+00 -0.10013878374E+04  0.10013878374E+04  0.25500000920E-02 0.  1.
    10030    2    1    2    0    0  0.00000000000E+00  0.00000000000E+00  0.42318544693E+03  0.24259611218E+04  0.23887656733E+04 0.  0.
        1    1    3    3  502    0  0.28442657860E+03  0.11479405557E+04  0.38117897692E+03  0.12425632421E+04  0.50400001928E-02 0. -1.
       -1    1    3    3    0  502 -0.28442657860E+03 -0.11479405557E+04  0.42006470019E+02  0.11833978797E+04  0.50400001928E-02 0.  1.
</event>
<event>
 5   0  0.2896652E-05  0.1660410E+04  0.7818609E-02  0.8784272E-01
       -1   -1    0    0    0  501  0.00000000000E+00  0.00000000000E+00  0.14483950705E+04  0.14483950705E+04  0.50400001928E-02 0. -1.
        1   -1    0    0  501    0  0.00000000000E+00  0.00000000000E+00 -0.47586512130E+03  0.47586512133E+03  0.50400001928E-02 0.  1.
    10030    2    1    2    0    0  0.00000000000E+00  0.00000000000E+00  0.97252994916E+03  0.19242601918E+04  0.16604104263E+04 0.  0.
        4    1    3    3  502    0  0.27676312495E+03  0.50495417991E+03 -0.20681773879E+03  0.61184290559E+03  0.12699999809E+01 0.  1.
       -4    1    3    3    0  502 -0.27676312495E+03 -0.50495417991E+03  0.11793476880E+04  0.13124172862E+04  0.12699999809E+01 0. -1.
</event>
<event>
 5   0  0.6827859E-05  0.2489257E+04  0.7818609E-02  0.8406823E-01
        2   -1    0    0  501    0  0.00000000000E+00  0.00000000000E+00  0.10645518375E+04  0.10645518375E+04  0.25500000920E-02 0. -1.
       -2   -1    0    0    0  501  0.00000000000E+00  0.00000000000E+00 -0.14551662168E+04  0.14551662168E+04  0.25500000920E-02 0.  1.
    10030    2    1    2    0    0  0.00000000000E+00  0.00000000000E+00 -0.39061437936E+03  0.25197180543E+04  0.24892568127E+04 0.  0.
        3    1    3    3  502    0  0.84639695744E+03 -0.90864549544E+03 -0.11016238265E+03  0.12466596194E+04  0.10100000352E+00 0. -1.
       -3    1    3    3    0  502 -0.84639695744E+03  0.90864549544E+03 -0.28045199670E+03  0.12730584349E+04  0.10100000352E+00 0.  1.
</event>
<event>
 5   0  0.6445331E-05  0.2457772E+04  0.7818609E-02  0.8418186E-01
        2   -1    0    0  501    0  0.00000000000E+00  0.00000000000E+00  0.67108505034E+03  0.67108505034E+03  0.25500000920E-02 0. -1.
       -2   -1    0    0    0  501  0.00000000000E+00  0.00000000000E+00 -0.22503266340E+04  0.22503266340E+04  0.25500000920E-02 0.  1.
    10030    2    1    2    0    0  0.00000000000E+00  0.00000000000E+00 -0.15792415837E+04  0.29214116843E+04  0.24577718059E+04 0.  0.
        1    1    3    3  502    0 -0.38541500357E+03  0.11594114927E+04 -0.94632708474E+03  0.15454173176E+04  0.50400001928E-02 0. -1.
       -1    1    3    3    0  502  0.38541500357E+03 -0.11594114927E+04 -0.63291449893E+03  0.13759943667E+04  0.50400001928E-02 0.  1.
</event>
<event>
 5   0  0.2793920E-05  0.2485102E+04  0.7818609E-02  0.8408312E-01
       -1   -1    0    0    0  501  0.00000000000E+00  0.00000000000E+00  0.16155521154E+04  0.16155521154E+04  0.50400001928E-02 0.  1.
        1   -1    0    0  501    0  0.00000000000E+00  0.00000000000E+00 -0.95566906150E+03  0.95566906151E+03  0.50400001928E-02 0. -1.
    10030    2    1    2    0    0  0.00000000000E+00  0.00000000000E+00  0.65988305389E+03  0.25712211769E+04  0.24851021500E+04 0.  0.
        2    1    3    3  502    0 -0.50027761426E+03 -0.10313134711E+04  0.82619599360E+03  0.14129702710E+04  0.25500000920E-02 0. -1.
       -2    1    3    3    0  502  0.50027761426E+03  0.10313134711E+04 -0.16631293971E+03  0.11582509059E+04  0.25500000920E-02 0.  1.
</event>
<event>
 5   0  0.7071821E-05  0.1351224E+04  0.7818609E-02  0.8989902E-01
        2   -1    0    0  501    0  0.00000000000E+00  0.00000000000E+00  0.75531362780E+03  0.75531362780E+03  0.25500000920E-02 0. -1.
       -2   -1    0    0    0  501  0.00000000000E+00  0.00000000000E+00 -0.60432024066E+03  0.60432024067E+03  0.25500000920E-02 0.  1.
    10030    2    1    2    0    0  0.00000000000E+00  0.00000000000E+00  0.15099338713E+03  0.13596338685E+04  0.13512236134E+04 0.  0.
        5    1    3    3  502    0 -0.36144605557E+03  0.73836777498E+01 -0.49878450326E+03  0.61604045360E+03  0.46999998093E+01 0.  1.
       -5    1    3    3    0  502  0.36144605557E+03 -0.73836777498E+01  0.64977789039E+03  0.74359341486E+03  0.46999998093E+01 0. -1.
</event>
<event>
 5   0  0.2977854E-05  0.2494566E+04  0.7818609E-02  0.8404924E-01
       -1   -1    0    0    0  501  0.00000000000E+00  0.00000000000E+00  0.97201860515E+03  0.97201860516E+03  0.50400001928E-02 0. -1.
        1   -1    0    0  501    0  0.00000000000E+00  0.00000000000E+00 -0.16004992600E+04  0.16004992600E+04  0.50400001928E-02 0.  1.
    10030    2    1    2    0    0  0.00000000000E+00  0.00000000000E+00 -0.62848065483E+03  0.25725178652E+04  0.24945661412E+04 0.  0.
        1    1    3    3  502    0  0.49252631481E+03 -0.49604453884E+03  0.75103135173E+03  0.10260070402E+04  0.50400001928E-02 0. -1.
       -1    1    3    3    0  502 -0.49252631481E+03  0.49604453884E+03 -0.13795120066E+04  0.15465108249E+04  0.50400001928E-02 0.  1.
</event>
<event>
 5   0  0.6445331E-05  0.2504733E+04  0.7818609E-02  0.8401301E-01
       -2   -1    0    0    0  501  0.00000000000E+00  0.00000000000E+00  0.92068270729E+03  0.92068270729E+03  0.25500000920E-02 0. -1.
        2   -1    0    0  501    0  0.00000000000E+00  0.00000000000E+00 -0.17035428813E+04  0.17035428813E+04  0.25500000920E-02 0.  1.
    10030    2    1    2    0    0  0.00000000000E+00  0.00000000000E+00 -0.78286017400E+03  0.26242255886E+04  0.25047334964E+04 0.  0.
        1    1    3    3  502    0  0.28409409268E+03  0.12169829189E+04 -0.47696808024E+03  0.13376305274E+04  0.50400001928E-02 0. -1.
       -1    1    3    3    0  502 -0.28409409268E+03 -0.12169829189E+04 -0.30589209376E+03  0.12865950612E+04  0.50400001928E-02 0.  1.
</event>
<event>
 5   0  0.6648328E-05  0.2563324E+04  0.7818609E-02  0.8380767E-01
       -2   -1    0    0    0  501  0.00000000000E+00  0.00000000000E+00  0.19980699940E+04  0.19980699940E+04  0.25500000920E-02 0. -1.
        2   -1    0    0  501    0  0.00000000000E+00  0.00000000000E+00 -0.82212219603E+03  0.82212219603E+03  0.25500000920E-02 0.  1.
    10030    2    1    2    0    0  0.00000000000E+00  0.00000000000E+00  0.11759477979E+04  0.28201921900E+04  0.25633241631E+04 0.  0.
        2    1    3    3  502    0 -0.92198516891E+03  0.45915653905E+03  0.14271501629E+04  0.17600110700E+04  0.25500000920E-02 0. -1.
       -2    1    3    3    0  502  0.92198516891E+03 -0.45915653905E+03 -0.25120236496E+03  0.10601811200E+04  0.25500000920E-02 0.  1.
</event>
<event>
 5   0  0.2980790E-05  0.2481611E+04  0.7818609E-02  0.8409566E-01
        1   -1    0    0  501    0  0.00000000000E+00  0.00000000000E+00  0.17221080094E+04  0.17221080094E+04  0.50400001928E-02 0.  1.
       -1   -1    0    0    0  501  0.00000000000E+00  0.00000000000E+00 -0.89401947188E+03  0.89401947189E+03  0.50400001928E-02 0. -1.
    10030    2    1    2    0    0  0.00000000000E+00  0.00000000000E+00  0.82808853752E+03  0.26161274813E+04  0.24816108423E+04 0.  0.
        5    1    3    3  502    0  0.11256187505E+04 -0.45610691179E+03  0.14625760119E+03  0.12233006427E+04  0.46999998093E+01 0. -1.
       -5    1    3    3    0  502 -0.11256187505E+04  0.45610691179E+03  0.68183093632E+03  0.13928268386E+04  0.46999998093E+01 0.  1.
</event>
<event>
 5   0  0.2777539E-05  0.1800401E+04  0.7818609E-02  0.8706086E-01
        1   -1    0    0  501    0  0.00000000000E+00  0.00000000000E+00  0.25506237138E+04  0.25506237138E+04  0.50400001928E-02 0. -1.
       -1   -1    0    0    0  501  0.00000000000E+00  0.00000000000E+00 -0.31771097401E+03  0.31771097405E+03  0.50400001928E-02 0.  1.
    10030    2    1    2    0    0  0.00000000000E+00  0.00000000000E+00  0.22329127398E+04  0.28683346878E+04  0.18004012270E+04 0.  0.
        3    1    3    3  502    0  0.84989658579E+03 -0.25978935671E+03  0.13448208652E+04  0.16119422713E+04  0.10100000352E+00 0.  1.
       -3    1    3    3    0  502 -0.84989658579E+03  0.25978935671E+03  0.88809187455E+03  0.12563924165E+04  0.10100000352E+00 0. -1.
</event>
<event>
 5   0  0.6827859E-05  0.2432812E+04  0.7818609E-02  0.8427321E-01
       -2   -1    0    0    0  501  0.00000000000E+00  0.00000000000E+00  0.11451071230E+04  0.11451071230E+04  0.25500000920E-02 0. -1.
        2   -1    0    0  501    0  0.00000000000E+00  0.00000000000E+00 -0.12921437180E+04  0.12921437180E+04  0.25500000920E-02 0.  1.
    10030    2    1    2    0    0  0.00000000000E+00  0.00000000000E+00 -0.14703659502E+03  0.24372508410E+04  0.24328115220E+04 0.  0.
        3    1    3    3  502    0  0.72212899818E+03  0.44987255827E+03  0.79742839877E+03  0.11660821884E+04  0.10100000352E+00 0. -1.
       -3    1    3    3    0  502 -0.72212899818E+03 -0.44987255827E+03 -0.94446499379E+03  0.12711686526E+04  0.10100000352E+00 0.  1.
</event>
<event>
 5   0  0.7071821E-05  0.2468413E+04  0.7818609E-02  0.8414326E-01
       -2   -1    0    0    0  501  0.00000000000E+00  0.00000000000E+00  0.92977631626E+03  0.92977631626E+03  0.25500000920E-02 0.  1.
        2   -1    0    0  501    0  0.00000000000E+00  0.00000000000E+00 -0.16383144235E+04  0.16383144235E+04  0.25500000920E-02 0. -1.
    10030    2    1    2    0    0  0.00000000000E+00  0.00000000000E+00 -0.70853810728E+03  0.25680907398E+04  0.24684132147E+04 0.  0.
        5    1    3    3  502    0 -0.24338687400E+03 -0.22248430129E+03  0.88308822627E+03  0.94265759432E+03  0.46999998093E+01 0.  1.
       -5    1    3    3    0  502  0.24338687400E+03  0.22248430129E+03 -0.15916263336E+04  0.16254331455E+04  0.46999998093E+01 0. -1.
</event>
<event>
 5   0  0.2980790E-05  0.2216187E+04  0.7818609E-02  0.8511721E-01
        1   -1    0    0  501    0  0.00000000000E+00  0.00000000000E+00  0.19889475498E+04  0.19889475499E+04  0.50400001928E-02 0.  1.
       -1   -1    0    0    0  501  0.00000000000E+00  0.00000000000E+00 -0.61734713043E+03  0.61734713045E+03  0.50400001928E-02 0. -1.
    10030    2    1    2    0    0  0.00000000000E+00  0.00000000000E+00  0.13716004194E+04  0.26062946803E+04  0.22161868716E+04 0.  0.
        5    1    3    3  502    0 -0.29260069901E+03 -0.43806832908E+02 -0.57002591555E+03  0.64225060690E+03  0.46999998093E+01 0. -1.
       -5    1    3    3    0  502  0.29260069901E+03  0.43806832908E+02  0.19416263350E+04  0.19640440734E+04  0.46999998093E+01 0.  1.
</event>
<event>
 5   0  0.6445331E-05  0.2559754E+04  0.7818609E-02  0.8382002E-01
        2   -1    0    0  501    0  0.00000000000E+00  0.00000000000E+00  0.28731595201E+04  0.28731595201E+04  0.25500000920E-02 0. -1.
       -2   -1    0    0    0  501  0.00000000000E+00  0.00000000000E+00 -0.57013357445E+03  0.57013357446E+03  0.25500000920E-02 0.  1.
    10030    2    1    2    0    0  0.00000000000E+00  0.00000000000E+00  0.23030259457E+04  0.34432930946E+04  0.25597536656E+04 0.  0.
        1    1    3    3  502    0 -0.10789019953E+04 -0.54659484276E+03  0.58832485486E+03  0.13449615506E+04  0.50400001928E-02 0. -1.
       -1    1    3    3    0  502  0.10789019953E+04  0.54659484276E+03  0.17147010908E+04  0.20983315440E+04  0.50400001928E-02 0.  1.
</event>
<event>
 5   0  0.2977854E-05  0.2559731E+04  0.7818609E-02  0.8382010E-01
       -1   -1    0    0    0  501  0.00000000000E+00  0.00000000000E+00  0.97192151995E+03  0.97192151997E+03  0.50400001928E-02 0.  1.
        1   -1    0    0  501    0  0.00000000000E+00  0.00000000000E+00 -0.16853785323E+04  0.16853785323E+04  0.50400001928E-02 0. -1.
    10030    2    1    2    0    0  0.00000000000E+00  0.00000000000E+00 -0.71345701232E+03  0.26573000522E+04  0.25597309740E+04 0.  0.
        1    1    3    3  502    0 -0.53992341291E+03  0.77446040487E+03 -0.12538137837E+04  0.15695079531E+04  0.50400001928E-02 0. -1.
       -1    1    3    3    0  502  0.53992341291E+03 -0.77446040487E+03  0.54035677142E+03  0.10877920991E+04  0.50400001928E-02 0.  1.
</event>
<event>
 5   0  0.6827859E-05  0.2528794E+04  0.7818609E-02  0.8392799E-01
        2   -1    0    0  501    0  0.00000000000E+00  0.00000000000E+00  0.13564617309E+04  0.13564617309E+04  0.25500000920E-02 0. -1.
       -2   -1    0    0    0  501  0.00000000000E+00  0.00000000000E+00 -0.11785803923E+04  0.11785803923E+04  0.25500000920E-02 0.  1.
    10030    2    1    2    0    0  0.00000000000E+00  0.00000000000E+00  0.17788133856E+03  0.25350421232E+04  0.25287935455E+04 0.  0.
        3    1    3    3  502    0  0.12570144847E+04 -0.13012459408E+03  0.47834909965E+02  0.12646367121E+04  0.10100000352E+00 0.  1.
       -3    1    3    3    0  502 -0.12570144847E+04  0.13012459408E+03  0.13004642860E+03  0.12704054111E+04  0.10100000352E+00 0. -1.
</event>
<event>
 5   0  0.6909250E-05  0.2512963E+04  0.7818609E-02  0.8398382E-01
        2   -1    0    0  501    0  0.00000000000E+00  0.00000000000E+00  0.96832709128E+03  0.96832709129E+03  0.25500000920E-02 0.  1.
       -2   -1    0    0    0  501  0.00000000000E+00  0.00000000000E+00 -0.16303852330E+04  0.16303852330E+04  0.25500000920E-02 0. -1.
    10030    2    1    2    0    0  0.00000000000E+00  0.00000000000E+00 -0.66205814174E+03  0.25987123243E+04  0.25129633427E+04 0.  0.
        4    1    3    3  502    0  0.10903025379E+04 -0.58886923450E+03 -0.11604599369E+03  0.12445862304E+04  0.12699999809E+01 0.  1.
       -4    1    3    3    0  502 -0.10903025379E+04  0.58886923450E+03 -0.54601214805E+03  0.13541260939E+04  0.12699999809E+01 0. -1.
</event>
<event>
 5   0  0.6648328E-05  0.1595157E+04  0.7818609E-02  0.8823529E-01
       -2   -1    0    0    0  501  0.00000000000E+00  0.00000000000E+00  0.65237857191E+03  0.65237857191E+03  0.25500000920E-02 0.  1.
        2   -1    0    0  501    0  0.00000000000E+00  0.00000000000E+00 -0.97509509306E+03  0.97509509306E+03  0.25500000920E-02 0. -1.
    10030    2    1    2    0    0  0.00000000000E+00  0.00000000000E+00 -0.32271652115E+03  0.16274736650E+04  0.15951565996E+04 0.  0.
        2    1    3    3  502    0 -0.22284195494E+03 -0.61002953953E+03 -0.63370267190E+03  0.90739938967E+03  0.25500000920E-02 0. -1.
       -2    1    3    3    0  502  0.22284195494E+03  0.61002953953E+03  0.31098615075E+03  0.72007427530E+03  0.25500000920E-02 0.  1.
</event>
<event>
 5   0  0.6648328E-05  0.2476329E+04  0.7818609E-02  0.8411467E-01
        2   -1    0    0  501    0  0.00000000000E+00  0.00000000000E+00  0.24357061197E+04  0.24357061197E+04  0.25500000920E-02 0. -1.
       -2   -1    0    0    0  501  0.00000000000E+00  0.00000000000E+00 -0.62940712174E+03  0.62940712175E+03  0.25500000920E-02 0.  1.
    10030    2    1    2    0    0  0.00000000000E+00  0.00000000000E+00  0.18062989980E+04  0.30651132415E+04  0.24763285551E+04 0.  0.
        2    1    3    3  502    0 -0.17673239836E+03 -0.92367945441E+03  0.19000175545E+04  0.21200199958E+04  0.25500000920E-02 0. -1.
       -2    1    3    3    0  502  0.17673239836E+03  0.92367945441E+03 -0.93718556545E+02  0.94509324566E+03  0.25500000920E-02 0.  1.
</event>
<event>
 5   0  0.6445331E-05  0.2651455E+04  0.7818609E-02  0.8350930E-01
        2   -1    0    0  501    0  0.00000000000E+00  0.00000000000E+00  0.15517464148E+04  0.15517464148E+04  0.25500000920E-02 0. -1.
       -2   -1    0    0    0  501  0.00000000000E+00  0.00000000000E+00 -0.11326296934E+04  0.11326296934E+04  0.25500000920E-02 0.  1.
    10030    2    1    2    0    0  0.00000000000E+00  0.00000000000E+00  0.41911672135E+03  0.26843761082E+04  0.26514554992E+04 0.  0.
        1    1    3    3  502    0 -0.60263867261E+03 -0.10593450414E+04 -0.31861704581E+03  0.12597230284E+04  0.50400001928E-02 0. -1.
       -1    1    3    3    0  502  0.60263867261E+03  0.10593450414E+04  0.73773376716E+03  0.14246530798E+04  0.50400001928E-02 0.  1.
</event>
<event>
 5   0  0.2980790E-05  0.2475484E+04  0.7818609E-02  0.8411772E-01
        1   -1    0    0  501    0  0.00000000000E+00  0.00000000000E+00  0.62986581304E+03  0.62986581306E+03  0.50400001928E-02 0. -1.
       -1   -1    0    0    0  501  0.00000000000E+00  0.00000000000E+00 -0.24322725315E+04  0.24322725315E+04  0.50400001928E-02 0.  1.
    10030    2    1    2    0    0  0.00000000000E+00  0.00000000000E+00 -0.18024067185E+04  0.30621383446E+04  0.24754840461E+04 0.  0.
        5    1    3    3  502    0  0.27004129434E+03  0.69210875994E+03  0.32337898220E+03  0.81026717344E+03  0.46999998093E+01 0. -1.
       -5    1    3    3    0  502 -0.27004129434E+03 -0.69210875994E+03 -0.21257857007E+04  0.22518711712E+04  0.46999998093E+01 0.  1.
</event>
<event>
 5   0  0.2977854E-05  0.2497608E+04  0.7818609E-02  0.8403838E-01
       -1   -1    0    0    0  501  0.00000000000E+00  0.00000000000E+00  0.18943058245E+04  0.18943058245E+04  0.50400001928E-02 0.  1.
        1   -1    0    0  501    0  0.00000000000E+00  0.00000000000E+00 -0.82326275781E+03  0.82326275783E+03  0.50400001928E-02 0. -1.
    10030    2    1    2    0    0  0.00000000000E+00  0.00000000000E+00  0.10710430667E+04  0.27175685823E+04  0.24976080055E+04 0.  0.
        1    1    3    3  502    0  0.41531310642E+03  0.10567985176E+04 -0.30068311541E+02  0.11358750752E+04  0.50400001928E-02 0. -1.
       -1    1    3    3    0  502 -0.41531310642E+03 -0.10567985176E+04  0.11011113782E+04  0.15816935071E+04  0.50400001928E-02 0.  1.
</event>
<event>
 5   0  0.6445331E-05  0.2515620E+04  0.7818609E-02  0.8397442E-01
        2   -1    0    0  501    0  0.00000000000E+00  0.00000000000E+00  0.13748600774E+04  0.13748600774E+04  0.25500000920E-02 0.  1.
       -2   -1    0    0    0  501  0.00000000000E+00  0.00000000000E+00 -0.11507255305E+04  0.11507255305E+04  0.25500000920E-02 0. -1.
    10030    2    1    2    0    0  0.00000000000E+00  0.00000000000E+00  0.22413454699E+03  0.25255856079E+04  0.25156204737E+04 0.  0.
        1    1    3    3  502    0  0.11142589970E+03 -0.57445340759E+03 -0.10057498159E+04  0.11635914836E+04  0.50400001928E-02 0. -1.
       -1    1    3    3    0  502 -0.11142589970E+03  0.57445340759E+03  0.12298843628E+04  0.13619941243E+04  0.50400001928E-02 0.  1.
</event>
<event>
 5   0  0.2793920E-05  0.1611648E+04  0.7818609E-02  0.8813424E-01
       -1   -1    0    0    0  501  0.00000000000E+00  0.00000000000E+00  0.79266260488E+03  0.79266260490E+03  0.50400001928E-02 0. -1.
        1   -1    0    0  501    0  0.00000000000E+00  0.00000000000E+00 -0.81920348387E+03  0.81920348389E+03  0.50400001928E-02 0.  1.
    10030    2    1    2    0    0  0.00000000000E+00  0.00000000000E+00 -0.26540878986E+02  0.16118660888E+04  0.16116475638E+04 0.  0.
        2    1    3    3  502    0  0.44009891374E+03 -0.58056030080E+03 -0.35772191515E+03  0.81160475931E+03  0.25500000920E-02 0.  1.
       -2    1    3    3    0  502 -0.44009891374E+03  0.58056030080E+03  0.33118103616E+03  0.80026132948E+03  0.25500000920E-02 0. -1.
</event>
<event>
 5   0  0.2777539E-05  0.2121975E+04  0.7818609E-02  0.8551625E-01
       -1   -1    0    0    0  501  0.00000000000E+00  0.00000000000E+00  0.44824497370E+03  0.44824497373E+03  0.50400001928E-02 0.  1.
        1   -1    0    0  501    0  0.00000000000E+00  0.00000000000E+00 -0.25113370037E+04  0.25113370037E+04  0.50400001928E-02 0. -1.
    10030    2    1    2    0    0  0.00000000000E+00  0.00000000000E+00 -0.20630920300E+04  0.29595819774E+04  0.21219747305E+04 0.  0.
        3    1    3    3  502    0  0.42683698989E+03 -0.91147318328E+03 -0.56328006280E+03  0.11533679461E+04  0.10100000352E+00 0.  1.
       -3    1    3    3    0  502 -0.42683698989E+03  0.91147318328E+03 -0.14998119672E+04  0.18062140313E+04  0.10100000352E+00 0. -1.
</event>
<event>
 5   0  0.2896652E-05  0.2527677E+04  0.7818609E-02  0.8393191E-01
        1   -1    0    0  501    0  0.00000000000E+00  0.00000000000E+00  0.89658133763E+03  0.89658133764E+03  0.50400001928E-02 0.  1.
       -1   -1    0    0    0  501  0.00000000000E+00  0.00000000000E+00 -0.17815314973E+04  0.17815314973E+04  0.50400001928E-02 0. -1.
    10030    2    1    2    0    0  0.00000000000E+00  0.00000000000E+00 -0.88495015971E+03  0.26781128350E+04  0.25276771099E+04 0.  0.
        4    1    3    3  502    0 -0.52850955399E+03 -0.81483506171E+03  0.41436293009E+03  0.10559246077E+04  0.12699999809E+01 0.  1.
       -4    1    3    3    0  502  0.52850955399E+03  0.81483506171E+03 -0.12993130898E+04  0.16221882273E+04  0.12699999809E+01 0. -1.
</event>
<event>
 5   0  0.6445331E-05  0.2489585E+04  0.7818609E-02  0.8406705E-01
       -2   -1    0    0    0  501  0.00000000000E+00  0.00000000000E+00  0.20718187537E+04  0.20718187537E+04  0.25500000920E-02 0.  1.
        2   -1    0    0  501    0  0.00000000000E+00  0.00000000000E+00 -0.74789794517E+03  0.74789794517E+03  0.25500000920E-02 0. -1.
    10030    2    1    2    0    0  0.00000000000E+00  0.00000000000E+00  0.13239208085E+04  0.28197166988E+04  0.24895854985E+04 0.  0.
        1    1    3    3  502    0  0.25753237140E+03  0.31431366465E+03  0.19945859245E+04  0.20355561924E+04  0.50400001928E-02 0.  1.
       -1    1    3    3    0  502 -0.25753237140E+03 -0.31431366465E+03 -0.67066511598E+03  0.78416050648E+03  0.50400001928E-02 0. -1.
</event>
<event>
 5   0  0.2793920E-05  0.2583850E+04  0.7818609E-02  0.8373708E-01
        1   -1    0    0  501    0  0.00000000000E+00  0.00000000000E+00  0.16708257844E+04  0.16708257844E+04  0.50400001928E-02 0.  1.
       -1   -1    0    0    0  501  0.00000000000E+00  0.00000000000E+00 -0.99894960044E+03  0.99894960045E+03  0.50400001928E-02 0. -1.
    10030    2    1    2    0    0  0.00000000000E+00  0.00000000000E+00  0.67187618394E+03  0.26697753848E+04  0.25838504212E+04 0.  0.
        2    1    3    3  502    0  0.83469226376E+03  0.59071349996E+03  0.11517625544E+04  0.15401982326E+04  0.25500000920E-02 0.  1.
       -2    1    3    3    0  502 -0.83469226376E+03 -0.59071349996E+03 -0.47988637042E+03  0.11295771522E+04  0.25500000920E-02 0. -1.
</event>
<event>
 5   0  0.2980790E-05  0.2369806E+04  0.7818609E-02  0.8450895E-01
        1   -1    0    0  501    0  0.00000000000E+00  0.00000000000E+00  0.11243943803E+04  0.11243943803E+04  0.50400001928E-02 0. -1.
       -1   -1    0    0    0  501  0.00000000000E+00  0.00000000000E+00 -0.12486676163E+04  0.12486676164E+04  0.50400001928E-02 0.  1.
    10030    2    1    2    0    0  0.00000000000E+00  0.00000000000E+00 -0.12427323606E+03  0.23730619967E+04  0.23698057732E+04 0.  0.
        5    1    3    3  502    0  0.57197849893E+03  0.66616251723E+03 -0.85886851050E+03  0.12282544976E+04  0.46999998093E+01 0.  1.
       -5    1    3    3    0  502 -0.57197849893E+03 -0.66616251723E+03  0.73459527445E+03  0.11448074990E+04  0.46999998093E+01 0. -1.
</event>
<event>
 5   0  0.2980790E-05  0.2484334E+04  0.7818609E-02  0.8408588E-01
       -1   -1    0    0    0  501  0.00000000000E+00  0.00000000000E+00  0.86110195458E+03  0.86110195460E+03  0.50400001928E-02 0. -1.
        1   -1    0    0  501    0  0.00000000000E+00  0.00000000000E+00 -0.17918661296E+04  0.17918661296E+04  0.50400001928E-02 0.  1.
    10030    2    1    2    0    0  0.00000000000E+00  0.00000000000E+00 -0.93076417498E+03  0.26529680842E+04  0.24843344594E+04 0.  0.
        5    1    3    3  502    0 -0.20020047481E+03  0.92681265525E+03  0.39151689296E+03  0.10258506205E+04  0.46999998093E+01 0. -1.
       -5    1    3    3    0  502  0.20020047481E+03 -0.92681265525E+03 -0.13222810679E+04  0.16271174637E+04  0.46999998093E+01 0.  1.
</event>
<event>
 5   0  0.6445331E-05  0.2561042E+04  0.7818609E-02  0.8381556E-01
        2   -1    0    0  501    0  0.00000000000E+00  0.00000000000E+00  0.87463825992E+03  0.87463825993E+03  0.25500000920E-02 0.  1.
       -2   -1    0    0    0  501  0.00000000000E+00  0.00000000000E+00 -0.18747572878E+04  0.18747572878E+04  0.25500000920E-02 0. -1.
    10030    2    1    2    0    0  0.00000000000E+00  0.00000000000E+00 -0.10001190278E+04  0.27493955477E+04  0.25610423284E+04 0.  0.
        1    1    3    3  502    0 -0.10347811503E+04 -0.27445607249E+03  0.25420557545E+03  0.11003266058E+04  0.50400001928E-02 0.  1.
       -1    1    3    3    0  502  0.10347811503E+04  0.27445607249E+03 -0.12543246033E+04  0.16490689419E+04  0.50400001928E-02 0. -1.
</event>
<event>
 5   0  0.2980790E-05  0.2304850E+04  0.7818609E-02  0.8476011E-01
        1   -1    0    0  501    0  0.00000000000E+00  0.00000000000E+00  0.84323090061E+03  0.84323090062E+03  0.50400001928E-02 0.  1.
       -1   -1    0    0    0  501  0.00000000000E+00  0.00000000000E+00 -0.15749931223E+04  0.15749931223E+04  0.50400001928E-02 0. -1.
    10030    2    1    2    0    0  0.00000000000E+00  0.00000000000E+00 -0.73176222167E+03  0.24182240229E+04  0.23048495560E+04 0.  0.
        5    1    3    3  502    0 -0.48421997631E+03 -0.71485024232E+03  0.43493366620E+03  0.96678293241E+03  0.46999998093E+01 0.  1.
       -5    1    3    3    0  502  0.48421997631E+03  0.71485024232E+03 -0.11666958879E+04  0.14514410905E+04  0.46999998093E+01 0. -1.
</event>
<event>
 5   0  0.6648328E-05  0.2566412E+04  0.7818609E-02  0.8379701E-01
        2   -1    0    0  501    0  0.00000000000E+00  0.00000000000E+00  0.18963642249E+04  0.18963642249E+04  0.25500000920E-02 0.  1.
       -2   -1    0    0    0  501  0.00000000000E+00  0.00000000000E+00 -0.86830250572E+03  0.86830250572E+03  0.25500000920E-02 0. -1.
    10030    2    1    2    0    0  0.00000000000E+00  0.00000000000E+00  0.10280617192E+04  0.27646667306E+04  0.25664121323E+04 0.  0.
        2    1    3    3  502    0  0.40142414987E+03  0.91691601986E+03  0.13790170822E+04  0.17039848733E+04  0.25500000920E-02 0.  1.
       -2    1    3    3    0  502 -0.40142414987E+03 -0.91691601986E+03 -0.35095536300E+03  0.10606818573E+04  0.25500000920E-02 0. -1.
</event>
<event>
 5   0  0.2793920E-05  0.2578872E+04  0.7818609E-02  0.8375413E-01
        1   -1    0    0  501    0  0.00000000000E+00  0.00000000000E+00  0.12049255309E+04  0.12049255310E+04  0.50400001928E-02 0. -1.
       -1   -1    0    0    0  501  0.00000000000E+00  0.00000000000E+00 -0.13798742052E+04  0.13798742053E+04  0.50400001928E-02 0.  1.
    10030    2    1    2    0    0  0.00000000000E+00  0.00000000000E+00 -0.17494867431E+03  0.25847997362E+04  0.25788723578E+04 0.  0.
        2    1    3    3  502    0  0.25385013324E+03 -0.12539679039E+04 -0.24837450555E+03  0.13032901784E+04  0.25500000920E-02 0.  1.
       -2    1    3    3    0  502 -0.25385013324E+03  0.12539679039E+04  0.73425831243E+02  0.12815095578E+04  0.25500000920E-02 0. -1.
</event>
<event>
 5   0  0.7071821E-05  0.1843070E+04  0.7818609E-02  0.8683725E-01
       -2   -1    0    0    0  501  0.00000000000E+00  0.00000000000E+00  0.45263674926E+03  0.45263674927E+03  0.25500000920E-02 0. -1.
        2   -1    0    0  501    0  0.00000000000E+00  0.00000000000E+00 -0.18761766485E+04  0.18761766486E+04  0.25500000920E-02 0.  1.
    10030    2    1    2    0    0  0.00000000000E+00  0.00000000000E+00 -0.14235398993E+04  0.23288133978E+04  0.18430697211E+04 0.  0.
        5    1    3    3  502    0 -0.31197828004E+03  0.61704334424E+03  0.57992673381E+02  0.69387187294E+03  0.46999998093E+01 0. -1.
       -5    1    3    3    0  502  0.31197828004E+03 -0.61704334424E+03 -0.14815325727E+04  0.16349415249E+04  0.46999998093E+01 0.  1.
</event>
<event>
 5   0  0.6909250E-05  0.2365955E+04  0.7818609E-02  0.8452360E-01
        2   -1    0    0  501    0  0.00000000000E+00  0.00000000000E+00  0.11440486852E+04  0.11440486852E+04  0.25500000920E-02 0.  1.
       -2   -1    0    0    0  501  0.00000000000E+00  0.00000000000E+00 -0.12232314699E+04  0.12232314699E+04  0.25500000920E-02 0. -1.
    10030    2    1    2    0    0  0.00000000000E+00  0.00000000000E+00 -0.79182784684E+02  0.23672801551E+04  0.23659554981E+04 0.  0.
        4    1    3    3  502    0 -0.60394390927E+03 -0.33366151787E+00 -0.10573562546E+04  0.12176831357E+04  0.12699999809E+01 0. -1.
       -4    1    3    3    0  502  0.60394390927E+03  0.33366151787E+00  0.97817346991E+03  0.11495970194E+04  0.12699999809E+01 0.  1.
</event>
<event>
 5   0  0.6909250E-05  0.2139413E+04  0.7818609E-02  0.8544078E-01
        2   -1    0    0  501    0  0.00000000000E+00  0.00000000000E+00  0.19065135107E+04  0.19065135107E+04  0.25500000920E-02 0.  1.
       -2   -1    0    0    0  501  0.00000000000E+00  0.00000000000E+00 -0.60019097937E+03  0.60019097938E+03  0.25500000920E-02 0. -1.
    10030    2    1    2    0    0  0.00000000000E+00  0.00000000000E+00  0.13063225313E+04  0.25067044900E+04  0.21394132010E+04 0.  0.
        4    1    3    3  502    0 -0.10325737366E+03  0.94034585755E+03  0.68074494877E+02  0.94844513114E+03  0.12699999809E+01 0. -1.
       -4    1    3    3    0  502  0.10325737366E+03 -0.94034585755E+03  0.12382480364E+04  0.15582593589E+04  0.12699999809E+01 0.  1.
</event>
<event>
 5   0  0.2980790E-05  0.1569915E+04  0.7818609E-02  0.8839246E-01
        1   -1    0    0  501    0  0.00000000000E+00  0.00000000000E+00  0.17542346253E+04  0.17542346253E+04  0.50400001928E-02 0.  1.
       -1   -1    0    0    0  501  0.00000000000E+00  0.00000000000E+00 -0.35124066496E+03  0.35124066500E+03  0.50400001928E-02 0. -1.
    10030    2    1    2    0    0  0.00000000000E+00  0.00000000000E+00  0.14029939604E+04  0.21054752903E+04  0.15699153306E+04 0.  0.
        5    1    3    3  502    0  0.40285317108E+03 -0.30916095305E+03  0.15042395157E+04  0.15876491372E+04  0.46999998093E+01 0.  1.
       -5    1    3    3    0  502 -0.40285317108E+03  0.30916095305E+03 -0.10124555536E+03  0.51782615308E+03  0.46999998093E+01 0. -1.
</event>
<event>
 5   0  0.2331375E-05  0.2455105E+04  0.7818609E-02  0.8419156E-01
        3   -1    0    0  501    0  0.00000000000E+00  0.00000000000E+00  0.24317196002E+04  0.24317196023E+04  0.10100000352E+00 0. -1.
       -3   -1    0    0    0  501  0.00000000000E+00  0.00000000000E+00 -0.61967900534E+03  0.61967901358E+03  0.10100000352E+00 0.  1.
    10030    2    1    2    0    0  0.00000000000E+00  0.00000000000E+00  0.18120405949E+04  0.30513986159E+04  0.24551053736E+04 0.  0.
        4    1    3    3  502    0  0.63108824110E+03  0.28586363311E+02  0.22141728656E+04  0.23025317891E+04  0.12699999809E+01 0. -1.
       -4    1    3    3    0  502 -0.63108824110E+03 -0.28586363311E+02 -0.40213227071E+03  0.74886682679E+03  0.12699999809E+01 0.  1.
</event>
<event>
 5   0  0.2980790E-05  0.2533095E+04  0.7818609E-02  0.8391289E-01
       -1   -1    0    0    0  501  0.00000000000E+00  0.00000000000E+00  0.11491266383E+04  0.11491266384E+04  0.50400001928E-02 0.  1.
        1   -1    0    0  501    0  0.00000000000E+00  0.00000000000E+00 -0.13959671197E+04  0.13959671197E+04  0.50400001928E-02 0. -1.
    10030    2    1    2    0    0  0.00000000000E+00  0.00000000000E+00 -0.24684048136E+03  0.25450937581E+04  0.25330953425E+04 0.  0.
        5    1    3    3  502    0  0.94170202134E+03 -0.38079650742E+00  0.72753777900E+03  0.11900151898E+04  0.46999998093E+01 0.  1.
       -5    1    3    3    0  502 -0.94170202134E+03  0.38079650742E+00 -0.97437826036E+03  0.13550785683E+04  0.46999998093E+01 0. -1.
</event>
<event>
 5   0  0.6909250E-05  0.2139273E+04  0.7818609E-02  0.8544138E-01
       -2   -1    0    0    0  501  0.00000000000E+00  0.00000000000E+00  0.10137975230E+04  0.10137975230E+04  0.25500000920E-02 0.  1.
        2   -1    0    0  501    0  0.00000000000E+00  0.00000000000E+00 -0.11285514644E+04  0.11285514644E+04  0.25500000920E-02 0. -1.
    10030    2    1    2    0    0  0.00000000000E+00  0.00000000000E+00 -0.11475394134E+03  0.21423489874E+04  0.21392734086E+04 0.  0.
        4    1    3    3  502    0 -0.52733877200E+02  0.95744560753E+03  0.41726446278E+03  0.10457505429E+04  0.12699999809E+01 0.  1.
       -4    1    3    3    0  502  0.52733877200E+02 -0.95744560753E+03 -0.53201840412E+03  0.10965984445E+04  0.12699999809E+01 0. -1.
</event>
<event>
 5   0  0.7071821E-05  0.2494754E+04  0.7818609E-02  0.8404857E-01
        2   -1    0    0  501    0  0.00000000000E+00  0.00000000000E+00  0.13217682764E+04  0.13217682764E+04  0.25500000920E-02 0. -1.
       -2   -1    0    0    0  501  0.00000000000E+00  0.00000000000E+00 -0.11771722474E+04  0.11771722474E+04  0.25500000920E-02 0.  1.
    10030    2    1    2    0    0  0.00000000000E+00  0.00000000000E+00  0.14459602903E+03  0.24989405238E+04  0.24947536411E+04 0.  0.
        5    1    3    3  502    0  0.70586366063E+03  0.62702704917E+03  0.88884732863E+03  0.12967182005E+04  0.46999998093E+01 0. -1.
       -5    1    3    3    0  502 -0.70586366063E+03 -0.62702704917E+03 -0.74425129960E+03  0.12022223233E+04  0.46999998093E+01 0.  1.
</event>
<event>
 5   0  0.2777539E-05  0.2521143E+04  0.7818609E-02  0.8395492E-01
       -1   -1    0    0    0  501  0.00000000000E+00  0.00000000000E+00  0.95075553112E+03  0.95075553113E+03  0.50400001928E-02 0.  1.
        1   -1    0    0  501    0  0.00000000000E+00  0.00000000000E+00 -0.16713444271E+04  0.16713444271E+04  0.50400001928E-02 0. -1.
    10030    2    1    2    0    0  0.00000000000E+00  0.00000000000E+00 -0.72058889602E+03  0.26220999583E+04  0.25211425652E+04 0.  0.
        3    1    3    3  502    0  0.10338006231E+03 -0.90972990184E+03 -0.12614458831E+04  0.15586987065E+04  0.10100000352E+00 0. -1.
       -3    1    3    3    0  502 -0.10338006231E+03  0.90972990184E+03  0.54085698706E+03  0.10634012518E+04  0.10100000352E+00 0.  1.
</event>
<event>
 5   0  0.6909250E-05  0.2533470E+04  0.7818609E-02  0.8391158E-01
        2   -1    0    0  501    0  0.00000000000E+00  0.00000000000E+00  0.18118564178E+04  0.18118564178E+04  0.25500000920E-02 0.  1.
       -2   -1    0    0    0  501  0.00000000000E+00  0.00000000000E+00 -0.88562050050E+03  0.88562050051E+03  0.25500000920E-02 0. -1.
    10030    2    1    2    0    0  0.00000000000E+00  0.00000000000E+00  0.92623591732E+03  0.26974769183E+04  0.25334697058E+04 0.  0.
        4    1    3    3  502    0  0.78042519031E+03 -0.55981709672E+03 -0.41627739104E+03  0.10467794126E+04  0.12699999809E+01 0. -1.
       -4    1    3    3    0  502 -0.78042519031E+03  0.55981709672E+03  0.13425133084E+04  0.16506975057E+04  0.12699999809E+01 0.  1.
</event>
<event>
 5   0  0.6445331E-05  0.2480779E+04  0.7818609E-02  0.8409865E-01
        2   -1    0    0  501    0  0.00000000000E+00  0.00000000000E+00  0.11269198696E+04  0.11269198696E+04  0.25500000920E-02 0. -1.
       -2   -1    0    0    0  501  0.00000000000E+00  0.00000000000E+00 -0.13652843305E+04  0.13652843305E+04  0.25500000920E-02 0.  1.
    10030    2    1    2    0    0  0.00000000000E+00  0.00000000000E+00 -0.23836446091E+03  0.24922042001E+04  0.24807789419E+04 0.  0.
        1    1    3    3  502    0 -0.12322230043E+04  0.34991134719E+02 -0.25754135008E+03  0.12593353243E+04  0.50400001928E-02 0.  1.
       -1    1    3    3    0  502  0.12322230043E+04 -0.34991134719E+02  0.19176889165E+02  0.12328688758E+04  0.50400001928E-02 0. -1.
</event>
<event>
 5   0  0.2777539E-05  0.2472299E+04  0.7818609E-02  0.8412921E-01
        1   -1    0    0  501    0  0.00000000000E+00  0.00000000000E+00  0.99346854096E+03  0.99346854097E+03  0.50400001928E-02 0.  1.
       -1   -1    0    0    0  501  0.00000000000E+00  0.00000000000E+00 -0.15381111170E+04  0.15381111171E+04  0.50400001928E-02 0. -1.
    10030    2    1    2    0    0  0.00000000000E+00  0.00000000000E+00 -0.54464257608E+03  0.25315796580E+04  0.24722985316E+04 0.  0.
        3    1    3    3  502    0 -0.58824109626E+03 -0.10749570004E+04 -0.43902812833E+03  0.13016550417E+04  0.10100000352E+00 0. -1.
       -3    1    3    3    0  502  0.58824109626E+03  0.10749570004E+04 -0.10561444775E+03  0.12299246163E+04  0.10100000352E+00 0.  1.
</event>
<event>
 5   0  0.6827859E-05  0.2278750E+04  0.7818609E-02  0.8486347E-01
       -2   -1    0    0    0  501  0.00000000000E+00  0.00000000000E+00  0.78904939486E+03  0.78904939486E+03  0.25500000920E-02 0.  1.
        2   -1    0    0  501    0  0.00000000000E+00  0.00000000000E+00 -0.16452393093E+04  0.16452393093E+04  0.25500000920E-02 0. -1.
    10030    2    1    2    0    0  0.00000000000E+00  0.00000000000E+00 -0.85618991448E+03  0.24342887042E+04  0.22787497286E+04 0.  0.
        3    1    3    3  502    0 -0.30010094373E+03 -0.34487480118E+03 -0.15429655466E+04  0.16092675020E+04  0.10100000352E+00 0. -1.
       -3    1    3    3    0  502  0.30010094373E+03  0.34487480118E+03  0.68677563213E+03  0.82502120216E+03  0.10100000352E+00 0.  1.
</event>
<event>
 5   0  0.2777539E-05  0.2560523E+04  0.7818609E-02  0.8381736E-01
        1   -1    0    0  501    0  0.00000000000E+00  0.00000000000E+00  0.15717587501E+04  0.15717587501E+04  0.50400001928E-02 0.  1.
       -1   -1    0    0    0  501  0.00000000000E+00  0.00000000000E+00 -0.10428248782E+04  0.10428248783E+04  0.50400001928E-02 0. -1.
    10030    2    1    2    0    0  0.00000000000E+00  0.00000000000E+00  0.52893387185E+03  0.26145836284E+04  0.25605227023E+04 0.  0.
        3    1    3    3  502    0  0.12608406741E+04 -0.20249489902E+03  0.17118318455E+03  0.12884203827E+04  0.10100000352E+00 0.  1.
       -3    1    3    3    0  502 -0.12608406741E+04  0.20249489902E+03  0.35775068730E+03  0.13261632457E+04  0.10100000352E+00 0. -1.
</event>
<event>
 5   0  0.2980790E-05  0.1940886E+04  0.7818609E-02  0.8634768E-01
        1   -1    0    0  501    0  0.00000000000E+00  0.00000000000E+00  0.20502068935E+04  0.20502068935E+04  0.50400001928E-02 0.  1.
       -1   -1    0    0    0  501  0.00000000000E+00  0.00000000000E+00 -0.45934872468E+03  0.45934872470E+03  0.50400001928E-02 0. -1.
    10030    2    1    2    0    0  0.00000000000E+00  0.00000000000E+00  0.15908581688E+04  0.25095556182E+04  0.19408863149E+04 0.  0.
        5    1    3    3  502    0 -0.89841737493E+02 -0.22271585231E+03  0.20111630949E+04  0.20254562383E+04  0.46999998093E+01 0.  1.
       -5    1    3    3    0  502  0.89841737493E+02  0.22271585231E+03 -0.42030492616E+03  0.48409937990E+03  0.46999998093E+01 0. -1.
</event>
<event>
 5   0  0.2977854E-05  0.2494052E+04  0.7818609E-02  0.8405107E-01
       -1   -1    0    0    0  501  0.00000000000E+00  0.00000000000E+00  0.93826702554E+03  0.93826702555E+03  0.50400001928E-02 0.  1.
        1   -1    0    0  501    0  0.00000000000E+00  0.00000000000E+00 -0.16573898320E+04  0.16573898320E+04  0.50400001928E-02 0. -1.
    10030    2    1    2    0    0  0.00000000000E+00  0.00000000000E+00 -0.71912280648E+03  0.25956568576E+04  0.24940523073E+04 0.  0.
        1    1    3    3  502    0 -0.44994139866E+03  0.84901505153E+03  0.46767887521E+03  0.10686427608E+04  0.50400001928E-02 0.  1.
       -1    1    3    3    0  502  0.44994139866E+03 -0.84901505153E+03 -0.11868016817E+04  0.15270140967E+04  0.50400001928E-02 0. -1.
</event>
<event>
 5   0  0.2977854E-05  0.1457748E+04  0.7818609E-02  0.8913046E-01
        1   -1    0    0  501    0  0.00000000000E+00  0.00000000000E+00  0.82295365482E+03  0.82295365484E+03  0.50400001928E-02 0. -1.
       -1   -1    0    0    0  501  0.00000000000E+00  0.00000000000E+00 -0.64554971947E+03  0.64554971949E+03  0.50400001928E-02 0.  1.
    10030    2    1    2    0    0  0.00000000000E+00  0.00000000000E+00  0.17740393535E+03  0.14685033743E+04  0.14577482650E+04 0.  0.
        1    1    3    3  502    0 -0.49630721387E+03  0.53245596351E+03  0.12676029101E+03  0.73884935881E+03  0.50400001928E-02 0.  1.
       -1    1    3    3    0  502  0.49630721387E+03 -0.53245596351E+03  0.50643644338E+02  0.72965401551E+03  0.50400001928E-02 0. -1.
</event>
<event>
 5   0  0.6827859E-05  0.1528575E+04  0.7818609E-02  0.8865670E-01
       -2   -1    0    0    0  501  0.00000000000E+00  0.00000000000E+00  0.41165681280E+03  0.41165681281E+03  0.25500000920E-02 0. -1.
        2   -1    0    0  501    0  0.00000000000E+00  0.00000000000E+00 -0.14189866881E+04  0.14189866881E+04  0.25500000920E-02 0.  1.
    10030    2    1    2    0    0  0.00000000000E+00  0.00000000000E+00 -0.10073298753E+04  0.18306435009E+04  0.15285752025E+04 0.  0.
        3    1    3    3  502    0 -0.56442993317E+03  0.24268149489E+03 -0.10480989564E+04  0.12149020084E+04  0.10100000352E+00 0. -1.
       -3    1    3    3    0  502  0.56442993317E+03 -0.24268149489E+03  0.40769081102E+02  0.61574149251E+03  0.10100000352E+00 0.  1.
</event>
<event>
 5   0  0.2977854E-05  0.2542144E+04  0.7818609E-02  0.8388124E-01
       -1   -1    0    0    0  501  0.00000000000E+00  0.00000000000E+00  0.12947291234E+04  0.12947291234E+04  0.50400001928E-02 0.  1.
        1   -1    0    0  501    0  0.00000000000E+00  0.00000000000E+00 -0.12478469223E+04  0.12478469223E+04  0.50400001928E-02 0. -1.
    10030    2    1    2    0    0  0.00000000000E+00  0.00000000000E+00  0.46882201115E+02  0.25425760458E+04  0.25421437819E+04 0.  0.
        1    1    3    3  502    0 -0.51744657736E+02  0.44777021956E+03 -0.11652255712E+04  0.12493703658E+04  0.50400001928E-02 0. -1.
       -1    1    3    3    0  502  0.51744657736E+02 -0.44777021956E+03  0.12121077723E+04  0.12932056800E+04  0.50400001928E-02 0.  1.
</event>
<event>
 5   0  0.2793920E-05  0.2547583E+04  0.7818609E-02  0.8386227E-01
        1   -1    0    0  501    0  0.00000000000E+00  0.00000000000E+00  0.18480703900E+04  0.18480703900E+04  0.50400001928E-02 0. -1.
       -1   -1    0    0    0  501  0.00000000000E+00  0.00000000000E+00 -0.87796672878E+03  0.87796672880E+03  0.50400001928E-02 0.  1.
    10030    2    1    2    0    0  0.00000000000E+00  0.00000000000E+00  0.97010366119E+03  0.27260371188E+04  0.25475826306E+04 0.  0.
        2    1    3    3  502    0 -0.11233157867E+04  0.29020895917E+03  0.10477027748E+04  0.15632468458E+04  0.25500000920E-02 0. -1.
       -2    1    3    3    0  502  0.11233157867E+04 -0.29020895917E+03 -0.77599113610E+02  0.11627902730E+04  0.25500000920E-02 0.  1.
</event>
<event>
 5   0  0.2980790E-05  0.2330600E+04  0.7818609E-02  0.8465953E-01
       -1   -1    0    0    0  501  0.00000000000E+00  0.00000000000E+00  0.62148585596E+03  0.62148585598E+03  0.50400001928E-02 0.  1.
        1   -1    0    0  501    0  0.00000000000E+00  0.00000000000E+00 -0.21849634519E+04  0.21849634519E+04  0.50400001928E-02 0. -1.
    10030    2    1    2    0    0  0.00000000000E+00  0.00000000000E+00 -0.15634775960E+04  0.28064493079E+04  0.23305998208E+04 0.  0.
        5    1    3    3  502    0  0.71196065640E+03 -0.74313632404E+03 -0.12354720403E+03  0.10365450178E+04  0.46999998093E+01 0.  1.
       -5    1    3    3    0  502 -0.71196065640E+03  0.74313632404E+03 -0.14399303919E+04  0.17699042901E+04  0.46999998093E+01 0. -1.
</event>
<event>
 5   0  0.6445331E-05  0.2494630E+04  0.7818609E-02  0.8404901E-01
       -2   -1    0    0    0  501  0.00000000000E+00  0.00000000000E+00  0.14971199510E+04  0.14971199510E+04  0.25500000920E-02 0. -1.
        2   -1    0    0  501    0  0.00000000000E+00  0.00000000000E+00 -0.10391914159E+04  0.10391914159E+04  0.25500000920E-02 0.  1.
    10030    2    1    2    0    0  0.00000000000E+00  0.00000000000E+00  0.45792853513E+03  0.25363113669E+04  0.24946295930E+04 0.  0.
        1    1    3    3  502    0 -0.49064792884E+03  0.81631624206E+03  0.10478323864E+04  0.14160015209E+04  0.50400001928E-02 0. -1.
       -1    1    3    3    0  502  0.49064792884E+03 -0.81631624206E+03 -0.58990385130E+03  0.11203098459E+04  0.50400001928E-02 0.  1.
</event>
<event>
 5   0  0.6827859E-05  0.2374396E+04  0.7818609E-02  0.8449152E-01
        2   -1    0    0  501    0  0.00000000000E+00  0.00000000000E+00  0.20801121602E+04  0.20801121602E+04  0.25500000920E-02 0. -1.
       -2   -1    0    0    0  501  0.00000000000E+00  0.00000000000E+00 -0.67757832313E+03  0.67757832314E+03  0.25500000920E-02 0.  1.
    10030    2    1    2    0    0  0.00000000000E+00  0.00000000000E+00  0.14025338370E+04  0.27576904833E+04  0.23743958469E+04 0.  0.
        3    1    3    3  502    0  0.85478610471E+03 -0.44321506358E+03 -0.10535319239E+03  0.96860630947E+03  0.10100000352E+00 0.  1.
       -3    1    3    3    0  502 -0.85478610471E+03  0.44321506358E+03  0.15078870294E+04  0.17890841738E+04  0.10100000352E+00 0. -1.
</event>
<event>
 5   0  0.2896652E-05  0.2670160E+04  0.7818609E-02  0.8344752E-01
       -1   -1    0    0    0  501  0.00000000000E+00  0.00000000000E+00  0.11790964072E+04  0.11790964072E+04  0.50400001928E-02 0.  1.
        1   -1    0    0  501    0  0.00000000000E+00  0.00000000000E+00 -0.15116992764E+04  0.15116992764E+04  0.50400001928E-02 0. -1.
    10030    2    1    2    0    0  0.00000000000E+00  0.00000000000E+00 -0.33260286917E+03  0.26907956836E+04  0.26701604339E+04 0.  0.
        4    1    3    3  502    0 -0.12379309409E+04  0.39987751625E+03  0.13612199798E+03  0.13080159990E+04  0.12699999809E+01 0.  1.
       -4    1    3    3    0  502  0.12379309409E+04 -0.39987751625E+03 -0.46872486715E+03  0.13827796847E+04  0.12699999809E+01 0. -1.
</event>
<event>
 5   0  0.2793920E-05  0.2534596E+04  0.7818609E-02  0.8390763E-01
       -1   -1    0    0    0  501  0.00000000000E+00  0.00000000000E+00  0.10137872889E+04  0.10137872889E+04  0.50400001928E-02 0.  1.
        1   -1    0    0  501    0  0.00000000000E+00  0.00000000000E+00 -0.15842029691E+04  0.15842029691E+04  0.50400001928E-02 0. -1.
    10030    2    1    2    0    0  0.00000000000E+00  0.00000000000E+00 -0.57041568020E+03  0.25979902580E+04  0.25345964832E+04 0.  0.
        2    1    3    3  502    0  0.48906304488E+03  0.10753783893E+04 -0.75540045232E+03  0.14022307889E+04  0.25500000920E-02 0. -1.
       -2    1    3    3    0  502 -0.48906304488E+03 -0.10753783893E+04  0.18498477212E+03  0.11957594691E+04  0.25500000920E-02 0.  1.
</event>
<event>
 5   0  0.2896652E-05  0.2501895E+04  0.7818609E-02  0.8402311E-01
       -1   -1    0    0    0  501  0.00000000000E+00  0.00000000000E+00  0.18346913950E+04  0.18346913950E+04  0.50400001928E-02 0.  1.
        1   -1    0    0  501    0  0.00000000000E+00  0.00000000000E+00 -0.85293334278E+03  0.85293334280E+03  0.50400001928E-02 0. -1.
    10030    2    1    2    0    0  0.00000000000E+00  0.00000000000E+00  0.98175805225E+03  0.26876247378E+04  0.25018948536E+04 0.  0.
        4    1    3    3  502    0  0.88937732296E+03  0.18689431036E+03 -0.43255533140E+03  0.10064925402E+04  0.12699999809E+01 0. -1.
       -4    1    3    3    0  502 -0.88937732296E+03 -0.18689431036E+03  0.14143133836E+04  0.16811321976E+04  0.12699999809E+01 0.  1.
</event>
<event>
 5   0  0.2777539E-05  0.2448630E+04  0.7818609E-02  0.8421518E-01
        1   -1    0    0  501    0  0.00000000000E+00  0.00000000000E+00  0.21787912301E+04  0.21787912301E+04  0.50400001928E-02 0. -1.
       -1   -1    0    0    0  501  0.00000000000E+00  0.00000000000E+00 -0.68797181781E+03  0.68797181783E+03  0.50400001928E-02 0.  1.
    10030    2    1    2    0    0  0.00000000000E+00  0.00000000000E+00  0.14908194122E+04  0.28667630479E+04  0.24486297909E+04 0.  0.
        3    1    3    3  502    0 -0.26728000967E+03  0.79124088394E+03  0.17935172803E+04  0.19784349838E+04  0.10100000352E+00 0. -1.
       -3    1    3    3    0  502  0.26728000967E+03 -0.79124088394E+03 -0.30269786807E+03  0.88832806413E+03  0.10100000352E+00 0.  1.
</event>
<event>
 5   0  0.2331375E-05  0.2624027E+04  0.7818609E-02  0.8360085E-01
       -3   -1    0    0    0  501  0.00000000000E+00  0.00000000000E+00  0.15644266056E+04  0.15644266088E+04  0.10100000352E+00 0.  1.
        3   -1    0    0  501    0  0.00000000000E+00  0.00000000000E+00 -0.11003260125E+04  0.11003260172E+04  0.10100000352E+00 0. -1.
    10030    2    1    2    0    0  0.00000000000E+00  0.00000000000E+00  0.46410059303E+03  0.26647526260E+04  0.26240269049E+04 0.  0.
        5    1    3    3  502    0  0.13060987100E+04  0.12435170074E+03  0.23220627253E+03  0.13324034782E+04  0.46999998093E+01 0. -1.
       -5    1    3    3    0  502 -0.13060987100E+04 -0.12435170074E+03  0.23189432050E+03  0.13323491478E+04  0.46999998093E+01 0.  1.
</event>
<event>
 5   0  0.2977854E-05  0.2369969E+04  0.7818609E-02  0.8450833E-01
        1   -1    0    0  501    0  0.00000000000E+00  0.00000000000E+00  0.19296785607E+04  0.19296785607E+04  0.50400001928E-02 0.  1.
       -1   -1    0    0    0  501  0.00000000000E+00  0.00000000000E+00 -0.72768009068E+03  0.72768009070E+03  0.50400001928E-02 0. -1.
    10030    2    1    2    0    0  0.00000000000E+00  0.00000000000E+00  0.12019984700E+04  0.26573586514E+04  0.23699693416E+04 0.  0.
        1    1    3    3  502    0 -0.95465655027E+03  0.69177581430E+03  0.46707629973E+03  0.12681021946E+04  0.50400001928E-02 0.  1.
       -1    1    3    3    0  502  0.95465655027E+03 -0.69177581430E+03  0.73492217024E+03  0.13892564567E+04  0.50400001928E-02 0. -1.
</event>
<event>
 5   0  0.6909250E-05  0.2285914E+04  0.7818609E-02  0.8483496E-01
       -2   -1    0    0    0  501  0.00000000000E+00  0.00000000000E+00  0.12032147940E+04  0.12032147940E+04  0.25500000920E-02 0.  1.
        2   -1    0    0  501    0  0.00000000000E+00  0.00000000000E+00 -0.10857166533E+04  0.10857166533E+04  0.25500000920E-02 0. -1.
    10030    2    1    2    0    0  0.00000000000E+00  0.00000000000E+00  0.11749814066E+03  0.22889314474E+04  0.22859136811E+04 0.  0.
        4    1    3    3  502    0 -0.82078210104E+03 -0.23547342768E+03 -0.70200238492E+03  0.11054139287E+04  0.12699999809E+01 0. -1.
       -4    1    3    3    0  502  0.82078210104E+03  0.23547342768E+03  0.81950052559E+03  0.11835175186E+04  0.12699999809E+01 0.  1.
</event>
<event>
 5   0  0.6909250E-05  0.1673892E+04  0.7818609E-02  0.8776396E-01
        2   -1    0    0  501    0  0.00000000000E+00  0.00000000000E+00  0.95166704683E+03  0.95166704683E+03  0.25500000920E-02 0.  1.
       -2   -1    0    0    0  501  0.00000000000E+00  0.00000000000E+00 -0.73605447626E+03  0.73605447626E+03  0.25500000920E-02 0. -1.
    10030    2    1    2    0    0  0.00000000000E+00  0.00000000000E+00  0.21561257057E+03  0.16877215231E+04  0.16738922184E+04 0.  0.
        4    1    3    3  502    0  0.73433107836E+03 -0.92275240970E+02 -0.28621684504E+03  0.79352287178E+03  0.12699999809E+01 0. -1.
       -4    1    3    3    0  502 -0.73433107836E+03  0.92275240970E+02  0.50182941561E+03  0.89419865132E+03  0.12699999809E+01 0.  1.
</event>
<event>
 5   0  0.2977854E-05  0.1403437E+04  0.7818609E-02  0.8951334E-01
       -1   -1    0    0    0  501  0.00000000000E+00  0.00000000000E+00  0.10463634473E+04  0.10463634473E+04  0.50400001928E-02 0.  1.
        1   -1    0    0  501    0  0.00000000000E+00  0.00000000000E+00 -0.47059074467E+03  0.47059074470E+03  0.50400001928E-02 0. -1.
    10030    2    1    2    0    0  0.00000000000E+00  0.00000000000E+00  0.57577270261E+03  0.15169541920E+04  0.14034371434E+04 0.  0.
        1    1    3    3  502    0 -0.48192274568E+03 -0.42165228790E+03  0.59809991884E+03  0.87622126066E+03  0.50400001928E-02 0.  1.
       -1    1    3    3    0  502  0.48192274568E+03  0.42165228790E+03 -0.22327216225E+02  0.64073293134E+03  0.50400001928E-02 0. -1.
</event>
<event>
 5   0  0.2896652E-05  0.2590685E+04  0.7818609E-02  0.8371372E-01
       -1   -1    0    0    0  501  0.00000000000E+00  0.00000000000E+00  0.85877254164E+03  0.85877254165E+03  0.50400001928E-02 0. -1.
        1   -1    0    0  501    0  0.00000000000E+00  0.00000000000E+00 -0.19538488363E+04  0.19538488363E+04  0.50400001928E-02 0.  1.
    10030    2    1    2    0    0  0.00000000000E+00  0.00000000000E+00 -0.10950762946E+04  0.28126213779E+04  0.25906846440E+04 0.  0.
        4    1    3    3  502    0  0.17572357233E+03 -0.21956807049E+03  0.82522835312E+03  0.87183275870E+03  0.12699999809E+01 0. -1.
       -4    1    3    3    0  502 -0.17572357233E+03  0.21956807049E+03 -0.19203046477E+04  0.19407886192E+04  0.12699999809E+01 0.  1.
</event>
<event>
 5   0  0.6909250E-05  0.2489230E+04  0.7818609E-02  0.8406832E-01
        2   -1    0    0  501    0  0.00000000000E+00  0.00000000000E+00  0.91435561189E+03  0.91435561189E+03  0.25500000920E-02 0. -1.
       -2   -1    0    0    0  501  0.00000000000E+00  0.00000000000E+00 -0.16941620818E+04  0.16941620818E+04  0.25500000920E-02 0.  1.
    10030    2    1    2    0    0  0.00000000000E+00  0.00000000000E+00 -0.77980646993E+03  0.26085176937E+04  0.24892300874E+04 0.  0.
        4    1    3    3  502    0  0.33595490875E+02  0.43856390546E+03  0.83019334854E+03  0.93951560128E+03  0.12699999809E+01 0. -1.
       -4    1    3    3    0  502 -0.33595490875E+02 -0.43856390546E+03 -0.16099998185E+04  0.16690020924E+04  0.12699999809E+01 0.  1.
</event>
<event>
 5   0  0.6909250E-05  0.2525673E+04  0.7818609E-02  0.8393896E-01
       -2   -1    0    0    0  501  0.00000000000E+00  0.00000000000E+00  0.12888237182E+04  0.12888237182E+04  0.25500000920E-02 0. -1.
        2   -1    0    0  501    0  0.00000000000E+00  0.00000000000E+00 -0.12373733596E+04  0.12373733596E+04  0.25500000920E-02 0.  1.
    10030    2    1    2    0    0  0.00000000000E+00  0.00000000000E+00  0.51450358659E+02  0.25261970778E+04  0.25256730858E+04 0.  0.
        4    1    3    3  502    0  0.11536031411E+04  0.50857621311E+03  0.98572627589E+02  0.12645822028E+04  0.12699999809E+01 0. -1.
       -4    1    3    3    0  502 -0.11536031411E+04 -0.50857621311E+03 -0.47122268930E+02  0.12616148750E+04  0.12699999809E+01 0.  1.
</event>
<event>
 5   0  0.7071821E-05  0.2430958E+04  0.7818609E-02  0.8428004E-01
       -2   -1    0    0    0  501  0.00000000000E+00  0.00000000000E+00  0.73075060178E+03  0.73075060178E+03  0.25500000920E-02 0.  1.
        2   -1    0    0  501    0  0.00000000000E+00  0.00000000000E+00 -0.20217418476E+04  0.20217418476E+04  0.25500000920E-02 0. -1.
    10030    2    1    2    0    0  0.00000000000E+00  0.00000000000E+00 -0.12909912458E+04  0.27524924494E+04  0.24309578950E+04 0.  0.
        5    1    3    3  502    0 -0.11663677315E+04  0.32077684042E+03 -0.51125866967E+03  0.13132855682E+04  0.46999998093E+01 0. -1.
       -5    1    3    3    0  502  0.11663677315E+04 -0.32077684042E+03 -0.77973257616E+03  0.14392068812E+04  0.46999998093E+01 0.  1.
</event>
<event>
 5   0  0.6445331E-05  0.2517676E+04  0.7818609E-02  0.8396715E-01
       -2   -1    0    0    0  501  0.00000000000E+00  0.00000000000E+00  0.94582657047E+03  0.94582657047E+03  0.25500000920E-02 0.  1.
        2   -1    0    0  501    0  0.00000000000E+00  0.00000000000E+00 -0.16754371817E+04  0.16754371817E+04  0.25500000920E-02 0. -1.
    10030    2    1    2    0    0  0.00000000000E+00  0.00000000000E+00 -0.72961061119E+03  0.26212637521E+04  0.25176759153E+04 0.  0.
        1    1    3    3  502    0 -0.10864303640E+04  0.63532568325E+03 -0.33719350292E+03  0.13029463220E+04  0.50400001928E-02 0.  1.
       -1    1    3    3    0  502  0.10864303640E+04 -0.63532568325E+03 -0.39241710827E+03  0.13183174301E+04  0.50400001928E-02 0. -1.
</event>
<event>
 5   0  0.2980790E-05  0.1699832E+04  0.7818609E-02  0.8761460E-01
        1   -1    0    0  501    0  0.00000000000E+00  0.00000000000E+00  0.47625161204E+03  0.47625161206E+03  0.50400001928E-02 0.  1.
       -1   -1    0    0    0  501  0.00000000000E+00  0.00000000000E+00 -0.15167547538E+04  0.15167547538E+04  0.50400001928E-02 0. -1.
    10030    2    1    2    0    0  0.00000000000E+00  0.00000000000E+00 -0.10405031418E+04  0.19930063659E+04  0.16998316347E+04 0.  0.
        5    1    3    3  502    0 -0.10564035498E+02  0.22173124618E+03 -0.14821499057E+04  0.14986883523E+04  0.46999998093E+01 0. -1.
       -5    1    3    3    0  502  0.10564035498E+02 -0.22173124618E+03  0.44164676397E+03  0.49431801353E+03  0.46999998093E+01 0.  1.
</event>
<event>
 5   0  0.7071821E-05  0.2465594E+04  0.7818609E-02  0.8415347E-01
        2   -1    0    0  501    0  0.00000000000E+00  0.00000000000E+00  0.13000607517E+04  0.13000607517E+04  0.25500000920E-02 0. -1.
       -2   -1    0    0    0  501  0.00000000000E+00  0.00000000000E+00 -0.11690130279E+04  0.11690130279E+04  0.25500000920E-02 0.  1.
    10030    2    1    2    0    0  0.00000000000E+00  0.00000000000E+00  0.13104772382E+03  0.24690737796E+04  0.24655936046E+04 0.  0.
        5    1    3    3  502    0 -0.46354056085E+03 -0.35241580033E+03 -0.10226096657E+04  0.11767834832E+04  0.46999998093E+01 0.  1.
       -5    1    3    3    0  502  0.46354056085E+03  0.35241580033E+03  0.11536573895E+04  0.12922902964E+04  0.46999998093E+01 0. -1.
</event>
<event>
 5   0  0.2793920E-05  0.2450313E+04  0.7818609E-02  0.8420904E-01
        1   -1    0    0  501    0  0.00000000000E+00  0.00000000000E+00  0.89973434706E+03  0.89973434707E+03  0.50400001928E-02 0. -1.
       -1   -1    0    0    0  501  0.00000000000E+00  0.00000000000E+00 -0.16682794489E+04  0.16682794489E+04  0.50400001928E-02 0.  1.
    10030    2    1    2    0    0  0.00000000000E+00  0.00000000000E+00 -0.76854510185E+03  0.25680137960E+04  0.24503128949E+04 0.  0.
        2    1    3    3  502    0  0.10041788255E+04 -0.53781017475E+03 -0.85692755449E+03  0.14254612346E+04  0.25500000920E-02 0.  1.
       -2    1    3    3    0  502 -0.10041788255E+04  0.53781017475E+03  0.88382452638E+02  0.11425525614E+04  0.25500000920E-02 0. -1.
</event>
<event>
 5   0  0.7071821E-05  0.2359584E+04  0.7818609E-02  0.8454792E-01
       -2   -1    0    0    0  501  0.00000000000E+00  0.00000000000E+00  0.82454801873E+03  0.82454801873E+03  0.25500000920E-02 0.  1.
        2   -1    0    0  501    0  0.00000000000E+00  0.00000000000E+00 -0.16880870001E+04  0.16880870001E+04  0.25500000920E-02 0. -1.
    10030    2    1    2    0    0  0.00000000000E+00  0.00000000000E+00 -0.86353898139E+03  0.25126350188E+04  0.23595836848E+04 0.  0.
        5    1    3    3  502    0 -0.46878124359E+03 -0.37489673642E+03  0.64977943872E+03  0.88461224630E+03  0.46999998093E+01 0.  1.
       -5    1    3    3    0  502  0.46878124359E+03  0.37489673642E+03 -0.15133184201E+04  0.16280227726E+04  0.46999998093E+01 0. -1.
</event>
<event>
 5   0  0.2777539E-05  0.2421073E+04  0.7818609E-02  0.8431656E-01
       -1   -1    0    0    0  501  0.00000000000E+00  0.00000000000E+00  0.70797421279E+03  0.70797421281E+03  0.50400001928E-02 0.  1.
        1   -1    0    0  501    0  0.00000000000E+00  0.00000000000E+00 -0.20698474098E+04  0.20698474098E+04  0.50400001928E-02 0. -1.
    10030    2    1    2    0    0  0.00000000000E+00  0.00000000000E+00 -0.13618731970E+04  0.27778216226E+04  0.24210729775E+04 0.  0.
        3    1    3    3  502    0 -0.31725421993E+03 -0.44788577936E+03  0.55700547568E+03  0.78198914414E+03  0.10100000352E+00 0.  1.
       -3    1    3    3    0  502  0.31725421993E+03  0.44788577936E+03 -0.19188786727E+04  0.19958324785E+04  0.10100000352E+00 0. -1.
</event>
<event>
 5   0  0.2896652E-05  0.2602866E+04  0.7818609E-02  0.8367228E-01
        1   -1    0    0  501    0  0.00000000000E+00  0.00000000000E+00  0.18179852852E+04  0.18179852852E+04  0.50400001928E-02 0.  1.
       -1   -1    0    0    0  501  0.00000000000E+00  0.00000000000E+00 -0.93165087081E+03  0.93165087082E+03  0.50400001928E-02 0. -1.
    10030    2    1    2    0    0  0.00000000000E+00  0.00000000000E+00  0.88633441442E+03  0.27496361561E+04  0.26028657853E+04 0.  0.
        4    1    3    3  502    0  0.10231807383E+04  0.80418067333E+03  0.45476741433E+03  0.13785573592E+04  0.12699999809E+01 0. -1.
       -4    1    3    3    0  502 -0.10231807383E+04 -0.80418067333E+03  0.43156700009E+03  0.13710787968E+04  0.12699999809E+01 0.  1.
</event>
<event>
 5   0  0.2777539E-05  0.2289343E+04  0.7818609E-02  0.8482135E-01
       -1   -1    0    0    0  501  0.00000000000E+00  0.00000000000E+00  0.10035919878E+04  0.10035919878E+04  0.50400001928E-02 0.  1.
        1   -1    0    0  501    0  0.00000000000E+00  0.00000000000E+00 -0.13055833009E+04  0.13055833009E+04  0.50400001928E-02 0. -1.
    10030    2    1    2    0    0  0.00000000000E+00  0.00000000000E+00 -0.30199131315E+03  0.23091752887E+04  0.22893430850E+04 0.  0.
        3    1    3    3  502    0  0.98556192355E+02 -0.95574590398E+03 -0.77856665218E+03  0.12366606641E+04  0.10100000352E+00 0. -1.
       -3    1    3    3    0  502 -0.98556192355E+02  0.95574590398E+03  0.47657533903E+03  0.10725146246E+04  0.10100000352E+00 0.  1.
</event>
<event>
 5   0  0.2777539E-05  0.2471102E+04  0.7818609E-02  0.8413353E-01
        1   -1    0    0  501    0  0.00000000000E+00  0.00000000000E+00  0.12053310427E+04  0.12053310427E+04  0.50400001928E-02 0.  1.
       -1   -1    0    0    0  501  0.00000000000E+00  0.00000000000E+00 -0.12665289691E+04  0.12665289692E+04  0.50400001928E-02 0. -1.
    10030    2    1    2    0    0  0.00000000000E+00  0.00000000000E+00 -0.61197926407E+02  0.24718600119E+04  0.24711023314E+04 0.  0.
        3    1    3    3  502    0 -0.69366524625E+03  0.22051408100E+03  0.96810023893E+03  0.12112043662E+04  0.10100000352E+00 0.  1.
       -3    1    3    3    0  502  0.69366524625E+03 -0.22051408100E+03 -0.10292981653E+04  0.12606556457E+04  0.10100000352E+00 0. -1.
</event>
<event>
 5   0  0.6648328E-05  0.2501067E+04  0.7818609E-02  0.8402605E-01
       -2   -1    0    0    0  501  0.00000000000E+00  0.00000000000E+00  0.12100833124E+04  0.12100833124E+04  0.25500000920E-02 0.  1.
        2   -1    0    0  501    0  0.00000000000E+00  0.00000000000E+00 -0.12923360600E+04  0.12923360600E+04  0.25500000920E-02 0. -1.
    10030    2    1    2    0    0  0.00000000000E+00  0.00000000000E+00 -0.82252747566E+02  0.25024193725E+04  0.25010672124E+04 0.  0.
        2    1    3    3  502    0  0.11454250888E+04  0.49984436472E+02  0.45848036672E+03  0.12347879675E+04  0.25500000920E-02 0.  1.
       -2    1    3    3    0  502 -0.11454250888E+04 -0.49984436472E+02 -0.54073311428E+03  0.12676314050E+04  0.25500000920E-02 0. -1.
</event>
<event>
 5   0  0.2980790E-05  0.2048175E+04  0.7818609E-02  0.8584423E-01
        1   -1    0    0  501    0  0.00000000000E+00  0.00000000000E+00  0.21080766366E+04  0.21080766366E+04  0.50400001928E-02 0. -1.
       -1   -1    0    0    0  501  0.00000000000E+00  0.00000000000E+00 -0.49749392030E+03  0.49749392032E+03  0.50400001928E-02 0.  1.
    10030    2    1    2    0    0  0.00000000000E+00  0.00000000000E+00  0.16105827163E+04  0.26055705569E+04  0.20481751002E+04 0.  0.
        5    1    3    3  502    0 -0.80071146733E+03 -0.32895821169E+03  0.10922960231E+03  0.87252825454E+03  0.46999998093E+01 0.  1.
       -5    1    3    3    0  502  0.80071146733E+03  0.32895821169E+03  0.15013531140E+04  0.17330423024E+04  0.46999998093E+01 0. -1.
</event>
<event>
 5   0  0.2793920E-05  0.2476662E+04  0.7818609E-02  0.8411347E-01
        1   -1    0    0  501    0  0.00000000000E+00  0.00000000000E+00  0.84446735034E+03  0.84446735035E+03  0.50400001928E-02 0. -1.
       -1   -1    0    0    0  501  0.00000000000E+00  0.00000000000E+00 -0.18158948783E+04  0.18158948783E+04  0.50400001928E-02 0.  1.
    10030    2    1    2    0    0  0.00000000000E+00  0.00000000000E+00 -0.97142752798E+03  0.26603622287E+04  0.24766622187E+04 0.  0.
        2    1    3    3  502    0 -0.25791634932E+03  0.99499638831E+03 -0.12275348366E+04  0.16010560362E+04  0.25500000920E-02 0.  1.
       -2    1    3    3    0  502  0.25791634932E+03 -0.99499638831E+03  0.25610730857E+03  0.10593061925E+04  0.25500000920E-02 0. -1.
</event>
<event>
 5   0  0.2777539E-05  0.1497586E+04  0.7818609E-02  0.8886060E-01
       -1   -1    0    0    0  501  0.00000000000E+00  0.00000000000E+00  0.11257560374E+04  0.11257560375E+04  0.50400001928E-02 0.  1.
        1   -1    0    0  501    0  0.00000000000E+00  0.00000000000E+00 -0.49805744203E+03  0.49805744206E+03  0.50400001928E-02 0. -1.
    10030    2    1    2    0    0  0.00000000000E+00  0.00000000000E+00  0.62769859541E+03  0.16238134795E+04  0.14975862879E+04 0.  0.
        3    1    3    3  502    0 -0.68628395744E+03  0.26364319887E+03  0.15975170863E+03  0.75233903605E+03  0.10100000352E+00 0. -1.
       -3    1    3    3    0  502  0.68628395744E+03 -0.26364319887E+03  0.46794688678E+03  0.87147444346E+03  0.10100000352E+00 0.  1.
</event>
<event>
 5   0  0.6445331E-05  0.2598527E+04  0.7818609E-02  0.8368702E-01
        2   -1    0    0  501    0  0.00000000000E+00  0.00000000000E+00  0.24224779974E+04  0.24224779974E+04  0.25500000920E-02 0.  1.
       -2   -1    0    0    0  501  0.00000000000E+00  0.00000000000E+00 -0.69684254325E+03  0.69684254325E+03  0.25500000920E-02 0. -1.
    10030    2    1    2    0    0  0.00000000000E+00  0.00000000000E+00  0.17256354541E+04  0.31193205406E+04  0.25985270664E+04 0.  0.
        1    1    3    3  502    0 -0.39401224821E+03  0.13254887254E+03  0.23404892296E+04  0.23771210927E+04  0.50400001928E-02 0.  1.
       -1    1    3    3    0  502  0.39401224821E+03 -0.13254887254E+03 -0.61485377545E+03  0.74219944797E+03  0.50400001928E-02 0. -1.
</event>
<event>
 5   0  0.6648328E-05  0.2073153E+04  0.7818609E-02  0.8573163E-01
       -2   -1    0    0    0  501  0.00000000000E+00  0.00000000000E+00  0.95351198522E+03  0.95351198523E+03  0.25500000920E-02 0. -1.
        2   -1    0    0  501    0  0.00000000000E+00  0.00000000000E+00 -0.11268768290E+04  0.11268768290E+04  0.25500000920E-02 0.  1.
    10030    2    1    2    0    0  0.00000000000E+00  0.00000000000E+00 -0.17336484373E+03  0.20803888142E+04  0.20731527317E+04 0.  0.
        2    1    3    3  502    0  0.11600855556E+03  0.55745990701E+03  0.78252274704E+03  0.96776101519E+03  0.25500000920E-02 0. -1.
       -2    1    3    3    0  502 -0.11600855556E+03 -0.55745990701E+03 -0.95588759077E+03  0.11126277990E+04  0.25500000920E-02 0.  1.
</event>
<event>
 5   0  0.2777539E-05  0.2491669E+04  0.7818609E-02  0.8405960E-01
       -1   -1    0    0    0  501  0.00000000000E+00  0.00000000000E+00  0.21109365102E+04  0.21109365102E+04  0.50400001928E-02 0. -1.
        1   -1    0    0  501    0  0.00000000000E+00  0.00000000000E+00 -0.73526759275E+03  0.73526759276E+03  0.50400001928E-02 0.  1.
    10030    2    1    2    0    0  0.00000000000E+00  0.00000000000E+00  0.13756689175E+04  0.28462041030E+04  0.24916686829E+04 0.  0.
        3    1    3    3  502    0  0.30906627899E+03 -0.35835248010E+03 -0.62860750741E+03  0.78682010229E+03  0.10100000352E+00 0.  1.
       -3    1    3    3    0  502 -0.30906627899E+03  0.35835248010E+03  0.20042764249E+04  0.20593840007E+04  0.10100000352E+00 0. -1.
</event>
<event>
 5   0  0.6445331E-05  0.2503945E+04  0.7818609E-02  0.8401581E-01
       -2   -1    0    0    0  501  0.00000000000E+00  0.00000000000E+00  0.10261320884E+04  0.10261320884E+04  0.25500000920E-02 0.  1.
        2   -1    0    0  501    0  0.00000000000E+00  0.00000000000E+00 -0.15275178115E+04  0.15275178115E+04  0.25500000920E-02 0. -1.
    10030    2    1    2    0    0  0.00000000000E+00  0.00000000000E+00 -0.50138572316E+03  0.25536498999E+04  0.25039449211E+04 0.  0.
        1    1    3    3  502    0  0.10995896328E+04  0.23119517359E+03  0.31243324635E+03  0.11662603064E+04  0.50400001928E-02 0. -1.
       -1    1    3    3    0  502 -0.10995896328E+04 -0.23119517359E+03 -0.81381896951E+03  0.13873895935E+04  0.50400001928E-02 0.  1.
</event>
<event>
 5   0  0.2977854E-05  0.2372049E+04  0.7818609E-02  0.8450043E-01
        1   -1    0    0  501    0  0.00000000000E+00  0.00000000000E+00  0.79001109136E+03  0.79001109138E+03  0.50400001928E-02 0. -1.
       -1   -1    0    0    0  501  0.00000000000E+00  0.00000000000E+00 -0.17805493446E+04  0.17805493446E+04  0.50400001928E-02 0.  1.
    10030    2    1    2    0    0  0.00000000000E+00  0.00000000000E+00 -0.99053825326E+03  0.25705604360E+04  0.23720486766E+04 0.  0.
        1    1    3    3  502    0 -0.80529570343E+03 -0.25117363359E+03  0.40820711031E+03  0.93713521388E+03  0.50400001928E-02 0. -1.
       -1    1    3    3    0  502  0.80529570343E+03  0.25117363359E+03 -0.13987453636E+04  0.16334252221E+04  0.50400001928E-02 0.  1.
</event>
<event>
 5   0  0.2777539E-05  0.2371285E+04  0.7818609E-02  0.8450333E-01
       -1   -1    0    0    0  501  0.00000000000E+00  0.00000000000E+00  0.66964429956E+03  0.66964429958E+03  0.50400001928E-02 0.  1.
        1   -1    0    0  501    0  0.00000000000E+00  0.00000000000E+00 -0.20992462447E+04  0.20992462447E+04  0.50400001928E-02 0. -1.
    10030    2    1    2    0    0  0.00000000000E+00  0.00000000000E+00 -0.14296019451E+04  0.27688905443E+04  0.23712851209E+04 0.  0.
        3    1    3    3  502    0  0.19207239943E+03  0.11012944290E+04 -0.11760060900E+04  0.16225694314E+04  0.10100000352E+00 0. -1.
       -3    1    3    3    0  502 -0.19207239943E+03 -0.11012944290E+04 -0.25359585514E+03  0.11463211129E+04  0.10100000352E+00 0.  1.
</event>
<event>
 5   0  0.6909250E-05  0.1286348E+04  0.7818609E-02  0.9040462E-01
        2   -1    0    0  501    0  0.00000000000E+00  0.00000000000E+00  0.35079716720E+03  0.35079716721E+03  0.25500000920E-02 0. -1.
       -2   -1    0    0    0  501  0.00000000000E+00  0.00000000000E+00 -0.11792363025E+04  0.11792363025E+04  0.25500000920E-02 0.  1.
    10030    2    1    2    0    0  0.00000000000E+00  0.00000000000E+00 -0.82843913526E+03  0.15300334697E+04  0.12863479380E+04 0.  0.
        4    1    3    3  502    0  0.43068736861E+03 -0.23993617832E+01  0.15394656201E+03  0.45738225072E+03  0.12699999809E+01 0. -1.
       -4    1    3    3    0  502 -0.43068736861E+03  0.23993617832E+01 -0.98238569727E+03  0.10726512190E+04  0.12699999809E+01 0.  1.
</event>
<event>
 5   0  0.2331375E-05  0.2503665E+04  0.7818609E-02  0.8401681E-01
        4   -1    0    0  501    0  0.00000000000E+00  0.00000000000E+00  0.19180444127E+04  0.19180448331E+04  0.12699999809E+01 0.  1.
       -4   -1    0    0    0  501  0.00000000000E+00  0.00000000000E+00 -0.81702106012E+03  0.81702204718E+03  0.12699999809E+01 0. -1.
    10030    2    1    2    0    0  0.00000000000E+00  0.00000000000E+00  0.11010233526E+04  0.27350668803E+04  0.25036649970E+04 0.  0.
        4    1    3    3  502    0 -0.72757154764E+02  0.90278886898E+03 -0.39351167049E+03  0.98750918641E+03  0.12699999809E+01 0. -1.
       -4    1    3    3    0  502  0.72757154764E+02 -0.90278886898E+03  0.14945350231E+04  0.17475576939E+04  0.12699999809E+01 0.  1.
</event>
<event>
 5   0  0.6445331E-05  0.2496561E+04  0.7818609E-02  0.8404212E-01
       -2   -1    0    0    0  501  0.00000000000E+00  0.00000000000E+00  0.11247080123E+04  0.11247080123E+04  0.25500000920E-02 0.  1.
        2   -1    0    0  501    0  0.00000000000E+00  0.00000000000E+00 -0.13854300932E+04  0.13854300932E+04  0.25500000920E-02 0. -1.
    10030    2    1    2    0    0  0.00000000000E+00  0.00000000000E+00 -0.26072208091E+03  0.25101381055E+04  0.24965610958E+04 0.  0.
        1    1    3    3  502    0 -0.18559140290E+03  0.10458617955E+04  0.52889776778E+03  0.11865934067E+04  0.50400001928E-02 0.  1.
       -1    1    3    3    0  502  0.18559140290E+03 -0.10458617955E+04 -0.78961984869E+03  0.13235446988E+04  0.50400001928E-02 0. -1.
</event>
<event>
 5   0  0.7071821E-05  0.1826109E+04  0.7818609E-02  0.8692537E-01
        2   -1    0    0  501    0  0.00000000000E+00  0.00000000000E+00  0.14528744207E+04  0.14528744207E+04  0.25500000920E-02 0. -1.
       -2   -1    0    0    0  501  0.00000000000E+00  0.00000000000E+00 -0.57380603017E+03  0.57380603017E+03  0.25500000920E-02 0.  1.
    10030    2    1    2    0    0  0.00000000000E+00  0.00000000000E+00  0.87906839057E+03  0.20266804509E+04  0.18261085441E+04 0.  0.
        5    1    3    3  502    0 -0.50904819211E+03 -0.32291758635E+03  0.12005936040E+04  0.13434481461E+04  0.46999998093E+01 0. -1.
       -5    1    3    3    0  502  0.50904819211E+03  0.32291758635E+03 -0.32152521339E+03  0.68323230479E+03  0.46999998093E+01 0.  1.
</event>
<event>
 5   0  0.6909250E-05  0.1652307E+04  0.7818609E-02  0.8789043E-01
       -2   -1    0    0    0  501  0.00000000000E+00  0.00000000000E+00  0.13989506921E+04  0.13989506921E+04  0.25500000920E-02 0.  1.
        2   -1    0    0  501    0  0.00000000000E+00  0.00000000000E+00 -0.48788691203E+03  0.48788691204E+03  0.25500000920E-02 0. -1.
    10030    2    1    2    0    0  0.00000000000E+00  0.00000000000E+00  0.91106378005E+03  0.18868376041E+04  0.16523071546E+04 0.  0.
        4    1    3    3  502    0 -0.10054745733E+03  0.69927079045E+03 -0.33558591366E+02  0.70726036331E+03  0.12699999809E+01 0. -1.
       -4    1    3    3    0  502  0.10054745733E+03 -0.69927079045E+03  0.94462237141E+03  0.11795772408E+04  0.12699999809E+01 0.  1.
</event>
<event>
 5   0  0.2777539E-05  0.2456944E+04  0.7818609E-02  0.8418487E-01
       -1   -1    0    0    0  501  0.00000000000E+00  0.00000000000E+00  0.59612927942E+03  0.59612927944E+03  0.50400001928E-02 0.  1.
        1   -1    0    0  501    0  0.00000000000E+00  0.00000000000E+00 -0.25315697610E+04  0.25315697610E+04  0.50400001928E-02 0. -1.
    10030    2    1    2    0    0  0.00000000000E+00  0.00000000000E+00 -0.19354404816E+04  0.31276990405E+04  0.24569435138E+04 0.  0.
        3    1    3    3  502    0  0.39733462477E+03  0.97668471886E+03 -0.16526812267E+03  0.10672869374E+04  0.10100000352E+00 0.  1.
       -3    1    3    3    0  502 -0.39733462477E+03 -0.97668471886E+03 -0.17701723589E+04  0.20604121031E+04  0.10100000352E+00 0. -1.
</event>
<event>
 5   0  0.2777539E-05  0.2015465E+04  0.7818609E-02  0.8599424E-01
       -1   -1    0    0    0  501  0.00000000000E+00  0.00000000000E+00  0.61292687978E+03  0.61292687980E+03  0.50400001928E-02 0. -1.
        1   -1    0    0  501    0  0.00000000000E+00  0.00000000000E+00 -0.16568449614E+04  0.16568449614E+04  0.50400001928E-02 0.  1.
    10030    2    1    2    0    0  0.00000000000E+00  0.00000000000E+00 -0.10439180817E+04  0.22697718412E+04  0.20154650208E+04 0.  0.
        3    1    3    3  502    0  0.22095390508E+03  0.44662844171E+03  0.46447701231E+03  0.68120224477E+03  0.10100000352E+00 0. -1.
       -3    1    3    3    0  502 -0.22095390508E+03 -0.44662844171E+03 -0.15083950940E+04  0.15885695965E+04  0.10100000352E+00 0.  1.
</event>
<event>
 5   0  0.6827859E-05  0.2442125E+04  0.7818609E-02  0.8423899E-01
       -2   -1    0    0    0  501  0.00000000000E+00  0.00000000000E+00  0.71887851778E+03  0.71887851779E+03  0.25500000920E-02 0.  1.
        2   -1    0    0  501    0  0.00000000000E+00  0.00000000000E+00 -0.20740556744E+04  0.20740556744E+04  0.25500000920E-02 0. -1.
    10030    2    1    2    0    0  0.00000000000E+00  0.00000000000E+00 -0.13551771566E+04  0.27929341922E+04  0.24421253604E+04 0.  0.
        3    1    3    3  502    0  0.22930605258E+03 -0.63580165225E+03  0.48543499588E+03  0.83214911655E+03  0.10100000352E+00 0.  1.
       -3    1    3    3    0  502 -0.22930605258E+03  0.63580165225E+03 -0.18406121525E+04  0.19607850756E+04  0.10100000352E+00 0. -1.
</event>
<event>
 5   0  0.6909250E-05  0.2475757E+04  0.7818609E-02  0.8411674E-01
       -2   -1    0    0    0  501  0.00000000000E+00  0.00000000000E+00  0.93995450901E+03  0.93995450902E+03  0.25500000920E-02 0.  1.
        2   -1    0    0  501    0  0.00000000000E+00  0.00000000000E+00 -0.16302306856E+04  0.16302306856E+04  0.25500000920E-02 0. -1.
    10030    2    1    2    0    0  0.00000000000E+00  0.00000000000E+00 -0.69027617663E+03  0.25701851947E+04  0.24757565985E+04 0.  0.
        4    1    3    3  502    0  0.24569471628E+03  0.97380354113E+03  0.40612184862E+03  0.10833262663E+04  0.12699999809E+01 0.  1.
       -4    1    3    3    0  502 -0.24569471628E+03 -0.97380354113E+03 -0.10963980253E+04  0.14868589284E+04  0.12699999809E+01 0. -1.
</event>
<event>
 5   0  0.2793920E-05  0.1453372E+04  0.7818609E-02  0.8916066E-01
       -1   -1    0    0    0  501  0.00000000000E+00  0.00000000000E+00  0.33970368513E+03  0.33970368517E+03  0.50400001928E-02 0. -1.
        1   -1    0    0  501    0  0.00000000000E+00  0.00000000000E+00 -0.15545092493E+04  0.15545092493E+04  0.50400001928E-02 0.  1.
    10030    2    1    2    0    0  0.00000000000E+00  0.00000000000E+00 -0.12148055642E+04  0.18942129345E+04  0.14533719697E+04 0.  0.
        2    1    3    3  502    0 -0.39563238808E+03 -0.12671828146E+03  0.16967719545E+03  0.44874587465E+03  0.25500000920E-02 0. -1.
       -2    1    3    3    0  502  0.39563238808E+03  0.12671828146E+03 -0.13844827596E+04  0.14454670598E+04  0.25500000920E-02 0.  1.
</event>
<event>
 5   0  0.2977854E-05  0.2511198E+04  0.7818609E-02  0.8399007E-01
        1   -1    0    0  501    0  0.00000000000E+00  0.00000000000E+00  0.20584586896E+04  0.20584586896E+04  0.50400001928E-02 0.  1.
       -1   -1    0    0    0  501  0.00000000000E+00  0.00000000000E+00 -0.76587852130E+03  0.76587852132E+03  0.50400001928E-02 0. -1.
    10030    2    1    2    0    0  0.00000000000E+00  0.00000000000E+00  0.12925801683E+04  0.28243372110E+04  0.25111983573E+04 0.  0.
        1    1    3    3  502    0 -0.10174835737E+04 -0.11684536126E+03  0.14632286890E+04  0.17860469920E+04  0.50400001928E-02 0.  1.
       -1    1    3    3    0  502  0.10174835737E+04  0.11684536126E+03 -0.17064852062E+03  0.10382902190E+04  0.50400001928E-02 0. -1.
</event>
<event>
 5   0  0.2793920E-05  0.2133373E+04  0.7818609E-02  0.8546683E-01
       -1   -1    0    0    0  501  0.00000000000E+00  0.00000000000E+00  0.11864390781E+04  0.11864390781E+04  0.50400001928E-02 0.  1.
        1   -1    0    0  501    0  0.00000000000E+00  0.00000000000E+00 -0.95902131170E+03  0.95902131172E+03  0.50400001928E-02 0. -1.
    10030    2    1    2    0    0  0.00000000000E+00  0.00000000000E+00  0.22741776643E+03  0.21454603899E+04  0.21333732547E+04 0.  0.
        2    1    3    3  502    0  0.13812320437E+03 -0.79230582814E+03  0.81838842917E+03  0.11474258869E+04  0.25500000920E-02 0.  1.
       -2    1    3    3    0  502 -0.13812320437E+03  0.79230582814E+03 -0.59097066275E+03  0.99803450297E+03  0.25500000920E-02 0. -1.
</event>
<event>
 5   0  0.6909250E-05  0.2536572E+04  0.7818609E-02  0.8390071E-01
       -2   -1    0    0    0  501  0.00000000000E+00  0.00000000000E+00  0.11302958801E+04  0.11302958801E+04  0.25500000920E-02 0. -1.
        2   -1    0    0  501    0  0.00000000000E+00  0.00000000000E+00 -0.14231218482E+04  0.14231218482E+04  0.25500000920E-02 0.  1.
    10030    2    1    2    0    0  0.00000000000E+00  0.00000000000E+00 -0.29282596812E+03  0.25534177283E+04  0.25365715144E+04 0.  0.
        4    1    3    3  502    0 -0.93840414154E+03 -0.81264792968E+03 -0.40803935398E+03  0.13067121786E+04  0.12699999809E+01 0. -1.
       -4    1    3    3    0  502  0.93840414154E+03  0.81264792968E+03  0.11521338586E+03  0.12467055497E+04  0.12699999809E+01 0.  1.
</event>
<event>
 5   0  0.6909250E-05  0.2630094E+04  0.7818609E-02  0.8358050E-01
        2   -1    0    0  501    0  0.00000000000E+00  0.00000000000E+00  0.13151825771E+04  0.13151825771E+04  0.25500000920E-02 0. -1.
       -2   -1    0    0    0  501  0.00000000000E+00  0.00000000000E+00 -0.13149117907E+04  0.13149117907E+04  0.25500000920E-02 0.  1.
    10030    2    1    2    0    0  0.00000000000E+00  0.00000000000E+00  0.27078636101E+00  0.26300943678E+04  0.26300943539E+04 0.  0.
        4    1    3    3  502    0 -0.66477721713E+03 -0.81157510089E+03  0.79308216224E+03  0.13151288233E+04  0.12699999809E+01 0. -1.
       -4    1    3    3    0  502  0.66477721713E+03  0.81157510089E+03 -0.79281137588E+03  0.13149655446E+04  0.12699999809E+01 0.  1.
</event>
<event>
 5   0  0.7071821E-05  0.2521349E+04  0.7818609E-02  0.8395419E-01
        2   -1    0    0  501    0  0.00000000000E+00  0.00000000000E+00  0.16836229212E+04  0.16836229212E+04  0.25500000920E-02 0. -1.
       -2   -1    0    0    0  501  0.00000000000E+00  0.00000000000E+00 -0.94397657203E+03  0.94397657204E+03  0.25500000920E-02 0.  1.
    10030    2    1    2    0    0  0.00000000000E+00  0.00000000000E+00  0.73964634913E+03  0.26275994932E+04  0.25213493163E+04 0.  0.
        5    1    3    3  502    0 -0.38957137049E+03  0.11531771476E+04  0.71182164024E+03  0.14100693330E+04  0.46999998093E+01 0. -1.
       -5    1    3    3    0  502  0.38957137049E+03 -0.11531771476E+04  0.27824708890E+02  0.12175301602E+04  0.46999998093E+01 0.  1.
</event>
<event>
 5   0  0.2777539E-05  0.2501520E+04  0.7818609E-02  0.8402444E-01
        1   -1    0    0  501    0  0.00000000000E+00  0.00000000000E+00  0.10193017138E+04  0.10193017138E+04  0.50400001928E-02 0. -1.
       -1   -1    0    0    0  501  0.00000000000E+00  0.00000000000E+00 -0.15347764907E+04  0.15347764907E+04  0.50400001928E-02 0.  1.
    10030    2    1    2    0    0  0.00000000000E+00  0.00000000000E+00 -0.51547477689E+03  0.25540782046E+04  0.25015197839E+04 0.  0.
        3    1    3    3  502    0  0.12008807571E+04  0.22779661817E+03 -0.52863134784E+03  0.13317120575E+04  0.10100000352E+00 0.  1.
       -3    1    3    3    0  502 -0.12008807571E+04 -0.22779661817E+03  0.13156570951E+02  0.12223661471E+04  0.10100000352E+00 0. -1.
</event>
<event>
 5   0  0.2793920E-05  0.2703772E+04  0.7818609E-02  0.8333782E-01
        1   -1    0    0  501    0  0.00000000000E+00  0.00000000000E+00  0.13921817048E+04  0.13921817048E+04  0.50400001928E-02 0.  1.
       -1   -1    0    0    0  501  0.00000000000E+00  0.00000000000E+00 -0.13127564637E+04  0.13127564637E+04  0.50400001928E-02 0. -1.
    10030    2    1    2    0    0  0.00000000000E+00  0.00000000000E+00  0.79425241055E+02  0.27049381685E+04  0.27037718333E+04 0.  0.
        2    1    3    3  502    0 -0.55955366833E+03 -0.50336140334E+03 -0.10837689261E+04  0.13194802368E+04  0.25500000920E-02 0. -1.
       -2    1    3    3    0  502  0.55955366833E+03  0.50336140334E+03  0.11631941672E+04  0.13854579317E+04  0.25500000920E-02 0.  1.
</event>
<event>
 5   0  0.6445331E-05  0.1455187E+04  0.7818609E-02  0.8914812E-01
        2   -1    0    0  501    0  0.00000000000E+00  0.00000000000E+00  0.77040438301E+03  0.77040438301E+03  0.25500000920E-02 0. -1.
       -2   -1    0    0    0  501  0.00000000000E+00  0.00000000000E+00 -0.68716172258E+03  0.68716172259E+03  0.25500000920E-02 0.  1.
    10030    2    1    2    0    0  0.00000000000E+00  0.00000000000E+00  0.83242660429E+02  0.14575661056E+04  0.14551871397E+04 0.  0.
        1    1    3    3  502    0 -0.61803006448E+03  0.24029295282E+03 -0.25835205895E+03  0.71165135436E+03  0.50400001928E-02 0.  1.
       -1    1    3    3    0  502  0.61803006448E+03 -0.24029295282E+03  0.34159471938E+03  0.74591475124E+03  0.50400001928E-02 0. -1.
</event>
<event>
 5   0  0.2896652E-05  0.2432814E+04  0.7818609E-02  0.8427320E-01
       -1   -1    0    0    0  501  0.00000000000E+00  0.00000000000E+00  0.15494898822E+04  0.15494898822E+04  0.50400001928E-02 0.  1.
        1   -1    0    0  501    0  0.00000000000E+00  0.00000000000E+00 -0.95492455493E+03  0.95492455494E+03  0.50400001928E-02 0. -1.
    10030    2    1    2    0    0  0.00000000000E+00  0.00000000000E+00  0.59456532728E+03  0.25044144372E+04  0.24328139560E+04 0.  0.
        4    1    3    3  502    0  0.17159758153E+03 -0.45870353952E+03 -0.84894610520E+03  0.98008457268E+03  0.12699999809E+01 0. -1.
       -4    1    3    3    0  502 -0.17159758153E+03  0.45870353952E+03  0.14435114325E+04  0.15243298645E+04  0.12699999809E+01 0.  1.
</event>
<event>
 5   0  0.6909250E-05  0.2237565E+04  0.7818609E-02  0.8502953E-01
       -2   -1    0    0    0  501  0.00000000000E+00  0.00000000000E+00  0.15959254118E+04  0.15959254118E+04  0.25500000920E-02 0. -1.
        2   -1    0    0  501    0  0.00000000000E+00  0.00000000000E+00 -0.78429382215E+03  0.78429382215E+03  0.25500000920E-02 0.  1.
    10030    2    1    2    0    0  0.00000000000E+00  0.00000000000E+00  0.81163158961E+03  0.23802192339E+04  0.22375651419E+04 0.  0.
        4    1    3    3  502    0 -0.23068097581E+03  0.82497442799E+03 -0.35970024429E+03  0.92907609919E+03  0.12699999809E+01 0.  1.
       -4    1    3    3    0  502  0.23068097581E+03 -0.82497442799E+03  0.11713318339E+04  0.14511431347E+04  0.12699999809E+01 0. -1.
</event>
<event>
 5   0  0.6648328E-05  0.2551021E+04  0.7818609E-02  0.8385031E-01
        2   -1    0    0  501    0  0.00000000000E+00  0.00000000000E+00  0.14805411375E+04  0.14805411375E+04  0.25500000920E-02 0. -1.
       -2   -1    0    0    0  501  0.00000000000E+00  0.00000000000E+00 -0.10988730069E+04  0.10988730069E+04  0.25500000920E-02 0.  1.
    10030    2    1    2    0    0  0.00000000000E+00  0.00000000000E+00  0.38166813061E+03  0.25794141445E+04  0.25510207303E+04 0.  0.
        2    1    3    3  502    0 -0.98952730524E+03  0.24326412759E+03  0.96656600337E+03  0.14044897872E+04  0.25500000920E-02 0. -1.
       -2    1    3    3    0  502  0.98952730524E+03 -0.24326412759E+03 -0.58489787276E+03  0.11749243572E+04  0.25500000920E-02 0.  1.
</event>
<event>
 5   0  0.2896652E-05  0.2493300E+04  0.7818609E-02  0.8405376E-01
        1   -1    0    0  501    0  0.00000000000E+00  0.00000000000E+00  0.21917694013E+04  0.21917694013E+04  0.50400001928E-02 0. -1.
       -1   -1    0    0    0  501  0.00000000000E+00  0.00000000000E+00 -0.70907841665E+03  0.70907841667E+03  0.50400001928E-02 0.  1.
    10030    2    1    2    0    0  0.00000000000E+00  0.00000000000E+00  0.14826909847E+04  0.29008478180E+04  0.24933001238E+04 0.  0.
        4    1    3    3  502    0 -0.35192770575E+03 -0.76244031873E+03  0.18133476068E+04  0.19983491951E+04  0.12699999809E+01 0. -1.
       -4    1    3    3    0  502  0.35192770575E+03  0.76244031873E+03 -0.33065662210E+03  0.90249862290E+03  0.12699999809E+01 0.  1.
</event>
<event>
 5   0  0.6909250E-05  0.2448297E+04  0.7818609E-02  0.8421640E-01
        2   -1    0    0  501    0  0.00000000000E+00  0.00000000000E+00  0.13389426470E+04  0.13389426470E+04  0.25500000920E-02 0. -1.
       -2   -1    0    0    0  501  0.00000000000E+00  0.00000000000E+00 -0.11191959320E+04  0.11191959320E+04  0.25500000920E-02 0.  1.
    10030    2    1    2    0    0  0.00000000000E+00  0.00000000000E+00  0.21974671495E+03  0.24581385790E+04  0.24482966844E+04 0.  0.
        4    1    3    3  502    0  0.11426930329E+03 -0.28779566683E+03 -0.10792243836E+04  0.11227692116E+04  0.12699999809E+01 0.  1.
       -4    1    3    3    0  502 -0.11426930329E+03  0.28779566683E+03  0.12989710986E+04  0.13353693674E+04  0.12699999809E+01 0. -1.
</event>
<event>
 5   0  0.2777539E-05  0.2511711E+04  0.7818609E-02  0.8398825E-01
       -1   -1    0    0    0  501  0.00000000000E+00  0.00000000000E+00  0.12618268410E+04  0.12618268410E+04  0.50400001928E-02 0. -1.
        1   -1    0    0  501    0  0.00000000000E+00  0.00000000000E+00 -0.12499121714E+04  0.12499121714E+04  0.50400001928E-02 0.  1.
    10030    2    1    2    0    0  0.00000000000E+00  0.00000000000E+00  0.11914669631E+02  0.25117390124E+04  0.25117107531E+04 0.  0.
        3    1    3    3  502    0 -0.60652539057E+03 -0.45722385293E+03 -0.99417691779E+03  0.12511252756E+04  0.10100000352E+00 0.  1.
       -3    1    3    3    0  502  0.60652539057E+03  0.45722385293E+03  0.10060915874E+04  0.12606137369E+04  0.10100000352E+00 0. -1.
</event>
<event>
 5   0  0.7071821E-05  0.2392923E+04  0.7818609E-02  0.8442158E-01
       -2   -1    0    0    0  501  0.00000000000E+00  0.00000000000E+00  0.12388251281E+04  0.12388251281E+04  0.25500000920E-02 0. -1.
        2   -1    0    0  501    0  0.00000000000E+00  0.00000000000E+00 -0.11555465411E+04  0.11555465411E+04  0.25500000920E-02 0.  1.
    10030    2    1    2    0    0  0.00000000000E+00  0.00000000000E+00  0.83278586919E+02  0.23943716692E+04  0.23929229756E+04 0.  0.
        5    1    3    3  502    0 -0.39889149269E+03  0.10405477410E+04  0.47738425430E+03  0.12123414702E+04  0.46999998093E+01 0. -1.
       -5    1    3    3    0  502  0.39889149269E+03 -0.10405477410E+04 -0.39410566738E+03  0.11820301990E+04  0.46999998093E+01 0.  1.
</event>
<event>
 5   0  0.7071821E-05  0.2525296E+04  0.7818609E-02  0.8394029E-01
       -2   -1    0    0    0  501  0.00000000000E+00  0.00000000000E+00  0.79286827022E+03  0.79286827023E+03  0.25500000920E-02 0. -1.
        2   -1    0    0  501    0  0.00000000000E+00  0.00000000000E+00 -0.20107756379E+04  0.20107756379E+04  0.25500000920E-02 0.  1.
    10030    2    1    2    0    0  0.00000000000E+00  0.00000000000E+00 -0.12179073677E+04  0.28036439081E+04  0.25252961821E+04 0.  0.
        5    1    3    3  502    0  0.15103666890E+03  0.72271563128E+03 -0.17461221322E+04  0.18958097346E+04  0.46999998093E+01 0.  1.
       -5    1    3    3    0  502 -0.15103666890E+03 -0.72271563128E+03  0.52821476460E+03  0.90783417351E+03  0.46999998093E+01 0. -1.
</event>
<event>
 5   0  0.6445331E-05  0.1548450E+04  0.7818609E-02  0.8852858E-01
        2   -1    0    0  501    0  0.00000000000E+00  0.00000000000E+00  0.20771646715E+04  0.20771646715E+04  0.25500000920E-02 0.  1.
       -2   -1    0    0    0  501  0.00000000000E+00  0.00000000000E+00 -0.28857821853E+03  0.28857821854E+03  0.25500000920E-02 0. -1.
    10030    2    1    2    0    0  0.00000000000E+00  0.00000000000E+00  0.17885864530E+04  0.23657428901E+04  0.15484501678E+04 0.  0.
        1    1    3    3  502    0 -0.74053857191E+03  0.37306200877E+01  0.12393666688E+04  0.14437593406E+04  0.50400001928E-02 0.  1.
       -1    1    3    3    0  502  0.74053857191E+03 -0.37306200877E+01  0.54921978424E+03  0.92198354944E+03  0.50400001928E-02 0. -1.
</event>
<event>
 5   0  0.2896652E-05  0.1804187E+04  0.7818609E-02  0.8704076E-01
       -1   -1    0    0    0  501  0.00000000000E+00  0.00000000000E+00  0.10075735454E+04  0.10075735454E+04  0.50400001928E-02 0. -1.
        1   -1    0    0  501    0  0.00000000000E+00  0.00000000000E+00 -0.80765628675E+03  0.80765628677E+03  0.50400001928E-02 0.  1.
    10030    2    1    2    0    0  0.00000000000E+00  0.00000000000E+00  0.19991725862E+03  0.18152298321E+04  0.18041874717E+04 0.  0.
        4    1    3    3  502    0  0.22168794094E+03  0.86533950984E+03 -0.26562701825E+02  0.89368070387E+03  0.12699999809E+01 0.  1.
       -4    1    3    3    0  502 -0.22168794094E+03 -0.86533950984E+03  0.22647996044E+03  0.92154912827E+03  0.12699999809E+01 0. -1.
</event>
<event>
 5   0  0.2777539E-05  0.2524462E+04  0.7818609E-02  0.8394322E-01
       -1   -1    0    0    0  501  0.00000000000E+00  0.00000000000E+00  0.12156686409E+04  0.12156686409E+04  0.50400001928E-02 0.  1.
        1   -1    0    0  501    0  0.00000000000E+00  0.00000000000E+00 -0.13105771322E+04  0.13105771322E+04  0.50400001928E-02 0. -1.
    10030    2    1    2    0    0  0.00000000000E+00  0.00000000000E+00 -0.94908491242E+02  0.25262457731E+04  0.25244623357E+04 0.  0.
        3    1    3    3  502    0 -0.10349887116E+04  0.71930487100E+03  0.20611306332E+02  0.12605657328E+04  0.10100000352E+00 0. -1.
       -3    1    3    3    0  502  0.10349887116E+04 -0.71930487100E+03 -0.11551979757E+03  0.12656800403E+04  0.10100000352E+00 0.  1.
</event>
<event>
 5   0  0.2777539E-05  0.2435992E+04  0.7818609E-02  0.8426150E-01
       -1   -1    0    0    0  501  0.00000000000E+00  0.00000000000E+00  0.11910103080E+04  0.11910103080E+04  0.50400001928E-02 0.  1.
        1   -1    0    0  501    0  0.00000000000E+00  0.00000000000E+00 -0.12455934592E+04  0.12455934592E+04  0.50400001928E-02 0. -1.
    10030    2    1    2    0    0  0.00000000000E+00  0.00000000000E+00 -0.54583151140E+02  0.24366037672E+04  0.24359923230E+04 0.  0.
        3    1    3    3  502    0 -0.85207106065E+03 -0.20245726813E+03 -0.87396762687E+03  0.12372685484E+04  0.10100000352E+00 0. -1.
       -3    1    3    3    0  502  0.85207106065E+03  0.20245726813E+03  0.81938447573E+03  0.11993352188E+04  0.10100000352E+00 0.  1.
</event>
<event>
 5   0  0.6909250E-05  0.2266079E+04  0.7818609E-02  0.8491417E-01
       -2   -1    0    0    0  501  0.00000000000E+00  0.00000000000E+00  0.10735131115E+04  0.10735131115E+04  0.25500000920E-02 0. -1.
        2   -1    0    0  501    0  0.00000000000E+00  0.00000000000E+00 -0.11958663551E+04  0.11958663551E+04  0.25500000920E-02 0.  1.
    10030    2    1    2    0    0  0.00000000000E+00  0.00000000000E+00 -0.12235324358E+03  0.22693794667E+04  0.22660787382E+04 0.  0.
        4    1    3    3  502    0 -0.95428677338E+03  0.55451500099E+03  0.19537315243E+03  0.11208578919E+04  0.12699999809E+01 0. -1.
       -4    1    3    3    0  502  0.95428677338E+03 -0.55451500099E+03 -0.31772639602E+03  0.11485215748E+04  0.12699999809E+01 0.  1.
</event>
<event>
 5   0  0.2980790E-05  0.2465625E+04  0.7818609E-02  0.8415335E-01
        1   -1    0    0  501    0  0.00000000000E+00  0.00000000000E+00  0.12161652492E+04  0.12161652492E+04  0.50400001928E-02 0. -1.
       -1   -1    0    0    0  501  0.00000000000E+00  0.00000000000E+00 -0.12496873033E+04  0.12496873034E+04  0.50400001928E-02 0.  1.
    10030    2    1    2    0    0  0.00000000000E+00  0.00000000000E+00 -0.33522054177E+02  0.24658525525E+04  0.24656246841E+04 0.  0.
        5    1    3    3  502    0  0.38119228162E+03  0.25693099432E+03  0.11272341458E+04  0.12173742238E+04  0.46999998093E+01 0. -1.
       -5    1    3    3    0  502 -0.38119228162E+03 -0.25693099432E+03 -0.11607562000E+04  0.12484783287E+04  0.46999998093E+01 0.  1.
</event>
<event>
 5   0  0.2896652E-05  0.2598260E+04  0.7818609E-02  0.8368792E-01
        1   -1    0    0  501    0  0.00000000000E+00  0.00000000000E+00  0.10111076686E+04  0.10111076686E+04  0.50400001928E-02 0. -1.
       -1   -1    0    0    0  501  0.00000000000E+00  0.00000000000E+00 -0.16691982014E+04  0.16691982015E+04  0.50400001928E-02 0.  1.
    10030    2    1    2    0    0  0.00000000000E+00  0.00000000000E+00 -0.65809053289E+03  0.26803058700E+04  0.25982602655E+04 0.  0.
        4    1    3    3  502    0  0.81875015090E+03 -0.40390092789E+03  0.62439640226E+03  0.11060561691E+04  0.12699999809E+01 0. -1.
       -4    1    3    3    0  502 -0.81875015090E+03  0.40390092789E+03 -0.12824869351E+04  0.15742497009E+04  0.12699999809E+01 0.  1.
</event>
<event>
 5   0  0.2793920E-05  0.2464088E+04  0.7818609E-02  0.8415892E-01
        1   -1    0    0  501    0  0.00000000000E+00  0.00000000000E+00  0.10579979460E+04  0.10579979460E+04  0.50400001928E-02 0. -1.
       -1   -1    0    0    0  501  0.00000000000E+00  0.00000000000E+00 -0.14347215306E+04  0.14347215306E+04  0.50400001928E-02 0.  1.
    10030    2    1    2    0    0  0.00000000000E+00  0.00000000000E+00 -0.37672358455E+03  0.24927194766E+04  0.24640880118E+04 0.  0.
        2    1    3    3  502    0 -0.84186699883E+03  0.17030011825E+03 -0.10819088989E+04  0.13814011147E+04  0.25500000920E-02 0.  1.
       -2    1    3    3    0  502  0.84186699883E+03 -0.17030011825E+03  0.70518531438E+03  0.11113183620E+04  0.25500000920E-02 0. -1.
</event>
<event>
 5   0  0.6827859E-05  0.2481584E+04  0.7818609E-02  0.8409576E-01
        2   -1    0    0  501    0  0.00000000000E+00  0.00000000000E+00  0.14614185586E+04  0.14614185587E+04  0.25500000920E-02 0. -1.
       -2   -1    0    0    0  501  0.00000000000E+00  0.00000000000E+00 -0.10534727358E+04  0.10534727358E+04  0.25500000920E-02 0.  1.
    10030    2    1    2    0    0  0.00000000000E+00  0.00000000000E+00  0.40794582286E+03  0.25148912944E+04  0.24815838548E+04 0.  0.
        3    1    3    3  502    0 -0.80899847862E+03  0.77008597161E+03 -0.34370040932E+03  0.11686064024E+04  0.10100000352E+00 0.  1.
       -3    1    3    3    0  502  0.80899847862E+03 -0.77008597161E+03  0.75164623217E+03  0.13462848921E+04  0.10100000352E+00 0. -1.
</event>
<event>
 5   0  0.6909250E-05  0.2600727E+04  0.7818609E-02  0.8367954E-01
        2   -1    0    0  501    0  0.00000000000E+00  0.00000000000E+00  0.15458082876E+04  0.15458082876E+04  0.25500000920E-02 0. -1.
       -2   -1    0    0    0  501  0.00000000000E+00  0.00000000000E+00 -0.10938909159E+04  0.10938909159E+04  0.25500000920E-02 0.  1.
    10030    2    1    2    0    0  0.00000000000E+00  0.00000000000E+00  0.45191737163E+03  0.26396992035E+04  0.26007273164E+04 0.  0.
        4    1    3    3  502    0 -0.66194250581E+03 -0.75964403757E+03 -0.60837940699E+03  0.11770106459E+04  0.12699999809E+01 0.  1.
       -4    1    3    3    0  502  0.66194250581E+03  0.75964403757E+03  0.10602967786E+04  0.14626885576E+04  0.12699999809E+01 0. -1.
</event>
<event>
 5   0  0.6445331E-05  0.2498507E+04  0.7818609E-02  0.8403518E-01
       -2   -1    0    0    0  501  0.00000000000E+00  0.00000000000E+00  0.81954497897E+03  0.81954497897E+03  0.25500000920E-02 0.  1.
        2   -1    0    0  501    0  0.00000000000E+00  0.00000000000E+00 -0.19042693666E+04  0.19042693666E+04  0.25500000920E-02 0. -1.
    10030    2    1    2    0    0  0.00000000000E+00  0.00000000000E+00 -0.10847243877E+04  0.27238143456E+04  0.24985070727E+04 0.  0.
        1    1    3    3  502    0 -0.90971523056E+03  0.47749821793E+03  0.23239080986E+03  0.10533716521E+04  0.50400001928E-02 0.  1.
       -1    1    3    3    0  502  0.90971523056E+03 -0.47749821793E+03 -0.13171151975E+04  0.16704426936E+04  0.50400001928E-02 0. -1.
</event>
<event>
 5   0  0.6827859E-05  0.2276759E+04  0.7818609E-02  0.8487142E-01
        2   -1    0    0  501    0  0.00000000000E+00  0.00000000000E+00  0.12305390192E+04  0.12305390192E+04  0.25500000920E-02 0. -1.
       -2   -1    0    0    0  501  0.00000000000E+00  0.00000000000E+00 -0.10531218830E+04  0.10531218830E+04  0.25500000920E-02 0.  1.
    10030    2    1    2    0    0  0.00000000000E+00  0.00000000000E+00  0.17741713614E+03  0.22836609022E+04  0.22767587215E+04 0.  0.
        3    1    3    3  502    0  0.30410865349E+02  0.10380397434E+04 -0.37902714844E+03  0.11054921615E+04  0.10100000352E+00 0.  1.
       -3    1    3    3    0  502 -0.30410865349E+02 -0.10380397434E+04  0.55644428458E+03  0.11781687407E+04  0.10100000352E+00 0. -1.
</event>
<event>
 5   0  0.2980790E-05  0.2551271E+04  0.7818609E-02  0.8384944E-01
        1   -1    0    0  501    0  0.00000000000E+00  0.00000000000E+00  0.13027472108E+04  0.13027472108E+04  0.50400001928E-02 0.  1.
       -1   -1    0    0    0  501  0.00000000000E+00  0.00000000000E+00 -0.12490876493E+04  0.12490876493E+04  0.50400001928E-02 0. -1.
    10030    2    1    2    0    0  0.00000000000E+00  0.00000000000E+00  0.53659561521E+02  0.25518348601E+04  0.25512706255E+04 0.  0.
        5    1    3    3  502    0 -0.40124311047E+03  0.61481396127E+03  0.10702436566E+04  0.12978581645E+04  0.46999998093E+01 0.  1.
       -5    1    3    3    0  502  0.40124311047E+03 -0.61481396127E+03 -0.10165840951E+04  0.12539766956E+04  0.46999998093E+01 0. -1.
</event>
<event>
 5   0  0.2896652E-05  0.2482291E+04  0.7818609E-02  0.8409322E-01
       -1   -1    0    0    0  501  0.00000000000E+00  0.00000000000E+00  0.10396252442E+04  0.10396252442E+04  0.50400001928E-02 0.  1.
        1   -1    0    0  501    0  0.00000000000E+00  0.00000000000E+00 -0.14817286430E+04  0.14817286430E+04  0.50400001928E-02 0. -1.
    10030    2    1    2    0    0  0.00000000000E+00  0.00000000000E+00 -0.44210339883E+03  0.25213538872E+04  0.24822912821E+04 0.  0.
        4    1    3    3  502    0  0.96572222341E+03 -0.61264623810E+03  0.26870403062E+03  0.11748013853E+04  0.12699999809E+01 0. -1.
       -4    1    3    3    0  502 -0.96572222341E+03  0.61264623810E+03 -0.71080742945E+03  0.13465525019E+04  0.12699999809E+01 0.  1.
</event>
<event>
 5   0  0.2980790E-05  0.1465883E+04  0.7818609E-02  0.8907462E-01
       -1   -1    0    0    0  501  0.00000000000E+00  0.00000000000E+00  0.29323919497E+03  0.29323919501E+03  0.50400001928E-02 0. -1.
        1   -1    0    0  501    0  0.00000000000E+00  0.00000000000E+00 -0.18319637578E+04  0.18319637578E+04  0.50400001928E-02 0.  1.
    10030    2    1    2    0    0  0.00000000000E+00  0.00000000000E+00 -0.15387245629E+04  0.21252029529E+04  0.14658834573E+04 0.  0.
        5    1    3    3  502    0  0.29948005154E+03 -0.31433997106E+03  0.86722364857E+02  0.44276492323E+03  0.46999998093E+01 0. -1.
       -5    1    3    3    0  502 -0.29948005154E+03  0.31433997106E+03 -0.16254469277E+04  0.16824380296E+04  0.46999998093E+01 0.  1.
</event>
<event>
 5   0  0.2977854E-05  0.2503317E+04  0.7818609E-02  0.8401805E-01
       -1   -1    0    0    0  501  0.00000000000E+00  0.00000000000E+00  0.18700369303E+04  0.18700369303E+04  0.50400001928E-02 0.  1.
        1   -1    0    0  501    0  0.00000000000E+00  0.00000000000E+00 -0.83776347012E+03  0.83776347013E+03  0.50400001928E-02 0. -1.
    10030    2    1    2    0    0  0.00000000000E+00  0.00000000000E+00  0.10322734602E+04  0.27078004004E+04  0.25033167023E+04 0.  0.
        1    1    3    3  502    0 -0.11146797840E+04  0.27471907051E+03 -0.23262053806E+02  0.11482694421E+04  0.50400001928E-02 0. -1.
       -1    1    3    3    0  502  0.11146797840E+04 -0.27471907051E+03  0.10555355140E+04  0.15595309583E+04  0.50400001928E-02 0.  1.
</event>
<event>
 5   0  0.6909250E-05  0.2518809E+04  0.7818609E-02  0.8396315E-01
       -2   -1    0    0    0  501  0.00000000000E+00  0.00000000000E+00  0.82732494293E+03  0.82732494293E+03  0.25500000920E-02 0.  1.
        2   -1    0    0  501    0  0.00000000000E+00  0.00000000000E+00 -0.19171417848E+04  0.19171417848E+04  0.25500000920E-02 0. -1.
    10030    2    1    2    0    0  0.00000000000E+00  0.00000000000E+00 -0.10898168418E+04  0.27444667277E+04  0.25188086213E+04 0.  0.
        4    1    3    3  502    0 -0.42650301966E+03  0.23049528298E+03  0.72157897779E+03  0.86931624587E+03  0.12699999809E+01 0.  1.
       -4    1    3    3    0  502  0.42650301966E+03 -0.23049528298E+03 -0.18113958196E+04  0.18751504818E+04  0.12699999809E+01 0. -1.
</event>
<event>
 5   0  0.6445331E-05  0.2451675E+04  0.7818609E-02  0.8420407E-01
        2   -1    0    0  501    0  0.00000000000E+00  0.00000000000E+00  0.12741237501E+04  0.12741237501E+04  0.25500000920E-02 0. -1.
       -2   -1    0    0    0  501  0.00000000000E+00  0.00000000000E+00 -0.11793815397E+04  0.11793815397E+04  0.25500000920E-02 0.  1.
    10030    2    1    2    0    0  0.00000000000E+00  0.00000000000E+00  0.94742210408E+02  0.24535052899E+04  0.24516753702E+04 0.  0.
        1    1    3    3  502    0  0.96680516768E+03  0.69299284430E+03 -0.24903692816E+03  0.12153068362E+04  0.50400001928E-02 0.  1.
       -1    1    3    3    0  502 -0.96680516768E+03 -0.69299284430E+03  0.34377913857E+03  0.12381984537E+04  0.50400001928E-02 0. -1.
</event>
<event>
 5   0  0.6648328E-05  0.2422516E+04  0.7818609E-02  0.8431122E-01
       -2   -1    0    0    0  501  0.00000000000E+00  0.00000000000E+00  0.11843182515E+04  0.11843182515E+04  0.25500000920E-02 0. -1.
        2   -1    0    0  501    0  0.00000000000E+00  0.00000000000E+00 -0.12388106474E+04  0.12388106474E+04  0.25500000920E-02 0.  1.
    10030    2    1    2    0    0  0.00000000000E+00  0.00000000000E+00 -0.54492395913E+02  0.24231288989E+04  0.24225160969E+04 0.  0.
        2    1    3    3  502    0  0.51280763990E+03  0.49435776022E+01 -0.11248614440E+04  0.12362481073E+04  0.25500000920E-02 0.  1.
       -2    1    3    3    0  502 -0.51280763990E+03 -0.49435776022E+01  0.10703690481E+04  0.11868807917E+04  0.25500000920E-02 0. -1.
</event>
<event>
 5   0  0.2777539E-05  0.2529844E+04  0.7818609E-02  0.8392430E-01
        1   -1    0    0  501    0  0.00000000000E+00  0.00000000000E+00  0.13654842748E+04  0.13654842748E+04  0.50400001928E-02 0.  1.
       -1   -1    0    0    0  501  0.00000000000E+00  0.00000000000E+00 -0.11717654037E+04  0.11717654037E+04  0.50400001928E-02 0. -1.
    10030    2    1    2    0    0  0.00000000000E+00  0.00000000000E+00  0.19371887109E+03  0.25372496785E+04  0.25298436572E+04 0.  0.
        3    1    3    3  502    0 -0.50388274425E+02  0.78517029640E+02 -0.11683101322E+04  0.11720292135E+04  0.10100000352E+00 0. -1.
       -3    1    3    3    0  502  0.50388274425E+02 -0.78517029640E+02  0.13620290033E+04  0.13652204650E+04  0.10100000352E+00 0.  1.
</event>
<event>
 5   0  0.6827859E-05  0.2492237E+04  0.7818609E-02  0.8405756E-01
        2   -1    0    0  501    0  0.00000000000E+00  0.00000000000E+00  0.16596266610E+04  0.16596266610E+04  0.25500000920E-02 0. -1.
       -2   -1    0    0    0  501  0.00000000000E+00  0.00000000000E+00 -0.93563892045E+03  0.93563892045E+03  0.25500000920E-02 0.  1.
    10030    2    1    2    0    0  0.00000000000E+00  0.00000000000E+00  0.72398774053E+03  0.25952655814E+04  0.24922369851E+04 0.  0.
        3    1    3    3  502    0 -0.95090442004E+03 -0.59700246624E+03 -0.20088870768E+03  0.11406083657E+04  0.10100000352E+00 0.  1.
       -3    1    3    3    0  502  0.95090442004E+03  0.59700246624E+03  0.92487644821E+03  0.14546572158E+04  0.10100000352E+00 0. -1.
</event>
<event>
 5   0  0.7071821E-05  0.2477853E+04  0.7818609E-02  0.8410918E-01
        2   -1    0    0  501    0  0.00000000000E+00  0.00000000000E+00  0.12504786963E+04  0.12504786963E+04  0.25500000920E-02 0.  1.
       -2   -1    0    0    0  501  0.00000000000E+00  0.00000000000E+00 -0.12274814127E+04  0.12274814127E+04  0.25500000920E-02 0. -1.
    10030    2    1    2    0    0  0.00000000000E+00  0.00000000000E+00  0.22997283596E+02  0.24779601089E+04  0.24778533908E+04 0.  0.
        5    1    3    3  502    0  0.35418929957E+03 -0.11210533191E+04  0.40229247034E+03  0.12426069072E+04  0.46999998093E+01 0. -1.
       -5    1    3    3    0  502 -0.35418929957E+03  0.11210533191E+04 -0.37929518674E+03  0.12353532017E+04  0.46999998093E+01 0.  1.
</event>
<event>
 5   0  0.6445331E-05  0.2670722E+04  0.7818609E-02  0.8344568E-01
       -2   -1    0    0    0  501  0.00000000000E+00  0.00000000000E+00  0.96864623122E+03  0.96864623122E+03  0.25500000920E-02 0.  1.
        2   -1    0    0  501    0  0.00000000000E+00  0.00000000000E+00 -0.18409082820E+04  0.18409082820E+04  0.25500000920E-02 0. -1.
    10030    2    1    2    0    0  0.00000000000E+00  0.00000000000E+00 -0.87226205080E+03  0.28095545132E+04  0.26707219020E+04 0.  0.
        1    1    3    3  502    0  0.12404780804E+04 -0.48825309536E+03 -0.35456388123E+03  0.13794536959E+04  0.50400001928E-02 0.  1.
       -1    1    3    3    0  502 -0.12404780804E+04  0.48825309536E+03 -0.51769816958E+03  0.14301008174E+04  0.50400001928E-02 0. -1.
</event>
<event>
 5   0  0.2777539E-05  0.2505727E+04  0.7818609E-02  0.8400948E-01
        1   -1    0    0  501    0  0.00000000000E+00  0.00000000000E+00  0.15061613763E+04  0.15061613764E+04  0.50400001928E-02 0. -1.
       -1   -1    0    0    0  501  0.00000000000E+00  0.00000000000E+00 -0.10421638424E+04  0.10421638424E+04  0.50400001928E-02 0.  1.
    10030    2    1    2    0    0  0.00000000000E+00  0.00000000000E+00  0.46399753397E+03  0.25483252187E+04  0.25057269821E+04 0.  0.
        3    1    3    3  502    0 -0.71967338753E+03  0.22031034940E+03  0.12506252631E+04  0.14596335135E+04  0.10100000352E+00 0. -1.
       -3    1    3    3    0  502  0.71967338753E+03 -0.22031034940E+03 -0.78662772910E+03  0.10886917053E+04  0.10100000352E+00 0.  1.
</event>
<event>
 5   0  0.2896652E-05  0.1612312E+04  0.7818609E-02  0.8813020E-01
        1   -1    0    0  501    0  0.00000000000E+00  0.00000000000E+00  0.95315417518E+03  0.95315417519E+03  0.50400001928E-02 0. -1.
       -1   -1    0    0    0  501  0.00000000000E+00  0.00000000000E+00 -0.68182839925E+03  0.68182839927E+03  0.50400001928E-02 0.  1.
    10030    2    1    2    0    0  0.00000000000E+00  0.00000000000E+00  0.27132577592E+03  0.16349825745E+04  0.16123121106E+04 0.  0.
        4    1    3    3  502    0  0.27950800493E+03  0.38232091681E+03 -0.52588413884E+03  0.70770738913E+03  0.12699999809E+01 0.  1.
       -4    1    3    3    0  502 -0.27950800493E+03 -0.38232091681E+03  0.79720991476E+03  0.92727518533E+03  0.12699999809E+01 0. -1.
</event>
<event>
 5   0  0.2777539E-05  0.2498169E+04  0.7818609E-02  0.8403638E-01
       -1   -1    0    0    0  501  0.00000000000E+00  0.00000000000E+00  0.14827551701E+04  0.14827551702E+04  0.50400001928E-02 0. -1.
        1   -1    0    0  501    0  0.00000000000E+00  0.00000000000E+00 -0.10522388169E+04  0.10522388169E+04  0.50400001928E-02 0.  1.
    10030    2    1    2    0    0  0.00000000000E+00  0.00000000000E+00  0.43051635327E+03  0.25349939871E+04  0.24981693665E+04 0.  0.
        3    1    3    3  502    0 -0.11188647514E+03  0.10571436775E+03 -0.10425775940E+04  0.10538795760E+04  0.10100000352E+00 0.  1.
       -3    1    3    3    0  502  0.11188647514E+03 -0.10571436775E+03  0.14730939473E+04  0.14811144111E+04  0.10100000352E+00 0. -1.
</event>
<event>
 5   0  0.6909250E-05  0.2582366E+04  0.7818609E-02  0.8374216E-01
        2   -1    0    0  501    0  0.00000000000E+00  0.00000000000E+00  0.19155310276E+04  0.19155310276E+04  0.25500000920E-02 0.  1.
       -2   -1    0    0    0  501  0.00000000000E+00  0.00000000000E+00 -0.87033461184E+03  0.87033461184E+03  0.25500000920E-02 0. -1.
    10030    2    1    2    0    0  0.00000000000E+00  0.00000000000E+00  0.10451964158E+04  0.27858656395E+04  0.25823655461E+04 0.  0.
        4    1    3    3  502    0  0.16432396265E+03  0.27972091850E+03  0.18708461970E+04  0.18987662475E+04  0.12699999809E+01 0.  1.
       -4    1    3    3    0  502 -0.16432396265E+03 -0.27972091850E+03 -0.82564978126E+03  0.88709939192E+03  0.12699999809E+01 0. -1.
</event>
<event>
 5   0  0.7071821E-05  0.2315592E+04  0.7818609E-02  0.8471799E-01
       -2   -1    0    0    0  501  0.00000000000E+00  0.00000000000E+00  0.17468068916E+04  0.17468068916E+04  0.25500000920E-02 0.  1.
        2   -1    0    0  501    0  0.00000000000E+00  0.00000000000E+00 -0.76739567785E+03  0.76739567785E+03  0.25500000920E-02 0. -1.
    10030    2    1    2    0    0  0.00000000000E+00  0.00000000000E+00  0.97941121371E+03  0.25142025694E+04  0.23155924155E+04 0.  0.
        5    1    3    3  502    0  0.82392603014E+03  0.31587845710E+03  0.13035533932E+04  0.15741368561E+04  0.46999998093E+01 0.  1.
       -5    1    3    3    0  502 -0.82392603014E+03 -0.31587845710E+03 -0.32414217950E+03  0.94006571331E+03  0.46999998093E+01 0. -1.
</event>
<event>
 5   0  0.6648328E-05  0.2035050E+04  0.7818609E-02  0.8590407E-01
       -2   -1    0    0    0  501  0.00000000000E+00  0.00000000000E+00  0.11059887545E+04  0.11059887545E+04  0.25500000920E-02 0. -1.
        2   -1    0    0  501    0  0.00000000000E+00  0.00000000000E+00 -0.93613755620E+03  0.93613755620E+03  0.25500000920E-02 0.  1.
    10030    2    1    2    0    0  0.00000000000E+00  0.00000000000E+00  0.16985119831E+03  0.20421263107E+04  0.20350504759E+04 0.  0.
        2    1    3    3  502    0  0.29611103512E+03 -0.40112147752E+03  0.97501444825E+03  0.10950951370E+04  0.25500000920E-02 0. -1.
       -2    1    3    3    0  502 -0.29611103512E+03  0.40112147752E+03 -0.80516324994E+03  0.94703117368E+03  0.25500000920E-02 0.  1.
</event>
<event>
 5   0  0.6827859E-05  0.2466929E+04  0.7818609E-02  0.8414863E-01
        2   -1    0    0  501    0  0.00000000000E+00  0.00000000000E+00  0.18068939959E+04  0.18068939959E+04  0.25500000920E-02 0. -1.
       -2   -1    0    0    0  501  0.00000000000E+00  0.00000000000E+00 -0.84201682944E+03  0.84201682945E+03  0.25500000920E-02 0.  1.
    10030    2    1    2    0    0  0.00000000000E+00  0.00000000000E+00  0.96487716645E+03  0.26489108253E+04  0.24669293898E+04 0.  0.
        3    1    3    3  502    0 -0.34959761688E+03  0.11721800289E+01  0.17525823700E+04  0.17871107525E+04  0.10100000352E+00 0. -1.
       -3    1    3    3    0  502  0.34959761688E+03 -0.11721800289E+01 -0.78770520354E+03  0.86180007288E+03  0.10100000352E+00 0.  1.
</event>
<event>
 5   0  0.6648328E-05  0.2453506E+04  0.7818609E-02  0.8419739E-01
       -2   -1    0    0    0  501  0.00000000000E+00  0.00000000000E+00  0.88127971202E+03  0.88127971202E+03  0.25500000920E-02 0.  1.
        2   -1    0    0  501    0  0.00000000000E+00  0.00000000000E+00 -0.17076557705E+04  0.17076557705E+04  0.25500000920E-02 0. -1.
    10030    2    1    2    0    0  0.00000000000E+00  0.00000000000E+00 -0.82637605845E+03  0.25889354825E+04  0.24535055619E+04 0.  0.
        2    1    3    3  502    0 -0.10049657692E+04 -0.25265360103E+03 -0.11060384494E+04  0.15156223444E+04  0.25500000920E-02 0. -1.
       -2    1    3    3    0  502  0.10049657692E+04  0.25265360103E+03  0.27966239096E+03  0.10733131381E+04  0.25500000920E-02 0.  1.
</event>
<event>
 5   0  0.6827859E-05  0.1889668E+04  0.7818609E-02  0.8660017E-01
       -2   -1    0    0    0  501  0.00000000000E+00  0.00000000000E+00  0.45252714729E+03  0.45252714730E+03  0.25500000920E-02 0. -1.
        2   -1    0    0  501    0  0.00000000000E+00  0.00000000000E+00 -0.19727234205E+04  0.19727234205E+04  0.25500000920E-02 0.  1.
    10030    2    1    2    0    0  0.00000000000E+00  0.00000000000E+00 -0.15201962732E+04  0.24252505678E+04  0.18896675918E+04 0.  0.
        3    1    3    3  502    0 -0.36626755862E+03  0.67331923111E+03 -0.51069799006E+02  0.76819193308E+03  0.10100000352E+00 0. -1.
       -3    1    3    3    0  502  0.36626755862E+03 -0.67331923111E+03 -0.14691264742E+04  0.16570586347E+04  0.10100000352E+00 0.  1.
</event>
<event>
 5   0  0.6827859E-05  0.1436338E+04  0.7818609E-02  0.8927927E-01
        2   -1    0    0  501    0  0.00000000000E+00  0.00000000000E+00  0.13691625040E+04  0.13691625040E+04  0.25500000920E-02 0.  1.
       -2   -1    0    0    0  501  0.00000000000E+00  0.00000000000E+00 -0.37670236109E+03  0.37670236110E+03  0.25500000920E-02 0. -1.
    10030    2    1    2    0    0  0.00000000000E+00  0.00000000000E+00  0.99246014288E+03  0.17458648651E+04  0.14363380493E+04 0.  0.
        3    1    3    3  502    0 -0.60221582719E+02 -0.67189932787E+03  0.19678476601E+03  0.70270875912E+03  0.10100000352E+00 0. -1.
       -3    1    3    3    0  502  0.60221582719E+02  0.67189932787E+03  0.79567537687E+03  0.10431561059E+04  0.10100000352E+00 0.  1.
</event>
<event>
 5   0  0.6909250E-05  0.2471740E+04  0.7818609E-02  0.8413123E-01
        2   -1    0    0  501    0  0.00000000000E+00  0.00000000000E+00  0.17718328527E+04  0.17718328527E+04  0.25500000920E-02 0. -1.
       -2   -1    0    0    0  501  0.00000000000E+00  0.00000000000E+00 -0.86203075373E+03  0.86203075374E+03  0.25500000920E-02 0.  1.
    10030    2    1    2    0    0  0.00000000000E+00  0.00000000000E+00  0.90980209899E+03  0.26338636065E+04  0.24717397998E+04 0.  0.
        4    1    3    3  502    0 -0.10833467625E+04  0.28266924543E+03 -0.10271027907E+03  0.11243189603E+04  0.12699999809E+01 0.  1.
       -4    1    3    3    0  502  0.10833467625E+04 -0.28266924543E+03  0.10125123781E+04  0.15095446462E+04  0.12699999809E+01 0. -1.
</event>
<event>
 5   0  0.2980790E-05  0.2446115E+04  0.7818609E-02  0.8422438E-01
        1   -1    0    0  501    0  0.00000000000E+00  0.00000000000E+00  0.12040615001E+04  0.12040615001E+04  0.50400001928E-02 0.  1.
       -1   -1    0    0    0  501  0.00000000000E+00  0.00000000000E+00 -0.12423528544E+04  0.12423528544E+04  0.50400001928E-02 0. -1.
    10030    2    1    2    0    0  0.00000000000E+00  0.00000000000E+00 -0.38291354278E+02  0.24464143546E+04  0.24461146675E+04 0.  0.
        5    1    3    3  502    0  0.89766945211E+03  0.20024070476E+03 -0.82543323868E+03  0.12358272155E+04  0.46999998093E+01 0. -1.
       -5    1    3    3    0  502 -0.89766945211E+03 -0.20024070476E+03  0.78714188440E+03  0.12105871391E+04  0.46999998093E+01 0.  1.
</event>
<event>
 5   0  0.2793920E-05  0.2482456E+04  0.7818609E-02  0.8409262E-01
        1   -1    0    0  501    0  0.00000000000E+00  0.00000000000E+00  0.11287871126E+04  0.11287871126E+04  0.50400001928E-02 0.  1.
       -1   -1    0    0    0  501  0.00000000000E+00  0.00000000000E+00 -0.13648693449E+04  0.13648693450E+04  0.50400001928E-02 0. -1.
    10030    2    1    2    0    0  0.00000000000E+00  0.00000000000E+00 -0.23608223233E+03  0.24936564576E+04  0.24824559831E+04 0.  0.
        2    1    3    3  502    0 -0.85702461460E+03 -0.23174454545E+03 -0.98939374760E+03  0.13293218994E+04  0.25500000920E-02 0. -1.
       -2    1    3    3    0  502  0.85702461460E+03  0.23174454545E+03  0.75331151527E+03  0.11643345582E+04  0.25500000920E-02 0.  1.
</event>
<event>
 5   0  0.2793920E-05  0.2449888E+04  0.7818609E-02  0.8421059E-01
        1   -1    0    0  501    0  0.00000000000E+00  0.00000000000E+00  0.10453769713E+04  0.10453769713E+04  0.50400001928E-02 0. -1.
       -1   -1    0    0    0  501  0.00000000000E+00  0.00000000000E+00 -0.14353553817E+04  0.14353553817E+04  0.50400001928E-02 0.  1.
    10030    2    1    2    0    0  0.00000000000E+00  0.00000000000E+00 -0.38997841039E+03  0.24807323531E+04  0.24498877213E+04 0.  0.
        2    1    3    3  502    0  0.88842091734E+02  0.20524868517E+03 -0.14145058548E+04  0.14320777749E+04  0.25500000920E-02 0.  1.
       -2    1    3    3    0  502 -0.88842091734E+02 -0.20524868517E+03  0.10245274444E+04  0.10486545782E+04  0.25500000920E-02 0. -1.
</event>
<event>
 5   0  0.2777539E-05  0.2512676E+04  0.7818609E-02  0.8398484E-01
        1   -1    0    0  501    0  0.00000000000E+00  0.00000000000E+00  0.23771780245E+04  0.23771780246E+04  0.50400001928E-02 0. -1.
       -1   -1    0    0    0  501  0.00000000000E+00  0.00000000000E+00 -0.66397422150E+03  0.66397422152E+03  0.50400001928E-02 0.  1.
    10030    2    1    2    0    0  0.00000000000E+00  0.00000000000E+00  0.17132038030E+04  0.30411522461E+04  0.25126758074E+04 0.  0.
        3    1    3    3  502    0  0.65924490889E+03 -0.44893900175E+03  0.20314488239E+04  0.21824148120E+04  0.10100000352E+00 0. -1.
       -3    1    3    3    0  502 -0.65924490889E+03  0.44893900175E+03 -0.31824502087E+03  0.85873743409E+03  0.10100000352E+00 0.  1.
</event>
<event>
 5   0  0.6445331E-05  0.2462586E+04  0.7818609E-02  0.8416437E-01
       -2   -1    0    0    0  501  0.00000000000E+00  0.00000000000E+00  0.10787641021E+04  0.10787641021E+04  0.25500000920E-02 0. -1.
        2   -1    0    0  501    0  0.00000000000E+00  0.00000000000E+00 -0.14053883340E+04  0.14053883340E+04  0.25500000920E-02 0.  1.
    10030    2    1    2    0    0  0.00000000000E+00  0.00000000000E+00 -0.32662423189E+03  0.24841524362E+04  0.24625860264E+04 0.  0.
        1    1    3    3  502    0  0.78644019208E+03 -0.24049440986E+03  0.76109564370E+03  0.11205321574E+04  0.50400001928E-02 0. -1.
       -1    1    3    3    0  502 -0.78644019208E+03  0.24049440986E+03 -0.10877198756E+04  0.13636202788E+04  0.50400001928E-02 0.  1.
</event>
<event>
 5   0  0.2777539E-05  0.1483557E+04  0.7818609E-02  0.8895462E-01
        1   -1    0    0  501    0  0.00000000000E+00  0.00000000000E+00  0.88091834111E+03  0.88091834112E+03  0.50400001928E-02 0.  1.
       -1   -1    0    0    0  501  0.00000000000E+00  0.00000000000E+00 -0.62461535614E+03  0.62461535616E+03  0.50400001928E-02 0. -1.
    10030    2    1    2    0    0  0.00000000000E+00  0.00000000000E+00  0.25630298497E+03  0.15055336973E+04  0.14835567039E+04 0.  0.
        3    1    3    3  502    0 -0.44937455052E+03  0.43436074294E+03 -0.27730230432E+03  0.68374214427E+03  0.10100000352E+00 0. -1.
       -3    1    3    3    0  502  0.44937455052E+03 -0.43436074294E+03  0.53360528929E+03  0.82179155302E+03  0.10100000352E+00 0.  1.
</event>
<event>
 5   0  0.6827859E-05  0.2482873E+04  0.7818609E-02  0.8409113E-01
        2   -1    0    0  501    0  0.00000000000E+00  0.00000000000E+00  0.88324332059E+03  0.88324332060E+03  0.25500000920E-02 0. -1.
       -2   -1    0    0    0  501  0.00000000000E+00  0.00000000000E+00 -0.17448928115E+04  0.17448928115E+04  0.25500000920E-02 0.  1.
    10030    2    1    2    0    0  0.00000000000E+00  0.00000000000E+00 -0.86164949095E+03  0.26281361321E+04  0.24828732718E+04 0.  0.
        3    1    3    3  502    0  0.10766835924E+04  0.15549936325E+03  0.20227977803E+03  0.11065011202E+04  0.10100000352E+00 0. -1.
       -3    1    3    3    0  502 -0.10766835924E+04 -0.15549936325E+03 -0.10639292690E+04  0.15216350120E+04  0.10100000352E+00 0.  1.
</event>
<event>
 5   0  0.2977854E-05  0.1875641E+04  0.7818609E-02  0.8667077E-01
        1   -1    0    0  501    0  0.00000000000E+00  0.00000000000E+00  0.22270571745E+04  0.22270571745E+04  0.50400001928E-02 0.  1.
       -1   -1    0    0    0  501  0.00000000000E+00  0.00000000000E+00 -0.39491901175E+03  0.39491901178E+03  0.50400001928E-02 0. -1.
    10030    2    1    2    0    0  0.00000000000E+00  0.00000000000E+00  0.18321381628E+04  0.26219761863E+04  0.18756409235E+04 0.  0.
        1    1    3    3  502    0  0.82974379434E+03  0.16350915128E+03  0.14826920038E+04  0.17069228410E+04  0.50400001928E-02 0.  1.
       -1    1    3    3    0  502 -0.82974379434E+03 -0.16350915128E+03  0.34944615896E+03  0.91505334535E+03  0.50400001928E-02 0. -1.
</event>
<event>
 5   0  0.6909250E-05  0.2492018E+04  0.7818609E-02  0.8405835E-01
        2   -1    0    0  501    0  0.00000000000E+00  0.00000000000E+00  0.21904433929E+04  0.21904433929E+04  0.25500000920E-02 0.  1.
       -2   -1    0    0    0  501  0.00000000000E+00  0.00000000000E+00 -0.70877836447E+03  0.70877836447E+03  0.25500000920E-02 0. -1.
    10030    2    1    2    0    0  0.00000000000E+00  0.00000000000E+00  0.14816650284E+04  0.28992217573E+04  0.24920183671E+04 0.  0.
        4    1    3    3  502    0  0.11454767795E+04  0.25832395348E+03  0.12256924477E+04  0.16974015161E+04  0.12699999809E+01 0.  1.
       -4    1    3    3    0  502 -0.11454767795E+04 -0.25832395348E+03  0.25597258069E+03  0.12018202413E+04  0.12699999809E+01 0. -1.
</event>
<event>
 5   0  0.6909250E-05  0.2464517E+04  0.7818609E-02  0.8415737E-01
        2   -1    0    0  501    0  0.00000000000E+00  0.00000000000E+00  0.12068525174E+04  0.12068525174E+04  0.25500000920E-02 0.  1.
       -2   -1    0    0    0  501  0.00000000000E+00  0.00000000000E+00 -0.12581994758E+04  0.12581994758E+04  0.25500000920E-02 0. -1.
    10030    2    1    2    0    0  0.00000000000E+00  0.00000000000E+00 -0.51346958426E+02  0.24650519932E+04  0.24645171574E+04 0.  0.
        4    1    3    3  502    0 -0.92522254988E+03  0.70942705392E+03  0.37333173050E+03  0.12242147302E+04  0.12699999809E+01 0.  1.
       -4    1    3    3    0  502  0.92522254988E+03 -0.70942705392E+03 -0.42467868892E+03  0.12408372630E+04  0.12699999809E+01 0. -1.
</event>
<event>
 5   0  0.2980790E-05  0.2418927E+04  0.7818609E-02  0.8432451E-01
       -1   -1    0    0    0  501  0.00000000000E+00  0.00000000000E+00  0.82824932152E+03  0.82824932154E+03  0.50400001928E-02 0.  1.
        1   -1    0    0  501    0  0.00000000000E+00  0.00000000000E+00 -0.17661377240E+04  0.17661377240E+04  0.50400001928E-02 0. -1.
    10030    2    1    2    0    0  0.00000000000E+00  0.00000000000E+00 -0.93788840244E+03  0.25943870455E+04  0.24189273421E+04 0.  0.
        5    1    3    3  502    0 -0.11119038070E+04  0.22297773627E+03 -0.91983199310E+03  0.14601924984E+04  0.46999998093E+01 0. -1.
       -5    1    3    3    0  502  0.11119038070E+04 -0.22297773627E+03 -0.18056409341E+02  0.11341945471E+04  0.46999998093E+01 0.  1.
</event>
<event>
 5   0  0.2777539E-05  0.2564596E+04  0.7818609E-02  0.8380327E-01
       -1   -1    0    0    0  501  0.00000000000E+00  0.00000000000E+00  0.14768717343E+04  0.14768717343E+04  0.50400001928E-02 0.  1.
        1   -1    0    0  501    0  0.00000000000E+00  0.00000000000E+00 -0.11133590880E+04  0.11133590880E+04  0.50400001928E-02 0. -1.
    10030    2    1    2    0    0  0.00000000000E+00  0.00000000000E+00  0.36351264635E+03  0.25902308223E+04  0.25645963169E+04 0.  0.
        3    1    3    3  502    0  0.77993354416E+00  0.12107892652E+04 -0.24469305117E+03  0.12352675631E+04  0.10100000352E+00 0.  1.
       -3    1    3    3    0  502 -0.77993354416E+00 -0.12107892652E+04  0.60820569752E+03  0.13549632592E+04  0.10100000352E+00 0. -1.
</event>
<event>
 5   0  0.2793920E-05  0.2432221E+04  0.7818609E-02  0.8427538E-01
       -1   -1    0    0    0  501  0.00000000000E+00  0.00000000000E+00  0.58225280088E+03  0.58225280090E+03  0.50400001928E-02 0.  1.
        1   -1    0    0  501    0  0.00000000000E+00  0.00000000000E+00 -0.25400034832E+04  0.25400034832E+04  0.50400001928E-02 0. -1.
    10030    2    1    2    0    0  0.00000000000E+00  0.00000000000E+00 -0.19577506823E+04  0.31222562841E+04  0.24322205018E+04 0.  0.
        2    1    3    3  502    0  0.11724010904E+04 -0.24808536226E+03 -0.71313429272E+03  0.13945003346E+04  0.25500000920E-02 0.  1.
       -2    1    3    3    0  502 -0.11724010904E+04  0.24808536226E+03 -0.12446163896E+04  0.17277559495E+04  0.25500000920E-02 0. -1.
</event>
<event>
 5   0  0.6909250E-05  0.1993178E+04  0.7818609E-02  0.8609817E-01
       -2   -1    0    0    0  501  0.00000000000E+00  0.00000000000E+00  0.75750301833E+03  0.75750301834E+03  0.25500000920E-02 0.  1.
        2   -1    0    0  501    0  0.00000000000E+00  0.00000000000E+00 -0.13111363332E+04  0.13111363332E+04  0.25500000920E-02 0. -1.
    10030    2    1    2    0    0  0.00000000000E+00  0.00000000000E+00 -0.55363331487E+03  0.20686393515E+04  0.19931780953E+04 0.  0.
        4    1    3    3  502    0 -0.40080455658E+03  0.68363930899E+03  0.35036425726E+03  0.86646622729E+03  0.12699999809E+01 0.  1.
       -4    1    3    3    0  502  0.40080455658E+03 -0.68363930899E+03 -0.90399757212E+03  0.12021731243E+04  0.12699999809E+01 0. -1.
</event>
<event>
 5   0  0.2777539E-05  0.2501596E+04  0.7818609E-02  0.8402417E-01
        1   -1    0    0  501    0  0.00000000000E+00  0.00000000000E+00  0.10813306410E+04  0.10813306410E+04  0.50400001928E-02 0.  1.
       -1   -1    0    0    0  501  0.00000000000E+00  0.00000000000E+00 -0.14468247020E+04  0.14468247020E+04  0.50400001928E-02 0. -1.
    10030    2    1    2    0    0  0.00000000000E+00  0.00000000000E+00 -0.36549406101E+03  0.25281553430E+04  0.25015961964E+04 0.  0.
        3    1    3    3  502    0  0.10068055241E+04 -0.52556435141E+03  0.34685924261E+03  0.11875127768E+04  0.10100000352E+00 0.  1.
       -3    1    3    3    0  502 -0.10068055241E+04  0.52556435141E+03 -0.71235330363E+03  0.13406425662E+04  0.10100000352E+00 0. -1.
</event>
<event>
 5   0  0.6648328E-05  0.2497039E+04  0.7818609E-02  0.8404041E-01
       -2   -1    0    0    0  501  0.00000000000E+00  0.00000000000E+00  0.68314374770E+03  0.68314374771E+03  0.25500000920E-02 0. -1.
        2   -1    0    0  501    0  0.00000000000E+00  0.00000000000E+00 -0.22818060441E+04  0.22818060441E+04  0.25500000920E-02 0.  1.
    10030    2    1    2    0    0  0.00000000000E+00  0.00000000000E+00 -0.15986622964E+04  0.29649497919E+04  0.24970394731E+04 0.  0.
        2    1    3    3  502    0 -0.55176996722E+03  0.27144914770E+03  0.49086461261E+03  0.78681815208E+03  0.25500000920E-02 0. -1.
       -2    1    3    3    0  502  0.55176996722E+03 -0.27144914770E+03 -0.20895269091E+04  0.21781316398E+04  0.25500000920E-02 0.  1.
</event>
<event>
 5   0  0.6909250E-05  0.1266534E+04  0.7818609E-02  0.9056534E-01
       -2   -1    0    0    0  501  0.00000000000E+00  0.00000000000E+00  0.40699660245E+03  0.40699660245E+03  0.25500000920E-02 0.  1.
        2   -1    0    0  501    0  0.00000000000E+00  0.00000000000E+00 -0.98533214727E+03  0.98533214728E+03  0.25500000920E-02 0. -1.
    10030    2    1    2    0    0  0.00000000000E+00  0.00000000000E+00 -0.57833554483E+03  0.13923287497E+04  0.12665335941E+04 0.  0.
        4    1    3    3  502    0 -0.42058664543E+02 -0.64920191411E+02  0.40178207675E+03  0.40916257479E+03  0.12699999809E+01 0.  1.
       -4    1    3    3    0  502  0.42058664543E+02  0.64920191411E+02 -0.98011762158E+03  0.98316617494E+03  0.12699999809E+01 0. -1.
</event>
<event>
 5   0  0.2980790E-05  0.2462250E+04  0.7818609E-02  0.8416559E-01
        1   -1    0    0  501    0  0.00000000000E+00  0.00000000000E+00  0.21117427066E+04  0.21117427066E+04  0.50400001928E-02 0. -1.
       -1   -1    0    0    0  501  0.00000000000E+00  0.00000000000E+00 -0.71773380798E+03  0.71773380800E+03  0.50400001928E-02 0.  1.
    10030    2    1    2    0    0  0.00000000000E+00  0.00000000000E+00  0.13940088987E+04  0.28294765146E+04  0.24622502995E+04 0.  0.
        5    1    3    3  502    0  0.61443808944E+03 -0.65401152841E+03  0.16655494583E+04  0.18919149910E+04  0.46999998093E+01 0. -1.
       -5    1    3    3    0  502 -0.61443808944E+03  0.65401152841E+03 -0.27154055968E+03  0.93756152363E+03  0.46999998093E+01 0.  1.
</event>
<event>
 5   0  0.2793920E-05  0.2118511E+04  0.7818609E-02  0.8553133E-01
       -1   -1    0    0    0  501  0.00000000000E+00  0.00000000000E+00  0.70987263280E+03  0.70987263282E+03  0.50400001928E-02 0.  1.
        1   -1    0    0  501    0  0.00000000000E+00  0.00000000000E+00 -0.15805971454E+04  0.15805971454E+04  0.50400001928E-02 0. -1.
    10030    2    1    2    0    0  0.00000000000E+00  0.00000000000E+00 -0.87072451263E+03  0.22904697783E+04  0.21185114180E+04 0.  0.
        2    1    3    3  502    0  0.65017901585E+03 -0.61586352949E+03 -0.10469659716E+04  0.13777366894E+04  0.25500000920E-02 0. -1.
       -2    1    3    3    0  502 -0.65017901585E+03  0.61586352949E+03  0.17624145899E+03  0.91273308885E+03  0.25500000920E-02 0.  1.
</event>
<event>
 5   0  0.6648328E-05  0.2475509E+04  0.7818609E-02  0.8411763E-01
       -2   -1    0    0    0  501  0.00000000000E+00  0.00000000000E+00  0.11753916848E+04  0.11753916848E+04  0.25500000920E-02 0.  1.
        2   -1    0    0  501    0  0.00000000000E+00  0.00000000000E+00 -0.13034262659E+04  0.13034262659E+04  0.25500000920E-02 0. -1.
    10030    2    1    2    0    0  0.00000000000E+00  0.00000000000E+00 -0.12803458114E+03  0.24788179507E+04  0.24755091554E+04 0.  0.
        2    1    3    3  502    0 -0.14726624739E+03  0.91407741596E+03  0.75854982071E+03  0.11969221781E+04  0.25500000920E-02 0.  1.
       -2    1    3    3    0  502  0.14726624739E+03 -0.91407741596E+03 -0.88658440185E+03  0.12818957725E+04  0.25500000920E-02 0. -1.
</event>
<event>
 5   0  0.6827859E-05  0.2132843E+04  0.7818609E-02  0.8546912E-01
        2   -1    0    0  501    0  0.00000000000E+00  0.00000000000E+00  0.11225637175E+04  0.11225637175E+04  0.25500000920E-02 0.  1.
       -2   -1    0    0    0  501  0.00000000000E+00  0.00000000000E+00 -0.10130874158E+04  0.10130874158E+04  0.25500000920E-02 0. -1.
    10030    2    1    2    0    0  0.00000000000E+00  0.00000000000E+00  0.10947630170E+03  0.21356511332E+04  0.21328433375E+04 0.  0.
        3    1    3    3  502    0  0.11324089517E+03  0.11999205697E+03 -0.10002301506E+04  0.10137464962E+04  0.10100000352E+00 0. -1.
       -3    1    3    3    0  502 -0.11324089517E+03 -0.11999205697E+03  0.11097064523E+04  0.11219046370E+04  0.10100000352E+00 0.  1.
</event>
<event>
 5   0  0.7071821E-05  0.2482186E+04  0.7818609E-02  0.8409359E-01
       -2   -1    0    0    0  501  0.00000000000E+00  0.00000000000E+00  0.10517217755E+04  0.10517217755E+04  0.25500000920E-02 0.  1.
        2   -1    0    0  501    0  0.00000000000E+00  0.00000000000E+00 -0.14645619932E+04  0.14645619932E+04  0.25500000920E-02 0. -1.
    10030    2    1    2    0    0  0.00000000000E+00  0.00000000000E+00 -0.41284021767E+03  0.25162837687E+04  0.24821859236E+04 0.  0.
        5    1    3    3  502    0 -0.48085962569E+03  0.11549797085E+03 -0.13603556258E+04  0.14474651220E+04  0.46999998093E+01 0. -1.
       -5    1    3    3    0  502  0.48085962569E+03 -0.11549797085E+03  0.94751540813E+03  0.10688186467E+04  0.46999998093E+01 0.  1.
</event>
<event>
 5   0  0.2793920E-05  0.1709736E+04  0.7818609E-02  0.8755831E-01
       -1   -1    0    0    0  501  0.00000000000E+00  0.00000000000E+00  0.10569045398E+04  0.10569045398E+04  0.50400001928E-02 0. -1.
        1   -1    0    0  501    0  0.00000000000E+00  0.00000000000E+00 -0.69145232619E+03  0.69145232621E+03  0.50400001928E-02 0.  1.
    10030    2    1    2    0    0  0.00000000000E+00  0.00000000000E+00  0.36545221362E+03  0.17483568660E+04  0.17097357721E+04 0.  0.
        2    1    3    3  502    0 -0.19949968690E+03  0.66617207148E+03 -0.32571118313E+03  0.76790177022E+03  0.25500000920E-02 0.  1.
       -2    1    3    3    0  502  0.19949968690E+03 -0.66617207148E+03  0.69116339675E+03  0.98045509581E+03  0.25500000920E-02 0. -1.
</event>
<event>
 5   0  0.6648328E-05  0.2475973E+04  0.7818609E-02  0.8411596E-01
       -2   -1    0    0    0  501  0.00000000000E+00  0.00000000000E+00  0.70894257482E+03  0.70894257483E+03  0.25500000920E-02 0.  1.
        2   -1    0    0  501    0  0.00000000000E+00  0.00000000000E+00 -0.21618255267E+04  0.21618255267E+04  0.25500000920E-02 0. -1.
    10030    2    1    2    0    0  0.00000000000E+00  0.00000000000E+00 -0.14528829518E+04  0.28707681015E+04  0.24759726616E+04 0.  0.
        2    1    3    3  502    0  0.95311958605E+03 -0.68279091923E+03 -0.26561305003E+03  0.12021608366E+04  0.25500000920E-02 0.  1.
       -2    1    3    3    0  502 -0.95311958605E+03  0.68279091923E+03 -0.11872699018E+04  0.16686072649E+04  0.25500000920E-02 0. -1.
</event>
<event>
 5   0  0.2793920E-05  0.1698041E+04  0.7818609E-02  0.8762482E-01
        1   -1    0    0  501    0  0.00000000000E+00  0.00000000000E+00  0.11436905520E+04  0.11436905520E+04  0.50400001928E-02 0. -1.
       -1   -1    0    0    0  501  0.00000000000E+00  0.00000000000E+00 -0.63027196420E+03  0.63027196422E+03  0.50400001928E-02 0.  1.
    10030    2    1    2    0    0  0.00000000000E+00  0.00000000000E+00  0.51341858783E+03  0.17739625163E+04  0.16980413313E+04 0.  0.
        2    1    3    3  502    0  0.29361786633E+03  0.74535106183E+03  0.55048759825E+03  0.97200630277E+03  0.25500000920E-02 0. -1.
       -2    1    3    3    0  502 -0.29361786633E+03 -0.74535106183E+03 -0.37069010423E+02  0.80195621348E+03  0.25500000920E-02 0.  1.
</event>
<event>
 5   0  0.7071821E-05  0.2473617E+04  0.7818609E-02  0.8412445E-01
        2   -1    0    0  501    0  0.00000000000E+00  0.00000000000E+00  0.10835878208E+04  0.10835878208E+04  0.25500000920E-02 0.  1.
       -2   -1    0    0    0  501  0.00000000000E+00  0.00000000000E+00 -0.14116947139E+04  0.14116947139E+04  0.25500000920E-02 0. -1.
    10030    2    1    2    0    0  0.00000000000E+00  0.00000000000E+00 -0.32810689310E+03  0.24952825348E+04  0.24736169459E+04 0.  0.
        5    1    3    3  502    0  0.16910310425E+03  0.19234057432E+03 -0.13846440782E+04  0.14081378021E+04  0.46999998093E+01 0. -1.
       -5    1    3    3    0  502 -0.16910310425E+03 -0.19234057432E+03  0.10565371851E+04  0.10871447327E+04  0.46999998093E+01 0.  1.
</event>
<event>
 5   0  0.2977854E-05  0.2447283E+04  0.7818609E-02  0.8422011E-01
       -1   -1    0    0    0  501  0.00000000000E+00  0.00000000000E+00  0.96389591058E+03  0.96389591060E+03  0.50400001928E-02 0. -1.
        1   -1    0    0  501    0  0.00000000000E+00  0.00000000000E+00 -0.15533823160E+04  0.15533823160E+04  0.50400001928E-02 0.  1.
    10030    2    1    2    0    0  0.00000000000E+00  0.00000000000E+00 -0.58948640539E+03  0.25172782266E+04  0.24472832790E+04 0.  0.
        1    1    3    3  502    0 -0.29521985816E+03 -0.11363382549E+04  0.59907155104E+02  0.11755884746E+04  0.50400001928E-02 0. -1.
       -1    1    3    3    0  502  0.29521985816E+03  0.11363382549E+04 -0.64939356049E+03  0.13416897520E+04  0.50400001928E-02 0.  1.
</event>
<event>
 5   0  0.2793920E-05  0.2515643E+04  0.7818609E-02  0.8397434E-01
       -1   -1    0    0    0  501  0.00000000000E+00  0.00000000000E+00  0.79469178069E+03  0.79469178070E+03  0.50400001928E-02 0. -1.
        1   -1    0    0  501    0  0.00000000000E+00  0.00000000000E+00 -0.19908538087E+04  0.19908538088E+04  0.50400001928E-02 0.  1.
    10030    2    1    2    0    0  0.00000000000E+00  0.00000000000E+00 -0.11961620281E+04  0.27855455895E+04  0.25156431849E+04 0.  0.
        2    1    3    3  502    0  0.12056627662E+04  0.33315813394E+03 -0.74455375416E+03  0.14556707529E+04  0.25500000920E-02 0.  1.
       -2    1    3    3    0  502 -0.12056627662E+04 -0.33315813394E+03 -0.45160827390E+03  0.13298748366E+04  0.25500000920E-02 0. -1.
</event>
<event>
 5   0  0.2977854E-05  0.2578406E+04  0.7818609E-02  0.8375573E-01
       -1   -1    0    0    0  501  0.00000000000E+00  0.00000000000E+00  0.11431898490E+04  0.11431898490E+04  0.50400001928E-02 0.  1.
        1   -1    0    0  501    0  0.00000000000E+00  0.00000000000E+00 -0.14538653405E+04  0.14538653405E+04  0.50400001928E-02 0. -1.
    10030    2    1    2    0    0  0.00000000000E+00  0.00000000000E+00 -0.31067549148E+03  0.25970551895E+04  0.25784057858E+04 0.  0.
        1    1    3    3  502    0 -0.53513952613E+03  0.20182403825E+03  0.10084138022E+04  0.11593125771E+04  0.50400001928E-02 0.  1.
       -1    1    3    3    0  502  0.53513952613E+03 -0.20182403825E+03 -0.13190892937E+04  0.14377426124E+04  0.50400001928E-02 0. -1.
</event>
<event>
 5   0  0.7071821E-05  0.2713844E+04  0.7818609E-02  0.8330527E-01
        2   -1    0    0  501    0  0.00000000000E+00  0.00000000000E+00  0.16278324346E+04  0.16278324346E+04  0.25500000920E-02 0.  1.
       -2   -1    0    0    0  501  0.00000000000E+00  0.00000000000E+00 -0.11310975011E+04  0.11310975011E+04  0.25500000920E-02 0. -1.
    10030    2    1    2    0    0  0.00000000000E+00  0.00000000000E+00  0.49673493342E+03  0.27589299357E+04  0.27138439152E+04 0.  0.
        5    1    3    3  502    0  0.67800450863E+03 -0.94386665915E+03  0.96046191901E+03  0.15076748893E+04  0.46999998093E+01 0.  1.
       -5    1    3    3    0  502 -0.67800450863E+03  0.94386665915E+03 -0.46372698559E+03  0.12512550464E+04  0.46999998093E+01 0. -1.
</event>
<event>
 5   0  0.2980790E-05  0.2429665E+04  0.7818609E-02  0.8428480E-01
        1   -1    0    0  501    0  0.00000000000E+00  0.00000000000E+00  0.10735027780E+04  0.10735027781E+04  0.50400001928E-02 0. -1.
       -1   -1    0    0    0  501  0.00000000000E+00  0.00000000000E+00 -0.13747685969E+04  0.13747685970E+04  0.50400001928E-02 0.  1.
    10030    2    1    2    0    0  0.00000000000E+00  0.00000000000E+00 -0.30126581890E+03  0.24482713750E+04  0.24296649218E+04 0.  0.
        5    1    3    3  502    0 -0.33560741374E+03 -0.56975334339E+03 -0.11775272236E+04  0.13504975605E+04  0.46999998093E+01 0.  1.
       -5    1    3    3    0  502  0.33560741374E+03  0.56975334339E+03  0.87626140473E+03  0.10977738145E+04  0.46999998093E+01 0. -1.
</event>
<event>
 5   0  0.2777539E-05  0.2541485E+04  0.7818609E-02  0.8388354E-01
        1   -1    0    0  501    0  0.00000000000E+00  0.00000000000E+00  0.13267084886E+04  0.13267084886E+04  0.50400001928E-02 0. -1.
       -1   -1    0    0    0  501  0.00000000000E+00  0.00000000000E+00 -0.12171370681E+04  0.12171370681E+04  0.50400001928E-02 0.  1.
    10030    2    1    2    0    0  0.00000000000E+00  0.00000000000E+00  0.10957142047E+03  0.25438455567E+04  0.25414846685E+04 0.  0.
        3    1    3    3  502    0  0.99157188529E+03 -0.24981932670E+03 -0.70034308395E+03  0.12393970087E+04  0.10100000352E+00 0.  1.
       -3    1    3    3    0  502 -0.99157188529E+03  0.24981932670E+03  0.80991450442E+03  0.13044485480E+04  0.10100000352E+00 0. -1.
</event>
<event>
 5   0  0.6445331E-05  0.2509334E+04  0.7818609E-02  0.8399668E-01
        2   -1    0    0  501    0  0.00000000000E+00  0.00000000000E+00  0.10962555277E+04  0.10962555277E+04  0.25500000920E-02 0.  1.
       -2   -1    0    0    0  501  0.00000000000E+00  0.00000000000E+00 -0.14359688670E+04  0.14359688670E+04  0.25500000920E-02 0. -1.
    10030    2    1    2    0    0  0.00000000000E+00  0.00000000000E+00 -0.33971333930E+03  0.25322243948E+04  0.25093336232E+04 0.  0.
        1    1    3    3  502    0 -0.57530370876E+03 -0.68592052112E+03  0.71721143422E+03  0.11471066036E+04  0.50400001928E-02 0.  1.
       -1    1    3    3    0  502  0.57530370876E+03  0.68592052112E+03 -0.10569247735E+04  0.13851177912E+04  0.50400001928E-02 0. -1.
</event>
<event>
 5   0  0.2777539E-05  0.2454893E+04  0.7818609E-02  0.8419234E-01
       -1   -1    0    0    0  501  0.00000000000E+00  0.00000000000E+00  0.77109914573E+03  0.77109914575E+03  0.50400001928E-02 0.  1.
        1   -1    0    0  501    0  0.00000000000E+00  0.00000000000E+00 -0.19538663998E+04  0.19538663998E+04  0.50400001928E-02 0. -1.
    10030    2    1    2    0    0  0.00000000000E+00  0.00000000000E+00 -0.11827672541E+04  0.27249655456E+04  0.24548928382E+04 0.  0.
        3    1    3    3  502    0  0.76981571946E+03 -0.19524021541E+03  0.44746720182E+03  0.91157111107E+03  0.10100000352E+00 0.  1.
       -3    1    3    3    0  502 -0.76981571946E+03  0.19524021541E+03 -0.16302344559E+04  0.18133944345E+04  0.10100000352E+00 0. -1.
</event>
<event>
 5   0  0.6827859E-05  0.2002828E+04  0.7818609E-02  0.8605299E-01
        2   -1    0    0  501    0  0.00000000000E+00  0.00000000000E+00  0.32308273891E+03  0.32308273892E+03  0.25500000920E-02 0. -1.
       -2   -1    0    0    0  501  0.00000000000E+00  0.00000000000E+00 -0.31039432057E+04  0.31039432057E+04  0.25500000920E-02 0.  1.
    10030    2    1    2    0    0  0.00000000000E+00  0.00000000000E+00 -0.27808604668E+04  0.34270259446E+04  0.20028284723E+04 0.  0.
        3    1    3    3  502    0  0.59552598139E+03  0.75086872484E+03 -0.18874591132E+04  0.21168270951E+04  0.10100000352E+00 0.  1.
       -3    1    3    3    0  502 -0.59552598139E+03 -0.75086872484E+03 -0.89340135362E+03  0.13101988495E+04  0.10100000352E+00 0. -1.
</event>
<event>
 5   0  0.2977854E-05  0.1608811E+04  0.7818609E-02  0.8815154E-01
       -1   -1    0    0    0  501  0.00000000000E+00  0.00000000000E+00  0.40093816164E+03  0.40093816168E+03  0.50400001928E-02 0.  1.
        1   -1    0    0  501    0  0.00000000000E+00  0.00000000000E+00 -0.16138845256E+04  0.16138845256E+04  0.50400001928E-02 0. -1.
    10030    2    1    2    0    0  0.00000000000E+00  0.00000000000E+00 -0.12129463640E+04  0.20148226873E+04  0.16088106102E+04 0.  0.
        1    1    3    3  502    0  0.60828349867E+03 -0.69209099293E+02  0.47005091375E+02  0.61400992892E+03  0.50400001928E-02 0.  1.
       -1    1    3    3    0  502 -0.60828349867E+03  0.69209099293E+02 -0.12599514554E+04  0.14008127584E+04  0.50400001928E-02 0. -1.
</event>
<event>
 5   0  0.2977854E-05  0.1801629E+04  0.7818609E-02  0.8705433E-01
        1   -1    0    0  501    0  0.00000000000E+00  0.00000000000E+00  0.16709585921E+04  0.16709585921E+04  0.50400001928E-02 0.  1.
       -1   -1    0    0    0  501  0.00000000000E+00  0.00000000000E+00 -0.48562974879E+03  0.48562974881E+03  0.50400001928E-02 0. -1.
    10030    2    1    2    0    0  0.00000000000E+00  0.00000000000E+00  0.11853288433E+04  0.21565883409E+04  0.18016294862E+04 0.  0.
        1    1    3    3  502    0 -0.83510279531E+03  0.33713706511E+03  0.56845256186E+03  0.10649865701E+04  0.50400001928E-02 0.  1.
       -1    1    3    3    0  502  0.83510279531E+03 -0.33713706511E+03  0.61687628146E+03  0.10916017708E+04  0.50400001928E-02 0. -1.
</event>
<event>
 5   0  0.6445331E-05  0.2489268E+04  0.7818609E-02  0.8406819E-01
       -2   -1    0    0    0  501  0.00000000000E+00  0.00000000000E+00  0.71338524754E+03  0.71338524755E+03  0.25500000920E-02 0.  1.
        2   -1    0    0  501    0  0.00000000000E+00  0.00000000000E+00 -0.21714971990E+04  0.21714971990E+04  0.25500000920E-02 0. -1.
    10030    2    1    2    0    0  0.00000000000E+00  0.00000000000E+00 -0.14581119515E+04  0.28848824466E+04  0.24892682193E+04 0.  0.
        1    1    3    3  502    0 -0.10906267894E+03  0.82929678972E+03  0.33909981516E+03  0.90256108827E+03  0.50400001928E-02 0.  1.
       -1    1    3    3    0  502  0.10906267894E+03 -0.82929678972E+03 -0.17972117666E+04  0.19823213583E+04  0.50400001928E-02 0. -1.
</event>
<event>
 5   0  0.2777539E-05  0.2492793E+04  0.7818609E-02  0.8405558E-01
       -1   -1    0    0    0  501  0.00000000000E+00  0.00000000000E+00  0.86527722648E+03  0.86527722649E+03  0.50400001928E-02 0.  1.
        1   -1    0    0  501    0  0.00000000000E+00  0.00000000000E+00 -0.17953825527E+04  0.17953825527E+04  0.50400001928E-02 0. -1.
    10030    2    1    2    0    0  0.00000000000E+00  0.00000000000E+00 -0.93010532626E+03  0.26606597792E+04  0.24927925190E+04 0.  0.
        3    1    3    3  502    0 -0.18091266913E+03  0.12740908638E+03  0.84414508002E+03  0.87266453776E+03  0.10100000352E+00 0.  1.
       -3    1    3    3    0  502  0.18091266913E+03 -0.12740908638E+03 -0.17742504063E+04  0.17879952415E+04  0.10100000352E+00 0. -1.
</event>
<event>
 5   0  0.2977854E-05  0.2464018E+04  0.7818609E-02  0.8415918E-01
       -1   -1    0    0    0  501  0.00000000000E+00  0.00000000000E+00  0.97600213004E+03  0.97600213006E+03  0.50400001928E-02 0.  1.
        1   -1    0    0  501    0  0.00000000000E+00  0.00000000000E+00 -0.15551664152E+04  0.15551664152E+04  0.50400001928E-02 0. -1.
    10030    2    1    2    0    0  0.00000000000E+00  0.00000000000E+00 -0.57916428514E+03  0.25311685453E+04  0.24640176410E+04 0.  0.
        1    1    3    3  502    0 -0.19304616541E+03  0.59321292131E+03  0.80176308948E+03  0.10158702888E+04  0.50400001928E-02 0.  1.
       -1    1    3    3    0  502  0.19304616541E+03 -0.59321292131E+03 -0.13809273746E+04  0.15152982565E+04  0.50400001928E-02 0. -1.
</event>
<event>
 5   0  0.6827859E-05  0.2466312E+04  0.7818609E-02  0.8415086E-01
        2   -1    0    0  501    0  0.00000000000E+00  0.00000000000E+00  0.29178322094E+04  0.29178322094E+04  0.25500000920E-02 0.  1.
       -2   -1    0    0    0  501  0.00000000000E+00  0.00000000000E+00 -0.52116567489E+03  0.52116567490E+03  0.25500000920E-02 0. -1.
    10030    2    1    2    0    0  0.00000000000E+00  0.00000000000E+00  0.23966665345E+04  0.34389978843E+04  0.24663122208E+04 0.  0.
        3    1    3    3  502    0 -0.31014872481E+03 -0.25288661461E+03  0.28247728408E+04  0.28529783531E+04  0.10100000352E+00 0.  1.
       -3    1    3    3    0  502  0.31014872481E+03  0.25288661461E+03 -0.42810630620E+03  0.58601953121E+03  0.10100000352E+00 0. -1.
</event>
<event>
 5   0  0.7071821E-05  0.2436012E+04  0.7818609E-02  0.8426143E-01
       -2   -1    0    0    0  501  0.00000000000E+00  0.00000000000E+00  0.14411152652E+04  0.14411152652E+04  0.25500000920E-02 0.  1.
        2   -1    0    0  501    0  0.00000000000E+00  0.00000000000E+00 -0.10294374617E+04  0.10294374617E+04  0.25500000920E-02 0. -1.
    10030    2    1    2    0    0  0.00000000000E+00  0.00000000000E+00  0.41167780342E+03  0.24705527269E+04  0.24360115276E+04 0.  0.
        5    1    3    3  502    0 -0.13553819245E+03 -0.24662416942E+03 -0.99600514722E+03  0.10350084182E+04  0.46999998093E+01 0. -1.
       -5    1    3    3    0  502  0.13553819245E+03  0.24662416942E+03  0.14076829506E+04  0.14355443086E+04  0.46999998093E+01 0.  1.
</event>
<event>
 5   0  0.6648328E-05  0.1658468E+04  0.7818609E-02  0.8785413E-01
       -2   -1    0    0    0  501  0.00000000000E+00  0.00000000000E+00  0.30173097334E+03  0.30173097335E+03  0.25500000920E-02 0.  1.
        2   -1    0    0  501    0  0.00000000000E+00  0.00000000000E+00 -0.22789472971E+04  0.22789472971E+04  0.25500000920E-02 0. -1.
    10030    2    1    2    0    0  0.00000000000E+00  0.00000000000E+00 -0.19772163238E+04  0.25806782704E+04  0.16584679510E+04 0.  0.
        2    1    3    3  502    0  0.35058952992E+02 -0.63392809370E+03 -0.15857651583E+03  0.65440084775E+03  0.25500000920E-02 0.  1.
       -2    1    3    3    0  502 -0.35058952992E+02  0.63392809370E+03 -0.18186398079E+04  0.19262774227E+04  0.25500000920E-02 0. -1.
</event>
<event>
 5   0  0.6648328E-05  0.2441322E+04  0.7818609E-02  0.8424193E-01
        2   -1    0    0  501    0  0.00000000000E+00  0.00000000000E+00  0.22437023540E+04  0.22437023540E+04  0.25500000920E-02 0. -1.
       -2   -1    0    0    0  501  0.00000000000E+00  0.00000000000E+00 -0.66408709627E+03  0.66408709628E+03  0.25500000920E-02 0.  1.
    10030    2    1    2    0    0  0.00000000000E+00  0.00000000000E+00  0.15796152577E+04  0.29077894502E+04  0.24413224131E+04 0.  0.
        2    1    3    3  502    0 -0.96665217393E+03  0.68598303210E+03  0.44250329110E+03  0.12652265838E+04  0.25500000920E-02 0.  1.
       -2    1    3    3    0  502  0.96665217393E+03 -0.68598303210E+03  0.11371119666E+04  0.16425628664E+04  0.25500000920E-02 0. -1.
</event>
<event>
 5   0  0.6827859E-05  0.2547441E+04  0.7818609E-02  0.8386277E-01
       -2   -1    0    0    0  501  0.00000000000E+00  0.00000000000E+00  0.98915443629E+03  0.98915443629E+03  0.25500000920E-02 0.  1.
        2   -1    0    0  501    0  0.00000000000E+00  0.00000000000E+00 -0.16401521450E+04  0.16401521450E+04  0.25500000920E-02 0. -1.
    10030    2    1    2    0    0  0.00000000000E+00  0.00000000000E+00 -0.65099770867E+03  0.26293065813E+04  0.25474408887E+04 0.  0.
        3    1    3    3  502    0  0.19715690985E+03  0.85298921166E+03 -0.12803797717E+04  0.15510750505E+04  0.10100000352E+00 0. -1.
       -3    1    3    3    0  502 -0.19715690985E+03 -0.85298921166E+03  0.62938206307E+03  0.10782315307E+04  0.10100000352E+00 0.  1.
</event>
<event>
 5   0  0.2793920E-05  0.1562064E+04  0.7818609E-02  0.8844198E-01
        1   -1    0    0  501    0  0.00000000000E+00  0.00000000000E+00  0.88817517814E+03  0.88817517815E+03  0.50400001928E-02 0.  1.
       -1   -1    0    0    0  501  0.00000000000E+00  0.00000000000E+00 -0.68681397472E+03  0.68681397474E+03  0.50400001928E-02 0. -1.
    10030    2    1    2    0    0  0.00000000000E+00  0.00000000000E+00  0.20136120342E+03  0.15749891529E+04  0.15620641784E+04 0.  0.
        2    1    3    3  502    0  0.61579324247E+03 -0.35401252153E+03 -0.22679121345E+03  0.74562754602E+03  0.25500000920E-02 0. -1.
       -2    1    3    3    0  502 -0.61579324247E+03  0.35401252153E+03  0.42815241686E+03  0.82936160687E+03  0.25500000920E-02 0.  1.
</event>
<event>
 5   0  0.6445331E-05  0.2508401E+04  0.7818609E-02  0.8399999E-01
       -2   -1    0    0    0  501  0.00000000000E+00  0.00000000000E+00  0.13040437554E+04  0.13040437554E+04  0.25500000920E-02 0.  1.
        2   -1    0    0  501    0  0.00000000000E+00  0.00000000000E+00 -0.12062622939E+04  0.12062622939E+04  0.25500000920E-02 0. -1.
    10030    2    1    2    0    0  0.00000000000E+00  0.00000000000E+00  0.97781461533E+02  0.25103060493E+04  0.25084009342E+04 0.  0.
        1    1    3    3  502    0 -0.28099815619E+03  0.71779317540E+03  0.10390014333E+04  0.12937198247E+04  0.50400001928E-02 0.  1.
       -1    1    3    3    0  502  0.28099815619E+03 -0.71779317540E+03 -0.94121997179E+03  0.12165862245E+04  0.50400001928E-02 0. -1.
</event>
<event>
 5   0  0.2777539E-05  0.1492317E+04  0.7818609E-02  0.8889578E-01
       -1   -1    0    0    0  501  0.00000000000E+00  0.00000000000E+00  0.32094946053E+03  0.32094946057E+03  0.50400001928E-02 0. -1.
        1   -1    0    0  501    0  0.00000000000E+00  0.00000000000E+00 -0.17347048908E+04  0.17347048908E+04  0.50400001928E-02 0.  1.
    10030    2    1    2    0    0  0.00000000000E+00  0.00000000000E+00 -0.14137554303E+04  0.20556543514E+04  0.14923171230E+04 0.  0.
        3    1    3    3  502    0  0.68001743939E+03 -0.25218528797E+03 -0.94835734719E+03  0.11939023434E+04  0.10100000352E+00 0.  1.
       -3    1    3    3    0  502 -0.68001743939E+03  0.25218528797E+03 -0.46539808307E+03  0.86175200799E+03  0.10100000352E+00 0. -1.
</event>
<event>
 5   0  0.2777539E-05  0.2512813E+04  0.7818609E-02  0.8398435E-01
        1   -1    0    0  501    0  0.00000000000E+00  0.00000000000E+00  0.21572519935E+04  0.21572519935E+04  0.50400001928E-02 0.  1.
       -1   -1    0    0    0  501  0.00000000000E+00  0.00000000000E+00 -0.73174434814E+03  0.73174434816E+03  0.50400001928E-02 0. -1.
    10030    2    1    2    0    0  0.00000000000E+00  0.00000000000E+00  0.14255076453E+04  0.28889963416E+04  0.25128127298E+04 0.  0.
        3    1    3    3  502    0  0.53254759360E+02  0.26870021970E+03 -0.69699463171E+03  0.74889078262E+03  0.10100000352E+00 0. -1.
       -3    1    3    3    0  502 -0.53254759360E+02 -0.26870021970E+03  0.21225022770E+04  0.21401055590E+04  0.10100000352E+00 0.  1.
</event>
<event>
 5   0  0.2896652E-05  0.1433527E+04  0.7818609E-02  0.8929901E-01
        1   -1    0    0  501    0  0.00000000000E+00  0.00000000000E+00  0.13894221358E+04  0.13894221358E+04  0.50400001928E-02 0.  1.
       -1   -1    0    0    0  501  0.00000000000E+00  0.00000000000E+00 -0.36975813645E+03  0.36975813648E+03  0.50400001928E-02 0. -1.
    10030    2    1    2    0    0  0.00000000000E+00  0.00000000000E+00  0.10196639993E+04  0.17591802723E+04  0.14335273136E+04 0.  0.
        4    1    3    3  502    0 -0.71577863945E+02 -0.84121007302E+02 -0.35925042731E+03  0.37584866222E+03  0.12699999809E+01 0. -1.
       -4    1    3    3    0  502  0.71577863945E+02  0.84121007302E+02  0.13789144266E+04  0.13833316100E+04  0.12699999809E+01 0.  1.
</event>
<event>
 5   0  0.6909250E-05  0.2511171E+04  0.7818609E-02  0.8399017E-01
        2   -1    0    0  501    0  0.00000000000E+00  0.00000000000E+00  0.18524259866E+04  0.18524259866E+04  0.25500000920E-02 0. -1.
       -2   -1    0    0    0  501  0.00000000000E+00  0.00000000000E+00 -0.85104336626E+03  0.85104336627E+03  0.25500000920E-02 0.  1.
    10030    2    1    2    0    0  0.00000000000E+00  0.00000000000E+00  0.10013826203E+04  0.27034693529E+04  0.25111709200E+04 0.  0.
        4    1    3    3  502    0  0.50162671587E+02 -0.38796170507E+03  0.17851443068E+04  0.18275044151E+04  0.12699999809E+01 0. -1.
       -4    1    3    3    0  502 -0.50162671587E+02  0.38796170507E+03 -0.78376168643E+03  0.87596493779E+03  0.12699999809E+01 0.  1.
</event>
<event>
 5   0  0.2777539E-05  0.1630274E+04  0.7818609E-02  0.8802163E-01
        1   -1    0    0  501    0  0.00000000000E+00  0.00000000000E+00  0.26780300880E+04  0.26780300880E+04  0.50400001928E-02 0. -1.
       -1   -1    0    0    0  501  0.00000000000E+00  0.00000000000E+00 -0.24811078846E+03  0.24811078852E+03  0.50400001928E-02 0.  1.
    10030    2    1    2    0    0  0.00000000000E+00  0.00000000000E+00  0.24299192996E+04  0.29261408766E+04  0.16302737890E+04 0.  0.
        3    1    3    3  502    0 -0.18537872012E+03  0.49397270795E+03  0.23302035916E+04  0.23891887942E+04  0.10100000352E+00 0. -1.
       -3    1    3    3    0  502  0.18537872012E+03 -0.49397270795E+03  0.99715707979E+02  0.53695208231E+03  0.10100000352E+00 0.  1.
</event>
<event>
 5   0  0.7071821E-05  0.2444613E+04  0.7818609E-02  0.8422988E-01
       -2   -1    0    0    0  501  0.00000000000E+00  0.00000000000E+00  0.51573298826E+03  0.51573298826E+03  0.25500000920E-02 0.  1.
        2   -1    0    0  501    0  0.00000000000E+00  0.00000000000E+00 -0.28969118406E+04  0.28969118406E+04  0.25500000920E-02 0. -1.
    10030    2    1    2    0    0  0.00000000000E+00  0.00000000000E+00 -0.23811788524E+04  0.34126448289E+04  0.24446128530E+04 0.  0.
        5    1    3    3  502    0 -0.28985837175E+03 -0.42114670581E+03  0.35928710036E+03  0.62489337808E+03  0.46999998093E+01 0.  1.
       -5    1    3    3    0  502  0.28985837175E+03  0.42114670581E+03 -0.27404659527E+04  0.27877514508E+04  0.46999998093E+01 0. -1.
</event>
<event>
 5   0  0.2777539E-05  0.2307717E+04  0.7818609E-02  0.8474885E-01
       -1   -1    0    0    0  501  0.00000000000E+00  0.00000000000E+00  0.93020616081E+03  0.93020616082E+03  0.50400001928E-02 0. -1.
        1   -1    0    0  501    0  0.00000000000E+00  0.00000000000E+00 -0.14312843869E+04  0.14312843869E+04  0.50400001928E-02 0.  1.
    10030    2    1    2    0    0  0.00000000000E+00  0.00000000000E+00 -0.50107822609E+03  0.23614905477E+04  0.23077171010E+04 0.  0.
        3    1    3    3  502    0  0.40029702174E+02  0.11254802349E+03  0.92386167374E+03  0.93155238019E+03  0.10100000352E+00 0. -1.
       -3    1    3    3    0  502 -0.40029702174E+02 -0.11254802349E+03 -0.14249398998E+04  0.14299381675E+04  0.10100000352E+00 0.  1.
</event>
<event>
 5   0  0.6445331E-05  0.2563044E+04  0.7818609E-02  0.8380864E-01
        2   -1    0    0  501    0  0.00000000000E+00  0.00000000000E+00  0.10905688521E+04  0.10905688521E+04  0.25500000920E-02 0. -1.
       -2   -1    0    0    0  501  0.00000000000E+00  0.00000000000E+00 -0.15059105161E+04  0.15059105161E+04  0.25500000920E-02 0.  1.
    10030    2    1    2    0    0  0.00000000000E+00  0.00000000000E+00 -0.41534166402E+03  0.25964793682E+04  0.25630443640E+04 0.  0.
        1    1    3    3  502    0  0.10218922822E+04  0.76677634841E+03 -0.10591501916E+03  0.12819624785E+04  0.50400001928E-02 0. -1.
       -1    1    3    3    0  502 -0.10218922822E+04 -0.76677634841E+03 -0.30942664486E+03  0.13145168897E+04  0.50400001928E-02 0.  1.
</event>
<event>
 5   0  0.2777539E-05  0.2523734E+04  0.7818609E-02  0.8394579E-01
        1   -1    0    0  501    0  0.00000000000E+00  0.00000000000E+00  0.15924061933E+04  0.15924061933E+04  0.50400001928E-02 0. -1.
       -1   -1    0    0    0  501  0.00000000000E+00  0.00000000000E+00 -0.99993885327E+03  0.99993885328E+03  0.50400001928E-02 0.  1.
    10030    2    1    2    0    0  0.00000000000E+00  0.00000000000E+00  0.59246734006E+03  0.25923450466E+04  0.25237343940E+04 0.  0.
        3    1    3    3  502    0 -0.27672444496E+03 -0.95847645241E+02  0.15570165536E+04  0.15843180703E+04  0.10100000352E+00 0. -1.
       -3    1    3    3    0  502  0.27672444496E+03  0.95847645241E+02 -0.96454921351E+03  0.10080269763E+04  0.10100000352E+00 0.  1.
</event>
<event>
 5   0  0.7071821E-05  0.1438463E+04  0.7818609E-02  0.8926438E-01
        2   -1    0    0  501    0  0.00000000000E+00  0.00000000000E+00  0.90448706027E+03  0.90448706027E+03  0.25500000920E-02 0.  1.
       -2   -1    0    0    0  501  0.00000000000E+00  0.00000000000E+00 -0.57191968831E+03  0.57191968831E+03  0.25500000920E-02 0. -1.
    10030    2    1    2    0    0  0.00000000000E+00  0.00000000000E+00  0.33256737196E+03  0.14764067486E+04  0.14384630097E+04 0.  0.
        5    1    3    3  502    0 -0.37320905910E+03 -0.18132045199E+03  0.76924013384E+03  0.87402207159E+03  0.46999998093E+01 0.  1.
       -5    1    3    3    0  502  0.37320905910E+03  0.18132045199E+03 -0.43667276188E+03  0.60238467699E+03  0.46999998093E+01 0. -1.
</event>
<event>
 5   0  0.6827859E-05  0.2512327E+04  0.7818609E-02  0.8398607E-01
        2   -1    0    0  501    0  0.00000000000E+00  0.00000000000E+00  0.16120504785E+04  0.16120504785E+04  0.25500000920E-02 0. -1.
       -2   -1    0    0    0  501  0.00000000000E+00  0.00000000000E+00 -0.97884468903E+03  0.97884468903E+03  0.25500000920E-02 0.  1.
    10030    2    1    2    0    0  0.00000000000E+00  0.00000000000E+00  0.63320578952E+03  0.25908951676E+04  0.25123272473E+04 0.  0.
        3    1    3    3  502    0  0.10919900724E+04 -0.56775121865E+03  0.57420229672E+02  0.12321042397E+04  0.10100000352E+00 0.  1.
       -3    1    3    3    0  502 -0.10919900724E+04  0.56775121865E+03  0.57578555984E+03  0.13587909279E+04  0.10100000352E+00 0. -1.
</event>
<event>
 5   0  0.6827859E-05  0.1335615E+04  0.7818609E-02  0.9001789E-01
       -2   -1    0    0    0  501  0.00000000000E+00  0.00000000000E+00  0.70465929828E+03  0.70465929828E+03  0.25500000920E-02 0. -1.
        2   -1    0    0  501    0  0.00000000000E+00  0.00000000000E+00 -0.63288301599E+03  0.63288301600E+03  0.25500000920E-02 0.  1.
    10030    2    1    2    0    0  0.00000000000E+00  0.00000000000E+00  0.71776282283E+02  0.13375423143E+04  0.13356150672E+04 0.  0.
        3    1    3    3  502    0 -0.48735739561E+03 -0.18755008295E+03 -0.38097520174E+03  0.64640109778E+03  0.10100000352E+00 0.  1.
       -3    1    3    3    0  502  0.48735739561E+03  0.18755008295E+03  0.45275148402E+03  0.69114121650E+03  0.10100000352E+00 0. -1.
</event>
<event>
 5   0  0.2977854E-05  0.2442953E+04  0.7818609E-02  0.8423595E-01
        1   -1    0    0  501    0  0.00000000000E+00  0.00000000000E+00  0.82577780903E+03  0.82577780904E+03  0.50400001928E-02 0. -1.
       -1   -1    0    0    0  501  0.00000000000E+00  0.00000000000E+00 -0.18067870784E+04  0.18067870784E+04  0.50400001928E-02 0.  1.
    10030    2    1    2    0    0  0.00000000000E+00  0.00000000000E+00 -0.98100926939E+03  0.26325648875E+04  0.24429528649E+04 0.  0.
        1    1    3    3  502    0 -0.48206253691E+03 -0.11108519609E+04 -0.31799079149E+03  0.12519962109E+04  0.50400001928E-02 0.  1.
       -1    1    3    3    0  502  0.48206253691E+03  0.11108519609E+04 -0.66301847790E+03  0.13805686766E+04  0.50400001928E-02 0. -1.
</event>
<event>
 5   0  0.2896652E-05  0.2396478E+04  0.7818609E-02  0.8440823E-01
        1   -1    0    0  501    0  0.00000000000E+00  0.00000000000E+00  0.16774638756E+04  0.16774638756E+04  0.50400001928E-02 0.  1.
       -1   -1    0    0    0  501  0.00000000000E+00  0.00000000000E+00 -0.85592132212E+03  0.85592132213E+03  0.50400001928E-02 0. -1.
    10030    2    1    2    0    0  0.00000000000E+00  0.00000000000E+00  0.82154255351E+03  0.25333851978E+04  0.23964783314E+04 0.  0.
        4    1    3    3  502    0  0.76587907191E+03 -0.66487104893E+03  0.10853079911E+04  0.14854357317E+04  0.12699999809E+01 0.  1.
       -4    1    3    3    0  502 -0.76587907191E+03  0.66487104893E+03 -0.26376543761E+03  0.10479494661E+04  0.12699999809E+01 0. -1.
</event>
<event>
 5   0  0.2977854E-05  0.2443776E+04  0.7818609E-02  0.8423294E-01
       -1   -1    0    0    0  501  0.00000000000E+00  0.00000000000E+00  0.79211565961E+03  0.79211565963E+03  0.50400001928E-02 0. -1.
        1   -1    0    0  501    0  0.00000000000E+00  0.00000000000E+00 -0.18848384671E+04  0.18848384671E+04  0.50400001928E-02 0.  1.
    10030    2    1    2    0    0  0.00000000000E+00  0.00000000000E+00 -0.10927228075E+04  0.26769541268E+04  0.24437758209E+04 0.  0.
        1    1    3    3  502    0  0.34419825168E+02  0.11471581578E+04 -0.86999392674E+02  0.11509671836E+04  0.50400001928E-02 0. -1.
       -1    1    3    3    0  502 -0.34419825168E+02 -0.11471581578E+04 -0.10057234149E+04  0.15259869431E+04  0.50400001928E-02 0.  1.
</event>
<event>
 5   0  0.2331375E-05  0.2544602E+04  0.7818609E-02  0.8387266E-01
        3   -1    0    0  501    0  0.00000000000E+00  0.00000000000E+00  0.15419239283E+04  0.15419239316E+04  0.10100000352E+00 0.  1.
       -3   -1    0    0    0  501  0.00000000000E+00  0.00000000000E+00 -0.10498250864E+04  0.10498250913E+04  0.10100000352E+00 0. -1.
    10030    2    1    2    0    0  0.00000000000E+00  0.00000000000E+00  0.49209884190E+03  0.25917490229E+04  0.25446024694E+04 0.  0.
        4    1    3    3  502    0 -0.11366993801E+04 -0.86477880383E+02  0.82148164389E+03  0.14051325947E+04  0.12699999809E+01 0. -1.
       -4    1    3    3    0  502  0.11366993801E+04  0.86477880383E+02 -0.32938280199E+03  0.11866164282E+04  0.12699999809E+01 0.  1.
</event>
<event>
 5   0  0.2777539E-05  0.2445719E+04  0.7818609E-02  0.8422583E-01
       -1   -1    0    0    0  501  0.00000000000E+00  0.00000000000E+00  0.59357407603E+03  0.59357407605E+03  0.50400001928E-02 0.  1.
        1   -1    0    0  501    0  0.00000000000E+00  0.00000000000E+00 -0.25192899865E+04  0.25192899865E+04  0.50400001928E-02 0. -1.
    10030    2    1    2    0    0  0.00000000000E+00  0.00000000000E+00 -0.19257159105E+04  0.31128640626E+04  0.24457188931E+04 0.  0.
        3    1    3    3  502    0 -0.47740278107E+03 -0.94364185962E+01 -0.23957303435E+04  0.24428520934E+04  0.10100000352E+00 0. -1.
       -3    1    3    3    0  502  0.47740278107E+03  0.94364185962E+01  0.47001443301E+03  0.67001196915E+03  0.10100000352E+00 0.  1.
</event>
<event>
 5   0  0.2896652E-05  0.2486637E+04  0.7818609E-02  0.8407762E-01
       -1   -1    0    0    0  501  0.00000000000E+00  0.00000000000E+00  0.20404158442E+04  0.20404158442E+04  0.50400001928E-02 0.  1.
        1   -1    0    0  501    0  0.00000000000E+00  0.00000000000E+00 -0.75761047324E+03  0.75761047326E+03  0.50400001928E-02 0. -1.
    10030    2    1    2    0    0  0.00000000000E+00  0.00000000000E+00  0.12828053710E+04  0.27980263175E+04  0.24866366147E+04 0.  0.
        4    1    3    3  502    0 -0.88321101308E+03  0.21686062190E+03 -0.31255249315E+03  0.96165529002E+03  0.12699999809E+01 0. -1.
       -4    1    3    3    0  502  0.88321101308E+03 -0.21686062190E+03  0.15953578641E+04  0.18363710275E+04  0.12699999809E+01 0.  1.
</event>
<event>
 5   0  0.2793920E-05  0.2546596E+04  0.7818609E-02  0.8386571E-01
       -1   -1    0    0    0  501  0.00000000000E+00  0.00000000000E+00  0.86451558634E+03  0.86451558636E+03  0.50400001928E-02 0. -1.
        1   -1    0    0  501    0  0.00000000000E+00  0.00000000000E+00 -0.18753714420E+04  0.18753714420E+04  0.50400001928E-02 0.  1.
    10030    2    1    2    0    0  0.00000000000E+00  0.00000000000E+00 -0.10108558556E+04  0.27398870283E+04  0.25465960353E+04 0.  0.
        2    1    3    3  502    0  0.32227607675E+03 -0.40021057180E+03 -0.17588684131E+04  0.18323887322E+04  0.25500000920E-02 0.  1.
       -2    1    3    3    0  502 -0.32227607675E+03  0.40021057180E+03  0.74801255743E+03  0.90749829614E+03  0.25500000920E-02 0. -1.
</event>
<event>
 5   0  0.6648328E-05  0.2590310E+04  0.7818609E-02  0.8371500E-01
       -2   -1    0    0    0  501  0.00000000000E+00  0.00000000000E+00  0.12562041094E+04  0.12562041094E+04  0.25500000920E-02 0.  1.
        2   -1    0    0  501    0  0.00000000000E+00  0.00000000000E+00 -0.13353139098E+04  0.13353139098E+04  0.25500000920E-02 0. -1.
    10030    2    1    2    0    0  0.00000000000E+00  0.00000000000E+00 -0.79109800431E+02  0.25915180192E+04  0.25903102678E+04 0.  0.
        2    1    3    3  502    0 -0.23842042371E+03  0.12652800906E+04 -0.17979448705E+03  0.13000400239E+04  0.25500000920E-02 0.  1.
       -2    1    3    3    0  502  0.23842042371E+03 -0.12652800906E+04  0.10068468662E+03  0.12914779953E+04  0.25500000920E-02 0. -1.
</event>
<event>
 5   0  0.2980790E-05  0.2515820E+04  0.7818609E-02  0.8397371E-01
        1   -1    0    0  501    0  0.00000000000E+00  0.00000000000E+00  0.12765355714E+04  0.12765355714E+04  0.50400001928E-02 0.  1.
       -1   -1    0    0    0  501  0.00000000000E+00  0.00000000000E+00 -0.12395565615E+04  0.12395565615E+04  0.50400001928E-02 0. -1.
    10030    2    1    2    0    0  0.00000000000E+00  0.00000000000E+00  0.36979009843E+02  0.25160921329E+04  0.25158203780E+04 0.  0.
        5    1    3    3  502    0  0.28414041924E+03 -0.12222856942E+04 -0.68685599858E+02  0.12567648538E+04  0.46999998093E+01 0. -1.
       -5    1    3    3    0  502 -0.28414041924E+03  0.12222856942E+04  0.10566460970E+03  0.12593272791E+04  0.46999998093E+01 0.  1.
</event>
<event>
 5   0  0.2777539E-05  0.2433741E+04  0.7818609E-02  0.8426978E-01
       -1   -1    0    0    0  501  0.00000000000E+00  0.00000000000E+00  0.10762451671E+04  0.10762451671E+04  0.50400001928E-02 0. -1.
        1   -1    0    0  501    0  0.00000000000E+00  0.00000000000E+00 -0.13758706022E+04  0.13758706022E+04  0.50400001928E-02 0.  1.
    10030    2    1    2    0    0  0.00000000000E+00  0.00000000000E+00 -0.29962543515E+03  0.24521157693E+04  0.24337412239E+04 0.  0.
        3    1    3    3  502    0 -0.36584626041E+03 -0.87228111346E+03  0.62151017683E+03  0.11318094969E+04  0.10100000352E+00 0. -1.
       -3    1    3    3    0  502  0.36584626041E+03  0.87228111346E+03 -0.92113561198E+03  0.13203062724E+04  0.10100000352E+00 0.  1.
</event>
<event>
 5   0  0.6648328E-05  0.2475039E+04  0.7818609E-02  0.8411932E-01
       -2   -1    0    0    0  501  0.00000000000E+00  0.00000000000E+00  0.12293770468E+04  0.12293770468E+04  0.25500000920E-02 0.  1.
        2   -1    0    0  501    0  0.00000000000E+00  0.00000000000E+00 -0.12457162320E+04  0.12457162320E+04  0.25500000920E-02 0. -1.
    10030    2    1    2    0    0  0.00000000000E+00  0.00000000000E+00 -0.16339185198E+02  0.24750932789E+04  0.24750393472E+04 0.  0.
        2    1    3    3  502    0  0.34172251924E+03  0.93788110226E+03 -0.73966328280E+03  0.12423755527E+04  0.25500000920E-02 0. -1.
       -2    1    3    3    0  502 -0.34172251924E+03 -0.93788110226E+03  0.72332409760E+03  0.12327177261E+04  0.25500000920E-02 0.  1.
</event>
<event>
 5   0  0.2793920E-05  0.2368271E+04  0.7818609E-02  0.8451479E-01
       -1   -1    0    0    0  501  0.00000000000E+00  0.00000000000E+00  0.51358727829E+03  0.51358727832E+03  0.50400001928E-02 0. -1.
        1   -1    0    0  501    0  0.00000000000E+00  0.00000000000E+00 -0.27301636226E+04  0.27301636226E+04  0.50400001928E-02 0.  1.
    10030    2    1    2    0    0  0.00000000000E+00  0.00000000000E+00 -0.22165763443E+04  0.32437509010E+04  0.23682713563E+04 0.  0.
        2    1    3    3  502    0 -0.30284764037E+03 -0.29938620432E+03 -0.26216520553E+04  0.26560136091E+04  0.25500000920E-02 0.  1.
       -2    1    3    3    0  502  0.30284764037E+03  0.29938620432E+03  0.40507571097E+03  0.58773729185E+03  0.25500000920E-02 0. -1.
</event>
<event>
 5   0  0.2980790E-05  0.2035840E+04  0.7818609E-02  0.8590045E-01
       -1   -1    0    0    0  501  0.00000000000E+00  0.00000000000E+00  0.74347266252E+03  0.74347266254E+03  0.50400001928E-02 0.  1.
        1   -1    0    0  501    0  0.00000000000E+00  0.00000000000E+00 -0.13936777747E+04  0.13936777748E+04  0.50400001928E-02 0. -1.
    10030    2    1    2    0    0  0.00000000000E+00  0.00000000000E+00 -0.65020511223E+03  0.21371504373E+04  0.20358401960E+04 0.  0.
        5    1    3    3  502    0  0.39670981246E+03  0.52528716641E+02  0.65742283598E+03  0.76965239989E+03  0.46999998093E+01 0.  1.
       -5    1    3    3    0  502 -0.39670981246E+03 -0.52528716641E+02 -0.13076279482E+04  0.13674980374E+04  0.46999998093E+01 0. -1.
</event>
<event>
 5   0  0.6445331E-05  0.2511974E+04  0.7818609E-02  0.8398732E-01
        2   -1    0    0  501    0  0.00000000000E+00  0.00000000000E+00  0.13283141546E+04  0.13283141546E+04  0.25500000920E-02 0. -1.
       -2   -1    0    0    0  501  0.00000000000E+00  0.00000000000E+00 -0.11875982996E+04  0.11875982996E+04  0.25500000920E-02 0.  1.
    10030    2    1    2    0    0  0.00000000000E+00  0.00000000000E+00  0.14071585497E+03  0.25159124542E+04  0.25119742287E+04 0.  0.
        1    1    3    3  502    0  0.65185455456E+03 -0.59064826499E+03  0.96826994979E+03  0.13081767575E+04  0.50400001928E-02 0. -1.
       -1    1    3    3    0  502 -0.65185455456E+03  0.59064826499E+03 -0.82755409482E+03  0.12077356967E+04  0.50400001928E-02 0.  1.
</event>
<event>
 5   0  0.6648328E-05  0.2609583E+04  0.7818609E-02  0.8364953E-01
        2   -1    0    0  501    0  0.00000000000E+00  0.00000000000E+00  0.24987279284E+04  0.24987279284E+04  0.25500000920E-02 0. -1.
       -2   -1    0    0    0  501  0.00000000000E+00  0.00000000000E+00 -0.68133897718E+03  0.68133897719E+03  0.25500000920E-02 0.  1.
    10030    2    1    2    0    0  0.00000000000E+00  0.00000000000E+00  0.18173889512E+04  0.31800669055E+04  0.26095829023E+04 0.  0.
        2    1    3    3  502    0 -0.88426061438E+03 -0.63134119000E+02 -0.25798046248E+03  0.92328580090E+03  0.25500000920E-02 0.  1.
       -2    1    3    3    0  502  0.88426061438E+03  0.63134119000E+02  0.20753694137E+04  0.22567811046E+04  0.25500000920E-02 0. -1.
</event>
<event>
 5   0  0.6909250E-05  0.2454977E+04  0.7818609E-02  0.8419203E-01
        2   -1    0    0  501    0  0.00000000000E+00  0.00000000000E+00  0.19823301339E+04  0.19823301339E+04  0.25500000920E-02 0.  1.
       -2   -1    0    0    0  501  0.00000000000E+00  0.00000000000E+00 -0.76007925063E+03  0.76007925064E+03  0.25500000920E-02 0. -1.
    10030    2    1    2    0    0  0.00000000000E+00  0.00000000000E+00  0.12222508833E+04  0.27424093846E+04  0.24549769878E+04 0.  0.
        4    1    3    3  502    0 -0.42406468602E+02 -0.33436146132E+03 -0.70737645906E+03  0.78356809731E+03  0.12699999809E+01 0. -1.
       -4    1    3    3    0  502  0.42406468602E+02  0.33436146132E+03  0.19296273423E+04  0.19588412873E+04  0.12699999809E+01 0.  1.
</event>
<event>
 5   0  0.7071821E-05  0.2547129E+04  0.7818609E-02  0.8386385E-01
       -2   -1    0    0    0  501  0.00000000000E+00  0.00000000000E+00  0.10241168189E+04  0.10241168189E+04  0.25500000920E-02 0. -1.
        2   -1    0    0  501    0  0.00000000000E+00  0.00000000000E+00 -0.15837708253E+04  0.15837708253E+04  0.25500000920E-02 0.  1.
    10030    2    1    2    0    0  0.00000000000E+00  0.00000000000E+00 -0.55965400640E+03  0.26078876443E+04  0.25471288461E+04 0.  0.
        5    1    3    3  502    0 -0.86356316629E+03 -0.10782532658E+03  0.67217903432E+03  0.10996428454E+04  0.46999998093E+01 0. -1.
       -5    1    3    3    0  502  0.86356316629E+03  0.10782532658E+03 -0.12318330407E+04  0.15082447989E+04  0.46999998093E+01 0.  1.
</event>
<event>
 5   0  0.6909250E-05  0.2510823E+04  0.7818609E-02  0.8399140E-01
        2   -1    0    0  501    0  0.00000000000E+00  0.00000000000E+00  0.27005213110E+04  0.27005213110E+04  0.25500000920E-02 0.  1.
       -2   -1    0    0    0  501  0.00000000000E+00  0.00000000000E+00 -0.58361248841E+03  0.58361248842E+03  0.25500000920E-02 0. -1.
    10030    2    1    2    0    0  0.00000000000E+00  0.00000000000E+00  0.21169088226E+04  0.32841337994E+04  0.25108229426E+04 0.  0.
        4    1    3    3  502    0 -0.10432727882E+04  0.69321513006E+03  0.11685979893E+04  0.17130639803E+04  0.12699999809E+01 0.  1.
       -4    1    3    3    0  502  0.10432727882E+04 -0.69321513006E+03  0.94831083324E+03  0.15710698191E+04  0.12699999809E+01 0. -1.
</event>
<event>
 5   0  0.6445331E-05  0.1755836E+04  0.7818609E-02  0.8730145E-01
       -2   -1    0    0    0  501  0.00000000000E+00  0.00000000000E+00  0.56791963449E+03  0.56791963450E+03  0.25500000920E-02 0. -1.
        2   -1    0    0  501    0  0.00000000000E+00  0.00000000000E+00 -0.13571282257E+04  0.13571282257E+04  0.25500000920E-02 0.  1.
    10030    2    1    2    0    0  0.00000000000E+00  0.00000000000E+00 -0.78920859124E+03  0.19250478602E+04  0.17558357166E+04 0.  0.
        1    1    3    3  502    0  0.18280830425E+03  0.79674312238E+03 -0.74565081911E+03  0.11064418752E+04  0.50400001928E-02 0.  1.
       -1    1    3    3    0  502 -0.18280830425E+03 -0.79674312238E+03 -0.43557772127E+02  0.81860598502E+03  0.50400001928E-02 0. -1.
</event>
<event>
 5   0  0.2793920E-05  0.2485067E+04  0.7818609E-02  0.8408325E-01
       -1   -1    0    0    0  501  0.00000000000E+00  0.00000000000E+00  0.88601031369E+03  0.88601031370E+03  0.50400001928E-02 0. -1.
        1   -1    0    0  501    0  0.00000000000E+00  0.00000000000E+00 -0.17425186711E+04  0.17425186711E+04  0.50400001928E-02 0.  1.
    10030    2    1    2    0    0  0.00000000000E+00  0.00000000000E+00 -0.85650835741E+03  0.26285289848E+04  0.24850670127E+04 0.  0.
        2    1    3    3  502    0  0.55999356426E+03  0.11090244366E+04 -0.40814280821E+03  0.13077111856E+04  0.25500000920E-02 0.  1.
       -2    1    3    3    0  502 -0.55999356426E+03 -0.11090244366E+04 -0.44836554920E+03  0.13208177992E+04  0.25500000920E-02 0. -1.
</event>
<event>
 5   0  0.6648328E-05  0.2384909E+04  0.7818609E-02  0.8445175E-01
        2   -1    0    0  501    0  0.00000000000E+00  0.00000000000E+00  0.11687440918E+04  0.11687440918E+04  0.25500000920E-02 0.  1.
       -2   -1    0    0    0  501  0.00000000000E+00  0.00000000000E+00 -0.12166460324E+04  0.12166460324E+04  0.25500000920E-02 0. -1.
    10030    2    1    2    0    0  0.00000000000E+00  0.00000000000E+00 -0.47901940557E+02  0.23853901242E+04  0.23849091071E+04 0.  0.
        2    1    3    3  502    0  0.86868059536E+03 -0.10694787575E+02  0.79305373172E+03  0.11762884751E+04  0.25500000920E-02 0.  1.
       -2    1    3    3    0  502 -0.86868059536E+03  0.10694787575E+02 -0.84095567227E+03  0.12091016491E+04  0.25500000920E-02 0. -1.
</event>
<event>
 5   0  0.6827859E-05  0.2496455E+04  0.7818609E-02  0.8404249E-01
       -2   -1    0    0    0  501  0.00000000000E+00  0.00000000000E+00  0.90351289695E+03  0.90351289696E+03  0.25500000920E-02 0.  1.
        2   -1    0    0  501    0  0.00000000000E+00  0.00000000000E+00 -0.17244605456E+04  0.17244605456E+04  0.25500000920E-02 0. -1.
    10030    2    1    2    0    0  0.00000000000E+00  0.00000000000E+00 -0.82094764868E+03  0.26279734426E+04  0.24964553617E+04 0.  0.
        3    1    3    3  502    0 -0.67458142921E+03 -0.16136316145E+03  0.68197174709E+03  0.97271971736E+03  0.10100000352E+00 0.  1.
       -3    1    3    3    0  502  0.67458142921E+03  0.16136316145E+03 -0.15029193958E+04  0.16552537252E+04  0.10100000352E+00 0. -1.
</event>
<event>
 5   0  0.7071821E-05  0.2288051E+04  0.7818609E-02  0.8482647E-01
        2   -1    0    0  501    0  0.00000000000E+00  0.00000000000E+00  0.14914455039E+04  0.14914455039E+04  0.25500000920E-02 0. -1.
       -2   -1    0    0    0  501  0.00000000000E+00  0.00000000000E+00 -0.87753390425E+03  0.87753390425E+03  0.25500000920E-02 0.  1.
    10030    2    1    2    0    0  0.00000000000E+00  0.00000000000E+00  0.61391159967E+03  0.23689794082E+04  0.22880506953E+04 0.  0.
        5    1    3    3  502    0  0.80350396847E+03 -0.63022609399E+03 -0.22700653310E+03  0.10461154874E+04  0.46999998093E+01 0. -1.
       -5    1    3    3    0  502 -0.80350396847E+03  0.63022609399E+03  0.84091813277E+03  0.13228639208E+04  0.46999998093E+01 0.  1.
</event>
<event>
 5   0  0.6445331E-05  0.2503273E+04  0.7818609E-02  0.8401821E-01
       -2   -1    0    0    0  501  0.00000000000E+00  0.00000000000E+00  0.78854854013E+03  0.78854854014E+03  0.25500000920E-02 0.  1.
        2   -1    0    0  501    0  0.00000000000E+00  0.00000000000E+00 -0.19866796555E+04  0.19866796555E+04  0.25500000920E-02 0. -1.
    10030    2    1    2    0    0  0.00000000000E+00  0.00000000000E+00 -0.11981311154E+04  0.27752281956E+04  0.25032725318E+04 0.  0.
        1    1    3    3  502    0 -0.51377025477E+03  0.11135505245E+04 -0.32159818511E+03  0.12678249240E+04  0.50400001928E-02 0.  1.
       -1    1    3    3    0  502  0.51377025477E+03 -0.11135505245E+04 -0.87653293026E+03  0.15074032716E+04  0.50400001928E-02 0. -1.
</event>
<event>
 5   0  0.2977854E-05  0.2479684E+04  0.7818609E-02  0.8410259E-01
       -1   -1    0    0    0  501  0.00000000000E+00  0.00000000000E+00  0.16004492728E+04  0.16004492728E+04  0.50400001928E-02 0. -1.
        1   -1    0    0  501    0  0.00000000000E+00  0.00000000000E+00 -0.96048519291E+03  0.96048519292E+03  0.50400001928E-02 0.  1.
    10030    2    1    2    0    0  0.00000000000E+00  0.00000000000E+00  0.63996407993E+03  0.25609344658E+04  0.24796837126E+04 0.  0.
        1    1    3    3  502    0  0.60932948882E+03 -0.10513924411E+04  0.65956440756E+02  0.12169875691E+04  0.50400001928E-02 0. -1.
       -1    1    3    3    0  502 -0.60932948882E+03  0.10513924411E+04  0.57400763917E+03  0.13439468967E+04  0.50400001928E-02 0.  1.
</event>
<event>
 5   0  0.6648328E-05  0.2076497E+04  0.7818609E-02  0.8571668E-01
       -2   -1    0    0    0  501  0.00000000000E+00  0.00000000000E+00  0.66812029402E+03  0.66812029402E+03  0.25500000920E-02 0.  1.
        2   -1    0    0  501    0  0.00000000000E+00  0.00000000000E+00 -0.16134224485E+04  0.16134224485E+04  0.25500000920E-02 0. -1.
    10030    2    1    2    0    0  0.00000000000E+00  0.00000000000E+00 -0.94530215447E+03  0.22815427425E+04  0.20764973206E+04 0.  0.
        2    1    3    3  502    0  0.47641243112E+03  0.87364505282E+03 -0.79810210625E+03  0.12756141481E+04  0.25500000920E-02 0. -1.
       -2    1    3    3    0  502 -0.47641243112E+03 -0.87364505282E+03 -0.14720004822E+03  0.10059285944E+04  0.25500000920E-02 0.  1.
</event>
<event>
 5   0  0.2980790E-05  0.2463185E+04  0.7818609E-02  0.8416220E-01
        1   -1    0    0  501    0  0.00000000000E+00  0.00000000000E+00  0.14310876136E+04  0.14310876136E+04  0.50400001928E-02 0.  1.
       -1   -1    0    0    0  501  0.00000000000E+00  0.00000000000E+00 -0.10599070818E+04  0.10599070818E+04  0.50400001928E-02 0. -1.
    10030    2    1    2    0    0  0.00000000000E+00  0.00000000000E+00  0.37118053180E+03  0.24909946955E+04  0.24631848460E+04 0.  0.
        5    1    3    3  502    0  0.43122578273E+03  0.74021996986E+03 -0.70922529751E+03  0.11121618102E+04  0.46999998093E+01 0. -1.
       -5    1    3    3    0  502 -0.43122578273E+03 -0.74021996986E+03  0.10804058293E+04  0.13788328853E+04  0.46999998093E+01 0.  1.
</event>
<event>
 5   0  0.7071821E-05  0.2561756E+04  0.7818609E-02  0.8381309E-01
        2   -1    0    0  501    0  0.00000000000E+00  0.00000000000E+00  0.26641479027E+04  0.26641479027E+04  0.25500000920E-02 0.  1.
       -2   -1    0    0    0  501  0.00000000000E+00  0.00000000000E+00 -0.61582495710E+03  0.61582495711E+03  0.25500000920E-02 0. -1.
    10030    2    1    2    0    0  0.00000000000E+00  0.00000000000E+00  0.20483229456E+04  0.32799728598E+04  0.25617562475E+04 0.  0.
        5    1    3    3  502    0  0.94066372542E+02 -0.32854791711E+02 -0.61084439779E+03  0.61893528587E+03  0.46999998093E+01 0. -1.
       -5    1    3    3    0  502 -0.94066372542E+02  0.32854791711E+02  0.26591673434E+04  0.26610375739E+04  0.46999998093E+01 0.  1.
</event>
<event>
 5   0  0.2896652E-05  0.2828827E+04  0.7818609E-02  0.8294374E-01
       -1   -1    0    0    0  501  0.00000000000E+00  0.00000000000E+00  0.12972754439E+04  0.12972754439E+04  0.50400001928E-02 0. -1.
        1   -1    0    0  501    0  0.00000000000E+00  0.00000000000E+00 -0.15421281824E+04  0.15421281824E+04  0.50400001928E-02 0.  1.
    10030    2    1    2    0    0  0.00000000000E+00  0.00000000000E+00 -0.24485273847E+03  0.28394036264E+04  0.28288266277E+04 0.  0.
        4    1    3    3  502    0 -0.96921487082E+03  0.49358248811E+03 -0.10299986477E+04  0.14979652752E+04  0.12699999809E+01 0.  1.
       -4    1    3    3    0  502  0.96921487082E+03 -0.49358248811E+03  0.78514590924E+03  0.13414383512E+04  0.12699999809E+01 0. -1.
</event>
<event>
 5   0  0.6909250E-05  0.2444012E+04  0.7818609E-02  0.8423207E-01
       -2   -1    0    0    0  501  0.00000000000E+00  0.00000000000E+00  0.69157478283E+03  0.69157478283E+03  0.25500000920E-02 0. -1.
        2   -1    0    0  501    0  0.00000000000E+00  0.00000000000E+00 -0.21592732691E+04  0.21592732691E+04  0.25500000920E-02 0.  1.
    10030    2    1    2    0    0  0.00000000000E+00  0.00000000000E+00 -0.14676984863E+04  0.28508480519E+04  0.24440122276E+04 0.  0.
        4    1    3    3  502    0 -0.34076113375E+03  0.11706263219E+04 -0.63756703237E+03  0.13758551775E+04  0.12699999809E+01 0. -1.
       -4    1    3    3    0  502  0.34076113375E+03 -0.11706263219E+04 -0.83013145389E+03  0.14749928744E+04  0.12699999809E+01 0.  1.
</event>
<event>
 5   0  0.2977854E-05  0.2517315E+04  0.7818609E-02  0.8396843E-01
       -1   -1    0    0    0  501  0.00000000000E+00  0.00000000000E+00  0.19969892623E+04  0.19969892623E+04  0.50400001928E-02 0. -1.
        1   -1    0    0  501    0  0.00000000000E+00  0.00000000000E+00 -0.79330357721E+03  0.79330357723E+03  0.50400001928E-02 0.  1.
    10030    2    1    2    0    0  0.00000000000E+00  0.00000000000E+00  0.12036856851E+04  0.27902928395E+04  0.25173150184E+04 0.  0.
        1    1    3    3  502    0 -0.23871639802E+01  0.20822123230E+03 -0.77407777339E+03  0.80159726759E+03  0.50400001928E-02 0.  1.
       -1    1    3    3    0  502  0.23871639802E+01 -0.20822123230E+03  0.19777634585E+04  0.19886955720E+04  0.50400001928E-02 0. -1.
</event>
<event>
 5   0  0.6445331E-05  0.2177053E+04  0.7818609E-02  0.8528040E-01
       -2   -1    0    0    0  501  0.00000000000E+00  0.00000000000E+00  0.91694108881E+03  0.91694108881E+03  0.25500000920E-02 0.  1.
        2   -1    0    0  501    0  0.00000000000E+00  0.00000000000E+00 -0.12922208607E+04  0.12922208607E+04  0.25500000920E-02 0. -1.
    10030    2    1    2    0    0  0.00000000000E+00  0.00000000000E+00 -0.37527977192E+03  0.22091619495E+04  0.21770534243E+04 0.  0.
        1    1    3    3  502    0 -0.69765083383E+03  0.40327037243E+03 -0.93024365845E+03  0.12307302480E+04  0.50400001928E-02 0. -1.
       -1    1    3    3    0  502  0.69765083383E+03 -0.40327037243E+03  0.55496388653E+03  0.97843170155E+03  0.50400001928E-02 0.  1.
</event>
<event>
 5   0  0.2896652E-05  0.2601851E+04  0.7818609E-02  0.8367573E-01
        1   -1    0    0  501    0  0.00000000000E+00  0.00000000000E+00  0.11186137574E+04  0.11186137574E+04  0.50400001928E-02 0. -1.
       -1   -1    0    0    0  501  0.00000000000E+00  0.00000000000E+00 -0.15129508302E+04  0.15129508302E+04  0.50400001928E-02 0.  1.
    10030    2    1    2    0    0  0.00000000000E+00  0.00000000000E+00 -0.39433707288E+03  0.26315645876E+04  0.26018513508E+04 0.  0.
        4    1    3    3  502    0  0.99898336966E+03  0.40487938858E+03  0.53951117908E+03  0.12053916448E+04  0.12699999809E+01 0. -1.
       -4    1    3    3    0  502 -0.99898336966E+03 -0.40487938858E+03 -0.93384825196E+03  0.14261729428E+04  0.12699999809E+01 0.  1.
</event>
<event>
 5   0  0.6827859E-05  0.2420435E+04  0.7818609E-02  0.8431893E-01
        2   -1    0    0  501    0  0.00000000000E+00  0.00000000000E+00  0.10715615783E+04  0.10715615783E+04  0.25500000920E-02 0.  1.
       -2   -1    0    0    0  501  0.00000000000E+00  0.00000000000E+00 -0.13668144723E+04  0.13668144723E+04  0.25500000920E-02 0. -1.
    10030    2    1    2    0    0  0.00000000000E+00  0.00000000000E+00 -0.29525289405E+03  0.24383760506E+04  0.24204345669E+04 0.  0.
        3    1    3    3  502    0  0.66098349425E+03 -0.38388069802E+02  0.87292420775E+03  0.10956137578E+04  0.10100000352E+00 0.  1.
       -3    1    3    3    0  502 -0.66098349425E+03  0.38388069802E+02 -0.11681771018E+04  0.13427622928E+04  0.10100000352E+00 0. -1.
</event>
<event>
 5   0  0.2777539E-05  0.2526405E+04  0.7818609E-02  0.8393638E-01
        1   -1    0    0  501    0  0.00000000000E+00  0.00000000000E+00  0.19871868975E+04  0.19871868975E+04  0.50400001928E-02 0.  1.
       -1   -1    0    0    0  501  0.00000000000E+00  0.00000000000E+00 -0.80298485577E+03  0.80298485579E+03  0.50400001928E-02 0. -1.
    10030    2    1    2    0    0  0.00000000000E+00  0.00000000000E+00  0.11842020418E+04  0.27901717533E+04  0.25264053391E+04 0.  0.
        3    1    3    3  502    0  0.64316688324E+03  0.51110636822E+03 -0.46765926841E+03  0.94530342264E+03  0.10100000352E+00 0. -1.
       -3    1    3    3    0  502 -0.64316688324E+03 -0.51110636822E+03  0.16518613102E+04  0.18448683307E+04  0.10100000352E+00 0.  1.
</event>
<event>
 5   0  0.6445331E-05  0.2071291E+04  0.7818609E-02  0.8573996E-01
       -2   -1    0    0    0  501  0.00000000000E+00  0.00000000000E+00  0.91216561398E+03  0.91216561398E+03  0.25500000920E-02 0. -1.
        2   -1    0    0  501    0  0.00000000000E+00  0.00000000000E+00 -0.11758408141E+04  0.11758408141E+04  0.25500000920E-02 0.  1.
    10030    2    1    2    0    0  0.00000000000E+00  0.00000000000E+00 -0.26367520007E+03  0.20880064280E+04  0.20712909579E+04 0.  0.
        1    1    3    3  502    0  0.45524313069E+03  0.41108253991E+03  0.70935830740E+03  0.93777629047E+03  0.50400001928E-02 0. -1.
       -1    1    3    3    0  502 -0.45524313069E+03 -0.41108253991E+03 -0.97303350748E+03  0.11502301376E+04  0.50400001928E-02 0.  1.
</event>
<event>
 5   0  0.2896652E-05  0.2464389E+04  0.7818609E-02  0.8415783E-01
        1   -1    0    0  501    0  0.00000000000E+00  0.00000000000E+00  0.13704471568E+04  0.13704471568E+04  0.50400001928E-02 0. -1.
       -1   -1    0    0    0  501  0.00000000000E+00  0.00000000000E+00 -0.11078893948E+04  0.11078893948E+04  0.50400001928E-02 0.  1.
    10030    2    1    2    0    0  0.00000000000E+00  0.00000000000E+00  0.26255776196E+03  0.24783365516E+04  0.24643894751E+04 0.  0.
        4    1    3    3  502    0  0.11042504026E+04 -0.52892927656E+03 -0.79500372322E+01  0.12244182076E+04  0.12699999809E+01 0. -1.
       -4    1    3    3    0  502 -0.11042504026E+04  0.52892927656E+03  0.27050779919E+03  0.12539183440E+04  0.12699999809E+01 0.  1.
</event>
<event>
 5   0  0.6827859E-05  0.2490188E+04  0.7818609E-02  0.8406490E-01
        2   -1    0    0  501    0  0.00000000000E+00  0.00000000000E+00  0.12237433267E+04  0.12237433267E+04  0.25500000920E-02 0.  1.
       -2   -1    0    0    0  501  0.00000000000E+00  0.00000000000E+00 -0.12668168838E+04  0.12668168838E+04  0.25500000920E-02 0. -1.
    10030    2    1    2    0    0  0.00000000000E+00  0.00000000000E+00 -0.43073557095E+02  0.24905602105E+04  0.24901877100E+04 0.  0.
        3    1    3    3  502    0  0.53128170059E+03 -0.10701962543E+04  0.32877042164E+03  0.12392216381E+04  0.10100000352E+00 0.  1.
       -3    1    3    3    0  502 -0.53128170059E+03  0.10701962543E+04 -0.37184397874E+03  0.12513385724E+04  0.10100000352E+00 0. -1.
</event>
<event>
 5   0  0.2896652E-05  0.2457794E+04  0.7818609E-02  0.8418178E-01
       -1   -1    0    0    0  501  0.00000000000E+00  0.00000000000E+00  0.12802311462E+04  0.12802311462E+04  0.50400001928E-02 0. -1.
        1   -1    0    0  501    0  0.00000000000E+00  0.00000000000E+00 -0.11796209434E+04  0.11796209434E+04  0.50400001928E-02 0.  1.
    10030    2    1    2    0    0  0.00000000000E+00  0.00000000000E+00  0.10061020279E+03  0.24598520895E+04  0.24577937036E+04 0.  0.
        4    1    3    3  502    0 -0.64147780030E+02 -0.63110719452E+03  0.11036953024E+04  0.12730106685E+04  0.12699999809E+01 0. -1.
       -4    1    3    3    0  502  0.64147780030E+02  0.63110719452E+03 -0.10030850996E+04  0.11868414210E+04  0.12699999809E+01 0.  1.
</event>
<event>
 5   0  0.2331375E-05  0.2479577E+04  0.7818609E-02  0.8410298E-01
        3   -1    0    0  501    0  0.00000000000E+00  0.00000000000E+00  0.66358282600E+03  0.66358283369E+03  0.10100000352E+00 0. -1.
       -3   -1    0    0    0  501  0.00000000000E+00  0.00000000000E+00 -0.23163271802E+04  0.23163271824E+04  0.10100000352E+00 0.  1.
    10030    2    1    2    0    0  0.00000000000E+00  0.00000000000E+00 -0.16527443542E+04  0.29799100161E+04  0.24795765372E+04 0.  0.
        4    1    3    3  502    0  0.25794938494E+03 -0.29511039668E+01  0.63097188353E+03  0.68166980637E+03  0.12699999809E+01 0. -1.
       -4    1    3    3    0  502 -0.25794938494E+03  0.29511039668E+01 -0.22837162378E+04  0.22982402098E+04  0.12699999809E+01 0.  1.
</event>
<event>
 5   0  0.2896652E-05  0.2498829E+04  0.7818609E-02  0.8403403E-01
        1   -1    0    0  501    0  0.00000000000E+00  0.00000000000E+00  0.15481817471E+04  0.15481817471E+04  0.50400001928E-02 0.  1.
       -1   -1    0    0    0  501  0.00000000000E+00  0.00000000000E+00 -0.10083035097E+04  0.10083035097E+04  0.50400001928E-02 0. -1.
    10030    2    1    2    0    0  0.00000000000E+00  0.00000000000E+00  0.53987823745E+03  0.25564852568E+04  0.24988293974E+04 0.  0.
        4    1    3    3  502    0  0.22908329559E+02 -0.61427416504E+03  0.13827765290E+04  0.15132514938E+04  0.12699999809E+01 0.  1.
       -4    1    3    3    0  502 -0.22908329559E+02  0.61427416504E+03 -0.84289829159E+03  0.10432337630E+04  0.12699999809E+01 0. -1.
</event>
<event>
 5   0  0.2980790E-05  0.2491150E+04  0.7818609E-02  0.8406145E-01
       -1   -1    0    0    0  501  0.00000000000E+00  0.00000000000E+00  0.10709518958E+04  0.10709518958E+04  0.50400001928E-02 0.  1.
        1   -1    0    0  501    0  0.00000000000E+00  0.00000000000E+00 -0.14486709818E+04  0.14486709818E+04  0.50400001928E-02 0. -1.
    10030    2    1    2    0    0  0.00000000000E+00  0.00000000000E+00 -0.37771908592E+03  0.25196228776E+04  0.24911498826E+04 0.  0.
        5    1    3    3  502    0  0.11174750067E+04  0.89223133765E+01 -0.74524225143E+03  0.13432193051E+04  0.46999998093E+01 0. -1.
       -5    1    3    3    0  502 -0.11174750067E+04 -0.89223133765E+01  0.36752316550E+03  0.11764035725E+04  0.46999998093E+01 0.  1.
</event>
<event>
 5   0  0.6648328E-05  0.2467952E+04  0.7818609E-02  0.8414493E-01
       -2   -1    0    0    0  501  0.00000000000E+00  0.00000000000E+00  0.77210774679E+03  0.77210774680E+03  0.25500000920E-02 0. -1.
        2   -1    0    0  501    0  0.00000000000E+00  0.00000000000E+00 -0.19721298525E+04  0.19721298525E+04  0.25500000920E-02 0.  1.
    10030    2    1    2    0    0  0.00000000000E+00  0.00000000000E+00 -0.12000221057E+04  0.27442375993E+04  0.24679519742E+04 0.  0.
        2    1    3    3  502    0 -0.79869828018E+03 -0.65850441714E+03 -0.13468816380E+04  0.16987163262E+04  0.25500000920E-02 0.  1.
       -2    1    3    3    0  502  0.79869828018E+03  0.65850441714E+03  0.14685953234E+03  0.10455212730E+04  0.25500000920E-02 0. -1.
</event>
<event>
 5   0  0.6909250E-05  0.2534417E+04  0.7818609E-02  0.8390826E-01
        2   -1    0    0  501    0  0.00000000000E+00  0.00000000000E+00  0.14893382387E+04  0.14893382387E+04  0.25500000920E-02 0.  1.
       -2   -1    0    0    0  501  0.00000000000E+00  0.00000000000E+00 -0.10782085639E+04  0.10782085639E+04  0.25500000920E-02 0. -1.
    10030    2    1    2    0    0  0.00000000000E+00  0.00000000000E+00  0.41112967481E+03  0.25675468025E+04  0.25344168903E+04 0.  0.
        4    1    3    3  502    0  0.29797740519E+03 -0.48241132781E+03 -0.94252084543E+03  0.10999356255E+04  0.12699999809E+01 0. -1.
       -4    1    3    3    0  502 -0.29797740519E+03  0.48241132781E+03  0.13536505202E+04  0.14676111771E+04  0.12699999809E+01 0.  1.
</event>
<event>
 5   0  0.7071821E-05  0.1358484E+04  0.7818609E-02  0.8984431E-01
       -2   -1    0    0    0  501  0.00000000000E+00  0.00000000000E+00  0.25372204175E+03  0.25372204177E+03  0.25500000920E-02 0.  1.
        2   -1    0    0  501    0  0.00000000000E+00  0.00000000000E+00 -0.18184048481E+04  0.18184048481E+04  0.25500000920E-02 0. -1.
    10030    2    1    2    0    0  0.00000000000E+00  0.00000000000E+00 -0.15646828064E+04  0.20721268899E+04  0.13584835528E+04 0.  0.
        5    1    3    3  502    0  0.20764469221E+03  0.63720196940E+02 -0.17639800720E+04  0.17773081799E+04  0.46999998093E+01 0. -1.
       -5    1    3    3    0  502 -0.20764469221E+03 -0.63720196940E+02  0.19929726564E+03  0.29481871004E+03  0.46999998093E+01 0.  1.
</event>
<event>
 5   0  0.7071821E-05  0.2664037E+04  0.7818609E-02  0.8346769E-01
        2   -1    0    0  501    0  0.00000000000E+00  0.00000000000E+00  0.18996096286E+04  0.18996096286E+04  0.25500000920E-02 0. -1.
       -2   -1    0    0    0  501  0.00000000000E+00  0.00000000000E+00 -0.93401996740E+03  0.93401996741E+03  0.25500000920E-02 0.  1.
    10030    2    1    2    0    0  0.00000000000E+00  0.00000000000E+00  0.96558966120E+03  0.28336295960E+04  0.26640370293E+04 0.  0.
        5    1    3    3  502    0  0.52510260709E+03  0.10616711706E+04  0.11309931120E+04  0.16376953110E+04  0.46999998093E+01 0. -1.
       -5    1    3    3    0  502 -0.52510260709E+03 -0.10616711706E+04 -0.16540345080E+03  0.11959342850E+04  0.46999998093E+01 0.  1.
</event>
<event>
 5   0  0.2896652E-05  0.2514357E+04  0.7818609E-02  0.8397888E-01
       -1   -1    0    0    0  501  0.00000000000E+00  0.00000000000E+00  0.12699825715E+04  0.12699825715E+04  0.50400001928E-02 0. -1.
        1   -1    0    0  501    0  0.00000000000E+00  0.00000000000E+00 -0.12445039040E+04  0.12445039040E+04  0.50400001928E-02 0.  1.
    10030    2    1    2    0    0  0.00000000000E+00  0.00000000000E+00  0.25478667469E+02  0.25144864755E+04  0.25143573876E+04 0.  0.
        4    1    3    3  502    0  0.41941131450E+03  0.11793332291E+04  0.13006517356E+03  0.12584320713E+04  0.12699999809E+01 0.  1.
       -4    1    3    3    0  502 -0.41941131450E+03 -0.11793332291E+04 -0.10458650609E+03  0.12560544041E+04  0.12699999809E+01 0. -1.
</event>
<event>
 5   0  0.2977854E-05  0.2507309E+04  0.7818609E-02  0.8400386E-01
        1   -1    0    0  501    0  0.00000000000E+00  0.00000000000E+00  0.21255836513E+04  0.21255836514E+04  0.50400001928E-02 0. -1.
       -1   -1    0    0    0  501  0.00000000000E+00  0.00000000000E+00 -0.73939644924E+03  0.73939644926E+03  0.50400001928E-02 0.  1.
    10030    2    1    2    0    0  0.00000000000E+00  0.00000000000E+00  0.13861872021E+04  0.28649801006E+04  0.25073085206E+04 0.  0.
        1    1    3    3  502    0 -0.72005564791E+03  0.27326319763E+03  0.18233926997E+04  0.19793720844E+04  0.50400001928E-02 0. -1.
       -1    1    3    3    0  502  0.72005564791E+03 -0.27326319763E+03 -0.43720549756E+03  0.88560801622E+03  0.50400001928E-02 0.  1.
</event>
<event>
 5   0  0.6827859E-05  0.2600095E+04  0.7818609E-02  0.8368169E-01
        2   -1    0    0  501    0  0.00000000000E+00  0.00000000000E+00  0.10786345537E+04  0.10786345537E+04  0.25500000920E-02 0.  1.
       -2   -1    0    0    0  501  0.00000000000E+00  0.00000000000E+00 -0.15669096371E+04  0.15669096371E+04  0.25500000920E-02 0. -1.
    10030    2    1    2    0    0  0.00000000000E+00  0.00000000000E+00 -0.48827508341E+03  0.26455441908E+04  0.26000945192E+04 0.  0.
        3    1    3    3  502    0 -0.56840933164E+03 -0.65726549890E+03  0.73973761688E+03  0.11411830950E+04  0.10100000352E+00 0.  1.
       -3    1    3    3    0  502  0.56840933164E+03  0.65726549890E+03 -0.12280127003E+04  0.15043610958E+04  0.10100000352E+00 0. -1.
</event>
<event>
 5   0  0.6445331E-05  0.2388424E+04  0.7818609E-02  0.8443850E-01
       -2   -1    0    0    0  501  0.00000000000E+00  0.00000000000E+00  0.56923570863E+03  0.56923570863E+03  0.25500000920E-02 0.  1.
        2   -1    0    0  501    0  0.00000000000E+00  0.00000000000E+00 -0.25053633599E+04  0.25053633599E+04  0.25500000920E-02 0. -1.
    10030    2    1    2    0    0  0.00000000000E+00  0.00000000000E+00 -0.19361276513E+04  0.30745990685E+04  0.23884239888E+04 0.  0.
        1    1    3    3  502    0  0.10559485213E+04 -0.54395378854E+03 -0.80920300252E+03  0.14372621553E+04  0.50400001928E-02 0.  1.
       -1    1    3    3    0  502 -0.10559485213E+04  0.54395378854E+03 -0.11269246488E+04  0.16373369133E+04  0.50400001928E-02 0. -1.
</event>
<event>
 5   0  0.7071821E-05  0.2250231E+04  0.7818609E-02  0.8497807E-01
        2   -1    0    0  501    0  0.00000000000E+00  0.00000000000E+00  0.12931732845E+04  0.12931732845E+04  0.25500000920E-02 0.  1.
       -2   -1    0    0    0  501  0.00000000000E+00  0.00000000000E+00 -0.97889814565E+03  0.97889814566E+03  0.25500000920E-02 0. -1.
    10030    2    1    2    0    0  0.00000000000E+00  0.00000000000E+00  0.31427513889E+03  0.22720714302E+04  0.22502310373E+04 0.  0.
        5    1    3    3  502    0 -0.65382331629E+03  0.36985159810E+03 -0.68860045223E+03  0.10190524061E+04  0.46999998093E+01 0. -1.
       -5    1    3    3    0  502  0.65382331629E+03 -0.36985159810E+03  0.10028755911E+04  0.12530190241E+04  0.46999998093E+01 0.  1.
</event>
<event>
 5   0  0.2777539E-05  0.2390005E+04  0.7818609E-02  0.8443255E-01
        1   -1    0    0  501    0  0.00000000000E+00  0.00000000000E+00  0.13100986550E+04  0.13100986550E+04  0.50400001928E-02 0.  1.
       -1   -1    0    0    0  501  0.00000000000E+00  0.00000000000E+00 -0.10900178314E+04  0.10900178314E+04  0.50400001928E-02 0. -1.
    10030    2    1    2    0    0  0.00000000000E+00  0.00000000000E+00  0.22008082357E+03  0.24001164864E+04  0.23900049329E+04 0.  0.
        3    1    3    3  502    0 -0.10398612934E+04 -0.44941772953E+03  0.49210116448E+03  0.12350916449E+04  0.10100000352E+00 0.  1.
       -3    1    3    3    0  502  0.10398612934E+04  0.44941772953E+03 -0.27202034091E+03  0.11650248414E+04  0.10100000352E+00 0. -1.
</event>
<event>
 5   0  0.6648328E-05  0.2495454E+04  0.7818609E-02  0.8404607E-01
       -2   -1    0    0    0  501  0.00000000000E+00  0.00000000000E+00  0.12730175202E+04  0.12730175202E+04  0.25500000920E-02 0. -1.
        2   -1    0    0  501    0  0.00000000000E+00  0.00000000000E+00 -0.12229385831E+04  0.12229385831E+04  0.25500000920E-02 0.  1.
    10030    2    1    2    0    0  0.00000000000E+00  0.00000000000E+00  0.50078937040E+02  0.24959561033E+04  0.24954536601E+04 0.  0.
        2    1    3    3  502    0  0.10795641899E+04 -0.23731402757E+03 -0.55390818597E+03  0.12363620288E+04  0.25500000920E-02 0.  1.
       -2    1    3    3    0  502 -0.10795641899E+04  0.23731402757E+03  0.60398712301E+03  0.12595940745E+04  0.25500000920E-02 0. -1.
</event>
<event>
 5   0  0.2977854E-05  0.2490061E+04  0.7818609E-02  0.8406535E-01
       -1   -1    0    0    0  501  0.00000000000E+00  0.00000000000E+00  0.93229938121E+03  0.93229938122E+03  0.50400001928E-02 0. -1.
        1   -1    0    0  501    0  0.00000000000E+00  0.00000000000E+00 -0.16626637602E+04  0.16626637602E+04  0.50400001928E-02 0.  1.
    10030    2    1    2    0    0  0.00000000000E+00  0.00000000000E+00 -0.73036437902E+03  0.25949631415E+04  0.24900605574E+04 0.  0.
        1    1    3    3  502    0 -0.82210834474E+02 -0.87634433715E+03 -0.12828249573E+04  0.15557563722E+04  0.50400001928E-02 0.  1.
       -1    1    3    3    0  502  0.82210834474E+02  0.87634433715E+03  0.55246057833E+03  0.10392067692E+04  0.50400001928E-02 0. -1.
</event>
<event>
 5   0  0.6827859E-05  0.2524473E+04  0.7818609E-02  0.8394319E-01
       -2   -1    0    0    0  501  0.00000000000E+00  0.00000000000E+00  0.86440380840E+03  0.86440380841E+03  0.25500000920E-02 0. -1.
        2   -1    0    0  501    0  0.00000000000E+00  0.00000000000E+00 -0.18431668043E+04  0.18431668043E+04  0.25500000920E-02 0.  1.
    10030    2    1    2    0    0  0.00000000000E+00  0.00000000000E+00 -0.97876299591E+03  0.27075706127E+04  0.25244725431E+04 0.  0.
        3    1    3    3  502    0 -0.54116810656E+03 -0.99410251285E+03 -0.10885958846E+04  0.15703960442E+04  0.10100000352E+00 0. -1.
       -3    1    3    3    0  502  0.54116810656E+03  0.99410251285E+03  0.10983288866E+03  0.11371745685E+04  0.10100000352E+00 0.  1.
</event>
<event>
 5   0  0.6648328E-05  0.2528779E+04  0.7818609E-02  0.8392804E-01
       -2   -1    0    0    0  501  0.00000000000E+00  0.00000000000E+00  0.85142674330E+03  0.85142674330E+03  0.25500000920E-02 0. -1.
        2   -1    0    0  501    0  0.00000000000E+00  0.00000000000E+00 -0.18776490685E+04  0.18776490685E+04  0.25500000920E-02 0.  1.
    10030    2    1    2    0    0  0.00000000000E+00  0.00000000000E+00 -0.10262223252E+04  0.27290758119E+04  0.25287788606E+04 0.  0.
        2    1    3    3  502    0  0.56607735407E+03  0.11180465892E+04 -0.33185294344E+03  0.12963788499E+04  0.25500000920E-02 0.  1.
       -2    1    3    3    0  502 -0.56607735407E+03 -0.11180465892E+04 -0.69436938181E+03  0.14326969620E+04  0.25500000920E-02 0. -1.
</event>
<event>
 5   0  0.2977854E-05  0.1599208E+04  0.7818609E-02  0.8821035E-01
       -1   -1    0    0    0  501  0.00000000000E+00  0.00000000000E+00  0.53644133492E+03  0.53644133495E+03  0.50400001928E-02 0.  1.
        1   -1    0    0  501    0  0.00000000000E+00  0.00000000000E+00 -0.11918669883E+04  0.11918669883E+04  0.50400001928E-02 0. -1.
    10030    2    1    2    0    0  0.00000000000E+00  0.00000000000E+00 -0.65542565335E+03  0.17283083232E+04  0.15992082019E+04 0.  0.
        1    1    3    3  502    0  0.75987424347E+03  0.24756785227E+03 -0.29978044428E+03  0.85356137575E+03  0.50400001928E-02 0. -1.
       -1    1    3    3    0  502 -0.75987424347E+03 -0.24756785227E+03 -0.35564520907E+03  0.87474694748E+03  0.50400001928E-02 0.  1.
</event>
<event>
 5   0  0.7071821E-05  0.2499966E+04  0.7818609E-02  0.8402998E-01
        2   -1    0    0  501    0  0.00000000000E+00  0.00000000000E+00  0.20937008318E+04  0.20937008318E+04  0.25500000920E-02 0. -1.
       -2   -1    0    0    0  501  0.00000000000E+00  0.00000000000E+00 -0.74626564664E+03  0.74626564664E+03  0.25500000920E-02 0.  1.
    10030    2    1    2    0    0  0.00000000000E+00  0.00000000000E+00  0.13474351851E+04  0.28399664784E+04  0.24999656038E+04 0.  0.
        5    1    3    3  502    0  0.99948473451E+03  0.55277468521E+03  0.12506292804E+04  0.16937016485E+04  0.46999998093E+01 0. -1.
       -5    1    3    3    0  502 -0.99948473451E+03 -0.55277468521E+03  0.96805904752E+02  0.11462648299E+04  0.46999998093E+01 0.  1.
</event>
<event>
 5   0  0.6648328E-05  0.2538093E+04  0.7818609E-02  0.8389539E-01
       -2   -1    0    0    0  501  0.00000000000E+00  0.00000000000E+00  0.92255848406E+03  0.92255848406E+03  0.25500000920E-02 0. -1.
        2   -1    0    0  501    0  0.00000000000E+00  0.00000000000E+00 -0.17456660974E+04  0.17456660975E+04  0.25500000920E-02 0.  1.
    10030    2    1    2    0    0  0.00000000000E+00  0.00000000000E+00 -0.82310761339E+03  0.26682245815E+04  0.25380930389E+04 0.  0.
        2    1    3    3  502    0  0.49385805052E+03 -0.11317534689E+04 -0.71934010837E+03  0.14290597888E+04  0.25500000920E-02 0. -1.
       -2    1    3    3    0  502 -0.49385805052E+03  0.11317534689E+04 -0.10376750502E+03  0.12391647927E+04  0.25500000920E-02 0.  1.
</event>
<event>
 5   0  0.7071821E-05  0.2236126E+04  0.7818609E-02  0.8503540E-01
        2   -1    0    0  501    0  0.00000000000E+00  0.00000000000E+00  0.68638848707E+03  0.68638848707E+03  0.25500000920E-02 0.  1.
       -2   -1    0    0    0  501  0.00000000000E+00  0.00000000000E+00 -0.18212201682E+04  0.18212201682E+04  0.25500000920E-02 0. -1.
    10030    2    1    2    0    0  0.00000000000E+00  0.00000000000E+00 -0.11348316811E+04  0.25076086553E+04  0.22361257173E+04 0.  0.
        5    1    3    3  502    0  0.43688330616E+02 -0.72187365579E+03  0.38876573914E+03  0.82107925019E+03  0.46999998093E+01 0.  1.
       -5    1    3    3    0  502 -0.43688330616E+02  0.72187365579E+03 -0.15235974203E+04  0.16865294051E+04  0.46999998093E+01 0. -1.
</event>
<event>
 5   0  0.2977854E-05  0.2252293E+04  0.7818609E-02  0.8496973E-01
       -1   -1    0    0    0  501  0.00000000000E+00  0.00000000000E+00  0.99297191553E+03  0.99297191554E+03  0.50400001928E-02 0.  1.
        1   -1    0    0  501    0  0.00000000000E+00  0.00000000000E+00 -0.12771815931E+04  0.12771815931E+04  0.50400001928E-02 0. -1.
    10030    2    1    2    0    0  0.00000000000E+00  0.00000000000E+00 -0.28420967759E+03  0.22701535087E+04  0.22522925680E+04 0.  0.
        1    1    3    3  502    0 -0.40259091289E+00 -0.56931318585E+03 -0.11214518706E+04  0.12576851608E+04  0.50400001928E-02 0. -1.
       -1    1    3    3    0  502  0.40259091289E+00  0.56931318585E+03  0.83724219299E+03  0.10124683479E+04  0.50400001928E-02 0.  1.
</event>
<event>
 5   0  0.6909250E-05  0.2476235E+04  0.7818609E-02  0.8411501E-01
        2   -1    0    0  501    0  0.00000000000E+00  0.00000000000E+00  0.11761574342E+04  0.11761574342E+04  0.25500000920E-02 0.  1.
       -2   -1    0    0    0  501  0.00000000000E+00  0.00000000000E+00 -0.13033415514E+04  0.13033415514E+04  0.25500000920E-02 0. -1.
    10030    2    1    2    0    0  0.00000000000E+00  0.00000000000E+00 -0.12718411717E+03  0.24794989856E+04  0.24762349282E+04 0.  0.
        4    1    3    3  502    0 -0.62462913480E+02  0.15762137578E+03  0.11644776628E+04  0.11767565397E+04  0.12699999809E+01 0.  1.
       -4    1    3    3    0  502  0.62462913480E+02 -0.15762137578E+03 -0.12916617799E+04  0.13027424459E+04  0.12699999809E+01 0. -1.
</event>
<event>
 5   0  0.6827859E-05  0.2463448E+04  0.7818609E-02  0.8416124E-01
        2   -1    0    0  501    0  0.00000000000E+00  0.00000000000E+00  0.22329771166E+04  0.22329771166E+04  0.25500000920E-02 0.  1.
       -2   -1    0    0    0  501  0.00000000000E+00  0.00000000000E+00 -0.67942640740E+03  0.67942640740E+03  0.25500000920E-02 0. -1.
    10030    2    1    2    0    0  0.00000000000E+00  0.00000000000E+00  0.15535507092E+04  0.29124035240E+04  0.24634476817E+04 0.  0.
        3    1    3    3  502    0 -0.84024233956E+03 -0.56299171495E+03 -0.54317137336E+02  0.10128757189E+04  0.10100000352E+00 0. -1.
       -3    1    3    3    0  502  0.84024233956E+03  0.56299171495E+03  0.16078678466E+04  0.18995278051E+04  0.10100000352E+00 0.  1.
</event>
<event>
 5   0  0.7071821E-05  0.2539264E+04  0.7818609E-02  0.8389130E-01
       -2   -1    0    0    0  501  0.00000000000E+00  0.00000000000E+00  0.13332510218E+04  0.13332510218E+04  0.25500000920E-02 0.  1.
        2   -1    0    0  501    0  0.00000000000E+00  0.00000000000E+00 -0.12090483805E+04  0.12090483805E+04  0.25500000920E-02 0. -1.
    10030    2    1    2    0    0  0.00000000000E+00  0.00000000000E+00  0.12420264127E+03  0.25422994023E+04  0.25392636639E+04 0.  0.
        5    1    3    3  502    0 -0.10241990828E+04  0.55389857488E+03 -0.44462182864E+03  0.12463940199E+04  0.46999998093E+01 0. -1.
       -5    1    3    3    0  502  0.10241990828E+04 -0.55389857488E+03  0.56882446991E+03  0.12959053824E+04  0.46999998093E+01 0.  1.
</event>
<event>
 5   0  0.6827859E-05  0.2142079E+04  0.7818609E-02  0.8542931E-01
       -2   -1    0    0    0  501  0.00000000000E+00  0.00000000000E+00  0.43929728371E+03  0.43929728372E+03  0.25500000920E-02 0.  1.
        2   -1    0    0  501    0  0.00000000000E+00  0.00000000000E+00 -0.26112733483E+04  0.26112733483E+04  0.25500000920E-02 0. -1.
    10030    2    1    2    0    0  0.00000000000E+00  0.00000000000E+00 -0.21719760646E+04  0.30505706321E+04  0.21420786997E+04 0.  0.
        3    1    3    3  502    0  0.24321503887E+03  0.23720290550E+03  0.36052964954E+03  0.49537905881E+03  0.10100000352E+00 0.  1.
       -3    1    3    3    0  502 -0.24321503887E+03 -0.23720290550E+03 -0.25325057142E+04  0.25551915733E+04  0.10100000352E+00 0. -1.
</event>
<event>
 5   0  0.2777539E-05  0.2305917E+04  0.7818609E-02  0.8475592E-01
       -1   -1    0    0    0  501  0.00000000000E+00  0.00000000000E+00  0.10621737685E+04  0.10621737685E+04  0.50400001928E-02 0.  1.
        1   -1    0    0  501    0  0.00000000000E+00  0.00000000000E+00 -0.12515022614E+04  0.12515022614E+04  0.50400001928E-02 0. -1.
    10030    2    1    2    0    0  0.00000000000E+00  0.00000000000E+00 -0.18932849285E+03  0.23136760299E+04  0.23059166276E+04 0.  0.
        3    1    3    3  502    0  0.64457626281E+03 -0.59588377880E+03  0.65535147583E+03  0.10954641042E+04  0.10100000352E+00 0.  1.
       -3    1    3    3    0  502 -0.64457626281E+03  0.59588377880E+03 -0.84467996868E+03  0.12182119258E+04  0.10100000352E+00 0. -1.
</event>
<event>
 5   0  0.2777539E-05  0.1535671E+04  0.7818609E-02  0.8861073E-01
        1   -1    0    0  501    0  0.00000000000E+00  0.00000000000E+00  0.20442634354E+04  0.20442634355E+04  0.50400001928E-02 0.  1.
       -1   -1    0    0    0  501  0.00000000000E+00  0.00000000000E+00 -0.28840264453E+03  0.28840264457E+03  0.50400001928E-02 0. -1.
    10030    2    1    2    0    0  0.00000000000E+00  0.00000000000E+00  0.17558607909E+04  0.23326660800E+04  0.15356705128E+04 0.  0.
        3    1    3    3  502    0  0.67571928011E+03  0.35931133944E+03  0.78343774374E+03  0.10952058677E+04  0.10100000352E+00 0. -1.
       -3    1    3    3    0  502 -0.67571928011E+03 -0.35931133944E+03  0.97242304718E+03  0.12374602123E+04  0.10100000352E+00 0.  1.
</event>
<event>
 5   0  0.6909250E-05  0.2506196E+04  0.7818609E-02  0.8400781E-01
        2   -1    0    0  501    0  0.00000000000E+00  0.00000000000E+00  0.20771606677E+04  0.20771606677E+04  0.25500000920E-02 0.  1.
       -2   -1    0    0    0  501  0.00000000000E+00  0.00000000000E+00 -0.75596206314E+03  0.75596206315E+03  0.25500000920E-02 0. -1.
    10030    2    1    2    0    0  0.00000000000E+00  0.00000000000E+00  0.13211986046E+04  0.28331227309E+04  0.25061960529E+04 0.  0.
        4    1    3    3  502    0 -0.31763070124E+03 -0.43173139470E+03 -0.61983971895E+03  0.81944136436E+03  0.12699999809E+01 0. -1.
       -4    1    3    3    0  502  0.31763070124E+03  0.43173139470E+03  0.19410383235E+04  0.20136813665E+04  0.12699999809E+01 0.  1.
</event>
<event>
 5   0  0.2980790E-05  0.2493852E+04  0.7818609E-02  0.8405179E-01
        1   -1    0    0  501    0  0.00000000000E+00  0.00000000000E+00  0.66942028771E+03  0.66942028773E+03  0.50400001928E-02 0. -1.
       -1   -1    0    0    0  501  0.00000000000E+00  0.00000000000E+00 -0.23226431459E+04  0.23226431459E+04  0.50400001928E-02 0.  1.
    10030    2    1    2    0    0  0.00000000000E+00  0.00000000000E+00 -0.16532228581E+04  0.29920634336E+04  0.24938519948E+04 0.  0.
        5    1    3    3  502    0 -0.12394648279E+04  0.13198221788E+03 -0.78663912500E+03  0.14739455785E+04  0.46999998093E+01 0.  1.
       -5    1    3    3    0  502  0.12394648279E+04 -0.13198221788E+03 -0.86658373314E+03  0.15181178551E+04  0.46999998093E+01 0. -1.
</event>
<event>
 5   0  0.2777539E-05  0.1721992E+04  0.7818609E-02  0.8748920E-01
       -1   -1    0    0    0  501  0.00000000000E+00  0.00000000000E+00  0.82046770486E+03  0.82046770488E+03  0.50400001928E-02 0.  1.
        1   -1    0    0  501    0  0.00000000000E+00  0.00000000000E+00 -0.90352585623E+03  0.90352585624E+03  0.50400001928E-02 0. -1.
    10030    2    1    2    0    0  0.00000000000E+00  0.00000000000E+00 -0.83058151364E+02  0.17239935611E+04  0.17219916209E+04 0.  0.
        3    1    3    3  502    0  0.64072731850E+03  0.48429567372E+03 -0.35211542617E+03  0.87696013582E+03  0.10100000352E+00 0. -1.
       -3    1    3    3    0  502 -0.64072731850E+03 -0.48429567372E+03  0.26905727481E+03  0.84703342531E+03  0.10100000352E+00 0.  1.
</event>
<event>
 5   0  0.2331375E-05  0.2485417E+04  0.7818609E-02  0.8408199E-01
       -3   -1    0    0    0  501  0.00000000000E+00  0.00000000000E+00  0.15128472192E+04  0.15128472226E+04  0.10100000352E+00 0.  1.
        3   -1    0    0  501    0  0.00000000000E+00  0.00000000000E+00 -0.10208067925E+04  0.10208067975E+04  0.10100000352E+00 0. -1.
    10030    2    1    2    0    0  0.00000000000E+00  0.00000000000E+00  0.49204042669E+03  0.25336540201E+04  0.24854172511E+04 0.  0.
        1    1    3    3  502    0 -0.28653271526E+03  0.64257034991E+03 -0.79822727979E+03  0.10640321620E+04  0.50400001928E-02 0. -1.
       -1    1    3    3    0  502  0.28653271526E+03 -0.64257034991E+03  0.12902677065E+04  0.14696218581E+04  0.50400001928E-02 0.  1.
</event>
<event>
 5   0  0.2777539E-05  0.2459976E+04  0.7818609E-02  0.8417385E-01
       -1   -1    0    0    0  501  0.00000000000E+00  0.00000000000E+00  0.80340609061E+03  0.80340609063E+03  0.50400001928E-02 0.  1.
        1   -1    0    0  501    0  0.00000000000E+00  0.00000000000E+00 -0.18830700566E+04  0.18830700566E+04  0.50400001928E-02 0. -1.
    10030    2    1    2    0    0  0.00000000000E+00  0.00000000000E+00 -0.10796639659E+04  0.26864761472E+04  0.24599755710E+04 0.  0.
        3    1    3    3  502    0  0.65384471517E+03  0.51063214998E+03  0.45186039929E+03  0.94468827388E+03  0.10100000352E+00 0.  1.
       -3    1    3    3    0  502 -0.65384471517E+03 -0.51063214998E+03 -0.15315243652E+04  0.17417878733E+04  0.10100000352E+00 0. -1.
</event>
<event>
 5   0  0.6445331E-05  0.2585434E+04  0.7818609E-02  0.8373166E-01
        2   -1    0    0  501    0  0.00000000000E+00  0.00000000000E+00  0.12121571357E+04  0.12121571357E+04  0.25500000920E-02 0.  1.
       -2   -1    0    0    0  501  0.00000000000E+00  0.00000000000E+00 -0.13786308830E+04  0.13786308830E+04  0.25500000920E-02 0. -1.
    10030    2    1    2    0    0  0.00000000000E+00  0.00000000000E+00 -0.16647374725E+03  0.25907880187E+04  0.25854340156E+04 0.  0.
        1    1    3    3  502    0 -0.11354272408E+03  0.63868259937E+03  0.10372512244E+04  0.12233958948E+04  0.50400001928E-02 0.  1.
       -1    1    3    3    0  502  0.11354272408E+03 -0.63868259937E+03 -0.12037249717E+04  0.13673921238E+04  0.50400001928E-02 0. -1.
</event>
<event>
 5   0  0.2793920E-05  0.2452897E+04  0.7818609E-02  0.8419961E-01
        1   -1    0    0  501    0  0.00000000000E+00  0.00000000000E+00  0.11370859908E+04  0.11370859908E+04  0.50400001928E-02 0.  1.
       -1   -1    0    0    0  501  0.00000000000E+00  0.00000000000E+00 -0.13228339599E+04  0.13228339599E+04  0.50400001928E-02 0. -1.
    10030    2    1    2    0    0  0.00000000000E+00  0.00000000000E+00 -0.18574796911E+03  0.24599199507E+04  0.24528970333E+04 0.  0.
        2    1    3    3  502    0  0.11232860433E+03  0.61118801748E+03 -0.11532600371E+04  0.13100294734E+04  0.25500000920E-02 0. -1.
       -2    1    3    3    0  502 -0.11232860433E+03 -0.61118801748E+03  0.96751206799E+03  0.11498904773E+04  0.25500000920E-02 0.  1.
</event>
<event>
 5   0  0.2777539E-05  0.2568575E+04  0.7818609E-02  0.8378955E-01
       -1   -1    0    0    0  501  0.00000000000E+00  0.00000000000E+00  0.13411698511E+04  0.13411698511E+04  0.50400001928E-02 0. -1.
        1   -1    0    0  501    0  0.00000000000E+00  0.00000000000E+00 -0.12298175358E+04  0.12298175359E+04  0.50400001928E-02 0.  1.
    10030    2    1    2    0    0  0.00000000000E+00  0.00000000000E+00  0.11135231523E+03  0.25709873869E+04  0.25685748589E+04 0.  0.
        3    1    3    3  502    0  0.92996122417E+02 -0.11946116809E+04  0.51833193793E+03  0.13055318284E+04  0.10100000352E+00 0. -1.
       -3    1    3    3    0  502 -0.92996122417E+02  0.11946116809E+04 -0.40697962270E+03  0.12654555585E+04  0.10100000352E+00 0.  1.
</event>
<event>
 5   0  0.2793920E-05  0.2545171E+04  0.7818609E-02  0.8387068E-01
       -1   -1    0    0    0  501  0.00000000000E+00  0.00000000000E+00  0.10438735824E+04  0.10438735824E+04  0.50400001928E-02 0. -1.
        1   -1    0    0  501    0  0.00000000000E+00  0.00000000000E+00 -0.15514076817E+04  0.15514076817E+04  0.50400001928E-02 0.  1.
    10030    2    1    2    0    0  0.00000000000E+00  0.00000000000E+00 -0.50753409935E+03  0.25952812641E+04  0.25451707168E+04 0.  0.
        2    1    3    3  502    0 -0.97670841491E+03  0.77894336115E+03 -0.50094720789E+03  0.13459792691E+04  0.25500000920E-02 0.  1.
       -2    1    3    3    0  502  0.97670841491E+03 -0.77894336115E+03 -0.65868914601E+01  0.12493019950E+04  0.25500000920E-02 0. -1.
</event>
<event>
 5   0  0.2777539E-05  0.2519770E+04  0.7818609E-02  0.8395976E-01
       -1   -1    0    0    0  501  0.00000000000E+00  0.00000000000E+00  0.18077479817E+04  0.18077479817E+04  0.50400001928E-02 0. -1.
        1   -1    0    0  501    0  0.00000000000E+00  0.00000000000E+00 -0.87805948664E+03  0.87805948665E+03  0.50400001928E-02 0.  1.
    10030    2    1    2    0    0  0.00000000000E+00  0.00000000000E+00  0.92968849508E+03  0.26858074684E+04  0.25197700410E+04 0.  0.
        3    1    3    3  502    0 -0.92972556189E+03  0.77292564995E+03  0.84245748134E+03  0.14736140264E+04  0.10100000352E+00 0.  1.
       -3    1    3    3    0  502  0.92972556189E+03 -0.77292564995E+03  0.87231013746E+02  0.12121934420E+04  0.10100000352E+00 0. -1.
</event>
<event>
 5   0  0.7071821E-05  0.2438173E+04  0.7818609E-02  0.8425349E-01
       -2   -1    0    0    0  501  0.00000000000E+00  0.00000000000E+00  0.60705682123E+03  0.60705682123E+03  0.25500000920E-02 0.  1.
        2   -1    0    0  501    0  0.00000000000E+00  0.00000000000E+00 -0.24481592336E+04  0.24481592336E+04  0.25500000920E-02 0. -1.
    10030    2    1    2    0    0  0.00000000000E+00  0.00000000000E+00 -0.18411024124E+04  0.30552160549E+04  0.24381728915E+04 0.  0.
        5    1    3    3  502    0 -0.20049351583E+03  0.64792518463E+03 -0.21899023864E+04  0.22925311877E+04  0.46999998093E+01 0. -1.
       -5    1    3    3    0  502  0.20049351583E+03 -0.64792518463E+03  0.34879997397E+03  0.76268486716E+03  0.46999998093E+01 0.  1.
</event>
<event>
 5   0  0.6445331E-05  0.2558993E+04  0.7818609E-02  0.8382265E-01
        2   -1    0    0  501    0  0.00000000000E+00  0.00000000000E+00  0.13188932289E+04  0.13188932289E+04  0.25500000920E-02 0. -1.
       -2   -1    0    0    0  501  0.00000000000E+00  0.00000000000E+00 -0.12412769566E+04  0.12412769567E+04  0.25500000920E-02 0.  1.
    10030    2    1    2    0    0  0.00000000000E+00  0.00000000000E+00  0.77616272265E+02  0.25601701856E+04  0.25589933750E+04 0.  0.
        1    1    3    3  502    0 -0.38843798655E+03 -0.44979206759E+03 -0.10948125877E+04  0.12457172936E+04  0.50400001928E-02 0.  1.
       -1    1    3    3    0  502  0.38843798655E+03  0.44979206759E+03  0.11724288600E+04  0.13144528919E+04  0.50400001928E-02 0. -1.
</event>
<event>
 5   0  0.2977854E-05  0.2508964E+04  0.7818609E-02  0.8399799E-01
        1   -1    0    0  501    0  0.00000000000E+00  0.00000000000E+00  0.12157193232E+04  0.12157193233E+04  0.50400001928E-02 0. -1.
       -1   -1    0    0    0  501  0.00000000000E+00  0.00000000000E+00 -0.12944808046E+04  0.12944808046E+04  0.50400001928E-02 0.  1.
    10030    2    1    2    0    0  0.00000000000E+00  0.00000000000E+00 -0.78761481315E+02  0.25102001278E+04  0.25089641908E+04 0.  0.
        1    1    3    3  502    0  0.61567219344E+03  0.85181174702E+03 -0.72461945425E+03  0.12766005075E+04  0.50400001928E-02 0.  1.
       -1    1    3    3    0  502 -0.61567219344E+03 -0.85181174702E+03  0.64585797294E+03  0.12335996204E+04  0.50400001928E-02 0. -1.
</event>
<event>
 5   0  0.6648328E-05  0.2366153E+04  0.7818609E-02  0.8452285E-01
       -2   -1    0    0    0  501  0.00000000000E+00  0.00000000000E+00  0.86655085049E+03  0.86655085049E+03  0.25500000920E-02 0. -1.
        2   -1    0    0  501    0  0.00000000000E+00  0.00000000000E+00 -0.16152202375E+04  0.16152202375E+04  0.25500000920E-02 0.  1.
    10030    2    1    2    0    0  0.00000000000E+00  0.00000000000E+00 -0.74866938697E+03  0.24817710880E+04  0.23661533936E+04 0.  0.
        2    1    3    3  502    0 -0.58963868203E+03  0.22493206416E+03  0.67526358333E+03  0.92425597959E+03  0.25500000920E-02 0. -1.
       -2    1    3    3    0  502  0.58963868203E+03 -0.22493206416E+03 -0.14239329703E+04  0.15575151084E+04  0.25500000920E-02 0.  1.
</event>
<event>
 5   0  0.7071821E-05  0.2440118E+04  0.7818609E-02  0.8424635E-01
        2   -1    0    0  501    0  0.00000000000E+00  0.00000000000E+00  0.14232129340E+04  0.14232129340E+04  0.25500000920E-02 0.  1.
       -2   -1    0    0    0  501  0.00000000000E+00  0.00000000000E+00 -0.10459037700E+04  0.10459037700E+04  0.25500000920E-02 0. -1.
    10030    2    1    2    0    0  0.00000000000E+00  0.00000000000E+00  0.37730916399E+03  0.24691167041E+04  0.24401178441E+04 0.  0.
        5    1    3    3  502    0 -0.44937812421E+03 -0.84434495837E+03  0.95506089970E+03  0.13516739693E+04  0.46999998093E+01 0.  1.
       -5    1    3    3    0  502  0.44937812421E+03  0.84434495837E+03 -0.57775173572E+03  0.11174427347E+04  0.46999998093E+01 0. -1.
</event>
<event>
 5   0  0.2793920E-05  0.2472068E+04  0.7818609E-02  0.8413005E-01
       -1   -1    0    0    0  501  0.00000000000E+00  0.00000000000E+00  0.81370395286E+03  0.81370395287E+03  0.50400001928E-02 0.  1.
        1   -1    0    0  501    0  0.00000000000E+00  0.00000000000E+00 -0.18775624140E+04  0.18775624140E+04  0.50400001928E-02 0. -1.
    10030    2    1    2    0    0  0.00000000000E+00  0.00000000000E+00 -0.10638584611E+04  0.26912663668E+04  0.24720679263E+04 0.  0.
        2    1    3    3  502    0 -0.63229939567E+03  0.96354177032E+03 -0.45591309481E+02  0.11533836467E+04  0.25500000920E-02 0.  1.
       -2    1    3    3    0  502  0.63229939567E+03 -0.96354177032E+03 -0.10182671516E+04  0.15378827202E+04  0.25500000920E-02 0. -1.
</event>
<event>
 5   0  0.6648328E-05  0.2523536E+04  0.7818609E-02  0.8394648E-01
       -2   -1    0    0    0  501  0.00000000000E+00  0.00000000000E+00  0.10892263550E+04  0.10892263550E+04  0.25500000920E-02 0.  1.
        2   -1    0    0  501    0  0.00000000000E+00  0.00000000000E+00 -0.14616421068E+04  0.14616421068E+04  0.25500000920E-02 0. -1.
    10030    2    1    2    0    0  0.00000000000E+00  0.00000000000E+00 -0.37241575179E+03  0.25508684617E+04  0.25235364901E+04 0.  0.
        2    1    3    3  502    0  0.64917266506E+03 -0.53286009296E+03  0.76563525245E+03  0.11364692550E+04  0.25500000920E-02 0.  1.
       -2    1    3    3    0  502 -0.64917266506E+03  0.53286009296E+03 -0.11380510042E+04  0.14143992067E+04  0.25500000920E-02 0. -1.
</event>
<event>
 5   0  0.6827859E-05  0.2548667E+04  0.7818609E-02  0.8385850E-01
       -2   -1    0    0    0  501  0.00000000000E+00  0.00000000000E+00  0.11929138385E+04  0.11929138385E+04  0.25500000920E-02 0.  1.
        2   -1    0    0  501    0  0.00000000000E+00  0.00000000000E+00 -0.13613102618E+04  0.13613102618E+04  0.25500000920E-02 0. -1.
    10030    2    1    2    0    0  0.00000000000E+00  0.00000000000E+00 -0.16839642325E+03  0.25542241003E+04  0.25486669848E+04 0.  0.
        3    1    3    3  502    0 -0.63894435889E+03  0.92331981099E+03 -0.68813682801E+03  0.13169288786E+04  0.10100000352E+00 0. -1.
       -3    1    3    3    0  502  0.63894435889E+03 -0.92331981099E+03  0.51974040475E+03  0.12372952217E+04  0.10100000352E+00 0.  1.
</event>
<event>
 5   0  0.2331375E-05  0.2494801E+04  0.7818609E-02  0.8404840E-01
       -3   -1    0    0    0  501  0.00000000000E+00  0.00000000000E+00  0.10437156025E+04  0.10437156074E+04  0.10100000352E+00 0.  1.
        3   -1    0    0  501    0  0.00000000000E+00  0.00000000000E+00 -0.14908354364E+04  0.14908354399E+04  0.10100000352E+00 0. -1.
    10030    2    1    2    0    0  0.00000000000E+00  0.00000000000E+00 -0.44711983391E+03  0.25345510473E+04  0.24948011675E+04 0.  0.
        4    1    3    3  502    0  0.81758570892E+03 -0.50988258739E+03  0.58126170837E+03  0.11252970412E+04  0.12699999809E+01 0.  1.
       -4    1    3    3    0  502 -0.81758570892E+03  0.50988258739E+03 -0.10283815423E+04  0.14092540061E+04  0.12699999809E+01 0. -1.
</event>
<event>
 5   0  0.2980790E-05  0.2381286E+04  0.7818609E-02  0.8446543E-01
        1   -1    0    0  501    0  0.00000000000E+00  0.00000000000E+00  0.12385962439E+04  0.12385962439E+04  0.50400001928E-02 0.  1.
       -1   -1    0    0    0  501  0.00000000000E+00  0.00000000000E+00 -0.11445467442E+04  0.11445467442E+04  0.50400001928E-02 0. -1.
    10030    2    1    2    0    0  0.00000000000E+00  0.00000000000E+00  0.94049499761E+02  0.23831429881E+04  0.23812864577E+04 0.  0.
        5    1    3    3  502    0  0.11630825308E+04  0.26382414946E+02  0.30050506954E+03  0.12015749632E+04  0.46999998093E+01 0.  1.
       -5    1    3    3    0  502 -0.11630825308E+04 -0.26382414946E+02 -0.20645556977E+03  0.11815680249E+04  0.46999998093E+01 0. -1.
</event>
<event>
 5   0  0.6445331E-05  0.1705138E+04  0.7818609E-02  0.8758439E-01
        2   -1    0    0  501    0  0.00000000000E+00  0.00000000000E+00  0.10059884666E+04  0.10059884666E+04  0.25500000920E-02 0. -1.
       -2   -1    0    0    0  501  0.00000000000E+00  0.00000000000E+00 -0.72254681846E+03  0.72254681847E+03  0.25500000920E-02 0.  1.
    10030    2    1    2    0    0  0.00000000000E+00  0.00000000000E+00  0.28344164817E+03  0.17285352851E+04  0.17051378431E+04 0.  0.
        1    1    3    3  502    0 -0.71078034773E+03 -0.14081549540E+03  0.59714715448E+03  0.93894751216E+03  0.50400001928E-02 0.  1.
       -1    1    3    3    0  502  0.71078034773E+03  0.14081549540E+03 -0.31370550630E+03  0.78958777294E+03  0.50400001928E-02 0. -1.
</event>
<event>
 5   0  0.2896652E-05  0.2478767E+04  0.7818609E-02  0.8410589E-01
       -1   -1    0    0    0  501  0.00000000000E+00  0.00000000000E+00  0.12580190840E+04  0.12580190840E+04  0.50400001928E-02 0.  1.
        1   -1    0    0  501    0  0.00000000000E+00  0.00000000000E+00 -0.12210241197E+04  0.12210241197E+04  0.50400001928E-02 0. -1.
    10030    2    1    2    0    0  0.00000000000E+00  0.00000000000E+00  0.36994964292E+02  0.24790432036E+04  0.24787671488E+04 0.  0.
        4    1    3    3  502    0 -0.22760026512E+03 -0.26864177670E+03  0.12069478552E+04  0.12572569438E+04  0.12699999809E+01 0.  1.
       -4    1    3    3    0  502  0.22760026512E+03  0.26864177670E+03 -0.11699528909E+04  0.12217862598E+04  0.12699999809E+01 0. -1.
</event>
<event>
 5   0  0.2793920E-05  0.2511745E+04  0.7818609E-02  0.8398813E-01
       -1   -1    0    0    0  501  0.00000000000E+00  0.00000000000E+00  0.13112562647E+04  0.13112562647E+04  0.50400001928E-02 0. -1.
        1   -1    0    0  501    0  0.00000000000E+00  0.00000000000E+00 -0.12028284627E+04  0.12028284627E+04  0.50400001928E-02 0.  1.
    10030    2    1    2    0    0  0.00000000000E+00  0.00000000000E+00  0.10842780196E+03  0.25140847274E+04  0.25117454944E+04 0.  0.
        2    1    3    3  502    0 -0.10386930467E+04  0.28419246921E+03 -0.59258273711E+03  0.12291472268E+04  0.25500000920E-02 0.  1.
       -2    1    3    3    0  502  0.10386930467E+04 -0.28419246921E+03  0.70101053907E+03  0.12849375007E+04  0.25500000920E-02 0. -1.
</event>
<event>
 5   0  0.6909250E-05  0.1262087E+04  0.7818609E-02  0.9060183E-01
       -2   -1    0    0    0  501  0.00000000000E+00  0.00000000000E+00  0.38498650849E+03  0.38498650850E+03  0.25500000920E-02 0. -1.
        2   -1    0    0  501    0  0.00000000000E+00  0.00000000000E+00 -0.10343633501E+04  0.10343633501E+04  0.25500000920E-02 0.  1.
    10030    2    1    2    0    0  0.00000000000E+00  0.00000000000E+00 -0.64937684162E+03  0.14193498586E+04  0.12620870567E+04 0.  0.
        4    1    3    3  502    0 -0.17160123710E+03  0.32611368436E+03  0.25140948474E+03  0.44610028202E+03  0.12699999809E+01 0. -1.
       -4    1    3    3    0  502  0.17160123710E+03 -0.32611368436E+03 -0.90078632636E+03  0.97324957660E+03  0.12699999809E+01 0.  1.
</event>
<event>
 5   0  0.6648328E-05  0.2567055E+04  0.7818609E-02  0.8379479E-01
        2   -1    0    0  501    0  0.00000000000E+00  0.00000000000E+00  0.19271771844E+04  0.19271771844E+04  0.25500000920E-02 0.  1.
       -2   -1    0    0    0  501  0.00000000000E+00  0.00000000000E+00 -0.85484759061E+03  0.85484759061E+03  0.25500000920E-02 0. -1.
    10030    2    1    2    0    0  0.00000000000E+00  0.00000000000E+00  0.10723295938E+04  0.27820247750E+04  0.25670549451E+04 0.  0.
        2    1    3    3  502    0 -0.11521774760E+04  0.29930312481E+03  0.16028025160E+02  0.11905260158E+04  0.25500000920E-02 0. -1.
       -2    1    3    3    0  502  0.11521774760E+04 -0.29930312481E+03  0.10563015686E+04  0.15914987592E+04  0.25500000920E-02 0.  1.
</event>
<event>
 5   0  0.6827859E-05  0.1791406E+04  0.7818609E-02  0.8710883E-01
       -2   -1    0    0    0  501  0.00000000000E+00  0.00000000000E+00  0.40050983916E+03  0.40050983917E+03  0.25500000920E-02 0. -1.
        2   -1    0    0  501    0  0.00000000000E+00  0.00000000000E+00 -0.20031568924E+04  0.20031568924E+04  0.25500000920E-02 0.  1.
    10030    2    1    2    0    0  0.00000000000E+00  0.00000000000E+00 -0.16026470533E+04  0.24036667316E+04  0.17914062016E+04 0.  0.
        3    1    3    3  502    0 -0.56993956839E+03 -0.55063145570E+03 -0.13614375497E+04  0.15752899173E+04  0.10100000352E+00 0.  1.
       -3    1    3    3    0  502  0.56993956839E+03  0.55063145570E+03 -0.24120950354E+03  0.82837681428E+03  0.10100000352E+00 0. -1.
</event>
<event>
 5   0  0.2793920E-05  0.2566512E+04  0.7818609E-02  0.8379666E-01
        1   -1    0    0  501    0  0.00000000000E+00  0.00000000000E+00  0.14052944722E+04  0.14052944722E+04  0.50400001928E-02 0. -1.
       -1   -1    0    0    0  501  0.00000000000E+00  0.00000000000E+00 -0.11718155756E+04  0.11718155757E+04  0.50400001928E-02 0.  1.
    10030    2    1    2    0    0  0.00000000000E+00  0.00000000000E+00  0.23347889653E+03  0.25771100478E+04  0.25665119917E+04 0.  0.
        2    1    3    3  502    0  0.67287067929E+03 -0.11396113636E+03 -0.97448810880E+03  0.11896928872E+04  0.25500000920E-02 0.  1.
       -2    1    3    3    0  502 -0.67287067929E+03  0.11396113636E+03  0.12079670053E+04  0.13874171606E+04  0.25500000920E-02 0. -1.
</event>
<event>
 5   0  0.6909250E-05  0.2531108E+04  0.7818609E-02  0.8391986E-01
       -2   -1    0    0    0  501  0.00000000000E+00  0.00000000000E+00  0.79812814171E+03  0.79812814172E+03  0.25500000920E-02 0.  1.
        2   -1    0    0  501    0  0.00000000000E+00  0.00000000000E+00 -0.20067296228E+04  0.20067296228E+04  0.25500000920E-02 0. -1.
    10030    2    1    2    0    0  0.00000000000E+00  0.00000000000E+00 -0.12086014811E+04  0.28048577645E+04  0.25311083618E+04 0.  0.
        4    1    3    3  502    0  0.65731904971E+03  0.22603025833E+03  0.56765669708E+03  0.89743732340E+03  0.12699999809E+01 0.  1.
       -4    1    3    3    0  502 -0.65731904971E+03 -0.22603025833E+03 -0.17762581782E+04  0.19074204411E+04  0.12699999809E+01 0. -1.
</event>
<event>
 5   0  0.6827859E-05  0.2385069E+04  0.7818609E-02  0.8445115E-01
        2   -1    0    0  501    0  0.00000000000E+00  0.00000000000E+00  0.10759022055E+04  0.10759022055E+04  0.25500000920E-02 0.  1.
       -2   -1    0    0    0  501  0.00000000000E+00  0.00000000000E+00 -0.13218102340E+04  0.13218102340E+04  0.25500000920E-02 0. -1.
    10030    2    1    2    0    0  0.00000000000E+00  0.00000000000E+00 -0.24590802855E+03  0.23977124395E+04  0.23850690104E+04 0.  0.
        3    1    3    3  502    0 -0.77763064515E+03  0.83418929285E+03 -0.47345297902E+03  0.12348031949E+04  0.10100000352E+00 0. -1.
       -3    1    3    3    0  502  0.77763064515E+03 -0.83418929285E+03  0.22754495047E+03  0.11629092446E+04  0.10100000352E+00 0.  1.
</event>
<event>
 5   0  0.2777539E-05  0.2491374E+04  0.7818609E-02  0.8406065E-01
       -1   -1    0    0    0  501  0.00000000000E+00  0.00000000000E+00  0.18614818902E+04  0.18614818902E+04  0.50400001928E-02 0. -1.
        1   -1    0    0  501    0  0.00000000000E+00  0.00000000000E+00 -0.83360229050E+03  0.83360229051E+03  0.50400001928E-02 0.  1.
    10030    2    1    2    0    0  0.00000000000E+00  0.00000000000E+00  0.10278795997E+04  0.26950841807E+04  0.24913735709E+04 0.  0.
        3    1    3    3  502    0 -0.58057074418E+03  0.99440246431E+03  0.10280200750E+04  0.15436074419E+04  0.10100000352E+00 0. -1.
       -3    1    3    3    0  502  0.58057074418E+03 -0.99440246431E+03 -0.14047529219E+00  0.11514767388E+04  0.10100000352E+00 0.  1.
</event>
<event>
 5   0  0.6445331E-05  0.2243964E+04  0.7818609E-02  0.8500349E-01
       -2   -1    0    0    0  501  0.00000000000E+00  0.00000000000E+00  0.82385394076E+03  0.82385394077E+03  0.25500000920E-02 0. -1.
        2   -1    0    0  501    0  0.00000000000E+00  0.00000000000E+00 -0.15279939279E+04  0.15279939279E+04  0.25500000920E-02 0.  1.
    10030    2    1    2    0    0  0.00000000000E+00  0.00000000000E+00 -0.70413998717E+03  0.23518478687E+04  0.22439641878E+04 0.  0.
        1    1    3    3  502    0  0.82985270274E+03  0.22583378520E+02  0.43898767151E+03  0.93908236753E+03  0.50400001928E-02 0. -1.
       -1    1    3    3    0  502 -0.82985270274E+03 -0.22583378520E+02 -0.11431276587E+04  0.14127655012E+04  0.50400001928E-02 0.  1.
</event>
<event>
 5   0  0.2793920E-05  0.2579685E+04  0.7818609E-02  0.8375135E-01
        1   -1    0    0  501    0  0.00000000000E+00  0.00000000000E+00  0.11900699148E+04  0.11900699148E+04  0.50400001928E-02 0. -1.
       -1   -1    0    0    0  501  0.00000000000E+00  0.00000000000E+00 -0.13979798260E+04  0.13979798260E+04  0.50400001928E-02 0.  1.
    10030    2    1    2    0    0  0.00000000000E+00  0.00000000000E+00 -0.20790991121E+03  0.25880497408E+04  0.25796850447E+04 0.  0.
        2    1    3    3  502    0 -0.35903398302E+03  0.11451014195E+04 -0.57827871790E+03  0.13321294747E+04  0.25500000920E-02 0.  1.
       -2    1    3    3    0  502  0.35903398302E+03 -0.11451014195E+04  0.37036880669E+03  0.12559202661E+04  0.25500000920E-02 0. -1.
</event>
<event>
 5   0  0.2977854E-05  0.2512981E+04  0.7818609E-02  0.8398376E-01
        1   -1    0    0  501    0  0.00000000000E+00  0.00000000000E+00  0.11444481485E+04  0.11444481485E+04  0.50400001928E-02 0.  1.
       -1   -1    0    0    0  501  0.00000000000E+00  0.00000000000E+00 -0.13795015335E+04  0.13795015335E+04  0.50400001928E-02 0. -1.
    10030    2    1    2    0    0  0.00000000000E+00  0.00000000000E+00 -0.23505338495E+03  0.25239496820E+04  0.25129806811E+04 0.  0.
        1    1    3    3  502    0 -0.67585430442E+03  0.10448748565E+03  0.94114794143E+03  0.11633813318E+04  0.50400001928E-02 0.  1.
       -1    1    3    3    0  502  0.67585430442E+03 -0.10448748565E+03 -0.11762013264E+04  0.13605683502E+04  0.50400001928E-02 0. -1.
</event>
<event>
 5   0  0.6909250E-05  0.2455474E+04  0.7818609E-02  0.8419022E-01
        2   -1    0    0  501    0  0.00000000000E+00  0.00000000000E+00  0.19971363748E+04  0.19971363748E+04  0.25500000920E-02 0. -1.
       -2   -1    0    0    0  501  0.00000000000E+00  0.00000000000E+00 -0.75475002762E+03  0.75475002762E+03  0.25500000920E-02 0.  1.
    10030    2    1    2    0    0  0.00000000000E+00  0.00000000000E+00  0.12423863471E+04  0.27518864024E+04  0.24554744829E+04 0.  0.
        4    1    3    3  502    0  0.80859230463E+03 -0.66953641051E+03  0.13346199560E+04  0.16980319667E+04  0.12699999809E+01 0.  1.
       -4    1    3    3    0  502 -0.80859230463E+03  0.66953641051E+03 -0.92233608843E+02  0.10538544357E+04  0.12699999809E+01 0. -1.
</event>
<event>
 5   0  0.6909250E-05  0.2505508E+04  0.7818609E-02  0.8401026E-01
       -2   -1    0    0    0  501  0.00000000000E+00  0.00000000000E+00  0.16578854364E+04  0.16578854364E+04  0.25500000920E-02 0.  1.
        2   -1    0    0  501    0  0.00000000000E+00  0.00000000000E+00 -0.94662313662E+03  0.94662313662E+03  0.25500000920E-02 0. -1.
    10030    2    1    2    0    0  0.00000000000E+00  0.00000000000E+00  0.71126229979E+03  0.26045085730E+04  0.25055081017E+04 0.  0.
        4    1    3    3  502    0  0.37303804503E+02 -0.12303981220E+04  0.59746039503E+03  0.13682951615E+04  0.12699999809E+01 0. -1.
       -4    1    3    3    0  502 -0.37303804503E+02  0.12303981220E+04  0.11380190477E+03  0.12362134115E+04  0.12699999809E+01 0.  1.
</event>
<event>
 5   0  0.6909250E-05  0.2489649E+04  0.7818609E-02  0.8406682E-01
       -2   -1    0    0    0  501  0.00000000000E+00  0.00000000000E+00  0.89484491321E+03  0.89484491321E+03  0.25500000920E-02 0.  1.
        2   -1    0    0  501    0  0.00000000000E+00  0.00000000000E+00 -0.17316840375E+04  0.17316840375E+04  0.25500000920E-02 0. -1.
    10030    2    1    2    0    0  0.00000000000E+00  0.00000000000E+00 -0.83683912431E+03  0.26265289507E+04  0.24896494952E+04 0.  0.
        4    1    3    3  502    0  0.42051532829E+03  0.10166367078E+04 -0.10328521971E+04  0.15090290292E+04  0.12699999809E+01 0. -1.
       -4    1    3    3    0  502 -0.42051532829E+03 -0.10166367078E+04  0.19601307282E+03  0.11174999215E+04  0.12699999809E+01 0.  1.
</event>
<event>
 5   0  0.2977854E-05  0.2508242E+04  0.7818609E-02  0.8400055E-01
       -1   -1    0    0    0  501  0.00000000000E+00  0.00000000000E+00  0.13542682301E+04  0.13542682301E+04  0.50400001928E-02 0. -1.
        1   -1    0    0  501    0  0.00000000000E+00  0.00000000000E+00 -0.11613800045E+04  0.11613800045E+04  0.50400001928E-02 0.  1.
    10030    2    1    2    0    0  0.00000000000E+00  0.00000000000E+00  0.19288822559E+03  0.25156482346E+04  0.25082424469E+04 0.  0.
        1    1    3    3  502    0 -0.70756792744E+03 -0.81682046296E+03 -0.54180893871E+03  0.12088858369E+04  0.50400001928E-02 0.  1.
       -1    1    3    3    0  502  0.70756792744E+03  0.81682046296E+03  0.73469716430E+03  0.13067623977E+04  0.50400001928E-02 0. -1.
</event>
<event>
 5   0  0.6827859E-05  0.2273880E+04  0.7818609E-02  0.8488292E-01
        2   -1    0    0  501    0  0.00000000000E+00  0.00000000000E+00  0.12125133427E+04  0.12125133427E+04  0.25500000920E-02 0. -1.
       -2   -1    0    0    0  501  0.00000000000E+00  0.00000000000E+00 -0.10660769741E+04  0.10660769741E+04  0.25500000920E-02 0.  1.
    10030    2    1    2    0    0  0.00000000000E+00  0.00000000000E+00  0.14643636860E+03  0.22785903168E+04  0.22738799928E+04 0.  0.
        3    1    3    3  502    0  0.37615565295E+03  0.21990420984E+03 -0.97909125067E+03  0.10716672170E+04  0.10100000352E+00 0.  1.
       -3    1    3    3    0  502 -0.37615565295E+03 -0.21990420984E+03  0.11255276193E+04  0.12069230997E+04  0.10100000352E+00 0. -1.
</event>
<event>
 5   0  0.6445331E-05  0.2468396E+04  0.7818609E-02  0.8414332E-01
        2   -1    0    0  501    0  0.00000000000E+00  0.00000000000E+00  0.12297833367E+04  0.12297833367E+04  0.25500000920E-02 0. -1.
       -2   -1    0    0    0  501  0.00000000000E+00  0.00000000000E+00 -0.12386284253E+04  0.12386284253E+04  0.25500000920E-02 0.  1.
    10030    2    1    2    0    0  0.00000000000E+00  0.00000000000E+00 -0.88450886032E+01  0.24684117620E+04  0.24683959146E+04 0.  0.
        1    1    3    3  502    0  0.42078455454E+03  0.43871840504E+03  0.10696938048E+04  0.12303569874E+04  0.50400001928E-02 0. -1.
       -1    1    3    3    0  502 -0.42078455454E+03 -0.43871840504E+03 -0.10785388934E+04  0.12380547746E+04  0.50400001928E-02 0.  1.
</event>
<event>
 5   0  0.2793920E-05  0.2525746E+04  0.7818609E-02  0.8393870E-01
       -1   -1    0    0    0  501  0.00000000000E+00  0.00000000000E+00  0.97379848131E+03  0.97379848133E+03  0.50400001928E-02 0.  1.
        1   -1    0    0  501    0  0.00000000000E+00  0.00000000000E+00 -0.16377601541E+04  0.16377601541E+04  0.50400001928E-02 0. -1.
    10030    2    1    2    0    0  0.00000000000E+00  0.00000000000E+00 -0.66396167280E+03  0.26115586354E+04  0.25257461083E+04 0.  0.
        2    1    3    3  502    0 -0.42021370803E+03 -0.11404001085E+04  0.22834446105E+02  0.12155712154E+04  0.25500000920E-02 0.  1.
       -2    1    3    3    0  502  0.42021370803E+03  0.11404001085E+04 -0.68679611890E+03  0.13959874200E+04  0.25500000920E-02 0. -1.
</event>
<event>
 5   0  0.2977854E-05  0.2530172E+04  0.7818609E-02  0.8392315E-01
       -1   -1    0    0    0  501  0.00000000000E+00  0.00000000000E+00  0.10879871109E+04  0.10879871109E+04  0.50400001928E-02 0.  1.
        1   -1    0    0  501    0  0.00000000000E+00  0.00000000000E+00 -0.14710124557E+04  0.14710124557E+04  0.50400001928E-02 0. -1.
    10030    2    1    2    0    0  0.00000000000E+00  0.00000000000E+00 -0.38302534485E+03  0.25589995666E+04  0.25301720034E+04 0.  0.
        1    1    3    3  502    0 -0.81086824043E+03 -0.29247396681E+03  0.74499309018E+03  0.11393256905E+04  0.50400001928E-02 0.  1.
       -1    1    3    3    0  502  0.81086824043E+03  0.29247396681E+03 -0.11280184350E+04  0.14196738761E+04  0.50400001928E-02 0. -1.
</event>
<event>
 5   0  0.2793920E-05  0.2507702E+04  0.7818609E-02  0.8400247E-01
        1   -1    0    0  501    0  0.00000000000E+00  0.00000000000E+00  0.13971450859E+04  0.13971450859E+04  0.50400001928E-02 0.  1.
       -1   -1    0    0    0  501  0.00000000000E+00  0.00000000000E+00 -0.11252538191E+04  0.11252538191E+04  0.50400001928E-02 0. -1.
    10030    2    1    2    0    0  0.00000000000E+00  0.00000000000E+00  0.27189126679E+03  0.25223989050E+04  0.25077024096E+04 0.  0.
        2    1    3    3  502    0 -0.14075744498E+03 -0.70670248194E+03  0.11680692213E+04  0.13724528269E+04  0.25500000920E-02 0.  1.
       -2    1    3    3    0  502  0.14075744498E+03  0.70670248194E+03 -0.89617795453E+03  0.11499460781E+04  0.25500000920E-02 0. -1.
</event>
<event>
 5   0  0.6827859E-05  0.2416545E+04  0.7818609E-02  0.8433335E-01
        2   -1    0    0  501    0  0.00000000000E+00  0.00000000000E+00  0.14470075480E+04  0.14470075480E+04  0.25500000920E-02 0. -1.
       -2   -1    0    0    0  501  0.00000000000E+00  0.00000000000E+00 -0.10089254441E+04  0.10089254441E+04  0.25500000920E-02 0.  1.
    10030    2    1    2    0    0  0.00000000000E+00  0.00000000000E+00  0.43808210389E+03  0.24559329922E+04  0.24165452473E+04 0.  0.
        3    1    3    3  502    0  0.43800144137E+03 -0.85327301728E+03  0.96586719936E+03  0.13611831477E+04  0.10100000352E+00 0. -1.
       -3    1    3    3    0  502 -0.43800144137E+03  0.85327301728E+03 -0.52778509547E+03  0.10947498444E+04  0.10100000352E+00 0.  1.
</event>
<event>
 5   0  0.2793920E-05  0.2464097E+04  0.7818609E-02  0.8415889E-01
        1   -1    0    0  501    0  0.00000000000E+00  0.00000000000E+00  0.24038084461E+04  0.24038084461E+04  0.50400001928E-02 0.  1.
       -1   -1    0    0    0  501  0.00000000000E+00  0.00000000000E+00 -0.63147435535E+03  0.63147435537E+03  0.50400001928E-02 0. -1.
    10030    2    1    2    0    0  0.00000000000E+00  0.00000000000E+00  0.17723340908E+04  0.30352828015E+04  0.24640969047E+04 0.  0.
        2    1    3    3  502    0 -0.27753206037E+03 -0.20721918755E+03  0.23426043277E+04  0.23680707068E+04  0.25500000920E-02 0.  1.
       -2    1    3    3    0  502  0.27753206037E+03  0.20721918755E+03 -0.57027023691E+03  0.66721209472E+03  0.25500000920E-02 0. -1.
</event>
<event>
 5   0  0.6648328E-05  0.2347483E+04  0.7818609E-02  0.8459431E-01
        2   -1    0    0  501    0  0.00000000000E+00  0.00000000000E+00  0.84243028050E+03  0.84243028051E+03  0.25500000920E-02 0.  1.
       -2   -1    0    0    0  501  0.00000000000E+00  0.00000000000E+00 -0.16353505641E+04  0.16353505641E+04  0.25500000920E-02 0. -1.
    10030    2    1    2    0    0  0.00000000000E+00  0.00000000000E+00 -0.79292028363E+03  0.24777808446E+04  0.23474827663E+04 0.  0.
        2    1    3    3  502    0 -0.10461454291E+04  0.50958466770E+03 -0.23440639266E+03  0.11870312335E+04  0.25500000920E-02 0. -1.
       -2    1    3    3    0  502  0.10461454291E+04 -0.50958466770E+03 -0.55851389097E+03  0.12907496112E+04  0.25500000920E-02 0.  1.
</event>
<event>
 5   0  0.2777539E-05  0.2717665E+04  0.7818609E-02  0.8329296E-01
       -1   -1    0    0    0  501  0.00000000000E+00  0.00000000000E+00  0.10905860074E+04  0.10905860074E+04  0.50400001928E-02 0. -1.
        1   -1    0    0  501    0  0.00000000000E+00  0.00000000000E+00 -0.16930585068E+04  0.16930585068E+04  0.50400001928E-02 0.  1.
    10030    2    1    2    0    0  0.00000000000E+00  0.00000000000E+00 -0.60247249936E+03  0.27836445142E+04  0.27176651134E+04 0.  0.
        3    1    3    3  502    0 -0.10768932404E+04 -0.81829914041E+03 -0.43523033732E+03  0.14208229978E+04  0.10100000352E+00 0.  1.
       -3    1    3    3    0  502  0.10768932404E+04  0.81829914041E+03 -0.16724216204E+03  0.13628215163E+04  0.10100000352E+00 0. -1.
</event>
<event>
 5   0  0.2977854E-05  0.2348263E+04  0.7818609E-02  0.8459131E-01
       -1   -1    0    0    0  501  0.00000000000E+00  0.00000000000E+00  0.70519031429E+03  0.70519031431E+03  0.50400001928E-02 0.  1.
        1   -1    0    0  501    0  0.00000000000E+00  0.00000000000E+00 -0.19549123308E+04  0.19549123308E+04  0.50400001928E-02 0. -1.
    10030    2    1    2    0    0  0.00000000000E+00  0.00000000000E+00 -0.12497220165E+04  0.26601026451E+04  0.23482633932E+04 0.  0.
        1    1    3    3  502    0 -0.29729402713E+02 -0.13505991992E+03  0.69593223718E+03  0.70953977910E+03  0.50400001928E-02 0.  1.
       -1    1    3    3    0  502  0.29729402713E+02  0.13505991992E+03 -0.19456542537E+04  0.19505628660E+04  0.50400001928E-02 0. -1.
</event>
<event>
 5   0  0.6909250E-05  0.2477623E+04  0.7818609E-02  0.8411001E-01
       -2   -1    0    0    0  501  0.00000000000E+00  0.00000000000E+00  0.14017484470E+04  0.14017484470E+04  0.25500000920E-02 0. -1.
        2   -1    0    0  501    0  0.00000000000E+00  0.00000000000E+00 -0.10948144961E+04  0.10948144961E+04  0.25500000920E-02 0.  1.
    10030    2    1    2    0    0  0.00000000000E+00  0.00000000000E+00  0.30693395084E+03  0.24965629431E+04  0.24776234740E+04 0.  0.
        4    1    3    3  502    0 -0.33209113866E+03  0.58828217201E+03 -0.89287945916E+03  0.11196409155E+04  0.12699999809E+01 0.  1.
       -4    1    3    3    0  502  0.33209113866E+03 -0.58828217201E+03  0.11998134100E+04  0.13769220276E+04  0.12699999809E+01 0. -1.
</event>
<event>
 5   0  0.7071821E-05  0.2498567E+04  0.7818609E-02  0.8403496E-01
        2   -1    0    0  501    0  0.00000000000E+00  0.00000000000E+00  0.20989649010E+04  0.20989649010E+04  0.25500000920E-02 0.  1.
       -2   -1    0    0    0  501  0.00000000000E+00  0.00000000000E+00 -0.74356113515E+03  0.74356113516E+03  0.25500000920E-02 0. -1.
    10030    2    1    2    0    0  0.00000000000E+00  0.00000000000E+00  0.13554037658E+04  0.28425260361E+04  0.24985665686E+04 0.  0.
        5    1    3    3  502    0  0.10320217121E+04  0.43169692094E+03  0.13103646914E+04  0.17229360871E+04  0.46999998093E+01 0.  1.
       -5    1    3    3    0  502 -0.10320217121E+04 -0.43169692094E+03  0.45039074413E+02  0.11195899490E+04  0.46999998093E+01 0. -1.
</event>
<event>
 5   0  0.2793920E-05  0.1907446E+04  0.7818609E-02  0.8651159E-01
        1   -1    0    0  501    0  0.00000000000E+00  0.00000000000E+00  0.15950696939E+04  0.15950696939E+04  0.50400001928E-02 0.  1.
       -1   -1    0    0    0  501  0.00000000000E+00  0.00000000000E+00 -0.57024925894E+03  0.57024925896E+03  0.50400001928E-02 0. -1.
    10030    2    1    2    0    0  0.00000000000E+00  0.00000000000E+00  0.10248204350E+04  0.21653189529E+04  0.19074457381E+04 0.  0.
        2    1    3    3  502    0  0.27022025984E+03 -0.23358692803E+03  0.15162735243E+04  0.15577763775E+04  0.25500000920E-02 0.  1.
       -2    1    3    3    0  502 -0.27022025984E+03  0.23358692803E+03 -0.49145308938E+03  0.60754257533E+03  0.25500000920E-02 0. -1.
</event>
<event>
 5   0  0.2793920E-05  0.1446528E+04  0.7818609E-02  0.8920811E-01
       -1   -1    0    0    0  501  0.00000000000E+00  0.00000000000E+00  0.21955420617E+03  0.21955420622E+03  0.50400001928E-02 0. -1.
        1   -1    0    0  501    0  0.00000000000E+00  0.00000000000E+00 -0.23826058791E+04  0.23826058791E+04  0.50400001928E-02 0.  1.
    10030    2    1    2    0    0  0.00000000000E+00  0.00000000000E+00 -0.21630516730E+04  0.26021600854E+04  0.14465284546E+04 0.  0.
        2    1    3    3  502    0  0.49731551339E+03 -0.30803676092E+03 -0.31640778964E+03  0.66507387206E+03  0.25500000920E-02 0. -1.
       -2    1    3    3    0  502 -0.49731551339E+03  0.30803676092E+03 -0.18466438833E+04  0.19370862133E+04  0.25500000920E-02 0.  1.
</event>
<event>
 5   0  0.2977854E-05  0.2471278E+04  0.7818609E-02  0.8413290E-01
       -1   -1    0    0    0  501  0.00000000000E+00  0.00000000000E+00  0.75025021454E+03  0.75025021456E+03  0.50400001928E-02 0. -1.
        1   -1    0    0  501    0  0.00000000000E+00  0.00000000000E+00 -0.20350594841E+04  0.20350594841E+04  0.50400001928E-02 0.  1.
    10030    2    1    2    0    0  0.00000000000E+00  0.00000000000E+00 -0.12848092695E+04  0.27853096986E+04  0.24712780617E+04 0.  0.
        1    1    3    3  502    0  0.77906109161E+03  0.86397066476E+03 -0.17304647319E+03  0.11761490449E+04  0.50400001928E-02 0. -1.
       -1    1    3    3    0  502 -0.77906109161E+03 -0.86397066476E+03 -0.11117627963E+04  0.16091606537E+04  0.50400001928E-02 0.  1.
</event>
<event>
 5   0  0.2980790E-05  0.2608535E+04  0.7818609E-02  0.8365308E-01
       -1   -1    0    0    0  501  0.00000000000E+00  0.00000000000E+00  0.14101006315E+04  0.14101006315E+04  0.50400001928E-02 0. -1.
        1   -1    0    0  501    0  0.00000000000E+00  0.00000000000E+00 -0.12063771349E+04  0.12063771349E+04  0.50400001928E-02 0.  1.
    10030    2    1    2    0    0  0.00000000000E+00  0.00000000000E+00  0.20372349659E+03  0.26164777664E+04  0.26085345769E+04 0.  0.
        5    1    3    3  502    0  0.37743546545E+03 -0.13511632614E+03  0.13467603528E+04  0.14051688475E+04  0.46999998093E+01 0. -1.
       -5    1    3    3    0  502 -0.37743546545E+03  0.13511632614E+03 -0.11430368562E+04  0.12113089188E+04  0.46999998093E+01 0.  1.
</event>
<event>
 5   0  0.2777539E-05  0.1353222E+04  0.7818609E-02  0.8988393E-01
        1   -1    0    0  501    0  0.00000000000E+00  0.00000000000E+00  0.56990384095E+03  0.56990384098E+03  0.50400001928E-02 0. -1.
       -1   -1    0    0    0  501  0.00000000000E+00  0.00000000000E+00 -0.80329715312E+03  0.80329715313E+03  0.50400001928E-02 0.  1.
    10030    2    1    2    0    0  0.00000000000E+00  0.00000000000E+00 -0.23339331216E+03  0.13732009941E+04  0.13532215384E+04 0.  0.
        3    1    3    3  502    0  0.21467469631E+03  0.50502354361E+03 -0.51835382310E+03  0.75486733998E+03  0.10100000352E+00 0.  1.
       -3    1    3    3    0  502 -0.21467469631E+03 -0.50502354361E+03  0.28496051094E+03  0.61833365413E+03  0.10100000352E+00 0. -1.
</event>
<event>
 5   0  0.6445331E-05  0.2520336E+04  0.7818609E-02  0.8395776E-01
       -2   -1    0    0    0  501  0.00000000000E+00  0.00000000000E+00  0.13449958454E+04  0.13449958454E+04  0.25500000920E-02 0.  1.
        2   -1    0    0  501    0  0.00000000000E+00  0.00000000000E+00 -0.11806905384E+04  0.11806905384E+04  0.25500000920E-02 0. -1.
    10030    2    1    2    0    0  0.00000000000E+00  0.00000000000E+00  0.16430530702E+03  0.25256863838E+04  0.25203363814E+04 0.  0.
        1    1    3    3  502    0  0.35302847679E+03  0.10022344071E+04  0.76102772174E+03  0.13070065438E+04  0.50400001928E-02 0.  1.
       -1    1    3    3    0  502 -0.35302847679E+03 -0.10022344071E+04 -0.59672241472E+03  0.12186798400E+04  0.50400001928E-02 0. -1.
</event>
<event>
 5   0  0.2980790E-05  0.1733591E+04  0.7818609E-02  0.8742435E-01
       -1   -1    0    0    0  501  0.00000000000E+00  0.00000000000E+00  0.36970460226E+03  0.36970460230E+03  0.50400001928E-02 0.  1.
        1   -1    0    0  501    0  0.00000000000E+00  0.00000000000E+00 -0.20322559872E+04  0.20322559873E+04  0.50400001928E-02 0. -1.
    10030    2    1    2    0    0  0.00000000000E+00  0.00000000000E+00 -0.16625513850E+04  0.24019605895E+04  0.17335909454E+04 0.  0.
        5    1    3    3  502    0 -0.44605076012E+03 -0.56786660712E+03 -0.14955821285E+04  0.16607894982E+04  0.46999998093E+01 0. -1.
       -5    1    3    3    0  502  0.44605076012E+03  0.56786660712E+03 -0.16696925646E+03  0.74117109137E+03  0.46999998093E+01 0.  1.
</event>
<event>
 5   0  0.2977854E-05  0.2319545E+04  0.7818609E-02  0.8470254E-01
       -1   -1    0    0    0  501  0.00000000000E+00  0.00000000000E+00  0.59181861339E+03  0.59181861341E+03  0.50400001928E-02 0.  1.
        1   -1    0    0  501    0  0.00000000000E+00  0.00000000000E+00 -0.22727787550E+04  0.22727787550E+04  0.50400001928E-02 0. -1.
    10030    2    1    2    0    0  0.00000000000E+00  0.00000000000E+00 -0.16809601416E+04  0.28645973684E+04  0.23195454480E+04 0.  0.
        1    1    3    3  502    0 -0.36963724755E+03  0.21561964352E+03  0.49075356283E+03  0.65112409332E+03  0.50400001928E-02 0.  1.
       -1    1    3    3    0  502  0.36963724755E+03 -0.21561964352E+03 -0.21717137044E+04  0.22134732751E+04  0.50400001928E-02 0. -1.
</event>
<event>
 5   0  0.2777539E-05  0.2378529E+04  0.7818609E-02  0.8447586E-01
        1   -1    0    0  501    0  0.00000000000E+00  0.00000000000E+00  0.13609177099E+04  0.13609177099E+04  0.50400001928E-02 0.  1.
       -1   -1    0    0    0  501  0.00000000000E+00  0.00000000000E+00 -0.10392624093E+04  0.10392624093E+04  0.50400001928E-02 0. -1.
    10030    2    1    2    0    0  0.00000000000E+00  0.00000000000E+00  0.32165530064E+03  0.24001801192E+04  0.23785294769E+04 0.  0.
        3    1    3    3  502    0 -0.60194158611E+03 -0.81694491089E+02  0.11925544042E+04  0.13383548409E+04  0.10100000352E+00 0.  1.
       -3    1    3    3    0  502  0.60194158611E+03  0.81694491089E+02 -0.87089910354E+03  0.10618252783E+04  0.10100000352E+00 0. -1.
</event>
<event>
 5   0  0.2896652E-05  0.1310022E+04  0.7818609E-02  0.9021655E-01
        1   -1    0    0  501    0  0.00000000000E+00  0.00000000000E+00  0.11808750927E+04  0.11808750927E+04  0.50400001928E-02 0.  1.
       -1   -1    0    0    0  501  0.00000000000E+00  0.00000000000E+00 -0.36332312813E+03  0.36332312816E+03  0.50400001928E-02 0. -1.
    10030    2    1    2    0    0  0.00000000000E+00  0.00000000000E+00  0.81755196458E+03  0.15441982209E+04  0.13100217290E+04 0.  0.
        4    1    3    3  502    0  0.40231391684E+03 -0.51290538048E+03  0.48433796286E+03  0.81210423726E+03  0.12699999809E+01 0. -1.
       -4    1    3    3    0  502 -0.40231391684E+03  0.51290538048E+03  0.33321400172E+03  0.73209398362E+03  0.12699999809E+01 0.  1.
</event>
<event>
 5   0  0.2777539E-05  0.2312940E+04  0.7818609E-02  0.8472836E-01
       -1   -1    0    0    0  501  0.00000000000E+00  0.00000000000E+00  0.10407335501E+04  0.10407335501E+04  0.50400001928E-02 0.  1.
        1   -1    0    0  501    0  0.00000000000E+00  0.00000000000E+00 -0.12850775232E+04  0.12850775232E+04  0.50400001928E-02 0. -1.
    10030    2    1    2    0    0  0.00000000000E+00  0.00000000000E+00 -0.24434397309E+03  0.23258110733E+04  0.23129403735E+04 0.  0.
        3    1    3    3  502    0 -0.49609687049E+03 -0.93266125017E+03 -0.59537982329E+03  0.12126195845E+04  0.10100000352E+00 0.  1.
       -3    1    3    3    0  502  0.49609687049E+03  0.93266125017E+03  0.35103585020E+03  0.11131914888E+04  0.10100000352E+00 0. -1.
</event>
<event>
 5   0  0.6445331E-05  0.2530747E+04  0.7818609E-02  0.8392113E-01
        2   -1    0    0  501    0  0.00000000000E+00  0.00000000000E+00  0.14166625345E+04  0.14166625346E+04  0.25500000920E-02 0. -1.
       -2   -1    0    0    0  501  0.00000000000E+00  0.00000000000E+00 -0.11302413336E+04  0.11302413336E+04  0.25500000920E-02 0.  1.
    10030    2    1    2    0    0  0.00000000000E+00  0.00000000000E+00  0.28642120092E+03  0.25469038682E+04  0.25307473618E+04 0.  0.
        1    1    3    3  502    0  0.24987178934E+03  0.49946697002E+03  0.12859185765E+04  0.14019592542E+04  0.50400001928E-02 0. -1.
       -1    1    3    3    0  502 -0.24987178934E+03 -0.49946697002E+03 -0.99949737554E+03  0.11449446139E+04  0.50400001928E-02 0.  1.
</event>
<event>
 5   0  0.6827859E-05  0.2504143E+04  0.7818609E-02  0.8401511E-01
        2   -1    0    0  501    0  0.00000000000E+00  0.00000000000E+00  0.10900857499E+04  0.10900857499E+04  0.25500000920E-02 0.  1.
       -2   -1    0    0    0  501  0.00000000000E+00  0.00000000000E+00 -0.14381280993E+04  0.14381280993E+04  0.25500000920E-02 0. -1.
    10030    2    1    2    0    0  0.00000000000E+00  0.00000000000E+00 -0.34804234941E+03  0.25282138493E+04  0.25041429254E+04 0.  0.
        3    1    3    3  502    0  0.25359862999E+03  0.75417361866E+03  0.80201500076E+03  0.11297425299E+04  0.10100000352E+00 0.  1.
       -3    1    3    3    0  502 -0.25359862999E+03 -0.75417361866E+03 -0.11500573502E+04  0.13984713194E+04  0.10100000352E+00 0. -1.
</event>
<event>
 5   0  0.2777539E-05  0.2449764E+04  0.7818609E-02  0.8421104E-01
        1   -1    0    0  501    0  0.00000000000E+00  0.00000000000E+00  0.12179867134E+04  0.12179867134E+04  0.50400001928E-02 0. -1.
       -1   -1    0    0    0  501  0.00000000000E+00  0.00000000000E+00 -0.12318163716E+04  0.12318163716E+04  0.50400001928E-02 0.  1.
    10030    2    1    2    0    0  0.00000000000E+00  0.00000000000E+00 -0.13829658265E+02  0.24498030850E+04  0.24497640490E+04 0.  0.
        3    1    3    3  502    0 -0.41451138202E+03  0.16010236104E+03  0.11345425875E+04  0.12184577732E+04  0.10100000352E+00 0. -1.
       -3    1    3    3    0  502  0.41451138202E+03 -0.16010236104E+03 -0.11483722458E+04  0.12313453118E+04  0.10100000352E+00 0.  1.
</event>
<event>
 5   0  0.2331375E-05  0.2236187E+04  0.7818609E-02  0.8503515E-01
        4   -1    0    0  501    0  0.00000000000E+00  0.00000000000E+00  0.11769507842E+04  0.11769514694E+04  0.12699999809E+01 0.  1.
       -4   -1    0    0    0  501  0.00000000000E+00  0.00000000000E+00 -0.10621783819E+04  0.10621791412E+04  0.12699999809E+01 0. -1.
    10030    2    1    2    0    0  0.00000000000E+00  0.00000000000E+00  0.11477240222E+03  0.22391306106E+04  0.22361871985E+04 0.  0.
        4    1    3    3  502    0  0.98939264274E+03 -0.46169181599E+03 -0.18391761736E+03  0.11071966570E+04  0.12699999809E+01 0. -1.
       -4    1    3    3    0  502 -0.98939264274E+03  0.46169181599E+03  0.29869001958E+03  0.11319339535E+04  0.12699999809E+01 0.  1.
</event>
<event>
 5   0  0.2896652E-05  0.2155734E+04  0.7818609E-02  0.8537082E-01
        1   -1    0    0  501    0  0.00000000000E+00  0.00000000000E+00  0.12259265985E+04  0.12259265985E+04  0.50400001928E-02 0.  1.
       -1   -1    0    0    0  501  0.00000000000E+00  0.00000000000E+00 -0.94768896328E+03  0.94768896330E+03  0.50400001928E-02 0. -1.
    10030    2    1    2    0    0  0.00000000000E+00  0.00000000000E+00  0.27823763519E+03  0.21736155618E+04  0.21557338492E+04 0.  0.
        4    1    3    3  502    0  0.55007876654E+03  0.56474855175E+03 -0.60200741105E+03  0.99193856259E+03  0.12699999809E+01 0. -1.
       -4    1    3    3    0  502 -0.55007876654E+03 -0.56474855175E+03  0.88024504624E+03  0.11816769992E+04  0.12699999809E+01 0.  1.
</event>
<event>
 5   0  0.2793920E-05  0.2337712E+04  0.7818609E-02  0.8463199E-01
       -1   -1    0    0    0  501  0.00000000000E+00  0.00000000000E+00  0.85232519830E+03  0.85232519831E+03  0.50400001928E-02 0.  1.
        1   -1    0    0  501    0  0.00000000000E+00  0.00000000000E+00 -0.16029376218E+04  0.16029376218E+04  0.50400001928E-02 0. -1.
    10030    2    1    2    0    0  0.00000000000E+00  0.00000000000E+00 -0.75061242347E+03  0.24552628201E+04  0.23377118097E+04 0.  0.
        2    1    3    3  502    0 -0.78185601298E+02 -0.65299432824E+03  0.63956963294E+03  0.91736791765E+03  0.25500000920E-02 0.  1.
       -2    1    3    3    0  502  0.78185601298E+02  0.65299432824E+03 -0.13901820564E+04  0.15378949024E+04  0.25500000920E-02 0. -1.
</event>
<event>
 5   0  0.2977854E-05  0.2520495E+04  0.7818609E-02  0.8395720E-01
       -1   -1    0    0    0  501  0.00000000000E+00  0.00000000000E+00  0.18884539512E+04  0.18884539512E+04  0.50400001928E-02 0. -1.
        1   -1    0    0  501    0  0.00000000000E+00  0.00000000000E+00 -0.84101829687E+03  0.84101829688E+03  0.50400001928E-02 0.  1.
    10030    2    1    2    0    0  0.00000000000E+00  0.00000000000E+00  0.10474356543E+04  0.27294722481E+04  0.25204954480E+04 0.  0.
        1    1    3    3  502    0 -0.49457459501E+03  0.11049861759E+04  0.90293131453E+03  0.15102593942E+04  0.50400001928E-02 0. -1.
       -1    1    3    3    0  502  0.49457459501E+03 -0.11049861759E+04  0.14450433980E+03  0.12192128539E+04  0.50400001928E-02 0.  1.
</event>
<event>
 5   0  0.2980790E-05  0.2328925E+04  0.7818609E-02  0.8466603E-01
       -1   -1    0    0    0  501  0.00000000000E+00  0.00000000000E+00  0.15474546459E+04  0.15474546459E+04  0.50400001928E-02 0.  1.
        1   -1    0    0  501    0  0.00000000000E+00  0.00000000000E+00 -0.87626017809E+03  0.87626017810E+03  0.50400001928E-02 0. -1.
    10030    2    1    2    0    0  0.00000000000E+00  0.00000000000E+00  0.67119446782E+03  0.24237148240E+04  0.23289249740E+04 0.  0.
        5    1    3    3  502    0 -0.54024307732E+03 -0.68350920816E+03 -0.46844347487E+03  0.98919603688E+03  0.46999998093E+01 0.  1.
       -5    1    3    3    0  502  0.54024307732E+03  0.68350920816E+03  0.11396379427E+04  0.14345187871E+04  0.46999998093E+01 0. -1.
</event>
<event>
 5   0  0.7071821E-05  0.1415578E+04  0.7818609E-02  0.8942619E-01
        2   -1    0    0  501    0  0.00000000000E+00  0.00000000000E+00  0.14205457195E+04  0.14205457195E+04  0.25500000920E-02 0. -1.
       -2   -1    0    0    0  501  0.00000000000E+00  0.00000000000E+00 -0.35265698907E+03  0.35265698908E+03  0.25500000920E-02 0.  1.
    10030    2    1    2    0    0  0.00000000000E+00  0.00000000000E+00  0.10678887305E+04  0.17732027086E+04  0.14155781523E+04 0.  0.
        5    1    3    3  502    0 -0.18738740594E+03  0.33240989476E+03 -0.21274892715E+03  0.43691483614E+03  0.46999998093E+01 0.  1.
       -5    1    3    3    0  502  0.18738740594E+03 -0.33240989476E+03  0.12806376576E+04  0.13362878725E+04  0.46999998093E+01 0. -1.
</event>
<event>
 5   0  0.6909250E-05  0.2519766E+04  0.7818609E-02  0.8395978E-01
        2   -1    0    0  501    0  0.00000000000E+00  0.00000000000E+00  0.18157813554E+04  0.18157813554E+04  0.25500000920E-02 0.  1.
       -2   -1    0    0    0  501  0.00000000000E+00  0.00000000000E+00 -0.87417168847E+03  0.87417168847E+03  0.25500000920E-02 0. -1.
    10030    2    1    2    0    0  0.00000000000E+00  0.00000000000E+00  0.94160966689E+03  0.26899530438E+04  0.25197655870E+04 0.  0.
        4    1    3    3  502    0 -0.78227335296E+03  0.84516938230E+03  0.10162338262E+04  0.15359022384E+04  0.12699999809E+01 0.  1.
       -4    1    3    3    0  502  0.78227335296E+03 -0.84516938230E+03 -0.74624159275E+02  0.11540508055E+04  0.12699999809E+01 0. -1.
</event>
<event>
 5   0  0.2980790E-05  0.2537119E+04  0.7818609E-02  0.8389880E-01
       -1   -1    0    0    0  501  0.00000000000E+00  0.00000000000E+00  0.11275721418E+04  0.11275721418E+04  0.50400001928E-02 0.  1.
        1   -1    0    0  501    0  0.00000000000E+00  0.00000000000E+00 -0.14271756992E+04  0.14271756992E+04  0.50400001928E-02 0. -1.
    10030    2    1    2    0    0  0.00000000000E+00  0.00000000000E+00 -0.29960355740E+03  0.25547478410E+04  0.25371192797E+04 0.  0.
        5    1    3    3  502    0  0.39837713585E+03 -0.11422695639E+04  0.23460640124E+03  0.12322931277E+04  0.46999998093E+01 0.  1.
       -5    1    3    3    0  502 -0.39837713585E+03  0.11422695639E+04 -0.53420995864E+03  0.13224547134E+04  0.46999998093E+01 0. -1.
</event>
<event>
 5   0  0.2331375E-05  0.1502989E+04  0.7818609E-02  0.8882467E-01
        3   -1    0    0  501    0  0.00000000000E+00  0.00000000000E+00  0.39141284848E+03  0.39141286151E+03  0.10100000352E+00 0. -1.
       -3   -1    0    0    0  501  0.00000000000E+00  0.00000000000E+00 -0.14428351465E+04  0.14428351501E+04  0.10100000352E+00 0.  1.
    10030    2    1    2    0    0  0.00000000000E+00  0.00000000000E+00 -0.10514222981E+04  0.18342480116E+04  0.15029893277E+04 0.  0.
        4    1    3    3  502    0  0.44681114493E+03  0.22332381125E+03  0.15948540250E+03  0.52435763598E+03  0.12699999809E+01 0. -1.
       -4    1    3    3    0  502 -0.44681114493E+03 -0.22332381125E+03 -0.12109077006E+04  0.13098903756E+04  0.12699999809E+01 0.  1.
</event>
<event>
 5   0  0.6445331E-05  0.2575570E+04  0.7818609E-02  0.8376547E-01
       -2   -1    0    0    0  501  0.00000000000E+00  0.00000000000E+00  0.94450719670E+03  0.94450719670E+03  0.25500000920E-02 0. -1.
        2   -1    0    0  501    0  0.00000000000E+00  0.00000000000E+00 -0.17558254481E+04  0.17558254481E+04  0.25500000920E-02 0.  1.
    10030    2    1    2    0    0  0.00000000000E+00  0.00000000000E+00 -0.81131825137E+03  0.27003326448E+04  0.25755696627E+04 0.  0.
        1    1    3    3  502    0  0.24336591447E+02 -0.12772359884E+04 -0.57622255581E+03  0.14014123139E+04  0.50400001928E-02 0. -1.
       -1    1    3    3    0  502 -0.24336591447E+02  0.12772359884E+04 -0.23509569556E+03  0.12989203308E+04  0.50400001928E-02 0.  1.
</event>
<event>
 5   0  0.6909250E-05  0.2097049E+04  0.7818609E-02  0.8562544E-01
        2   -1    0    0  501    0  0.00000000000E+00  0.00000000000E+00  0.49082346527E+03  0.49082346527E+03  0.25500000920E-02 0.  1.
       -2   -1    0    0    0  501  0.00000000000E+00  0.00000000000E+00 -0.22399162790E+04  0.22399162790E+04  0.25500000920E-02 0. -1.
    10030    2    1    2    0    0  0.00000000000E+00  0.00000000000E+00 -0.17490928137E+04  0.27307397443E+04  0.20970488502E+04 0.  0.
        4    1    3    3  502    0  0.43448771248E+03  0.78808461587E+03 -0.17385024107E+03  0.91656011985E+03  0.12699999809E+01 0.  1.
       -4    1    3    3    0  502 -0.43448771248E+03 -0.78808461587E+03 -0.15752425727E+04  0.18141796244E+04  0.12699999809E+01 0. -1.
</event>
<event>
 5   0  0.6909250E-05  0.2488037E+04  0.7818609E-02  0.8407260E-01
        2   -1    0    0  501    0  0.00000000000E+00  0.00000000000E+00  0.17102721606E+04  0.17102721606E+04  0.25500000920E-02 0.  1.
       -2   -1    0    0    0  501  0.00000000000E+00  0.00000000000E+00 -0.90487503167E+03  0.90487503168E+03  0.25500000920E-02 0. -1.
    10030    2    1    2    0    0  0.00000000000E+00  0.00000000000E+00  0.80539712897E+03  0.26151471923E+04  0.24880374399E+04 0.  0.
        4    1    3    3  502    0 -0.43963268946E+03 -0.44213367534E+03  0.15341803545E+04  0.16560404771E+04  0.12699999809E+01 0.  1.
       -4    1    3    3    0  502  0.43963268946E+03  0.44213367534E+03 -0.72878322556E+03  0.95910671527E+03  0.12699999809E+01 0. -1.
</event>
<event>
 5   0  0.2896652E-05  0.2469413E+04  0.7818609E-02  0.8413964E-01
        1   -1    0    0  501    0  0.00000000000E+00  0.00000000000E+00  0.12615549621E+04  0.12615549622E+04  0.50400001928E-02 0. -1.
       -1   -1    0    0    0  501  0.00000000000E+00  0.00000000000E+00 -0.12084292343E+04  0.12084292343E+04  0.50400001928E-02 0.  1.
    10030    2    1    2    0    0  0.00000000000E+00  0.00000000000E+00  0.53125727823E+02  0.24699841965E+04  0.24694128022E+04 0.  0.
        4    1    3    3  502    0  0.56606427591E+03  0.32503881573E+03 -0.10217346465E+04  0.12124447604E+04  0.12699999809E+01 0.  1.
       -4    1    3    3    0  502 -0.56606427591E+03 -0.32503881573E+03  0.10748603743E+04  0.12575394361E+04  0.12699999809E+01 0. -1.
</event>
<event>
 5   0  0.2777539E-05  0.1694596E+04  0.7818609E-02  0.8764452E-01
        1   -1    0    0  501    0  0.00000000000E+00  0.00000000000E+00  0.74801986187E+03  0.74801986188E+03  0.50400001928E-02 0.  1.
       -1   -1    0    0    0  501  0.00000000000E+00  0.00000000000E+00 -0.95975277936E+03  0.95975277937E+03  0.50400001928E-02 0. -1.
    10030    2    1    2    0    0  0.00000000000E+00  0.00000000000E+00 -0.21173291749E+03  0.17077726413E+04  0.16945962840E+04 0.  0.
        3    1    3    3  502    0  0.53536530586E+02 -0.64038982017E+03  0.45064908847E+03  0.78488845897E+03  0.10100000352E+00 0.  1.
       -3    1    3    3    0  502 -0.53536530586E+02  0.64038982017E+03 -0.66238200596E+03  0.92288418228E+03  0.10100000352E+00 0. -1.
</event>
<event>
 5   0  0.2777539E-05  0.2884762E+04  0.7818609E-02  0.8277426E-01
       -1   -1    0    0    0  501  0.00000000000E+00  0.00000000000E+00  0.76534945891E+03  0.76534945892E+03  0.50400001928E-02 0.  1.
        1   -1    0    0  501    0  0.00000000000E+00  0.00000000000E+00 -0.27183183738E+04  0.27183183738E+04  0.50400001928E-02 0. -1.
    10030    2    1    2    0    0  0.00000000000E+00  0.00000000000E+00 -0.19529689149E+04  0.34836678327E+04  0.28847623795E+04 0.  0.
        3    1    3    3  502    0  0.29705685681E+03  0.13948434943E+04 -0.71570685939E+03  0.15956401438E+04  0.10100000352E+00 0.  1.
       -3    1    3    3    0  502 -0.29705685681E+03 -0.13948434943E+04 -0.12372620555E+04  0.18880276889E+04  0.10100000352E+00 0. -1.
</event>
<event>
 5   0  0.6909250E-05  0.2416457E+04  0.7818609E-02  0.8433368E-01
        2   -1    0    0  501    0  0.00000000000E+00  0.00000000000E+00  0.10162864287E+04  0.10162864287E+04  0.25500000920E-02 0.  1.
       -2   -1    0    0    0  501  0.00000000000E+00  0.00000000000E+00 -0.14364219328E+04  0.14364219328E+04  0.25500000920E-02 0. -1.
    10030    2    1    2    0    0  0.00000000000E+00  0.00000000000E+00 -0.42013550418E+03  0.24527083615E+04  0.24164570066E+04 0.  0.
        4    1    3    3  502    0  0.86510430632E+03 -0.63578445289E+03  0.35249163628E+03  0.11299908397E+04  0.12699999809E+01 0.  1.
       -4    1    3    3    0  502 -0.86510430632E+03  0.63578445289E+03 -0.77262714045E+03  0.13227175218E+04  0.12699999809E+01 0. -1.
</event>
<event>
 5   0  0.2896652E-05  0.2174596E+04  0.7818609E-02  0.8529077E-01
       -1   -1    0    0    0  501  0.00000000000E+00  0.00000000000E+00  0.84266805442E+03  0.84266805444E+03  0.50400001928E-02 0. -1.
        1   -1    0    0  501    0  0.00000000000E+00  0.00000000000E+00 -0.14029453357E+04  0.14029453357E+04  0.50400001928E-02 0.  1.
    10030    2    1    2    0    0  0.00000000000E+00  0.00000000000E+00 -0.56027728129E+03  0.22456133902E+04  0.21745962536E+04 0.  0.
        4    1    3    3  502    0  0.26792034254E+03 -0.82857768456E+03  0.39219468297E+03  0.95506050675E+03  0.12699999809E+01 0.  1.
       -4    1    3    3    0  502 -0.26792034254E+03  0.82857768456E+03 -0.95247196426E+03  0.12905528834E+04  0.12699999809E+01 0. -1.
</event>
<event>
 5   0  0.6445331E-05  0.2499375E+04  0.7818609E-02  0.8403208E-01
        2   -1    0    0  501    0  0.00000000000E+00  0.00000000000E+00  0.18859932873E+04  0.18859932873E+04  0.25500000920E-02 0. -1.
       -2   -1    0    0    0  501  0.00000000000E+00  0.00000000000E+00 -0.82806199980E+03  0.82806199980E+03  0.25500000920E-02 0.  1.
    10030    2    1    2    0    0  0.00000000000E+00  0.00000000000E+00  0.10579312875E+04  0.27140552871E+04  0.24993754205E+04 0.  0.
        1    1    3    3  502    0 -0.12278524909E+04 -0.20381235165E+03  0.65065432463E+03  0.14044615567E+04  0.50400001928E-02 0. -1.
       -1    1    3    3    0  502  0.12278524909E+04  0.20381235165E+03  0.40727696289E+03  0.13095937304E+04  0.50400001928E-02 0.  1.
</event>
<event>
 5   0  0.2980790E-05  0.2432807E+04  0.7818609E-02  0.8427322E-01
       -1   -1    0    0    0  501  0.00000000000E+00  0.00000000000E+00  0.86418325799E+03  0.86418325801E+03  0.50400001928E-02 0. -1.
        1   -1    0    0  501    0  0.00000000000E+00  0.00000000000E+00 -0.17121797413E+04  0.17121797413E+04  0.50400001928E-02 0.  1.
    10030    2    1    2    0    0  0.00000000000E+00  0.00000000000E+00 -0.84799648330E+03  0.25763629993E+04  0.24328066648E+04 0.  0.
        5    1    3    3  502    0 -0.34340555713E+03 -0.30034578082E+03  0.77013895122E+03  0.89513745252E+03  0.46999998093E+01 0. -1.
       -5    1    3    3    0  502  0.34340555713E+03  0.30034578082E+03 -0.16181354345E+04  0.16812255468E+04  0.46999998093E+01 0.  1.
</event>
<event>
 5   0  0.6827859E-05  0.2472071E+04  0.7818609E-02  0.8413003E-01
        2   -1    0    0  501    0  0.00000000000E+00  0.00000000000E+00  0.27548632610E+04  0.27548632610E+04  0.25500000920E-02 0. -1.
       -2   -1    0    0    0  501  0.00000000000E+00  0.00000000000E+00 -0.55457708739E+03  0.55457708740E+03  0.25500000920E-02 0.  1.
    10030    2    1    2    0    0  0.00000000000E+00  0.00000000000E+00  0.22002861736E+04  0.33094403484E+04  0.24720712315E+04 0.  0.
        3    1    3    3  502    0  0.28320802437E+03  0.18410079152E+03  0.26918744396E+04  0.27129850525E+04  0.10100000352E+00 0. -1.
       -3    1    3    3    0  502 -0.28320802437E+03 -0.18410079152E+03 -0.49158826599E+03  0.59645529586E+03  0.10100000352E+00 0.  1.
</event>
<event>
 5   0  0.6445331E-05  0.2482292E+04  0.7818609E-02  0.8409321E-01
        2   -1    0    0  501    0  0.00000000000E+00  0.00000000000E+00  0.14929278786E+04  0.14929278786E+04  0.25500000920E-02 0. -1.
       -2   -1    0    0    0  501  0.00000000000E+00  0.00000000000E+00 -0.10318269102E+04  0.10318269102E+04  0.25500000920E-02 0.  1.
    10030    2    1    2    0    0  0.00000000000E+00  0.00000000000E+00  0.46110096845E+03  0.25247547889E+04  0.24822918122E+04 0.  0.
        1    1    3    3  502    0 -0.59482347725E+03 -0.74483254065E+03  0.10390397998E+04  0.14100333997E+04  0.50400001928E-02 0. -1.
       -1    1    3    3    0  502  0.59482347725E+03  0.74483254065E+03 -0.57793883132E+03  0.11147213892E+04  0.50400001928E-02 0.  1.
</event>
<event>
 5   0  0.2980790E-05  0.2606063E+04  0.7818609E-02  0.8366145E-01
        1   -1    0    0  501    0  0.00000000000E+00  0.00000000000E+00  0.12719359514E+04  0.12719359514E+04  0.50400001928E-02 0. -1.
       -1   -1    0    0    0  501  0.00000000000E+00  0.00000000000E+00 -0.13348871675E+04  0.13348871675E+04  0.50400001928E-02 0.  1.
    10030    2    1    2    0    0  0.00000000000E+00  0.00000000000E+00 -0.62951216099E+02  0.26068231188E+04  0.26060629151E+04 0.  0.
        5    1    3    3  502    0  0.72472810067E+03 -0.32039877964E+03  0.10032258092E+04  0.12784249341E+04  0.46999998093E+01 0. -1.
       -5    1    3    3    0  502 -0.72472810067E+03  0.32039877964E+03 -0.10661770253E+04  0.13283981847E+04  0.46999998093E+01 0.  1.
</event>
<event>
 5   0  0.2793920E-05  0.2547062E+04  0.7818609E-02  0.8386409E-01
        1   -1    0    0  501    0  0.00000000000E+00  0.00000000000E+00  0.10612717561E+04  0.10612717561E+04  0.50400001928E-02 0.  1.
       -1   -1    0    0    0  501  0.00000000000E+00  0.00000000000E+00 -0.15282434210E+04  0.15282434210E+04  0.50400001928E-02 0. -1.
    10030    2    1    2    0    0  0.00000000000E+00  0.00000000000E+00 -0.46697166487E+03  0.25895151771E+04  0.25470622914E+04 0.  0.
        2    1    3    3  502    0 -0.42515817269E+03  0.64243972485E+02 -0.14522130091E+04  0.15145327278E+04  0.25500000920E-02 0. -1.
       -2    1    3    3    0  502  0.42515817269E+03 -0.64243972485E+02  0.98524134423E+03  0.10749824492E+04  0.25500000920E-02 0.  1.
</event>
<event>
 5   0  0.6648328E-05  0.2499030E+04  0.7818609E-02  0.8403331E-01
       -2   -1    0    0    0  501  0.00000000000E+00  0.00000000000E+00  0.11977480904E+04  0.11977480904E+04  0.25500000920E-02 0. -1.
        2   -1    0    0  501    0  0.00000000000E+00  0.00000000000E+00 -0.13035196532E+04  0.13035196532E+04  0.25500000920E-02 0.  1.
    10030    2    1    2    0    0  0.00000000000E+00  0.00000000000E+00 -0.10577156284E+03  0.25012677436E+04  0.24990303523E+04 0.  0.
        2    1    3    3  502    0  0.11906130589E+04 -0.97992683837E+02 -0.41944604696E+03  0.12661346723E+04  0.25500000920E-02 0.  1.
       -2    1    3    3    0  502 -0.11906130589E+04  0.97992683837E+02  0.31367448412E+03  0.12351330714E+04  0.25500000920E-02 0. -1.
</event>
<event>
 5   0  0.6648328E-05  0.1609674E+04  0.7818609E-02  0.8814627E-01
       -2   -1    0    0    0  501  0.00000000000E+00  0.00000000000E+00  0.87853649688E+03  0.87853649689E+03  0.25500000920E-02 0. -1.
        2   -1    0    0  501    0  0.00000000000E+00  0.00000000000E+00 -0.73731983651E+03  0.73731983651E+03  0.25500000920E-02 0.  1.
    10030    2    1    2    0    0  0.00000000000E+00  0.00000000000E+00  0.14121666038E+03  0.16158563334E+04  0.16096737387E+04 0.  0.
        2    1    3    3  502    0  0.45899276595E+03  0.59404988578E+03 -0.22066603212E+03  0.78247244279E+03  0.25500000920E-02 0.  1.
       -2    1    3    3    0  502 -0.45899276595E+03 -0.59404988578E+03  0.36188269250E+03  0.83338389061E+03  0.25500000920E-02 0. -1.
</event>
<event>
 5   0  0.2777539E-05  0.2560155E+04  0.7818609E-02  0.8381863E-01
        1   -1    0    0  501    0  0.00000000000E+00  0.00000000000E+00  0.95109786574E+03  0.95109786575E+03  0.50400001928E-02 0.  1.
       -1   -1    0    0    0  501  0.00000000000E+00  0.00000000000E+00 -0.17228493062E+04  0.17228493062E+04  0.50400001928E-02 0. -1.
    10030    2    1    2    0    0  0.00000000000E+00  0.00000000000E+00 -0.77175144050E+03  0.26739471720E+04  0.25601549158E+04 0.  0.
        3    1    3    3  502    0  0.88527893814E+03 -0.67391037372E+03 -0.10470400510E+04  0.15277980458E+04  0.10100000352E+00 0. -1.
       -3    1    3    3    0  502 -0.88527893814E+03  0.67391037372E+03  0.27528861055E+03  0.11461491262E+04  0.10100000352E+00 0.  1.
</event>
<event>
 5   0  0.2793920E-05  0.2538748E+04  0.7818609E-02  0.8389310E-01
        1   -1    0    0  501    0  0.00000000000E+00  0.00000000000E+00  0.21931707174E+04  0.21931707174E+04  0.50400001928E-02 0.  1.
       -1   -1    0    0    0  501  0.00000000000E+00  0.00000000000E+00 -0.73469467784E+03  0.73469467786E+03  0.50400001928E-02 0. -1.
    10030    2    1    2    0    0  0.00000000000E+00  0.00000000000E+00  0.14584760396E+04  0.29278653953E+04  0.25387483954E+04 0.  0.
        2    1    3    3  502    0 -0.56928784307E+03  0.35900968482E+03  0.19704569602E+04  0.20822289101E+04  0.25500000920E-02 0.  1.
       -2    1    3    3    0  502  0.56928784307E+03 -0.35900968482E+03 -0.51198092059E+03  0.84563648521E+03  0.25500000920E-02 0. -1.
</event>
<event>
 5   0  0.6445331E-05  0.2454612E+04  0.7818609E-02  0.8419336E-01
        2   -1    0    0  501    0  0.00000000000E+00  0.00000000000E+00  0.14813319367E+04  0.14813319367E+04  0.25500000920E-02 0. -1.
       -2   -1    0    0    0  501  0.00000000000E+00  0.00000000000E+00 -0.10168416108E+04  0.10168416108E+04  0.25500000920E-02 0.  1.
    10030    2    1    2    0    0  0.00000000000E+00  0.00000000000E+00  0.46449032584E+03  0.24981735475E+04  0.24546119470E+04 0.  0.
        1    1    3    3  502    0  0.93709857132E+03  0.69383456272E+03  0.62208314845E+03  0.13215701179E+04  0.50400001928E-02 0. -1.
       -1    1    3    3    0  502 -0.93709857132E+03 -0.69383456272E+03 -0.15759282261E+03  0.11766034296E+04  0.50400001928E-02 0.  1.
</event>
<event>
 5   0  0.2896652E-05  0.2548587E+04  0.7818609E-02  0.8385878E-01
       -1   -1    0    0    0  501  0.00000000000E+00  0.00000000000E+00  0.91992201847E+03  0.91992201848E+03  0.50400001928E-02 0. -1.
        1   -1    0    0  501    0  0.00000000000E+00  0.00000000000E+00 -0.17651754796E+04  0.17651754796E+04  0.50400001928E-02 0.  1.
    10030    2    1    2    0    0  0.00000000000E+00  0.00000000000E+00 -0.84525346113E+03  0.26850974981E+04  0.25485868949E+04 0.  0.
        4    1    3    3  502    0 -0.12102010790E+04  0.27888453655E+03 -0.12192910844E+03  0.12478908433E+04  0.12699999809E+01 0. -1.
       -4    1    3    3    0  502  0.12102010790E+04 -0.27888453655E+03 -0.72332435268E+03  0.14372066548E+04  0.12699999809E+01 0.  1.
</event>
<event>
 5   0  0.6445331E-05  0.2559260E+04  0.7818609E-02  0.8382173E-01
        2   -1    0    0  501    0  0.00000000000E+00  0.00000000000E+00  0.14508925327E+04  0.14508925327E+04  0.25500000920E-02 0. -1.
       -2   -1    0    0    0  501  0.00000000000E+00  0.00000000000E+00 -0.11285832917E+04  0.11285832917E+04  0.25500000920E-02 0.  1.
    10030    2    1    2    0    0  0.00000000000E+00  0.00000000000E+00  0.32230924103E+03  0.25794758244E+04  0.25592601044E+04 0.  0.
        1    1    3    3  502    0 -0.76442156266E+03 -0.28785411912E+01 -0.87316023198E+03  0.11604987730E+04  0.50400001928E-02 0.  1.
       -1    1    3    3    0  502  0.76442156266E+03  0.28785411912E+01  0.11954694730E+04  0.14189770514E+04  0.50400001928E-02 0. -1.
</event>
<event>
 5   0  0.2977854E-05  0.2497608E+04  0.7818609E-02  0.8403838E-01
       -1   -1    0    0    0  501  0.00000000000E+00  0.00000000000E+00  0.77640243645E+03  0.77640243646E+03  0.50400001928E-02 0.  1.
        1   -1    0    0  501    0  0.00000000000E+00  0.00000000000E+00 -0.20086377000E+04  0.20086377001E+04  0.50400001928E-02 0. -1.
    10030    2    1    2    0    0  0.00000000000E+00  0.00000000000E+00 -0.12322352636E+04  0.27850401365E+04  0.24976078189E+04 0.  0.
        1    1    3    3  502    0  0.65278419951E+03 -0.99171800564E+03 -0.10478137784E+04  0.15835231379E+04  0.50400001928E-02 0. -1.
       -1    1    3    3    0  502 -0.65278419951E+03  0.99171800564E+03 -0.18442148517E+03  0.12015169987E+04  0.50400001928E-02 0.  1.
</event>
<event>
 5   0  0.6909250E-05  0.2540370E+04  0.7818609E-02  0.8388743E-01
       -2   -1    0    0    0  501  0.00000000000E+00  0.00000000000E+00  0.89178565626E+03  0.89178565627E+03  0.25500000920E-02 0.  1.
        2   -1    0    0  501    0  0.00000000000E+00  0.00000000000E+00 -0.18091449159E+04  0.18091449160E+04  0.25500000920E-02 0. -1.
    10030    2    1    2    0    0  0.00000000000E+00  0.00000000000E+00 -0.91735925968E+03  0.27009305722E+04  0.25403696472E+04 0.  0.
        4    1    3    3  502    0 -0.11527047292E+04  0.10988380414E+03 -0.10137547130E+04  0.15389941112E+04  0.12699999809E+01 0. -1.
       -4    1    3    3    0  502  0.11527047292E+04 -0.10988380414E+03  0.96395453360E+02  0.11619364610E+04  0.12699999809E+01 0.  1.
</event>
<event>
 5   0  0.2331375E-05  0.2459979E+04  0.7818609E-02  0.8417384E-01
       -3   -1    0    0    0  501  0.00000000000E+00  0.00000000000E+00  0.15633491311E+04  0.15633491344E+04  0.10100000352E+00 0. -1.
        3   -1    0    0  501    0  0.00000000000E+00  0.00000000000E+00 -0.96771322952E+03  0.96771323479E+03  0.10100000352E+00 0.  1.
    10030    2    1    2    0    0  0.00000000000E+00  0.00000000000E+00  0.59563590161E+03  0.25310623692E+04  0.24599785750E+04 0.  0.
        4    1    3    3  502    0 -0.49968103229E+03  0.10953740075E+04  0.38857486290E+02  0.12045899168E+04  0.12699999809E+01 0.  1.
       -4    1    3    3    0  502  0.49968103229E+03 -0.10953740075E+04  0.55677841532E+03  0.13264724524E+04  0.12699999809E+01 0. -1.
</event>
<event>
 5   0  0.6827859E-05  0.2733487E+04  0.7818609E-02  0.8324221E-01
        2   -1    0    0  501    0  0.00000000000E+00  0.00000000000E+00  0.11694219601E+04  0.11694219601E+04  0.25500000920E-02 0. -1.
       -2   -1    0    0    0  501  0.00000000000E+00  0.00000000000E+00 -0.15973597016E+04  0.15973597016E+04  0.25500000920E-02 0.  1.
    10030    2    1    2    0    0  0.00000000000E+00  0.00000000000E+00 -0.42793774151E+03  0.27667816617E+04  0.27334867940E+04 0.  0.
        3    1    3    3  502    0 -0.62121641900E+03  0.98885000996E+03  0.50478846840E+03  0.12722207314E+04  0.10100000352E+00 0. -1.
       -3    1    3    3    0  502  0.62121641900E+03 -0.98885000996E+03 -0.93272620991E+03  0.14945609303E+04  0.10100000352E+00 0.  1.
</event>
<event>
 5   0  0.6648328E-05  0.2542518E+04  0.7818609E-02  0.8387993E-01
       -2   -1    0    0    0  501  0.00000000000E+00  0.00000000000E+00  0.70344495099E+03  0.70344495100E+03  0.25500000920E-02 0.  1.
        2   -1    0    0  501    0  0.00000000000E+00  0.00000000000E+00 -0.22974069145E+04  0.22974069145E+04  0.25500000920E-02 0. -1.
    10030    2    1    2    0    0  0.00000000000E+00  0.00000000000E+00 -0.15939619635E+04  0.30008518655E+04  0.25425178814E+04 0.  0.
        2    1    3    3  502    0  0.70907499224E+03 -0.10454640219E+04 -0.62874860965E+03  0.14110659729E+04  0.25500000920E-02 0.  1.
       -2    1    3    3    0  502 -0.70907499224E+03  0.10454640219E+04 -0.96521335383E+03  0.15897858926E+04  0.25500000920E-02 0. -1.
</event>
<event>
 5   0  0.6445331E-05  0.2125905E+04  0.7818609E-02  0.8549917E-01
       -2   -1    0    0    0  501  0.00000000000E+00  0.00000000000E+00  0.11843074742E+04  0.11843074742E+04  0.25500000920E-02 0.  1.
        2   -1    0    0  501    0  0.00000000000E+00  0.00000000000E+00 -0.95403264194E+03  0.95403264194E+03  0.25500000920E-02 0. -1.
    10030    2    1    2    0    0  0.00000000000E+00  0.00000000000E+00  0.23027483227E+03  0.21383401162E+04  0.21259049729E+04 0.  0.
        1    1    3    3  502    0  0.62532688277E+02 -0.22849034520E+03  0.11574176133E+04  0.11814117430E+04  0.50400001928E-02 0.  1.
       -1    1    3    3    0  502 -0.62532688277E+02  0.22849034520E+03 -0.92714278101E+03  0.95692837315E+03  0.50400001928E-02 0. -1.
</event>
<event>
 5   0  0.2793920E-05  0.2556456E+04  0.7818609E-02  0.8383144E-01
       -1   -1    0    0    0  501  0.00000000000E+00  0.00000000000E+00  0.10034823794E+04  0.10034823794E+04  0.50400001928E-02 0.  1.
        1   -1    0    0  501    0  0.00000000000E+00  0.00000000000E+00 -0.16281968540E+04  0.16281968540E+04  0.50400001928E-02 0. -1.
    10030    2    1    2    0    0  0.00000000000E+00  0.00000000000E+00 -0.62471447458E+03  0.26316792334E+04  0.25564560260E+04 0.  0.
        2    1    3    3  502    0 -0.29349427279E+03  0.12435371910E+04 -0.27462885916E+03  0.13068835617E+04  0.25500000920E-02 0. -1.
       -2    1    3    3    0  502  0.29349427279E+03 -0.12435371910E+04 -0.35008561542E+03  0.13247956717E+04  0.25500000920E-02 0.  1.
</event>
<event>
 5   0  0.6648328E-05  0.2483391E+04  0.7818609E-02  0.8408927E-01
       -2   -1    0    0    0  501  0.00000000000E+00  0.00000000000E+00  0.84647038011E+03  0.84647038012E+03  0.25500000920E-02 0.  1.
        2   -1    0    0  501    0  0.00000000000E+00  0.00000000000E+00 -0.18214547977E+04  0.18214547977E+04  0.25500000920E-02 0. -1.
    10030    2    1    2    0    0  0.00000000000E+00  0.00000000000E+00 -0.97498441760E+03  0.26679251778E+04  0.24833908552E+04 0.  0.
        2    1    3    3  502    0  0.99239790594E+03 -0.66738422793E+03 -0.12867961000E+03  0.12028357134E+04  0.25500000920E-02 0.  1.
       -2    1    3    3    0  502 -0.99239790594E+03  0.66738422793E+03 -0.84630480760E+03  0.14650894644E+04  0.25500000920E-02 0. -1.
</event>
<event>
 5   0  0.2777539E-05  0.2538678E+04  0.7818609E-02  0.8389335E-01
       -1   -1    0    0    0  501  0.00000000000E+00  0.00000000000E+00  0.12641599172E+04  0.12641599172E+04  0.50400001928E-02 0.  1.
        1   -1    0    0  501    0  0.00000000000E+00  0.00000000000E+00 -0.12745390568E+04  0.12745390568E+04  0.50400001928E-02 0. -1.
    10030    2    1    2    0    0  0.00000000000E+00  0.00000000000E+00 -0.10379139664E+02  0.25386989740E+04  0.25386777571E+04 0.  0.
        3    1    3    3  502    0 -0.14736708397E+03 -0.58797289456E+03  0.11100739803E+04  0.12647898774E+04  0.10100000352E+00 0.  1.
       -3    1    3    3    0  502  0.14736708397E+03  0.58797289456E+03 -0.11204531199E+04  0.12739090966E+04  0.10100000352E+00 0. -1.
</event>
<event>
 5   0  0.2896652E-05  0.2569549E+04  0.7818609E-02  0.8378619E-01
        1   -1    0    0  501    0  0.00000000000E+00  0.00000000000E+00  0.12663648162E+04  0.12663648162E+04  0.50400001928E-02 0.  1.
       -1   -1    0    0    0  501  0.00000000000E+00  0.00000000000E+00 -0.13034516225E+04  0.13034516225E+04  0.50400001928E-02 0. -1.
    10030    2    1    2    0    0  0.00000000000E+00  0.00000000000E+00 -0.37086806264E+02  0.25698164387E+04  0.25695488120E+04 0.  0.
        4    1    3    3  502    0 -0.80153488678E+03  0.94585575945E+03 -0.35553898455E+03  0.12897716367E+04  0.12699999809E+01 0. -1.
       -4    1    3    3    0  502  0.80153488678E+03 -0.94585575945E+03  0.31845217829E+03  0.12800448020E+04  0.12699999809E+01 0.  1.
</event>
<event>
 5   0  0.2793920E-05  0.1878778E+04  0.7818609E-02  0.8665492E-01
        1   -1    0    0  501    0  0.00000000000E+00  0.00000000000E+00  0.16129136320E+04  0.16129136320E+04  0.50400001928E-02 0.  1.
       -1   -1    0    0    0  501  0.00000000000E+00  0.00000000000E+00 -0.54711666061E+03  0.54711666063E+03  0.50400001928E-02 0. -1.
    10030    2    1    2    0    0  0.00000000000E+00  0.00000000000E+00  0.10657969714E+04  0.21600302927E+04  0.18787782416E+04 0.  0.
        2    1    3    3  502    0  0.36594466880E+02  0.79983193379E+03 -0.31955814502E+02  0.80130609095E+03  0.25500000920E-02 0. -1.
       -2    1    3    3    0  502 -0.36594466880E+02 -0.79983193379E+03  0.10977527859E+04  0.13587242017E+04  0.25500000920E-02 0.  1.
</event>
<event>
 5   0  0.2980790E-05  0.1662028E+04  0.7818609E-02  0.8783322E-01
        1   -1    0    0  501    0  0.00000000000E+00  0.00000000000E+00  0.51134832517E+03  0.51134832519E+03  0.50400001928E-02 0. -1.
       -1   -1    0    0    0  501  0.00000000000E+00  0.00000000000E+00 -0.13505170598E+04  0.13505170598E+04  0.50400001928E-02 0.  1.
    10030    2    1    2    0    0  0.00000000000E+00  0.00000000000E+00 -0.83916873460E+03  0.18618653850E+04  0.16620284434E+04 0.  0.
        5    1    3    3  502    0 -0.44743723158E+03 -0.50512866637E+03  0.12371025921E+03  0.68606221585E+03  0.46999998093E+01 0. -1.
       -5    1    3    3    0  502  0.44743723158E+03  0.50512866637E+03 -0.96287899381E+03  0.11758031691E+04  0.46999998093E+01 0.  1.
</event>
<event>
 5   0  0.6445331E-05  0.2471061E+04  0.7818609E-02  0.8413368E-01
       -2   -1    0    0    0  501  0.00000000000E+00  0.00000000000E+00  0.85698484983E+03  0.85698484984E+03  0.25500000920E-02 0.  1.
        2   -1    0    0  501    0  0.00000000000E+00  0.00000000000E+00 -0.17812863310E+04  0.17812863310E+04  0.25500000920E-02 0. -1.
    10030    2    1    2    0    0  0.00000000000E+00  0.00000000000E+00 -0.92430148117E+03  0.26382711808E+04  0.24710608239E+04 0.  0.
        1    1    3    3  502    0 -0.30792978828E+03 -0.10195109573E+04  0.20658082484E+03  0.10848497517E+04  0.50400001928E-02 0.  1.
       -1    1    3    3    0  502  0.30792978828E+03  0.10195109573E+04 -0.11308823060E+04  0.15534214292E+04  0.50400001928E-02 0. -1.
</event>
<event>
 5   0  0.6909250E-05  0.2461034E+04  0.7818609E-02  0.8417000E-01
       -2   -1    0    0    0  501  0.00000000000E+00  0.00000000000E+00  0.60700929682E+03  0.60700929683E+03  0.25500000920E-02 0. -1.
        2   -1    0    0  501    0  0.00000000000E+00  0.00000000000E+00 -0.24944796232E+04  0.24944796232E+04  0.25500000920E-02 0.  1.
    10030    2    1    2    0    0  0.00000000000E+00  0.00000000000E+00 -0.18874703263E+04  0.31014889200E+04  0.24610341907E+04 0.  0.
        4    1    3    3  502    0 -0.30057360047E+03 -0.25759930624E+03 -0.24120443556E+04  0.24443120664E+04  0.12699999809E+01 0.  1.
       -4    1    3    3    0  502  0.30057360047E+03  0.25759930624E+03  0.52457402921E+03  0.65717685359E+03  0.12699999809E+01 0. -1.
</event>
<event>
 5   0  0.6827859E-05  0.2520306E+04  0.7818609E-02  0.8395787E-01
       -2   -1    0    0    0  501  0.00000000000E+00  0.00000000000E+00  0.12434884364E+04  0.12434884364E+04  0.25500000920E-02 0.  1.
        2   -1    0    0  501    0  0.00000000000E+00  0.00000000000E+00 -0.12770413274E+04  0.12770413274E+04  0.25500000920E-02 0. -1.
    10030    2    1    2    0    0  0.00000000000E+00  0.00000000000E+00 -0.33552890984E+02  0.25205297638E+04  0.25203064285E+04 0.  0.
        3    1    3    3  502    0  0.11796443859E+04 -0.31640147515E+03  0.29359818793E+03  0.12561332242E+04  0.10100000352E+00 0.  1.
       -3    1    3    3    0  502 -0.11796443859E+04  0.31640147515E+03 -0.32715107892E+03  0.12643965396E+04  0.10100000352E+00 0. -1.
</event>
<event>
 5   0  0.2793920E-05  0.2501341E+04  0.7818609E-02  0.8402508E-01
        1   -1    0    0  501    0  0.00000000000E+00  0.00000000000E+00  0.23122584060E+04  0.23122584060E+04  0.50400001928E-02 0.  1.
       -1   -1    0    0    0  501  0.00000000000E+00  0.00000000000E+00 -0.67647157389E+03  0.67647157391E+03  0.50400001928E-02 0. -1.
    10030    2    1    2    0    0  0.00000000000E+00  0.00000000000E+00  0.16357868321E+04  0.29887299799E+04  0.25013413067E+04 0.  0.
        2    1    3    3  502    0  0.10013484285E+04  0.28791088680E+03 -0.87031507881E+01  0.10419535013E+04  0.25500000920E-02 0. -1.
       -2    1    3    3    0  502 -0.10013484285E+04 -0.28791088680E+03  0.16444899829E+04  0.19467764786E+04  0.25500000920E-02 0.  1.
</event>
<event>
 5   0  0.2793920E-05  0.2481966E+04  0.7818609E-02  0.8409439E-01
        1   -1    0    0  501    0  0.00000000000E+00  0.00000000000E+00  0.19673532913E+04  0.19673532913E+04  0.50400001928E-02 0. -1.
       -1   -1    0    0    0  501  0.00000000000E+00  0.00000000000E+00 -0.78279708359E+03  0.78279708360E+03  0.50400001928E-02 0.  1.
    10030    2    1    2    0    0  0.00000000000E+00  0.00000000000E+00  0.11845562077E+04  0.27501503749E+04  0.24819656878E+04 0.  0.
        2    1    3    3  502    0  0.75325675137E+03 -0.58492697013E+03  0.14721192937E+04  0.17540440441E+04  0.25500000920E-02 0. -1.
       -2    1    3    3    0  502 -0.75325675137E+03  0.58492697013E+03 -0.28756308595E+03  0.99610633081E+03  0.25500000920E-02 0.  1.
</event>
<event>
 5   0  0.2331375E-05  0.2390666E+04  0.7818609E-02  0.8443006E-01
       -3   -1    0    0    0  501  0.00000000000E+00  0.00000000000E+00  0.18326689635E+04  0.18326689663E+04  0.10100000352E+00 0. -1.
        3   -1    0    0  501    0  0.00000000000E+00  0.00000000000E+00 -0.77963924302E+03  0.77963924956E+03  0.10100000352E+00 0.  1.
    10030    2    1    2    0    0  0.00000000000E+00  0.00000000000E+00  0.10530297205E+04  0.26123082158E+04  0.23906657279E+04 0.  0.
        3    1    3    3  502    0  0.97355543265E+03  0.61342562800E+03  0.88012056727E+03  0.14486936890E+04  0.10100000352E+00 0. -1.
       -3    1    3    3    0  502 -0.97355543265E+03 -0.61342562800E+03  0.17290915320E+03  0.11636145268E+04  0.10100000352E+00 0.  1.
</event>
<event>
 5   0  0.2331375E-05  0.2415185E+04  0.7818609E-02  0.8433840E-01
       -3   -1    0    0    0  501  0.00000000000E+00  0.00000000000E+00  0.80174673861E+03  0.80174674497E+03  0.10100000352E+00 0.  1.
        3   -1    0    0  501    0  0.00000000000E+00  0.00000000000E+00 -0.18188776153E+04  0.18188776181E+04  0.10100000352E+00 0. -1.
    10030    2    1    2    0    0  0.00000000000E+00  0.00000000000E+00 -0.10171308767E+04  0.26206243631E+04  0.24151846372E+04 0.  0.
        4    1    3    3  502    0 -0.33104408213E+03  0.49846582755E+03  0.62957027788E+03  0.86857280250E+03  0.12699999809E+01 0.  1.
       -4    1    3    3    0  502  0.33104408213E+03 -0.49846582755E+03 -0.16467011546E+04  0.17520515606E+04  0.12699999809E+01 0. -1.
</event>
<event>
 5   0  0.2896652E-05  0.2530096E+04  0.7818609E-02  0.8392341E-01
        1   -1    0    0  501    0  0.00000000000E+00  0.00000000000E+00  0.20868720782E+04  0.20868720783E+04  0.50400001928E-02 0.  1.
       -1   -1    0    0    0  501  0.00000000000E+00  0.00000000000E+00 -0.76686399996E+03  0.76686399997E+03  0.50400001928E-02 0. -1.
    10030    2    1    2    0    0  0.00000000000E+00  0.00000000000E+00  0.13200080783E+04  0.28537360782E+04  0.25300964957E+04 0.  0.
        4    1    3    3  502    0  0.93888137619E+03 -0.35717546021E+03 -0.20729868603E+03  0.10256933782E+04  0.12699999809E+01 0. -1.
       -4    1    3    3    0  502 -0.93888137619E+03  0.35717546021E+03  0.15273067643E+04  0.18280427000E+04  0.12699999809E+01 0.  1.
</event>
<event>
 5   0  0.2977854E-05  0.2518558E+04  0.7818609E-02  0.8396404E-01
        1   -1    0    0  501    0  0.00000000000E+00  0.00000000000E+00  0.70474838176E+03  0.70474838178E+03  0.50400001928E-02 0. -1.
       -1   -1    0    0    0  501  0.00000000000E+00  0.00000000000E+00 -0.22501411744E+04  0.22501411745E+04  0.50400001928E-02 0.  1.
    10030    2    1    2    0    0  0.00000000000E+00  0.00000000000E+00 -0.15453927927E+04  0.29548895562E+04  0.25185578028E+04 0.  0.
        1    1    3    3  502    0  0.19993157665E+03 -0.24226510997E+03  0.65804813336E+03  0.72917238339E+03  0.50400001928E-02 0. -1.
       -1    1    3    3    0  502 -0.19993157665E+03  0.24226510997E+03 -0.22034409261E+04  0.22257171728E+04  0.50400001928E-02 0.  1.
</event>
<event>
 5   0  0.6909250E-05  0.2529188E+04  0.7818609E-02  0.8392660E-01
       -2   -1    0    0    0  501  0.00000000000E+00  0.00000000000E+00  0.14240100910E+04  0.14240100910E+04  0.25500000920E-02 0. -1.
        2   -1    0    0  501    0  0.00000000000E+00  0.00000000000E+00 -0.11230240656E+04  0.11230240656E+04  0.25500000920E-02 0.  1.
    10030    2    1    2    0    0  0.00000000000E+00  0.00000000000E+00  0.30098602540E+03  0.25470341565E+04  0.25291876971E+04 0.  0.
        4    1    3    3  502    0  0.26310974160E+03  0.56561982919E+03 -0.95728870404E+03  0.11426092084E+04  0.12699999809E+01 0.  1.
       -4    1    3    3    0  502 -0.26310974160E+03 -0.56561982919E+03  0.12582747294E+04  0.14044249481E+04  0.12699999809E+01 0. -1.
</event>
<event>
 5   0  0.7071821E-05  0.2437396E+04  0.7818609E-02  0.8425634E-01
       -2   -1    0    0    0  501  0.00000000000E+00  0.00000000000E+00  0.80056703175E+03  0.80056703176E+03  0.25500000920E-02 0.  1.
        2   -1    0    0  501    0  0.00000000000E+00  0.00000000000E+00 -0.18552162882E+04  0.18552162882E+04  0.25500000920E-02 0. -1.
    10030    2    1    2    0    0  0.00000000000E+00  0.00000000000E+00 -0.10546492565E+04  0.26557833200E+04  0.24373961493E+04 0.  0.
        5    1    3    3  502    0 -0.24839193821E+03  0.73205597373E+03 -0.15538620229E+04  0.17355442316E+04  0.46999998093E+01 0. -1.
       -5    1    3    3    0  502  0.24839193821E+03 -0.73205597373E+03  0.49921276642E+03  0.92023908839E+03  0.46999998093E+01 0.  1.
</event>
<event>
 5   0  0.2980790E-05  0.1444409E+04  0.7818609E-02  0.8922286E-01
        1   -1    0    0  501    0  0.00000000000E+00  0.00000000000E+00  0.69945864640E+03  0.69945864641E+03  0.50400001928E-02 0. -1.
       -1   -1    0    0    0  501  0.00000000000E+00  0.00000000000E+00 -0.74569046226E+03  0.74569046227E+03  0.50400001928E-02 0.  1.
    10030    2    1    2    0    0  0.00000000000E+00  0.00000000000E+00 -0.46231815860E+02  0.14451491087E+04  0.14444094176E+04 0.  0.
        5    1    3    3  502    0  0.30012295193E+03  0.61180918453E+03  0.21611590315E+03  0.71492128108E+03  0.46999998093E+01 0. -1.
       -5    1    3    3    0  502 -0.30012295193E+03 -0.61180918453E+03 -0.26234771901E+03  0.73022782761E+03  0.46999998093E+01 0.  1.
</event>
<event>
 5   0  0.6445331E-05  0.2521168E+04  0.7818609E-02  0.8395483E-01
        2   -1    0    0  501    0  0.00000000000E+00  0.00000000000E+00  0.12714517550E+04  0.12714517550E+04  0.25500000920E-02 0.  1.
       -2   -1    0    0    0  501  0.00000000000E+00  0.00000000000E+00 -0.12498095749E+04  0.12498095749E+04  0.25500000920E-02 0. -1.
    10030    2    1    2    0    0  0.00000000000E+00  0.00000000000E+00  0.21642180108E+02  0.25212613300E+04  0.25211684414E+04 0.  0.
        1    1    3    3  502    0  0.22742124263E+03 -0.50501574128E+03  0.11432546414E+04  0.12703513276E+04  0.50400001928E-02 0.  1.
       -1    1    3    3    0  502 -0.22742124263E+03  0.50501574128E+03 -0.11216124613E+04  0.12509100023E+04  0.50400001928E-02 0. -1.
</event>
<event>
 5   0  0.6648328E-05  0.2668370E+04  0.7818609E-02  0.8345341E-01
       -2   -1    0    0    0  501  0.00000000000E+00  0.00000000000E+00  0.95051957859E+03  0.95051957860E+03  0.25500000920E-02 0.  1.
        2   -1    0    0  501    0  0.00000000000E+00  0.00000000000E+00 -0.18727127179E+04  0.18727127179E+04  0.25500000920E-02 0. -1.
    10030    2    1    2    0    0  0.00000000000E+00  0.00000000000E+00 -0.92219313932E+03  0.28232322965E+04  0.26683703667E+04 0.  0.
        2    1    3    3  502    0  0.17793575467E+03 -0.52266329354E+02 -0.18590090645E+04  0.18682364957E+04  0.25500000920E-02 0. -1.
       -2    1    3    3    0  502 -0.17793575467E+03  0.52266329354E+02  0.93681592516E+03  0.95499580083E+03  0.25500000920E-02 0.  1.
</event>
<event>
 5   0  0.6648328E-05  0.1486131E+04  0.7818609E-02  0.8893728E-01
        2   -1    0    0  501    0  0.00000000000E+00  0.00000000000E+00  0.13197142039E+04  0.13197142039E+04  0.25500000920E-02 0. -1.
       -2   -1    0    0    0  501  0.00000000000E+00  0.00000000000E+00 -0.41838334033E+03  0.41838334034E+03  0.25500000920E-02 0.  1.
    10030    2    1    2    0    0  0.00000000000E+00  0.00000000000E+00  0.90133086361E+03  0.17380975443E+04  0.14861311341E+04 0.  0.
        2    1    3    3  502    0 -0.23841609437E+03  0.39999617200E+03 -0.22656816544E+03  0.51785355581E+03  0.25500000920E-02 0.  1.
       -2    1    3    3    0  502  0.23841609437E+03 -0.39999617200E+03  0.11278990290E+04  0.12202439885E+04  0.25500000920E-02 0. -1.
</event>
<event>
 5   0  0.2896652E-05  0.2453872E+04  0.7818609E-02  0.8419606E-01
       -1   -1    0    0    0  501  0.00000000000E+00  0.00000000000E+00  0.74765507436E+03  0.74765507438E+03  0.50400001928E-02 0.  1.
        1   -1    0    0  501    0  0.00000000000E+00  0.00000000000E+00 -0.20134581333E+04  0.20134581333E+04  0.50400001928E-02 0. -1.
    10030    2    1    2    0    0  0.00000000000E+00  0.00000000000E+00 -0.12658030590E+04  0.27611132077E+04  0.24538721975E+04 0.  0.
        4    1    3    3  502    0  0.61463130472E+03 -0.26777567455E+03  0.52332429638E+03  0.85049713974E+03  0.12699999809E+01 0.  1.
       -4    1    3    3    0  502 -0.61463130472E+03  0.26777567455E+03 -0.17891273554E+04  0.19106160680E+04  0.12699999809E+01 0. -1.
</event>
<event>
 5   0  0.2977854E-05  0.2565719E+04  0.7818609E-02  0.8379940E-01
        1   -1    0    0  501    0  0.00000000000E+00  0.00000000000E+00  0.12035900419E+04  0.12035900420E+04  0.50400001928E-02 0.  1.
       -1   -1    0    0    0  501  0.00000000000E+00  0.00000000000E+00 -0.13673499821E+04  0.13673499821E+04  0.50400001928E-02 0. -1.
    10030    2    1    2    0    0  0.00000000000E+00  0.00000000000E+00 -0.16375994014E+03  0.25709400241E+04  0.25657192538E+04 0.  0.
        1    1    3    3  502    0  0.10707300768E+04  0.70548694242E+03 -0.42377690287E+02  0.12829538542E+04  0.50400001928E-02 0. -1.
       -1    1    3    3    0  502 -0.10707300768E+04 -0.70548694242E+03 -0.12138224986E+03  0.12879861699E+04  0.50400001928E-02 0.  1.
</event>
<event>
 5   0  0.7071821E-05  0.2506301E+04  0.7818609E-02  0.8400744E-01
       -2   -1    0    0    0  501  0.00000000000E+00  0.00000000000E+00  0.12414748258E+04  0.12414748258E+04  0.25500000920E-02 0.  1.
        2   -1    0    0  501    0  0.00000000000E+00  0.00000000000E+00 -0.12649362500E+04  0.12649362500E+04  0.25500000920E-02 0. -1.
    10030    2    1    2    0    0  0.00000000000E+00  0.00000000000E+00 -0.23461424187E+02  0.25064110759E+04  0.25063012674E+04 0.  0.
        5    1    3    3  502    0 -0.78350362911E+03  0.42151841221E+02  0.96540457297E+03  0.12440589994E+04  0.46999998093E+01 0.  1.
       -5    1    3    3    0  502  0.78350362911E+03 -0.42151841221E+02 -0.98886599716E+03  0.12623520764E+04  0.46999998093E+01 0. -1.
</event>
<event>
 5   0  0.2980790E-05  0.2496739E+04  0.7818609E-02  0.8404148E-01
       -1   -1    0    0    0  501  0.00000000000E+00  0.00000000000E+00  0.12535399579E+04  0.12535399579E+04  0.50400001928E-02 0.  1.
        1   -1    0    0  501    0  0.00000000000E+00  0.00000000000E+00 -0.12432208282E+04  0.12432208282E+04  0.50400001928E-02 0. -1.
    10030    2    1    2    0    0  0.00000000000E+00  0.00000000000E+00  0.10319129752E+02  0.24967607861E+04  0.24967394615E+04 0.  0.
        5    1    3    3  502    0 -0.96508350603E+01 -0.29687989812E+03 -0.12073581445E+04  0.12433690489E+04  0.46999998093E+01 0. -1.
       -5    1    3    3    0  502  0.96508350603E+01  0.29687989812E+03  0.12176772743E+04  0.12533917372E+04  0.46999998093E+01 0.  1.
</event>
<event>
 5   0  0.6648328E-05  0.1260046E+04  0.7818609E-02  0.9061863E-01
        2   -1    0    0  501    0  0.00000000000E+00  0.00000000000E+00  0.13169582207E+04  0.13169582207E+04  0.25500000920E-02 0. -1.
       -2   -1    0    0    0  501  0.00000000000E+00  0.00000000000E+00 -0.30139819294E+03  0.30139819295E+03  0.25500000920E-02 0.  1.
    10030    2    1    2    0    0  0.00000000000E+00  0.00000000000E+00  0.10155600277E+04  0.16183564136E+04  0.12600457577E+04 0.  0.
        2    1    3    3  502    0 -0.25563254706E+03 -0.86045269893E+02  0.12390520785E+04  0.12680701245E+04  0.25500000920E-02 0. -1.
       -2    1    3    3    0  502  0.25563254706E+03  0.86045269893E+02 -0.22349205073E+03  0.35028628910E+03  0.25500000920E-02 0.  1.
</event>
<event>
 5   0  0.6909250E-05  0.1433034E+04  0.7818609E-02  0.8930248E-01
        2   -1    0    0  501    0  0.00000000000E+00  0.00000000000E+00  0.21538832304E+04  0.21538832304E+04  0.25500000920E-02 0.  1.
       -2   -1    0    0    0  501  0.00000000000E+00  0.00000000000E+00 -0.23835861301E+03  0.23835861302E+03  0.25500000920E-02 0. -1.
    10030    2    1    2    0    0  0.00000000000E+00  0.00000000000E+00  0.19155246174E+04  0.23922418434E+04  0.14330340113E+04 0.  0.
        4    1    3    3  502    0 -0.13071317193E+03  0.61600319112E+03  0.15284011746E+04  0.16530449565E+04  0.12699999809E+01 0.  1.
       -4    1    3    3    0  502  0.13071317193E+03 -0.61600319112E+03  0.38712344279E+03  0.73919688692E+03  0.12699999809E+01 0. -1.
</event>
<event>
 5   0  0.2896652E-05  0.1590368E+04  0.7818609E-02  0.8826487E-01
        1   -1    0    0  501    0  0.00000000000E+00  0.00000000000E+00  0.48572313884E+03  0.48572313886E+03  0.50400001928E-02 0. -1.
       -1   -1    0    0    0  501  0.00000000000E+00  0.00000000000E+00 -0.13018069587E+04  0.13018069587E+04  0.50400001928E-02 0.  1.
    10030    2    1    2    0    0  0.00000000000E+00  0.00000000000E+00 -0.81608381988E+03  0.17875300976E+04  0.15903682117E+04 0.  0.
        4    1    3    3  502    0  0.55134202751E+03  0.20855629262E+03  0.19182925671E+03  0.61989824578E+03  0.12699999809E+01 0. -1.
       -4    1    3    3    0  502 -0.55134202751E+03 -0.20855629262E+03 -0.10079130766E+04  0.11676318518E+04  0.12699999809E+01 0.  1.
</event>
<event>
 5   0  0.7071821E-05  0.2365218E+04  0.7818609E-02  0.8452641E-01
        2   -1    0    0  501    0  0.00000000000E+00  0.00000000000E+00  0.20291988223E+04  0.20291988223E+04  0.25500000920E-02 0. -1.
       -2   -1    0    0    0  501  0.00000000000E+00  0.00000000000E+00 -0.68921979456E+03  0.68921979457E+03  0.25500000920E-02 0.  1.
    10030    2    1    2    0    0  0.00000000000E+00  0.00000000000E+00  0.13399790277E+04  0.27184186169E+04  0.23652179565E+04 0.  0.
        5    1    3    3  502    0 -0.12088597153E+03  0.10191676147E+04  0.13452896366E+04  0.16920822502E+04  0.46999998093E+01 0. -1.
       -5    1    3    3    0  502  0.12088597153E+03 -0.10191676147E+04 -0.53106088573E+01  0.10263363667E+04  0.46999998093E+01 0.  1.
</event>
<event>
 5   0  0.6827859E-05  0.2520118E+04  0.7818609E-02  0.8395853E-01
        2   -1    0    0  501    0  0.00000000000E+00  0.00000000000E+00  0.20682283206E+04  0.20682283206E+04  0.25500000920E-02 0. -1.
       -2   -1    0    0    0  501  0.00000000000E+00  0.00000000000E+00 -0.76768566390E+03  0.76768566391E+03  0.25500000920E-02 0.  1.
    10030    2    1    2    0    0  0.00000000000E+00  0.00000000000E+00  0.13005426567E+04  0.28359139845E+04  0.25201184348E+04 0.  0.
        3    1    3    3  502    0 -0.15977319256E+03  0.46922400678E+03 -0.65336527175E+03  0.82011269355E+03  0.10100000352E+00 0.  1.
       -3    1    3    3    0  502  0.15977319256E+03 -0.46922400678E+03  0.19539079284E+04  0.20158012910E+04  0.10100000352E+00 0. -1.
</event>
<event>
 5   0  0.6909250E-05  0.2537711E+04  0.7818609E-02  0.8389673E-01
        2   -1    0    0  501    0  0.00000000000E+00  0.00000000000E+00  0.13881355678E+04  0.13881355678E+04  0.25500000920E-02 0.  1.
       -2   -1    0    0    0  501  0.00000000000E+00  0.00000000000E+00 -0.11598247010E+04  0.11598247010E+04  0.25500000920E-02 0. -1.
    10030    2    1    2    0    0  0.00000000000E+00  0.00000000000E+00  0.22831086686E+03  0.25479602688E+04  0.25377107162E+04 0.  0.
        4    1    3    3  502    0 -0.28104683454E+03 -0.10569996733E+04  0.75999261505E+03  0.13318505999E+04  0.12699999809E+01 0.  1.
       -4    1    3    3    0  502  0.28104683454E+03  0.10569996733E+04 -0.53168174818E+03  0.12161096689E+04  0.12699999809E+01 0. -1.
</event>
<event>
 5   0  0.2793920E-05  0.2527840E+04  0.7818609E-02  0.8393134E-01
        1   -1    0    0  501    0  0.00000000000E+00  0.00000000000E+00  0.21551812045E+04  0.21551812045E+04  0.50400001928E-02 0.  1.
       -1   -1    0    0    0  501  0.00000000000E+00  0.00000000000E+00 -0.74123409153E+03  0.74123409154E+03  0.50400001928E-02 0. -1.
    10030    2    1    2    0    0  0.00000000000E+00  0.00000000000E+00  0.14139471130E+04  0.28964152960E+04  0.25278400125E+04 0.  0.
        2    1    3    3  502    0  0.80845573013E+03 -0.54789940079E+03  0.16262640891E+04  0.18969789953E+04  0.25500000920E-02 0.  1.
       -2    1    3    3    0  502 -0.80845573013E+03  0.54789940079E+03 -0.21231697613E+03  0.99943630078E+03  0.25500000920E-02 0. -1.
</event>
<event>
 5   0  0.6827859E-05  0.2500299E+04  0.7818609E-02  0.8402879E-01
       -2   -1    0    0    0  501  0.00000000000E+00  0.00000000000E+00  0.78915290983E+03  0.78915290984E+03  0.25500000920E-02 0.  1.
        2   -1    0    0  501    0  0.00000000000E+00  0.00000000000E+00 -0.19804445393E+04  0.19804445393E+04  0.25500000920E-02 0. -1.
    10030    2    1    2    0    0  0.00000000000E+00  0.00000000000E+00 -0.11912916295E+04  0.27695974492E+04  0.25002988389E+04 0.  0.
        3    1    3    3  502    0 -0.81084948639E+03 -0.47422669912E+03 -0.15094236465E+04  0.17778435270E+04  0.10100000352E+00 0. -1.
       -3    1    3    3    0  502  0.81084948639E+03  0.47422669912E+03  0.31813201697E+03  0.99175392218E+03  0.10100000352E+00 0.  1.
</event>
<event>
 5   0  0.2980790E-05  0.2616334E+04  0.7818609E-02  0.8362674E-01
        1   -1    0    0  501    0  0.00000000000E+00  0.00000000000E+00  0.32981516339E+04  0.32981516339E+04  0.50400001928E-02 0.  1.
       -1   -1    0    0    0  501  0.00000000000E+00  0.00000000000E+00 -0.51886655092E+03  0.51886655094E+03  0.50400001928E-02 0. -1.
    10030    2    1    2    0    0  0.00000000000E+00  0.00000000000E+00  0.27792850830E+04  0.38170181848E+04  0.26163337423E+04 0.  0.
        5    1    3    3  502    0  0.44195595822E+03 -0.72452453138E+03  0.28419941566E+04  0.29660097339E+04  0.46999998093E+01 0.  1.
       -5    1    3    3    0  502 -0.44195595822E+03  0.72452453138E+03 -0.62709073645E+02  0.85100845089E+03  0.46999998093E+01 0. -1.
</event>
<event>
 5   0  0.6909250E-05  0.2498746E+04  0.7818609E-02  0.8403432E-01
       -2   -1    0    0    0  501  0.00000000000E+00  0.00000000000E+00  0.10752386859E+04  0.10752386859E+04  0.25500000920E-02 0. -1.
        2   -1    0    0  501    0  0.00000000000E+00  0.00000000000E+00 -0.14517079973E+04  0.14517079973E+04  0.25500000920E-02 0.  1.
    10030    2    1    2    0    0  0.00000000000E+00  0.00000000000E+00 -0.37646931141E+03  0.25269466832E+04  0.24987457648E+04 0.  0.
        4    1    3    3  502    0 -0.44820090015E+03  0.36938610325E+03 -0.13068837929E+04  0.14301318126E+04  0.12699999809E+01 0.  1.
       -4    1    3    3    0  502  0.44820090015E+03 -0.36938610325E+03  0.93041448151E+03  0.10968148707E+04  0.12699999809E+01 0. -1.
</event>
<event>
 5   0  0.2977854E-05  0.2519385E+04  0.7818609E-02  0.8396112E-01
       -1   -1    0    0    0  501  0.00000000000E+00  0.00000000000E+00  0.99918378094E+03  0.99918378095E+03  0.50400001928E-02 0.  1.
        1   -1    0    0  501    0  0.00000000000E+00  0.00000000000E+00 -0.15881218513E+04  0.15881218513E+04  0.50400001928E-02 0. -1.
    10030    2    1    2    0    0  0.00000000000E+00  0.00000000000E+00 -0.58893807036E+03  0.25873056323E+04  0.25193853187E+04 0.  0.
        1    1    3    3  502    0 -0.45417175292E+03 -0.38688534564E+03  0.84488795988E+03  0.10343055238E+04  0.50400001928E-02 0.  1.
       -1    1    3    3    0  502  0.45417175292E+03  0.38688534564E+03 -0.14338260302E+04  0.15530001084E+04  0.50400001928E-02 0. -1.
</event>
<event>
 5   0  0.7071821E-05  0.2456286E+04  0.7818609E-02  0.8418727E-01
        2   -1    0    0  501    0  0.00000000000E+00  0.00000000000E+00  0.14358748067E+04  0.14358748067E+04  0.25500000920E-02 0.  1.
       -2   -1    0    0    0  501  0.00000000000E+00  0.00000000000E+00 -0.10504639447E+04  0.10504639447E+04  0.25500000920E-02 0. -1.
    10030    2    1    2    0    0  0.00000000000E+00  0.00000000000E+00  0.38541086199E+03  0.24863387514E+04  0.24562855808E+04 0.  0.
        5    1    3    3  502    0 -0.10649695565E+03  0.66067704297E+03  0.12350997593E+04  0.14047523846E+04  0.46999998093E+01 0.  1.
       -5    1    3    3    0  502  0.10649695565E+03 -0.66067704297E+03 -0.84968889732E+03  0.10815863668E+04  0.46999998093E+01 0. -1.
</event>
<event>
 5   0  0.2980790E-05  0.2686272E+04  0.7818609E-02  0.8339473E-01
       -1   -1    0    0    0  501  0.00000000000E+00  0.00000000000E+00  0.10338439307E+04  0.10338439307E+04  0.50400001928E-02 0.  1.
        1   -1    0    0  501    0  0.00000000000E+00  0.00000000000E+00 -0.17449584730E+04  0.17449584731E+04  0.50400001928E-02 0. -1.
    10030    2    1    2    0    0  0.00000000000E+00  0.00000000000E+00 -0.71111454231E+03  0.27788024038E+04  0.26862723069E+04 0.  0.
        5    1    3    3  502    0 -0.77952652231E+03 -0.35730740692E+02  0.77528350461E+03  0.11000113124E+04  0.46999998093E+01 0.  1.
       -5    1    3    3    0  502  0.77952652231E+03  0.35730740692E+02 -0.14863980469E+04  0.16787910914E+04  0.46999998093E+01 0. -1.
</event>
<event>
 5   0  0.2980790E-05  0.2535060E+04  0.7818609E-02  0.8390601E-01
       -1   -1    0    0    0  501  0.00000000000E+00  0.00000000000E+00  0.69038507902E+03  0.69038507903E+03  0.50400001928E-02 0.  1.
        1   -1    0    0  501    0  0.00000000000E+00  0.00000000000E+00 -0.23271541796E+04  0.23271541796E+04  0.50400001928E-02 0. -1.
    10030    2    1    2    0    0  0.00000000000E+00  0.00000000000E+00 -0.16367691006E+04  0.30175392587E+04  0.25350601746E+04 0.  0.
        5    1    3    3  502    0 -0.12254581622E+04  0.12790282792E+03 -0.46426891374E+03  0.13166907590E+04  0.46999998093E+01 0. -1.
       -5    1    3    3    0  502  0.12254581622E+04 -0.12790282792E+03 -0.11725001869E+04  0.17008484997E+04  0.46999998093E+01 0.  1.
</event>
<event>
 5   0  0.7071821E-05  0.2355628E+04  0.7818609E-02  0.8456305E-01
        2   -1    0    0  501    0  0.00000000000E+00  0.00000000000E+00  0.19204110053E+04  0.19204110053E+04  0.25500000920E-02 0.  1.
       -2   -1    0    0    0  501  0.00000000000E+00  0.00000000000E+00 -0.72236919197E+03  0.72236919197E+03  0.25500000920E-02 0. -1.
    10030    2    1    2    0    0  0.00000000000E+00  0.00000000000E+00  0.11980418133E+04  0.26427801973E+04  0.23556279385E+04 0.  0.
        5    1    3    3  502    0  0.62209845643E+03 -0.69197884426E+03 -0.21106774792E+03  0.95415559245E+03  0.46999998093E+01 0. -1.
       -5    1    3    3    0  502 -0.62209845643E+03  0.69197884426E+03  0.14091095612E+04  0.16886246048E+04  0.46999998093E+01 0.  1.
</event>
<event>
 5   0  0.2896652E-05  0.1872756E+04  0.7818609E-02  0.8668537E-01
       -1   -1    0    0    0  501  0.00000000000E+00  0.00000000000E+00  0.12998420159E+04  0.12998420159E+04  0.50400001928E-02 0.  1.
        1   -1    0    0  501    0  0.00000000000E+00  0.00000000000E+00 -0.67454673518E+03  0.67454673519E+03  0.50400001928E-02 0. -1.
    10030    2    1    2    0    0  0.00000000000E+00  0.00000000000E+00  0.62529528076E+03  0.19743887511E+04  0.18727564584E+04 0.  0.
        4    1    3    3  502    0 -0.63055206456E+03  0.19657850922E+03 -0.38712289228E+03  0.76557479258E+03  0.12699999809E+01 0. -1.
       -4    1    3    3    0  502  0.63055206456E+03 -0.19657850922E+03  0.10124181730E+04  0.12088139586E+04  0.12699999809E+01 0.  1.
</event>
<event>
 5   0  0.2896652E-05  0.2511862E+04  0.7818609E-02  0.8398772E-01
        1   -1    0    0  501    0  0.00000000000E+00  0.00000000000E+00  0.90587293427E+03  0.90587293429E+03  0.50400001928E-02 0.  1.
       -1   -1    0    0    0  501  0.00000000000E+00  0.00000000000E+00 -0.17412626071E+04  0.17412626071E+04  0.50400001928E-02 0. -1.
    10030    2    1    2    0    0  0.00000000000E+00  0.00000000000E+00 -0.83538967283E+03  0.26471355414E+04  0.25118619924E+04 0.  0.
        4    1    3    3  502    0  0.97555102067E+03 -0.46976032361E+03  0.25296249589E+03  0.11119200478E+04  0.12699999809E+01 0.  1.
       -4    1    3    3    0  502 -0.97555102067E+03  0.46976032361E+03 -0.10883521687E+04  0.15352154936E+04  0.12699999809E+01 0. -1.
</event>
<event>
 5   0  0.2980790E-05  0.2639547E+04  0.7818609E-02  0.8354891E-01
        1   -1    0    0  501    0  0.00000000000E+00  0.00000000000E+00  0.15983315928E+04  0.15983315928E+04  0.50400001928E-02 0. -1.
       -1   -1    0    0    0  501  0.00000000000E+00  0.00000000000E+00 -0.10897626757E+04  0.10897626757E+04  0.50400001928E-02 0.  1.
    10030    2    1    2    0    0  0.00000000000E+00  0.00000000000E+00  0.50856891716E+03  0.26880942685E+04  0.26395470166E+04 0.  0.
        5    1    3    3  502    0  0.85658822681E+03  0.90029084098E+03 -0.19831389881E+03  0.12584186430E+04  0.46999998093E+01 0.  1.
       -5    1    3    3    0  502 -0.85658822681E+03 -0.90029084098E+03  0.70688281597E+03  0.14296756255E+04  0.46999998093E+01 0. -1.
</event>
<event>
 5   0  0.2896652E-05  0.2508157E+04  0.7818609E-02  0.8400085E-01
       -1   -1    0    0    0  501  0.00000000000E+00  0.00000000000E+00  0.88553278737E+03  0.88553278738E+03  0.50400001928E-02 0. -1.
        1   -1    0    0  501    0  0.00000000000E+00  0.00000000000E+00 -0.17760068799E+04  0.17760068799E+04  0.50400001928E-02 0.  1.
    10030    2    1    2    0    0  0.00000000000E+00  0.00000000000E+00 -0.89047409249E+03  0.26615396672E+04  0.25081565523E+04 0.  0.
        4    1    3    3  502    0  0.57587578818E+03 -0.30645632580E+03 -0.15817927794E+04  0.17110284664E+04  0.12699999809E+01 0.  1.
       -4    1    3    3    0  502 -0.57587578818E+03  0.30645632580E+03  0.69131868694E+03  0.95051120080E+03  0.12699999809E+01 0. -1.
</event>
<event>
 5   0  0.2896652E-05  0.2496035E+04  0.7818609E-02  0.8404399E-01
       -1   -1    0    0    0  501  0.00000000000E+00  0.00000000000E+00  0.11515723490E+04  0.11515723490E+04  0.50400001928E-02 0.  1.
        1   -1    0    0  501    0  0.00000000000E+00  0.00000000000E+00 -0.13525400593E+04  0.13525400594E+04  0.50400001928E-02 0. -1.
    10030    2    1    2    0    0  0.00000000000E+00  0.00000000000E+00 -0.20096771036E+03  0.25041124083E+04  0.24960350424E+04 0.  0.
        4    1    3    3  502    0  0.91076906623E+02 -0.29598922382E+02  0.11478800994E+04  0.11518686707E+04  0.12699999809E+01 0.  1.
       -4    1    3    3    0  502 -0.91076906623E+02  0.29598922382E+02 -0.13488478098E+04  0.13522437376E+04  0.12699999809E+01 0. -1.
</event>
<event>
 5   0  0.2896652E-05  0.2479232E+04  0.7818609E-02  0.8410422E-01
       -1   -1    0    0    0  501  0.00000000000E+00  0.00000000000E+00  0.71474430405E+03  0.71474430406E+03  0.50400001928E-02 0.  1.
        1   -1    0    0  501    0  0.00000000000E+00  0.00000000000E+00 -0.21499261005E+04  0.21499261005E+04  0.50400001928E-02 0. -1.
    10030    2    1    2    0    0  0.00000000000E+00  0.00000000000E+00 -0.14351817965E+04  0.28646704046E+04  0.24792316830E+04 0.  0.
        4    1    3    3  502    0 -0.10162550591E+04 -0.43325233421E+03 -0.67889678391E+02  0.11068389908E+04  0.12699999809E+01 0.  1.
       -4    1    3    3    0  502  0.10162550591E+04  0.43325233421E+03 -0.13672921181E+04  0.17578314138E+04  0.12699999809E+01 0. -1.
</event>
<event>
 5   0  0.2977854E-05  0.2516125E+04  0.7818609E-02  0.8397263E-01
        1   -1    0    0  501    0  0.00000000000E+00  0.00000000000E+00  0.12005702039E+04  0.12005702039E+04  0.50400001928E-02 0.  1.
       -1   -1    0    0    0  501  0.00000000000E+00  0.00000000000E+00 -0.13183078446E+04  0.13183078447E+04  0.50400001928E-02 0. -1.
    10030    2    1    2    0    0  0.00000000000E+00  0.00000000000E+00 -0.11773764077E+03  0.25188780486E+04  0.25161248919E+04 0.  0.
        1    1    3    3  502    0  0.95969377173E+02 -0.10162940105E+04  0.67722988793E+03  0.12250322274E+04  0.50400001928E-02 0.  1.
       -1    1    3    3    0  502 -0.95969377173E+02  0.10162940105E+04 -0.79496752869E+03  0.12938458211E+04  0.50400001928E-02 0. -1.
</event>
<event>
 5   0  0.6648328E-05  0.1361047E+04  0.7818609E-02  0.8982508E-01
       -2   -1    0    0    0  501  0.00000000000E+00  0.00000000000E+00  0.46580710842E+03  0.46580710842E+03  0.25500000920E-02 0.  1.
        2   -1    0    0  501    0  0.00000000000E+00  0.00000000000E+00 -0.99421431944E+03  0.99421431944E+03  0.25500000920E-02 0. -1.
    10030    2    1    2    0    0  0.00000000000E+00  0.00000000000E+00 -0.52840721102E+03  0.14600214279E+04  0.13610467990E+04 0.  0.
        2    1    3    3  502    0 -0.50370165526E+03 -0.77957251098E+02 -0.74790304949E+03  0.90506997627E+03  0.25500000920E-02 0. -1.
       -2    1    3    3    0  502  0.50370165526E+03  0.77957251098E+02  0.21949583847E+03  0.55495145159E+03  0.25500000920E-02 0.  1.
</event>
<event>
 5   0  0.2977854E-05  0.2542843E+04  0.7818609E-02  0.8387880E-01
       -1   -1    0    0    0  501  0.00000000000E+00  0.00000000000E+00  0.13593719149E+04  0.13593719150E+04  0.50400001928E-02 0. -1.
        1   -1    0    0  501    0  0.00000000000E+00  0.00000000000E+00 -0.11891609747E+04  0.11891609747E+04  0.50400001928E-02 0.  1.
    10030    2    1    2    0    0  0.00000000000E+00  0.00000000000E+00  0.17021094025E+03  0.25485328897E+04  0.25428425286E+04 0.  0.
        1    1    3    3  502    0  0.89088854824E+03  0.11401816449E+03 -0.81681359760E+03  0.12140292420E+04  0.50400001928E-02 0.  1.
       -1    1    3    3    0  502 -0.89088854824E+03 -0.11401816449E+03  0.98702453785E+03  0.13345036476E+04  0.50400001928E-02 0. -1.
</event>
<event>
 5   0  0.2977854E-05  0.2497129E+04  0.7818609E-02  0.8404009E-01
        1   -1    0    0  501    0  0.00000000000E+00  0.00000000000E+00  0.28248336386E+04  0.28248336386E+04  0.50400001928E-02 0. -1.
       -1   -1    0    0    0  501  0.00000000000E+00  0.00000000000E+00 -0.55186009873E+03  0.55186009875E+03  0.50400001928E-02 0.  1.
    10030    2    1    2    0    0  0.00000000000E+00  0.00000000000E+00  0.22729735399E+04  0.33766937374E+04  0.24971287278E+04 0.  0.
        1    1    3    3  502    0  0.91307013063E+03  0.93513230530E+02 -0.81036461127E+01  0.91788204953E+03  0.50400001928E-02 0.  1.
       -1    1    3    3    0  502 -0.91307013063E+03 -0.93513230530E+02  0.22810771860E+04  0.24588116878E+04  0.50400001928E-02 0. -1.
</event>
<event>
 5   0  0.7071821E-05  0.2492282E+04  0.7818609E-02  0.8405740E-01
        2   -1    0    0  501    0  0.00000000000E+00  0.00000000000E+00  0.17261677099E+04  0.17261677099E+04  0.25500000920E-02 0.  1.
       -2   -1    0    0    0  501  0.00000000000E+00  0.00000000000E+00 -0.89960423381E+03  0.89960423382E+03  0.25500000920E-02 0. -1.
    10030    2    1    2    0    0  0.00000000000E+00  0.00000000000E+00  0.82656347610E+03  0.26257719437E+04  0.24922823115E+04 0.  0.
        5    1    3    3  502    0  0.10777054522E+04 -0.29773566749E+03 -0.16641643401E+03  0.11304035071E+04  0.46999998093E+01 0. -1.
       -5    1    3    3    0  502 -0.10777054522E+04  0.29773566749E+03  0.99297991012E+03  0.14953684366E+04  0.46999998093E+01 0.  1.
</event>
<event>
 5   0  0.2331375E-05  0.2474015E+04  0.7818609E-02  0.8412302E-01
       -4   -1    0    0    0  501  0.00000000000E+00  0.00000000000E+00  0.13812039967E+04  0.13812045805E+04  0.12699999809E+01 0.  1.
        4   -1    0    0  501    0  0.00000000000E+00  0.00000000000E+00 -0.11078637764E+04  0.11078645043E+04  0.12699999809E+01 0. -1.
    10030    2    1    2    0    0  0.00000000000E+00  0.00000000000E+00  0.27334022030E+03  0.24890690848E+04  0.24740149622E+04 0.  0.
        1    1    3    3  502    0 -0.65002900112E+03 -0.86220961300E+03 -0.47052891310E+03  0.11778542258E+04  0.50400001928E-02 0. -1.
       -1    1    3    3    0  502  0.65002900112E+03  0.86220961300E+03  0.74386913339E+03  0.13112148591E+04  0.50400001928E-02 0.  1.
</event>
<event>
 5   0  0.2777539E-05  0.2484526E+04  0.7818609E-02  0.8408519E-01
       -1   -1    0    0    0  501  0.00000000000E+00  0.00000000000E+00  0.18085871204E+04  0.18085871204E+04  0.50400001928E-02 0. -1.
        1   -1    0    0  501    0  0.00000000000E+00  0.00000000000E+00 -0.85327243918E+03  0.85327243920E+03  0.50400001928E-02 0.  1.
    10030    2    1    2    0    0  0.00000000000E+00  0.00000000000E+00  0.95531468124E+03  0.26618595596E+04  0.24845261470E+04 0.  0.
        3    1    3    3  502    0 -0.18469867505E+03 -0.66523342350E+02 -0.83654862919E+03  0.85927444676E+03  0.10100000352E+00 0.  1.
       -3    1    3    3    0  502  0.18469867505E+03  0.66523342350E+02  0.17918633104E+04  0.18025851129E+04  0.10100000352E+00 0. -1.
</event>
<event>
 5   0  0.2896652E-05  0.1635111E+04  0.7818609E-02  0.8799264E-01
       -1   -1    0    0    0  501  0.00000000000E+00  0.00000000000E+00  0.87059738739E+03  0.87059738740E+03  0.50400001928E-02 0. -1.
        1   -1    0    0  501    0  0.00000000000E+00  0.00000000000E+00 -0.76774529306E+03  0.76774529308E+03  0.50400001928E-02 0.  1.
    10030    2    1    2    0    0  0.00000000000E+00  0.00000000000E+00  0.10285209432E+03  0.16383426805E+04  0.16351110621E+04 0.  0.
        4    1    3    3  502    0 -0.26305508756E+03  0.64704230404E+03 -0.37430629438E+03  0.79244465878E+03  0.12699999809E+01 0.  1.
       -4    1    3    3    0  502  0.26305508756E+03 -0.64704230404E+03  0.47715838870E+03  0.84589802170E+03  0.12699999809E+01 0. -1.
</event>
<event>
 5   0  0.2896652E-05  0.2540124E+04  0.7818609E-02  0.8388829E-01
        1   -1    0    0  501    0  0.00000000000E+00  0.00000000000E+00  0.17321307731E+04  0.17321307732E+04  0.50400001928E-02 0. -1.
       -1   -1    0    0    0  501  0.00000000000E+00  0.00000000000E+00 -0.93125633578E+03  0.93125633580E+03  0.50400001928E-02 0.  1.
    10030    2    1    2    0    0  0.00000000000E+00  0.00000000000E+00  0.80087443736E+03  0.26633871090E+04  0.25401242150E+04 0.  0.
        4    1    3    3  502    0  0.63919209431E+03 -0.44918680277E+03 -0.64951456693E+03  0.10159754440E+04  0.12699999809E+01 0.  1.
       -4    1    3    3    0  502 -0.63919209431E+03  0.44918680277E+03  0.14503890043E+04  0.16474116650E+04  0.12699999809E+01 0. -1.
</event>
<event>
 5   0  0.6909250E-05  0.2547051E+04  0.7818609E-02  0.8386413E-01
        2   -1    0    0  501    0  0.00000000000E+00  0.00000000000E+00  0.73167153714E+03  0.73167153715E+03  0.25500000920E-02 0.  1.
       -2   -1    0    0    0  501  0.00000000000E+00  0.00000000000E+00 -0.22166598462E+04  0.22166598462E+04  0.25500000920E-02 0. -1.
    10030    2    1    2    0    0  0.00000000000E+00  0.00000000000E+00 -0.14849883091E+04  0.29483313834E+04  0.25470507785E+04 0.  0.
        4    1    3    3  502    0 -0.64453495787E+03  0.82831047287E+03 -0.15774875297E+04  0.18947274397E+04  0.12699999809E+01 0.  1.
       -4    1    3    3    0  502  0.64453495787E+03 -0.82831047287E+03  0.92499220668E+02  0.10536039437E+04  0.12699999809E+01 0. -1.
</event>
<event>
 5   0  0.2331375E-05  0.2501768E+04  0.7818609E-02  0.8402356E-01
        3   -1    0    0  501    0  0.00000000000E+00  0.00000000000E+00  0.12956961093E+04  0.12956961132E+04  0.10100000352E+00 0.  1.
       -3   -1    0    0    0  501  0.00000000000E+00  0.00000000000E+00 -0.12076214416E+04  0.12076214458E+04  0.10100000352E+00 0. -1.
    10030    2    1    2    0    0  0.00000000000E+00  0.00000000000E+00  0.88074667691E+02  0.25033175590E+04  0.25017677059E+04 0.  0.
        3    1    3    3  502    0 -0.89656306071E+03 -0.79314488078E+03 -0.31923892327E+03  0.12388775662E+04  0.10100000352E+00 0. -1.
       -3    1    3    3    0  502  0.89656306071E+03  0.79314488078E+03  0.40731359096E+03  0.12644399928E+04  0.10100000352E+00 0.  1.
</event>
<event>
 5   0  0.2777539E-05  0.2500288E+04  0.7818609E-02  0.8402883E-01
        1   -1    0    0  501    0  0.00000000000E+00  0.00000000000E+00  0.80940372276E+03  0.80940372278E+03  0.50400001928E-02 0.  1.
       -1   -1    0    0    0  501  0.00000000000E+00  0.00000000000E+00 -0.19308784267E+04  0.19308784268E+04  0.50400001928E-02 0. -1.
    10030    2    1    2    0    0  0.00000000000E+00  0.00000000000E+00 -0.11214747040E+04  0.27402821495E+04  0.25002881329E+04 0.  0.
        3    1    3    3  502    0  0.62948059960E+02  0.11109841494E+04 -0.11851726804E+04  0.16256944765E+04  0.10100000352E+00 0. -1.
       -3    1    3    3    0  502 -0.62948059960E+02 -0.11109841494E+04  0.63697976386E+02  0.11145876730E+04  0.10100000352E+00 0.  1.
</event>
<event>
 5   0  0.6648328E-05  0.2207834E+04  0.7818609E-02  0.8515174E-01
       -2   -1    0    0    0  501  0.00000000000E+00  0.00000000000E+00  0.14155393296E+04  0.14155393296E+04  0.25500000920E-02 0. -1.
        2   -1    0    0  501    0  0.00000000000E+00  0.00000000000E+00 -0.86089655700E+03  0.86089655700E+03  0.25500000920E-02 0.  1.
    10030    2    1    2    0    0  0.00000000000E+00  0.00000000000E+00  0.55464277255E+03  0.22764358866E+04  0.22078341741E+04 0.  0.
        2    1    3    3  502    0 -0.68833936201E+03  0.72751520041E+03  0.75601367152E+03  0.12548490410E+04  0.25500000920E-02 0. -1.
       -2    1    3    3    0  502  0.68833936201E+03 -0.72751520041E+03 -0.20137089896E+03  0.10215868456E+04  0.25500000920E-02 0.  1.
</event>
<event>
 5   0  0.7071821E-05  0.2469141E+04  0.7818609E-02  0.8414062E-01
       -2   -1    0    0    0  501  0.00000000000E+00  0.00000000000E+00  0.63340153619E+03  0.63340153620E+03  0.25500000920E-02 0.  1.
        2   -1    0    0  501    0  0.00000000000E+00  0.00000000000E+00 -0.24063159485E+04  0.24063159485E+04  0.25500000920E-02 0. -1.
    10030    2    1    2    0    0  0.00000000000E+00  0.00000000000E+00 -0.17729144123E+04  0.30397174847E+04  0.24691409181E+04 0.  0.
        5    1    3    3  502    0 -0.15786583414E+03  0.45753313241E+02 -0.23927752792E+04  0.23984183567E+04  0.46999998093E+01 0. -1.
       -5    1    3    3    0  502  0.15786583414E+03 -0.45753313241E+02  0.61986086687E+03  0.64129912797E+03  0.46999998093E+01 0.  1.
</event>
<event>
 5   0  0.6827859E-05  0.2397368E+04  0.7818609E-02  0.8440489E-01
        2   -1    0    0  501    0  0.00000000000E+00  0.00000000000E+00  0.10663030049E+04  0.10663030049E+04  0.25500000920E-02 0.  1.
       -2   -1    0    0    0  501  0.00000000000E+00  0.00000000000E+00 -0.13475004701E+04  0.13475004701E+04  0.25500000920E-02 0. -1.
    10030    2    1    2    0    0  0.00000000000E+00  0.00000000000E+00 -0.28119746522E+03  0.24138034750E+04  0.23973683909E+04 0.  0.
        3    1    3    3  502    0  0.86140662932E+03 -0.77386406326E+03  0.17129385866E+03  0.11705676254E+04  0.10100000352E+00 0.  1.
       -3    1    3    3    0  502 -0.86140662932E+03  0.77386406326E+03 -0.45249132388E+03  0.12432358496E+04  0.10100000352E+00 0. -1.
</event>
<event>
 5   0  0.2793920E-05  0.2365875E+04  0.7818609E-02  0.8452391E-01
        1   -1    0    0  501    0  0.00000000000E+00  0.00000000000E+00  0.20472811745E+04  0.20472811745E+04  0.50400001928E-02 0. -1.
       -1   -1    0    0    0  501  0.00000000000E+00  0.00000000000E+00 -0.68351221704E+03  0.68351221706E+03  0.50400001928E-02 0.  1.
    10030    2    1    2    0    0  0.00000000000E+00  0.00000000000E+00  0.13637689574E+04  0.27307933916E+04  0.23658754781E+04 0.  0.
        2    1    3    3  502    0  0.31950223306E+03  0.11228200711E+03 -0.62636279648E+03  0.71205286241E+03  0.25500000920E-02 0.  1.
       -2    1    3    3    0  502 -0.31950223306E+03 -0.11228200711E+03  0.19901317539E+04  0.20187405291E+04  0.25500000920E-02 0. -1.
</event>
<event>
 5   0  0.6827859E-05  0.2529535E+04  0.7818609E-02  0.8392539E-01
       -2   -1    0    0    0  501  0.00000000000E+00  0.00000000000E+00  0.84979559187E+03  0.84979559188E+03  0.25500000920E-02 0.  1.
        2   -1    0    0  501    0  0.00000000000E+00  0.00000000000E+00 -0.18823782154E+04  0.18823782154E+04  0.25500000920E-02 0. -1.
    10030    2    1    2    0    0  0.00000000000E+00  0.00000000000E+00 -0.10325826236E+04  0.27321738073E+04  0.25295349056E+04 0.  0.
        3    1    3    3  502    0 -0.52164479488E+03 -0.98830513450E+03  0.12341820364E+03  0.11243186355E+04  0.10100000352E+00 0.  1.
       -3    1    3    3    0  502  0.52164479488E+03  0.98830513450E+03 -0.11560008272E+04  0.16078551718E+04  0.10100000352E+00 0. -1.
</event>
<event>
 5   0  0.2980790E-05  0.2362171E+04  0.7818609E-02  0.8453803E-01
        1   -1    0    0  501    0  0.00000000000E+00  0.00000000000E+00  0.82792260661E+03  0.82792260663E+03  0.50400001928E-02 0. -1.
       -1   -1    0    0    0  501  0.00000000000E+00  0.00000000000E+00 -0.16848957634E+04  0.16848957635E+04  0.50400001928E-02 0.  1.
    10030    2    1    2    0    0  0.00000000000E+00  0.00000000000E+00 -0.85697315683E+03  0.25128183701E+04  0.23621712828E+04 0.  0.
        5    1    3    3  502    0 -0.32112502528E+02  0.57101462727E+03  0.67078576967E+03  0.88151265230E+03  0.46999998093E+01 0. -1.
       -5    1    3    3    0  502  0.32112502528E+02 -0.57101462727E+03 -0.15277589265E+04  0.16313057178E+04  0.46999998093E+01 0.  1.
</event>
<event>
 5   0  0.2777539E-05  0.2518738E+04  0.7818609E-02  0.8396340E-01
        1   -1    0    0  501    0  0.00000000000E+00  0.00000000000E+00  0.15224121729E+04  0.15224121729E+04  0.50400001928E-02 0. -1.
       -1   -1    0    0    0  501  0.00000000000E+00  0.00000000000E+00 -0.10417749444E+04  0.10417749444E+04  0.50400001928E-02 0.  1.
    10030    2    1    2    0    0  0.00000000000E+00  0.00000000000E+00  0.48063722851E+03  0.25641871172E+04  0.25187384594E+04 0.  0.
        3    1    3    3  502    0 -0.86710089007E+02 -0.12128111761E+04 -0.93595633012E+02  0.12195038914E+04  0.10100000352E+00 0.  1.
       -3    1    3    3    0  502  0.86710089007E+02  0.12128111761E+04  0.57423286152E+03  0.13446832258E+04  0.10100000352E+00 0. -1.
</event>
<event>
 5   0  0.2896652E-05  0.1438584E+04  0.7818609E-02  0.8926353E-01
        1   -1    0    0  501    0  0.00000000000E+00  0.00000000000E+00  0.11042327083E+04  0.11042327083E+04  0.50400001928E-02 0.  1.
       -1   -1    0    0    0  501  0.00000000000E+00  0.00000000000E+00 -0.46854359405E+03  0.46854359408E+03  0.50400001928E-02 0. -1.
    10030    2    1    2    0    0  0.00000000000E+00  0.00000000000E+00  0.63568911421E+03  0.15727763024E+04  0.14385842510E+04 0.  0.
        4    1    3    3  502    0 -0.37538266526E+02  0.93812013793E+02 -0.46074454284E+03  0.47169583636E+03  0.12699999809E+01 0. -1.
       -4    1    3    3    0  502  0.37538266526E+02 -0.93812013793E+02  0.10964336570E+04  0.11010804660E+04  0.12699999809E+01 0.  1.
</event>
<event>
 5   0  0.6909250E-05  0.2529858E+04  0.7818609E-02  0.8392425E-01
       -2   -1    0    0    0  501  0.00000000000E+00  0.00000000000E+00  0.12589758368E+04  0.12589758368E+04  0.25500000920E-02 0.  1.
        2   -1    0    0  501    0  0.00000000000E+00  0.00000000000E+00 -0.12709102117E+04  0.12709102117E+04  0.25500000920E-02 0. -1.
    10030    2    1    2    0    0  0.00000000000E+00  0.00000000000E+00 -0.11934374892E+02  0.25298860485E+04  0.25298578990E+04 0.  0.
        4    1    3    3  502    0  0.71427149024E+03 -0.10226251176E+04 -0.21596414682E+03  0.12659336548E+04  0.12699999809E+01 0.  1.
       -4    1    3    3    0  502 -0.71427149024E+03  0.10226251176E+04  0.20402977193E+03  0.12639523937E+04  0.12699999809E+01 0. -1.
</event>
<event>
 5   0  0.2896652E-05  0.2515413E+04  0.7818609E-02  0.8397515E-01
        1   -1    0    0  501    0  0.00000000000E+00  0.00000000000E+00  0.11220126097E+04  0.11220126097E+04  0.50400001928E-02 0.  1.
       -1   -1    0    0    0  501  0.00000000000E+00  0.00000000000E+00 -0.14098105564E+04  0.14098105564E+04  0.50400001928E-02 0. -1.
    10030    2    1    2    0    0  0.00000000000E+00  0.00000000000E+00 -0.28779794664E+03  0.25318231661E+04  0.25154126672E+04 0.  0.
        4    1    3    3  502    0 -0.65676649628E+03  0.41684093764E+03 -0.11386405724E+04  0.13789860637E+04  0.12699999809E+01 0. -1.
       -4    1    3    3    0  502  0.65676649628E+03 -0.41684093764E+03  0.85084262577E+03  0.11528371024E+04  0.12699999809E+01 0.  1.
</event>
<event>
 5   0  0.7071821E-05  0.2538254E+04  0.7818609E-02  0.8389483E-01
        2   -1    0    0  501    0  0.00000000000E+00  0.00000000000E+00  0.15271330935E+04  0.15271330935E+04  0.25500000920E-02 0.  1.
       -2   -1    0    0    0  501  0.00000000000E+00  0.00000000000E+00 -0.10547102513E+04  0.10547102513E+04  0.25500000920E-02 0. -1.
    10030    2    1    2    0    0  0.00000000000E+00  0.00000000000E+00  0.47242284229E+03  0.25818433448E+04  0.25382536743E+04 0.  0.
        5    1    3    3  502    0 -0.74884769858E+03 -0.10135036021E+04  0.38945863903E+03  0.13189626790E+04  0.46999998093E+01 0.  1.
       -5    1    3    3    0  502  0.74884769858E+03  0.10135036021E+04  0.82964203262E+02  0.12628806658E+04  0.46999998093E+01 0. -1.
</event>
<event>
 5   0  0.2777539E-05  0.2358527E+04  0.7818609E-02  0.8455196E-01
       -1   -1    0    0    0  501  0.00000000000E+00  0.00000000000E+00  0.81387166521E+03  0.81387166523E+03  0.50400001928E-02 0.  1.
        1   -1    0    0  501    0  0.00000000000E+00  0.00000000000E+00 -0.17086996938E+04  0.17086996938E+04  0.50400001928E-02 0. -1.
    10030    2    1    2    0    0  0.00000000000E+00  0.00000000000E+00 -0.89482802854E+03  0.25225713590E+04  0.23585268836E+04 0.  0.
        3    1    3    3  502    0 -0.99604740070E+03 -0.53812756935E+03 -0.94346955066E+02  0.11360427208E+04  0.10100000352E+00 0.  1.
       -3    1    3    3    0  502  0.99604740070E+03  0.53812756935E+03 -0.80048107347E+03  0.13865286382E+04  0.10100000352E+00 0. -1.
</event>
<event>
 5   0  0.6648328E-05  0.2497476E+04  0.7818609E-02  0.8403885E-01
        2   -1    0    0  501    0  0.00000000000E+00  0.00000000000E+00  0.10940149305E+04  0.10940149305E+04  0.25500000920E-02 0.  1.
       -2   -1    0    0    0  501  0.00000000000E+00  0.00000000000E+00 -0.14253436037E+04  0.14253436037E+04  0.25500000920E-02 0. -1.
    10030    2    1    2    0    0  0.00000000000E+00  0.00000000000E+00 -0.33132867321E+03  0.25193585342E+04  0.24974764732E+04 0.  0.
        2    1    3    3  502    0 -0.55968152942E+03 -0.66606476571E+03  0.73798653774E+03  0.11408373313E+04  0.25500000920E-02 0.  1.
       -2    1    3    3    0  502  0.55968152942E+03  0.66606476571E+03 -0.10693152109E+04  0.13785212029E+04  0.25500000920E-02 0. -1.
</event>
<event>
 5   0  0.6909250E-05  0.2473060E+04  0.7818609E-02  0.8412646E-01
       -2   -1    0    0    0  501  0.00000000000E+00  0.00000000000E+00  0.11241978216E+04  0.11241978216E+04  0.25500000920E-02 0.  1.
        2   -1    0    0  501    0  0.00000000000E+00  0.00000000000E+00 -0.13600864229E+04  0.13600864229E+04  0.25500000920E-02 0. -1.
    10030    2    1    2    0    0  0.00000000000E+00  0.00000000000E+00 -0.23588860129E+03  0.24842842446E+04  0.24730598003E+04 0.  0.
        4    1    3    3  502    0  0.93944182807E+03  0.54603018370E+03 -0.71079633774E+03  0.12984348103E+04  0.12699999809E+01 0. -1.
       -4    1    3    3    0  502 -0.93944182807E+03 -0.54603018370E+03  0.47490773645E+03  0.11858494343E+04  0.12699999809E+01 0.  1.
</event>
<event>
 5   0  0.6648328E-05  0.2405597E+04  0.7818609E-02  0.8437411E-01
       -2   -1    0    0    0  501  0.00000000000E+00  0.00000000000E+00  0.59563473908E+03  0.59563473908E+03  0.25500000920E-02 0.  1.
        2   -1    0    0  501    0  0.00000000000E+00  0.00000000000E+00 -0.24288787842E+04  0.24288787842E+04  0.25500000920E-02 0. -1.
    10030    2    1    2    0    0  0.00000000000E+00  0.00000000000E+00 -0.18332440451E+04  0.30245135233E+04  0.24055972904E+04 0.  0.
        2    1    3    3  502    0 -0.11660703014E+04 -0.27687143034E+03 -0.10445120143E+04  0.15897745390E+04  0.25500000920E-02 0. -1.
       -2    1    3    3    0  502  0.11660703014E+04  0.27687143034E+03 -0.78873203082E+03  0.14347389843E+04  0.25500000920E-02 0.  1.
</event>
<event>
 5   0  0.2896652E-05  0.2524712E+04  0.7818609E-02  0.8394234E-01
       -1   -1    0    0    0  501  0.00000000000E+00  0.00000000000E+00  0.18281538731E+04  0.18281538731E+04  0.50400001928E-02 0. -1.
        1   -1    0    0  501    0  0.00000000000E+00  0.00000000000E+00 -0.87166794117E+03  0.87166794119E+03  0.50400001928E-02 0.  1.
    10030    2    1    2    0    0  0.00000000000E+00  0.00000000000E+00  0.95648593190E+03  0.26998218143E+04  0.25247123580E+04 0.  0.
        4    1    3    3  502    0  0.10282751060E+04 -0.63330426798E+03  0.85164701709E+02  0.12106521502E+04  0.12699999809E+01 0.  1.
       -4    1    3    3    0  502 -0.10282751060E+04  0.63330426798E+03  0.87132123019E+03  0.14891696641E+04  0.12699999809E+01 0. -1.
</event>
<event>
 5   0  0.7071821E-05  0.2448203E+04  0.7818609E-02  0.8421674E-01
       -2   -1    0    0    0  501  0.00000000000E+00  0.00000000000E+00  0.12575144118E+04  0.12575144118E+04  0.25500000920E-02 0. -1.
        2   -1    0    0  501    0  0.00000000000E+00  0.00000000000E+00 -0.11915767387E+04  0.11915767387E+04  0.25500000920E-02 0.  1.
    10030    2    1    2    0    0  0.00000000000E+00  0.00000000000E+00  0.65937673111E+02  0.24490911505E+04  0.24482033589E+04 0.  0.
        5    1    3    3  502    0  0.31279432307E+03 -0.43549565458E+03  0.11337796552E+04  0.12541830609E+04  0.46999998093E+01 0. -1.
       -5    1    3    3    0  502 -0.31279432307E+03  0.43549565458E+03 -0.10678419821E+04  0.11949080896E+04  0.46999998093E+01 0.  1.
</event>
<event>
 5   0  0.2793920E-05  0.2335681E+04  0.7818609E-02  0.8463984E-01
        1   -1    0    0  501    0  0.00000000000E+00  0.00000000000E+00  0.13355902497E+04  0.13355902498E+04  0.50400001928E-02 0. -1.
       -1   -1    0    0    0  501  0.00000000000E+00  0.00000000000E+00 -0.10211601119E+04  0.10211601119E+04  0.50400001928E-02 0.  1.
    10030    2    1    2    0    0  0.00000000000E+00  0.00000000000E+00  0.31443013786E+03  0.23567503617E+04  0.23356810475E+04 0.  0.
        2    1    3    3  502    0 -0.77479203339E+03  0.68563959245E+03  0.70380923062E+03  0.12513000355E+04  0.25500000920E-02 0. -1.
       -2    1    3    3    0  502  0.77479203339E+03 -0.68563959245E+03 -0.38937909276E+03  0.11054503262E+04  0.25500000920E-02 0.  1.
</event>
<event>
 5   0  0.2977854E-05  0.1405195E+04  0.7818609E-02  0.8950067E-01
       -1   -1    0    0    0  501  0.00000000000E+00  0.00000000000E+00  0.22544647747E+03  0.22544647753E+03  0.50400001928E-02 0. -1.
        1   -1    0    0  501    0  0.00000000000E+00  0.00000000000E+00 -0.21896235939E+04  0.21896235939E+04  0.50400001928E-02 0.  1.
    10030    2    1    2    0    0  0.00000000000E+00  0.00000000000E+00 -0.19641771165E+04  0.24150700715E+04  0.14051945436E+04 0.  0.
        1    1    3    3  502    0  0.26843597503E+03  0.62563371756E+03 -0.12806013722E+04  0.14503155848E+04  0.50400001928E-02 0. -1.
       -1    1    3    3    0  502 -0.26843597503E+03 -0.62563371756E+03 -0.68357574431E+03  0.96475448663E+03  0.50400001928E-02 0.  1.
</event>
<event>
 5   0  0.2980790E-05  0.2409504E+04  0.7818609E-02  0.8435954E-01
       -1   -1    0    0    0  501  0.00000000000E+00  0.00000000000E+00  0.94400950999E+03  0.94400951000E+03  0.50400001928E-02 0. -1.
        1   -1    0    0  501    0  0.00000000000E+00  0.00000000000E+00 -0.15375132111E+04  0.15375132111E+04  0.50400001928E-02 0.  1.
    10030    2    1    2    0    0  0.00000000000E+00  0.00000000000E+00 -0.59350370114E+03  0.24815227211E+04  0.24095037606E+04 0.  0.
        5    1    3    3  502    0 -0.87017416670E+03  0.81715452991E+03 -0.12922330235E+03  0.12006936987E+04  0.46999998093E+01 0. -1.
       -5    1    3    3    0  502  0.87017416670E+03 -0.81715452991E+03 -0.46428039878E+03  0.12808290225E+04  0.46999998093E+01 0.  1.
</event>
<event>
 5   0  0.2896652E-05  0.2316023E+04  0.7818609E-02  0.8471630E-01
        1   -1    0    0  501    0  0.00000000000E+00  0.00000000000E+00  0.83657227903E+03  0.83657227905E+03  0.50400001928E-02 0. -1.
       -1   -1    0    0    0  501  0.00000000000E+00  0.00000000000E+00 -0.16029591069E+04  0.16029591069E+04  0.50400001928E-02 0.  1.
    10030    2    1    2    0    0  0.00000000000E+00  0.00000000000E+00 -0.76638682783E+03  0.24395313859E+04  0.23160234483E+04 0.  0.
        4    1    3    3  502    0  0.10074151348E+04  0.44068429068E+03 -0.64310269411E+00  0.10995862515E+04  0.12699999809E+01 0. -1.
       -4    1    3    3    0  502 -0.10074151348E+04 -0.44068429068E+03 -0.76574372514E+03  0.13399451345E+04  0.12699999809E+01 0.  1.
</event>
<event>
 5   0  0.6445331E-05  0.2619044E+04  0.7818609E-02  0.8361761E-01
       -2   -1    0    0    0  501  0.00000000000E+00  0.00000000000E+00  0.82564077378E+03  0.82564077379E+03  0.25500000920E-02 0. -1.
        2   -1    0    0  501    0  0.00000000000E+00  0.00000000000E+00 -0.20769896761E+04  0.20769896761E+04  0.25500000920E-02 0.  1.
    10030    2    1    2    0    0  0.00000000000E+00  0.00000000000E+00 -0.12513489023E+04  0.29026304499E+04  0.26190436142E+04 0.  0.
        1    1    3    3  502    0  0.18679249129E+03 -0.12958767776E+04 -0.59721723219E+03  0.14390470736E+04  0.50400001928E-02 0.  1.
       -1    1    3    3    0  502 -0.18679249129E+03  0.12958767776E+04 -0.65413167014E+03  0.14635833763E+04  0.50400001928E-02 0. -1.
</event>
<event>
 5   0  0.2977854E-05  0.2507054E+04  0.7818609E-02  0.8400477E-01
       -1   -1    0    0    0  501  0.00000000000E+00  0.00000000000E+00  0.63259603980E+03  0.63259603982E+03  0.50400001928E-02 0. -1.
        1   -1    0    0  501    0  0.00000000000E+00  0.00000000000E+00 -0.24839385565E+04  0.24839385565E+04  0.50400001928E-02 0.  1.
    10030    2    1    2    0    0  0.00000000000E+00  0.00000000000E+00 -0.18513425167E+04  0.31165345963E+04  0.25070538040E+04 0.  0.
        1    1    3    3  502    0  0.77137915749E+03 -0.12622684982E+03 -0.21438969164E+04  0.22819406238E+04  0.50400001928E-02 0.  1.
       -1    1    3    3    0  502 -0.77137915749E+03  0.12622684982E+03  0.29255439969E+03  0.83459397256E+03  0.50400001928E-02 0. -1.
</event>
<event>
 5   0  0.6827859E-05  0.2495033E+04  0.7818609E-02  0.8404757E-01
       -2   -1    0    0    0  501  0.00000000000E+00  0.00000000000E+00  0.32608095935E+04  0.32608095935E+04  0.25500000920E-02 0. -1.
        2   -1    0    0  501    0  0.00000000000E+00  0.00000000000E+00 -0.47727338085E+03  0.47727338086E+03  0.25500000920E-02 0.  1.
    10030    2    1    2    0    0  0.00000000000E+00  0.00000000000E+00  0.27835362126E+04  0.37380829743E+04  0.24950331613E+04 0.  0.
        3    1    3    3  502    0  0.37153314846E+03  0.80578651043E+01 -0.39242029732E+03  0.54045861039E+03  0.10100000352E+00 0.  1.
       -3    1    3    3    0  502 -0.37153314846E+03 -0.80578651043E+01  0.31759565099E+04  0.31976243639E+04  0.10100000352E+00 0. -1.
</event>
<event>
 5   0  0.6445331E-05  0.2543932E+04  0.7818609E-02  0.8387500E-01
       -2   -1    0    0    0  501  0.00000000000E+00  0.00000000000E+00  0.78163182542E+03  0.78163182542E+03  0.25500000920E-02 0.  1.
        2   -1    0    0  501    0  0.00000000000E+00  0.00000000000E+00 -0.20698975558E+04  0.20698975558E+04  0.25500000920E-02 0. -1.
    10030    2    1    2    0    0  0.00000000000E+00  0.00000000000E+00 -0.12882657304E+04  0.28515293812E+04  0.25439322357E+04 0.  0.
        1    1    3    3  502    0 -0.46702380808E+03  0.11816863389E+04 -0.57873481589E+03  0.13962191189E+04  0.50400001928E-02 0. -1.
       -1    1    3    3    0  502  0.46702380808E+03 -0.11816863389E+04 -0.70953091449E+03  0.14553102623E+04  0.50400001928E-02 0.  1.
</event>
<event>
 5   0  0.6445331E-05  0.2319907E+04  0.7818609E-02  0.8470113E-01
        2   -1    0    0  501    0  0.00000000000E+00  0.00000000000E+00  0.30014474235E+04  0.30014474235E+04  0.25500000920E-02 0.  1.
       -2   -1    0    0    0  501  0.00000000000E+00  0.00000000000E+00 -0.44828100673E+03  0.44828100674E+03  0.25500000920E-02 0. -1.
    10030    2    1    2    0    0  0.00000000000E+00  0.00000000000E+00  0.25531664168E+04  0.34497284303E+04  0.23199067849E+04 0.  0.
        1    1    3    3  502    0  0.89176792722E+03  0.60909529164E+03  0.19061439088E+04  0.21908061784E+04  0.50400001928E-02 0.  1.
       -1    1    3    3    0  502 -0.89176792722E+03 -0.60909529164E+03  0.64702250802E+03  0.12589222519E+04  0.50400001928E-02 0. -1.
</event>
<event>
 5   0  0.7071821E-05  0.2527860E+04  0.7818609E-02  0.8393127E-01
       -2   -1    0    0    0  501  0.00000000000E+00  0.00000000000E+00  0.10480176346E+04  0.10480176346E+04  0.25500000920E-02 0.  1.
        2   -1    0    0  501    0  0.00000000000E+00  0.00000000000E+00 -0.15243249552E+04  0.15243249552E+04  0.25500000920E-02 0. -1.
    10030    2    1    2    0    0  0.00000000000E+00  0.00000000000E+00 -0.47630732060E+03  0.25723425898E+04  0.25278603078E+04 0.  0.
        5    1    3    3  502    0 -0.80416133894E+03  0.34389291957E+03  0.69034950726E+03  0.11142451846E+04  0.46999998093E+01 0.  1.
       -5    1    3    3    0  502  0.80416133894E+03 -0.34389291957E+03 -0.11666568279E+04  0.14580974052E+04  0.46999998093E+01 0. -1.
</event>
<event>
 5   0  0.2980790E-05  0.1722176E+04  0.7818609E-02  0.8748816E-01
        1   -1    0    0  501    0  0.00000000000E+00  0.00000000000E+00  0.88448965188E+03  0.88448965189E+03  0.50400001928E-02 0.  1.
       -1   -1    0    0    0  501  0.00000000000E+00  0.00000000000E+00 -0.83830598803E+03  0.83830598804E+03  0.50400001928E-02 0. -1.
    10030    2    1    2    0    0  0.00000000000E+00  0.00000000000E+00  0.46183663850E+02  0.17227956399E+04  0.17221764968E+04 0.  0.
        5    1    3    3  502    0  0.92852442957E-01 -0.82008831339E+03 -0.23950212299E+03  0.85435836000E+03  0.46999998093E+01 0. -1.
       -5    1    3    3    0  502 -0.92852442957E-01  0.82008831339E+03  0.28568578684E+03  0.86843727994E+03  0.46999998093E+01 0.  1.
</event>
<event>
 5   0  0.6827859E-05  0.2530516E+04  0.7818609E-02  0.8392194E-01
        2   -1    0    0  501    0  0.00000000000E+00  0.00000000000E+00  0.30497611989E+04  0.30497611989E+04  0.25500000920E-02 0. -1.
       -2   -1    0    0    0  501  0.00000000000E+00  0.00000000000E+00 -0.52491924535E+03  0.52491924535E+03  0.25500000920E-02 0.  1.
    10030    2    1    2    0    0  0.00000000000E+00  0.00000000000E+00  0.25248419535E+04  0.35746804442E+04  0.25305164271E+04 0.  0.
        3    1    3    3  502    0  0.72455671552E+03  0.78451317239E+03  0.22209653476E+04  0.24643722197E+04  0.10100000352E+00 0. -1.
       -3    1    3    3    0  502 -0.72455671552E+03 -0.78451317239E+03  0.30387660591E+03  0.11103082245E+04  0.10100000352E+00 0.  1.
</event>
<event>
 5   0  0.2793920E-05  0.2411248E+04  0.7818609E-02  0.8435304E-01
        1   -1    0    0  501    0  0.00000000000E+00  0.00000000000E+00  0.21212533752E+04  0.21212533752E+04  0.50400001928E-02 0. -1.
       -1   -1    0    0    0  501  0.00000000000E+00  0.00000000000E+00 -0.68522200557E+03  0.68522200559E+03  0.50400001928E-02 0.  1.
    10030    2    1    2    0    0  0.00000000000E+00  0.00000000000E+00  0.14360313696E+04  0.28064753808E+04  0.24112482179E+04 0.  0.
        2    1    3    3  502    0 -0.94357718600E+03  0.21721671420E+03  0.15540955000E+04  0.18310471949E+04  0.25500000920E-02 0. -1.
       -2    1    3    3    0  502  0.94357718600E+03 -0.21721671420E+03 -0.11806413041E+03  0.97542818585E+03  0.25500000920E-02 0.  1.
</event>
<event>
 5   0  0.2977854E-05  0.2135680E+04  0.7818609E-02  0.8545687E-01
       -1   -1    0    0    0  501  0.00000000000E+00  0.00000000000E+00  0.98757876049E+03  0.98757876050E+03  0.50400001928E-02 0. -1.
        1   -1    0    0  501    0  0.00000000000E+00  0.00000000000E+00 -0.11546241893E+04  0.11546241893E+04  0.50400001928E-02 0.  1.
    10030    2    1    2    0    0  0.00000000000E+00  0.00000000000E+00 -0.16704542882E+03  0.21422029498E+04  0.21356800563E+04 0.  0.
        1    1    3    3  502    0  0.69665290905E+03 -0.79800570110E+03  0.51588175236E+02  0.10605657521E+04  0.50400001928E-02 0.  1.
       -1    1    3    3    0  502 -0.69665290905E+03  0.79800570110E+03 -0.21863360406E+03  0.10816371977E+04  0.50400001928E-02 0. -1.
</event>
<event>
 5   0  0.2777539E-05  0.2527247E+04  0.7818609E-02  0.8393342E-01
        1   -1    0    0  501    0  0.00000000000E+00  0.00000000000E+00  0.10429012410E+04  0.10429012411E+04  0.50400001928E-02 0.  1.
       -1   -1    0    0    0  501  0.00000000000E+00  0.00000000000E+00 -0.15310599276E+04  0.15310599276E+04  0.50400001928E-02 0. -1.
    10030    2    1    2    0    0  0.00000000000E+00  0.00000000000E+00 -0.48815868657E+03  0.25739611687E+04  0.25272469595E+04 0.  0.
        3    1    3    3  502    0 -0.43542063852E+03 -0.58976451423E+03 -0.12923420691E+04  0.14857864411E+04  0.10100000352E+00 0. -1.
       -3    1    3    3    0  502  0.43542063852E+03  0.58976451423E+03  0.80418338258E+03  0.10881747276E+04  0.10100000352E+00 0.  1.
</event>
<event>
 5   0  0.2777539E-05  0.2745975E+04  0.7818609E-02  0.8320240E-01
       -1   -1    0    0    0  501  0.00000000000E+00  0.00000000000E+00  0.14473558541E+04  0.14473558541E+04  0.50400001928E-02 0.  1.
        1   -1    0    0  501    0  0.00000000000E+00  0.00000000000E+00 -0.13024403767E+04  0.13024403768E+04  0.50400001928E-02 0. -1.
    10030    2    1    2    0    0  0.00000000000E+00  0.00000000000E+00  0.14491547734E+03  0.27497962309E+04  0.27459750209E+04 0.  0.
        3    1    3    3  502    0  0.21720877047E+03 -0.13515892711E+04  0.17806294768E+03  0.13804635566E+04  0.10100000352E+00 0. -1.
       -3    1    3    3    0  502 -0.21720877047E+03  0.13515892711E+04 -0.33147470341E+02  0.13693326742E+04  0.10100000352E+00 0.  1.
</event>
<event>
 5   0  0.6648328E-05  0.1882653E+04  0.7818609E-02  0.8663539E-01
       -2   -1    0    0    0  501  0.00000000000E+00  0.00000000000E+00  0.10430632393E+04  0.10430632393E+04  0.25500000920E-02 0.  1.
        2   -1    0    0  501    0  0.00000000000E+00  0.00000000000E+00 -0.84951321831E+03  0.84951321832E+03  0.25500000920E-02 0. -1.
    10030    2    1    2    0    0  0.00000000000E+00  0.00000000000E+00  0.19355002102E+03  0.18925764577E+04  0.18826534565E+04 0.  0.
        2    1    3    3  502    0  0.71619120020E+03  0.67218268569E+02  0.70713901957E+03  0.10087089391E+04  0.25500000920E-02 0. -1.
       -2    1    3    3    0  502 -0.71619120020E+03 -0.67218268569E+02 -0.51358899855E+03  0.88386751853E+03  0.25500000920E-02 0.  1.
</event>
<event>
 5   0  0.2980790E-05  0.2542357E+04  0.7818609E-02  0.8388049E-01
        1   -1    0    0  501    0  0.00000000000E+00  0.00000000000E+00  0.81293539013E+03  0.81293539014E+03  0.50400001928E-02 0.  1.
       -1   -1    0    0    0  501  0.00000000000E+00  0.00000000000E+00 -0.19877278915E+04  0.19877278915E+04  0.50400001928E-02 0. -1.
    10030    2    1    2    0    0  0.00000000000E+00  0.00000000000E+00 -0.11747925014E+04  0.28006632816E+04  0.25423566618E+04 0.  0.
        5    1    3    3  502    0  0.47090615317E+03  0.11619379169E+04 -0.35627009237E+03  0.13033812936E+04  0.46999998093E+01 0.  1.
       -5    1    3    3    0  502 -0.47090615317E+03 -0.11619379169E+04 -0.81852240898E+03  0.14972819880E+04  0.46999998093E+01 0. -1.
</event>
<event>
 5   0  0.7071821E-05  0.2487597E+04  0.7818609E-02  0.8407417E-01
       -2   -1    0    0    0  501  0.00000000000E+00  0.00000000000E+00  0.65122044767E+03  0.65122044768E+03  0.25500000920E-02 0.  1.
        2   -1    0    0  501    0  0.00000000000E+00  0.00000000000E+00 -0.23755939026E+04  0.23755939026E+04  0.25500000920E-02 0. -1.
    10030    2    1    2    0    0  0.00000000000E+00  0.00000000000E+00 -0.17243734549E+04  0.30268143503E+04  0.24875974954E+04 0.  0.
        5    1    3    3  502    0 -0.86388511757E+03  0.88823241404E+03 -0.99413063335E+03  0.15885755015E+04  0.46999998093E+01 0. -1.
       -5    1    3    3    0  502  0.86388511757E+03 -0.88823241404E+03 -0.73024282155E+03  0.14382388488E+04  0.46999998093E+01 0.  1.
</event>
<event>
 5   0  0.2793920E-05  0.2515129E+04  0.7818609E-02  0.8397616E-01
        1   -1    0    0  501    0  0.00000000000E+00  0.00000000000E+00  0.17085498002E+04  0.17085498002E+04  0.50400001928E-02 0.  1.
       -1   -1    0    0    0  501  0.00000000000E+00  0.00000000000E+00 -0.92562024395E+03  0.92562024396E+03  0.50400001928E-02 0. -1.
    10030    2    1    2    0    0  0.00000000000E+00  0.00000000000E+00  0.78292955622E+03  0.26341700441E+04  0.25151288499E+04 0.  0.
        2    1    3    3  502    0  0.77860851350E+03 -0.97402606645E+02 -0.63777338429E+03  0.10111742554E+04  0.25500000920E-02 0. -1.
       -2    1    3    3    0  502 -0.77860851350E+03  0.97402606645E+02  0.14207029405E+04  0.16229957887E+04  0.25500000920E-02 0.  1.
</event>
<event>
 5   0  0.2331375E-05  0.1296633E+04  0.7818609E-02  0.9032240E-01
       -4   -1    0    0    0  501  0.00000000000E+00  0.00000000000E+00  0.49165900179E+03  0.49166064205E+03  0.12699999809E+01 0.  1.
        4   -1    0    0  501    0  0.00000000000E+00  0.00000000000E+00 -0.85488627645E+03  0.85488721979E+03  0.12699999809E+01 0. -1.
    10030    2    1    2    0    0  0.00000000000E+00  0.00000000000E+00 -0.36322727466E+03  0.13465478618E+04  0.12966329824E+04 0.  0.
        5    1    3    3  502    0 -0.43999295251E+03  0.37196798211E+03  0.12704541239E+03  0.59001407168E+03  0.46999998093E+01 0.  1.
       -5    1    3    3    0  502  0.43999295251E+03 -0.37196798211E+03 -0.49027268706E+03  0.75653379016E+03  0.46999998093E+01 0. -1.
</event>
<event>
 5   0  0.2977854E-05  0.2521869E+04  0.7818609E-02  0.8395236E-01
       -1   -1    0    0    0  501  0.00000000000E+00  0.00000000000E+00  0.12104857271E+04  0.12104857271E+04  0.50400001928E-02 0.  1.
        1   -1    0    0  501    0  0.00000000000E+00  0.00000000000E+00 -0.13134855040E+04  0.13134855040E+04  0.50400001928E-02 0. -1.
    10030    2    1    2    0    0  0.00000000000E+00  0.00000000000E+00 -0.10299977688E+03  0.25239712311E+04  0.25218687162E+04 0.  0.
        1    1    3    3  502    0 -0.18912879612E+03  0.52434724770E+03  0.10804805242E+04  0.12157910597E+04  0.50400001928E-02 0.  1.
       -1    1    3    3    0  502  0.18912879612E+03 -0.52434724770E+03 -0.11834803011E+04  0.13081801714E+04  0.50400001928E-02 0. -1.
</event>
<event>
 5   0  0.2793920E-05  0.2499294E+04  0.7818609E-02  0.8403237E-01
        1   -1    0    0  501    0  0.00000000000E+00  0.00000000000E+00  0.11712107070E+04  0.11712107070E+04  0.50400001928E-02 0.  1.
       -1   -1    0    0    0  501  0.00000000000E+00  0.00000000000E+00 -0.13333360886E+04  0.13333360886E+04  0.50400001928E-02 0. -1.
    10030    2    1    2    0    0  0.00000000000E+00  0.00000000000E+00 -0.16212538168E+03  0.25045467956E+04  0.24992939027E+04 0.  0.
        2    1    3    3  502    0 -0.12478290248E+04 -0.44072511644E+02 -0.29986540238E+02  0.12489671148E+04  0.25500000920E-02 0. -1.
       -2    1    3    3    0  502  0.12478290248E+04  0.44072511644E+02 -0.13213884144E+03  0.12555796808E+04  0.25500000920E-02 0.  1.
</event>
<event>
 5   0  0.6445331E-05  0.1613241E+04  0.7818609E-02  0.8812455E-01
        2   -1    0    0  501    0  0.00000000000E+00  0.00000000000E+00  0.13059180648E+04  0.13059180648E+04  0.25500000920E-02 0.  1.
       -2   -1    0    0    0  501  0.00000000000E+00  0.00000000000E+00 -0.49822155249E+03  0.49822155250E+03  0.25500000920E-02 0. -1.
    10030    2    1    2    0    0  0.00000000000E+00  0.00000000000E+00  0.80769651235E+03  0.18041396173E+04  0.16132408694E+04 0.  0.
        1    1    3    3  502    0  0.34271108707E+03  0.15506837116E+03 -0.39412676409E+03  0.54482382027E+03  0.50400001928E-02 0. -1.
       -1    1    3    3    0  502 -0.34271108707E+03 -0.15506837116E+03  0.12018232764E+04  0.12593157971E+04  0.50400001928E-02 0.  1.
</event>
<event>
 5   0  0.6445331E-05  0.2382740E+04  0.7818609E-02  0.8445994E-01
       -2   -1    0    0    0  501  0.00000000000E+00  0.00000000000E+00  0.46014684851E+03  0.46014684852E+03  0.25500000920E-02 0. -1.
        2   -1    0    0  501    0  0.00000000000E+00  0.00000000000E+00 -0.30845856106E+04  0.30845856106E+04  0.25500000920E-02 0.  1.
    10030    2    1    2    0    0  0.00000000000E+00  0.00000000000E+00 -0.26244387621E+04  0.35447324591E+04  0.23827398916E+04 0.  0.
        1    1    3    3  502    0 -0.41799777702E+03  0.54444988115E+03 -0.27608582375E+04  0.28449052748E+04  0.50400001928E-02 0.  1.
       -1    1    3    3    0  502  0.41799777702E+03 -0.54444988115E+03  0.13641947542E+03  0.69982718437E+03  0.50400001928E-02 0. -1.
</event>
<event>
 5   0  0.2331375E-05  0.2015106E+04  0.7818609E-02  0.8599590E-01
        3   -1    0    0  501    0  0.00000000000E+00  0.00000000000E+00  0.71658075631E+03  0.71658076343E+03  0.10100000352E+00 0. -1.
       -3   -1    0    0    0  501  0.00000000000E+00  0.00000000000E+00 -0.14166767093E+04  0.14166767129E+04  0.10100000352E+00 0.  1.
    10030    2    1    2    0    0  0.00000000000E+00  0.00000000000E+00 -0.70009595304E+03  0.21332574764E+04  0.20151062297E+04 0.  0.
        3    1    3    3  502    0  0.56537999958E+03 -0.18250221188E+03  0.51142263392E+03  0.78390989402E+03  0.10100000352E+00 0. -1.
       -3    1    3    3    0  502 -0.56537999958E+03  0.18250221188E+03 -0.12115185870E+04  0.13493475824E+04  0.10100000352E+00 0.  1.
</event>
<event>
 5   0  0.2896652E-05  0.1495996E+04  0.7818609E-02  0.8887120E-01
       -1   -1    0    0    0  501  0.00000000000E+00  0.00000000000E+00  0.10935443132E+04  0.10935443132E+04  0.50400001928E-02 0. -1.
        1   -1    0    0  501    0  0.00000000000E+00  0.00000000000E+00 -0.51163973789E+03  0.51163973792E+03  0.50400001928E-02 0.  1.
    10030    2    1    2    0    0  0.00000000000E+00  0.00000000000E+00  0.58190457534E+03  0.16051840512E+04  0.14959956228E+04 0.  0.
        4    1    3    3  502    0 -0.35908208552E+03 -0.61084335979E+03  0.33816661528E+02  0.70937629918E+03  0.12699999809E+01 0.  1.
       -4    1    3    3    0  502  0.35908208552E+03  0.61084335979E+03  0.54808791382E+03  0.89580775198E+03  0.12699999809E+01 0. -1.
</event>
<event>
 5   0  0.7071821E-05  0.2809530E+04  0.7818609E-02  0.8300316E-01
       -2   -1    0    0    0  501  0.00000000000E+00  0.00000000000E+00  0.95741571538E+03  0.95741571539E+03  0.25500000920E-02 0.  1.
        2   -1    0    0  501    0  0.00000000000E+00  0.00000000000E+00 -0.20611374569E+04  0.20611374569E+04  0.25500000920E-02 0. -1.
    10030    2    1    2    0    0  0.00000000000E+00  0.00000000000E+00 -0.11037217415E+04  0.30185531723E+04  0.28095304894E+04 0.  0.
        5    1    3    3  502    0  0.12703598957E+04 -0.87115702789E+02  0.85520446616E+02  0.12762206890E+04  0.46999998093E+01 0.  1.
       -5    1    3    3    0  502 -0.12703598957E+04  0.87115702789E+02 -0.11892421881E+04  0.17423324833E+04  0.46999998093E+01 0. -1.
</event>
<event>
 5   0  0.2980790E-05  0.2425366E+04  0.7818609E-02  0.8430068E-01
       -1   -1    0    0    0  501  0.00000000000E+00  0.00000000000E+00  0.12030110026E+04  0.12030110026E+04  0.50400001928E-02 0.  1.
        1   -1    0    0  501    0  0.00000000000E+00  0.00000000000E+00 -0.12224327939E+04  0.12224327939E+04  0.50400001928E-02 0. -1.
    10030    2    1    2    0    0  0.00000000000E+00  0.00000000000E+00 -0.19421791356E+02  0.24254437965E+04  0.24253660350E+04 0.  0.
        5    1    3    3  502    0  0.13640803961E+02  0.94313642151E+03  0.75247207374E+03  0.12066187024E+04  0.46999998093E+01 0.  1.
       -5    1    3    3    0  502 -0.13640803961E+02 -0.94313642151E+03 -0.77189386510E+03  0.12188250941E+04  0.46999998093E+01 0. -1.
</event>
<event>
 5   0  0.2793920E-05  0.1774243E+04  0.7818609E-02  0.8720118E-01
       -1   -1    0    0    0  501  0.00000000000E+00  0.00000000000E+00  0.61646191479E+03  0.61646191481E+03  0.50400001928E-02 0.  1.
        1   -1    0    0  501    0  0.00000000000E+00  0.00000000000E+00 -0.12766145802E+04  0.12766145803E+04  0.50400001928E-02 0. -1.
    10030    2    1    2    0    0  0.00000000000E+00  0.00000000000E+00 -0.66015266545E+03  0.18930764951E+04  0.17742426763E+04 0.  0.
        2    1    3    3  502    0 -0.48546358207E+03 -0.65370808750E+03  0.45607410638E+02  0.81553000502E+03  0.25500000920E-02 0. -1.
       -2    1    3    3    0  502  0.48546358207E+03  0.65370808750E+03 -0.70576007609E+03  0.10775464900E+04  0.25500000920E-02 0.  1.
</event>
<event>
 5   0  0.7071821E-05  0.1378063E+04  0.7818609E-02  0.8969852E-01
       -2   -1    0    0    0  501  0.00000000000E+00  0.00000000000E+00  0.40302544259E+03  0.40302544260E+03  0.25500000920E-02 0. -1.
        2   -1    0    0  501    0  0.00000000000E+00  0.00000000000E+00 -0.11780011185E+04  0.11780011185E+04  0.25500000920E-02 0.  1.
    10030    2    1    2    0    0  0.00000000000E+00  0.00000000000E+00 -0.77497567588E+03  0.15810265611E+04  0.13780630206E+04 0.  0.
        5    1    3    3  502    0  0.23344853033E+03 -0.11650935178E+03 -0.11191169665E+04  0.11491377290E+04  0.46999998093E+01 0.  1.
       -5    1    3    3    0  502 -0.23344853033E+03  0.11650935178E+03  0.34414129065E+03  0.43188883210E+03  0.46999998093E+01 0. -1.
</event>
<event>
 5   0  0.6445331E-05  0.2592978E+04  0.7818609E-02  0.8370590E-01
        2   -1    0    0  501    0  0.00000000000E+00  0.00000000000E+00  0.27759193224E+04  0.27759193224E+04  0.25500000920E-02 0. -1.
       -2   -1    0    0    0  501  0.00000000000E+00  0.00000000000E+00 -0.60552311291E+03  0.60552311291E+03  0.25500000920E-02 0.  1.
    10030    2    1    2    0    0  0.00000000000E+00  0.00000000000E+00  0.21703962095E+04  0.33814424353E+04  0.25929776777E+04 0.  0.
        1    1    3    3  502    0  0.12758886101E+04 -0.22439832779E+03  0.10182320788E+04  0.16477387297E+04  0.50400001928E-02 0.  1.
       -1    1    3    3    0  502 -0.12758886101E+04  0.22439832779E+03  0.11521641307E+04  0.17337037056E+04  0.50400001928E-02 0. -1.
</event>
<event>
 5   0  0.2793920E-05  0.2503522E+04  0.7818609E-02  0.8401732E-01
        1   -1    0    0  501    0  0.00000000000E+00  0.00000000000E+00  0.18518405298E+04  0.18518405298E+04  0.50400001928E-02 0.  1.
       -1   -1    0    0    0  501  0.00000000000E+00  0.00000000000E+00 -0.84613435869E+03  0.84613435871E+03  0.50400001928E-02 0. -1.
    10030    2    1    2    0    0  0.00000000000E+00  0.00000000000E+00  0.10057061711E+04  0.26979748885E+04  0.25035222380E+04 0.  0.
        2    1    3    3  502    0 -0.17815931193E+02  0.12496848826E+04  0.57810656259E+03  0.13770391828E+04  0.25500000920E-02 0. -1.
       -2    1    3    3    0  502  0.17815931193E+02 -0.12496848826E+04  0.42759960850E+03  0.13209357057E+04  0.25500000920E-02 0.  1.
</event>
<event>
 5   0  0.2980790E-05  0.2550934E+04  0.7818609E-02  0.8385062E-01
       -1   -1    0    0    0  501  0.00000000000E+00  0.00000000000E+00  0.11427211936E+04  0.11427211936E+04  0.50400001928E-02 0.  1.
        1   -1    0    0  501    0  0.00000000000E+00  0.00000000000E+00 -0.14236328630E+04  0.14236328630E+04  0.50400001928E-02 0. -1.
    10030    2    1    2    0    0  0.00000000000E+00  0.00000000000E+00 -0.28091166942E+03  0.25663540566E+04  0.25509335111E+04 0.  0.
        5    1    3    3  502    0 -0.48010970753E+03  0.91737916386E+03  0.60883062244E+03  0.12011605548E+04  0.46999998093E+01 0.  1.
       -5    1    3    3    0  502  0.48010970753E+03 -0.91737916386E+03 -0.88974229186E+03  0.13651935018E+04  0.46999998093E+01 0. -1.
</event>
<event>
 5   0  0.2777539E-05  0.2381442E+04  0.7818609E-02  0.8446484E-01
       -1   -1    0    0    0  501  0.00000000000E+00  0.00000000000E+00  0.72563669518E+03  0.72563669520E+03  0.50400001928E-02 0. -1.
        1   -1    0    0  501    0  0.00000000000E+00  0.00000000000E+00 -0.19538928805E+04  0.19538928805E+04  0.50400001928E-02 0.  1.
    10030    2    1    2    0    0  0.00000000000E+00  0.00000000000E+00 -0.12282561853E+04  0.26795295757E+04  0.23814418931E+04 0.  0.
        3    1    3    3  502    0  0.61998993899E+03 -0.68980215742E+03  0.22606800028E+03  0.95463149528E+03  0.10100000352E+00 0. -1.
       -3    1    3    3    0  502 -0.61998993899E+03  0.68980215742E+03 -0.14543241856E+04  0.17248980804E+04  0.10100000352E+00 0.  1.
</event>
<event>
 5   0  0.2777539E-05  0.2443866E+04  0.7818609E-02  0.8423261E-01
       -1   -1    0    0    0  501  0.00000000000E+00  0.00000000000E+00  0.10976461715E+04  0.10976461715E+04  0.50400001928E-02 0.  1.
        1   -1    0    0  501    0  0.00000000000E+00  0.00000000000E+00 -0.13602926557E+04  0.13602926558E+04  0.50400001928E-02 0. -1.
    10030    2    1    2    0    0  0.00000000000E+00  0.00000000000E+00 -0.26264648428E+03  0.24579388272E+04  0.24438658111E+04 0.  0.
        3    1    3    3  502    0  0.65043762599E+03  0.91293423440E+03 -0.62054179012E+03  0.12812455444E+04  0.10100000352E+00 0. -1.
       -3    1    3    3    0  502 -0.65043762599E+03 -0.91293423440E+03  0.35789530584E+03  0.11766932828E+04  0.10100000352E+00 0.  1.
</event>
<event>
 5   0  0.2980790E-05  0.2485517E+04  0.7818609E-02  0.8408163E-01
       -1   -1    0    0    0  501  0.00000000000E+00  0.00000000000E+00  0.10806671434E+04  0.10806671434E+04  0.50400001928E-02 0.  1.
        1   -1    0    0  501    0  0.00000000000E+00  0.00000000000E+00 -0.14291621967E+04  0.14291621968E+04  0.50400001928E-02 0. -1.
    10030    2    1    2    0    0  0.00000000000E+00  0.00000000000E+00 -0.34849505334E+03  0.25098293402E+04  0.24855169512E+04 0.  0.
        5    1    3    3  502    0  0.37089688159E+03  0.53279205781E+03  0.89583262616E+03  0.11063318027E+04  0.46999998093E+01 0.  1.
       -5    1    3    3    0  502 -0.37089688159E+03 -0.53279205781E+03 -0.12443276795E+04  0.14034975374E+04  0.46999998093E+01 0. -1.
</event>
<event>
 5   0  0.2896652E-05  0.2327481E+04  0.7818609E-02  0.8467164E-01
        1   -1    0    0  501    0  0.00000000000E+00  0.00000000000E+00  0.14723130483E+04  0.14723130483E+04  0.50400001928E-02 0. -1.
       -1   -1    0    0    0  501  0.00000000000E+00  0.00000000000E+00 -0.91983939940E+03  0.91983939941E+03  0.50400001928E-02 0.  1.
    10030    2    1    2    0    0  0.00000000000E+00  0.00000000000E+00  0.55247364892E+03  0.23921524477E+04  0.23274806552E+04 0.  0.
        4    1    3    3  502    0 -0.10002088489E+04 -0.26341083673E+03 -0.27195673636E+03  0.10694695366E+04  0.12699999809E+01 0.  1.
       -4    1    3    3    0  502  0.10002088489E+04  0.26341083673E+03  0.82443038527E+03  0.13226829111E+04  0.12699999809E+01 0. -1.
</event>
<event>
 5   0  0.2980790E-05  0.2553763E+04  0.7818609E-02  0.8384079E-01
        1   -1    0    0  501    0  0.00000000000E+00  0.00000000000E+00  0.18004334563E+04  0.18004334563E+04  0.50400001928E-02 0.  1.
       -1   -1    0    0    0  501  0.00000000000E+00  0.00000000000E+00 -0.90557431727E+03  0.90557431728E+03  0.50400001928E-02 0. -1.
    10030    2    1    2    0    0  0.00000000000E+00  0.00000000000E+00  0.89485913903E+03  0.27060077736E+04  0.25537629475E+04 0.  0.
        5    1    3    3  502    0  0.30708486086E+03  0.34317071933E+03 -0.81450886424E+03  0.93568906924E+03  0.46999998093E+01 0. -1.
       -5    1    3    3    0  502 -0.30708486086E+03 -0.34317071933E+03  0.17093680033E+04  0.17703187043E+04  0.46999998093E+01 0.  1.
</event>
<event>
 5   0  0.6909250E-05  0.2490003E+04  0.7818609E-02  0.8406556E-01
       -2   -1    0    0    0  501  0.00000000000E+00  0.00000000000E+00  0.12847464036E+04  0.12847464036E+04  0.25500000920E-02 0.  1.
        2   -1    0    0  501    0  0.00000000000E+00  0.00000000000E+00 -0.12064861334E+04  0.12064861334E+04  0.25500000920E-02 0. -1.
    10030    2    1    2    0    0  0.00000000000E+00  0.00000000000E+00  0.78260270156E+02  0.24912325370E+04  0.24900029886E+04 0.  0.
        4    1    3    3  502    0  0.21277774400E+03 -0.12110836798E+03 -0.11821632189E+04  0.12072502202E+04  0.12699999809E+01 0. -1.
       -4    1    3    3    0  502 -0.21277774400E+03  0.12110836798E+03  0.12604234891E+04  0.12839823168E+04  0.12699999809E+01 0.  1.
</event>
<event>
 5   0  0.2980790E-05  0.2508334E+04  0.7818609E-02  0.8400022E-01
       -1   -1    0    0    0  501  0.00000000000E+00  0.00000000000E+00  0.94761019952E+03  0.94761019953E+03  0.50400001928E-02 0.  1.
        1   -1    0    0  501    0  0.00000000000E+00  0.00000000000E+00 -0.16598968509E+04  0.16598968510E+04  0.50400001928E-02 0. -1.
    10030    2    1    2    0    0  0.00000000000E+00  0.00000000000E+00 -0.71228665143E+03  0.26075070505E+04  0.25083342569E+04 0.  0.
        5    1    3    3  502    0  0.17313387431E+03  0.89543984618E+03 -0.12510667667E+04  0.15482176853E+04  0.46999998093E+01 0. -1.
       -5    1    3    3    0  502 -0.17313387431E+03 -0.89543984618E+03  0.53878011523E+03  0.10592893652E+04  0.46999998093E+01 0.  1.
</event>
<event>
 5   0  0.6827859E-05  0.2506132E+04  0.7818609E-02  0.8400804E-01
        2   -1    0    0  501    0  0.00000000000E+00  0.00000000000E+00  0.17856810994E+04  0.17856810994E+04  0.25500000920E-02 0.  1.
       -2   -1    0    0    0  501  0.00000000000E+00  0.00000000000E+00 -0.87931372252E+03  0.87931372252E+03  0.25500000920E-02 0. -1.
    10030    2    1    2    0    0  0.00000000000E+00  0.00000000000E+00  0.90636737692E+03  0.26649948220E+04  0.25061315965E+04 0.  0.
        3    1    3    3  502    0 -0.12390477447E+04  0.16058270474E+03  0.55489049511E+03  0.13670879966E+04  0.10100000352E+00 0. -1.
       -3    1    3    3    0  502  0.12390477447E+04 -0.16058270474E+03  0.35147688181E+03  0.12979068254E+04  0.10100000352E+00 0.  1.
</event>
<event>
 5   0  0.6827859E-05  0.2520623E+04  0.7818609E-02  0.8395675E-01
       -2   -1    0    0    0  501  0.00000000000E+00  0.00000000000E+00  0.12175612852E+04  0.12175612852E+04  0.25500000920E-02 0. -1.
        2   -1    0    0  501    0  0.00000000000E+00  0.00000000000E+00 -0.13045624351E+04  0.13045624351E+04  0.25500000920E-02 0.  1.
    10030    2    1    2    0    0  0.00000000000E+00  0.00000000000E+00 -0.87001149894E+02  0.25221237204E+04  0.25206227129E+04 0.  0.
        3    1    3    3  502    0  0.10260774139E+04  0.53772633340E+03 -0.54018335246E+03  0.12781950295E+04  0.10100000352E+00 0.  1.
       -3    1    3    3    0  502 -0.10260774139E+04 -0.53772633340E+03  0.45318220256E+03  0.12439286909E+04  0.10100000352E+00 0. -1.
</event>
<event>
 5   0  0.2793920E-05  0.2497447E+04  0.7818609E-02  0.8403896E-01
        1   -1    0    0  501    0  0.00000000000E+00  0.00000000000E+00  0.12084441262E+04  0.12084441262E+04  0.50400001928E-02 0. -1.
       -1   -1    0    0    0  501  0.00000000000E+00  0.00000000000E+00 -0.12903455523E+04  0.12903455523E+04  0.50400001928E-02 0.  1.
    10030    2    1    2    0    0  0.00000000000E+00  0.00000000000E+00 -0.81901426058E+02  0.24987896786E+04  0.24974470994E+04 0.  0.
        2    1    3    3  502    0 -0.41045098516E+03  0.11004366539E+04  0.38339951339E+03  0.12354861502E+04  0.25500000920E-02 0. -1.
       -2    1    3    3    0  502  0.41045098516E+03 -0.11004366539E+04 -0.46530093945E+03  0.12633035283E+04  0.25500000920E-02 0.  1.
</event>
<event>
 5   0  0.7071821E-05  0.1914556E+04  0.7818609E-02  0.8647644E-01
       -2   -1    0    0    0  501  0.00000000000E+00  0.00000000000E+00  0.33623514005E+03  0.33623514006E+03  0.25500000920E-02 0. -1.
        2   -1    0    0  501    0  0.00000000000E+00  0.00000000000E+00 -0.27254188362E+04  0.27254188362E+04  0.25500000920E-02 0.  1.
    10030    2    1    2    0    0  0.00000000000E+00  0.00000000000E+00 -0.23891836962E+04  0.30616539763E+04  0.19145564333E+04 0.  0.
        5    1    3    3  502    0 -0.83668676958E+03 -0.43856839742E+03 -0.94699527005E+03  0.13376132180E+04  0.46999998093E+01 0. -1.
       -5    1    3    3    0  502  0.83668676958E+03  0.43856839742E+03 -0.14421884261E+04  0.17240407582E+04  0.46999998093E+01 0.  1.
</event>
<event>
 5   0  0.2980790E-05  0.2478446E+04  0.7818609E-02  0.8410705E-01
        1   -1    0    0  501    0  0.00000000000E+00  0.00000000000E+00  0.10292079088E+04  0.10292079088E+04  0.50400001928E-02 0.  1.
       -1   -1    0    0    0  501  0.00000000000E+00  0.00000000000E+00 -0.14920924199E+04  0.14920924200E+04  0.50400001928E-02 0. -1.
    10030    2    1    2    0    0  0.00000000000E+00  0.00000000000E+00 -0.46288451112E+03  0.25213003288E+04  0.24784457382E+04 0.  0.
        5    1    3    3  502    0 -0.20192337298E+02 -0.91064422560E+03 -0.10861909988E+04  0.14175731416E+04  0.46999998093E+01 0. -1.
       -5    1    3    3    0  502  0.20192337298E+02  0.91064422560E+03  0.62330648764E+03  0.11037271871E+04  0.46999998093E+01 0.  1.
</event>
<event>
 5   0  0.2793920E-05  0.2439587E+04  0.7818609E-02  0.8424830E-01
       -1   -1    0    0    0  501  0.00000000000E+00  0.00000000000E+00  0.78319033825E+03  0.78319033826E+03  0.50400001928E-02 0.  1.
        1   -1    0    0  501    0  0.00000000000E+00  0.00000000000E+00 -0.18997882154E+04  0.18997882154E+04  0.50400001928E-02 0. -1.
    10030    2    1    2    0    0  0.00000000000E+00  0.00000000000E+00 -0.11165978771E+04  0.26829785536E+04  0.24395866658E+04 0.  0.
        2    1    3    3  502    0 -0.30179358158E+03  0.31880884878E+03  0.69330109699E+03  0.82060030407E+03  0.25500000920E-02 0.  1.
       -2    1    3    3    0  502  0.30179358158E+03 -0.31880884878E+03 -0.18098989741E+04  0.18623782496E+04  0.25500000920E-02 0. -1.
</event>
<event>
 5   0  0.7071821E-05  0.2506133E+04  0.7818609E-02  0.8400804E-01
       -2   -1    0    0    0  501  0.00000000000E+00  0.00000000000E+00  0.11385616270E+04  0.11385616270E+04  0.25500000920E-02 0.  1.
        2   -1    0    0  501    0  0.00000000000E+00  0.00000000000E+00 -0.13790868919E+04  0.13790868920E+04  0.25500000920E-02 0. -1.
    10030    2    1    2    0    0  0.00000000000E+00  0.00000000000E+00 -0.24052526496E+03  0.25176485189E+04  0.25061328101E+04 0.  0.
        5    1    3    3  502    0  0.21270721487E+03 -0.81378221043E+03 -0.10533294192E+04  0.13479654301E+04  0.46999998093E+01 0. -1.
       -5    1    3    3    0  502 -0.21270721487E+03  0.81378221043E+03  0.81280415425E+03  0.11696830889E+04  0.46999998093E+01 0.  1.
</event>
<event>
 5   0  0.6445331E-05  0.2546509E+04  0.7818609E-02  0.8386601E-01
        2   -1    0    0  501    0  0.00000000000E+00  0.00000000000E+00  0.17182417991E+04  0.17182417991E+04  0.25500000920E-02 0. -1.
       -2   -1    0    0    0  501  0.00000000000E+00  0.00000000000E+00 -0.94350951196E+03  0.94350951196E+03  0.25500000920E-02 0.  1.
    10030    2    1    2    0    0  0.00000000000E+00  0.00000000000E+00  0.77473228719E+03  0.26617513111E+04  0.25465093609E+04 0.  0.
        1    1    3    3  502    0  0.51838523719E+03  0.79034441014E+03  0.12790916542E+04  0.15904222711E+04  0.50400001928E-02 0. -1.
       -1    1    3    3    0  502 -0.51838523719E+03 -0.79034441014E+03 -0.50435936698E+03  0.10713290400E+04  0.50400001928E-02 0.  1.
</event>
<event>
 5   0  0.2793920E-05  0.2462262E+04  0.7818609E-02  0.8416554E-01
        1   -1    0    0  501    0  0.00000000000E+00  0.00000000000E+00  0.18061395684E+04  0.18061395684E+04  0.50400001928E-02 0.  1.
       -1   -1    0    0    0  501  0.00000000000E+00  0.00000000000E+00 -0.83918427609E+03  0.83918427610E+03  0.50400001928E-02 0. -1.
    10030    2    1    2    0    0  0.00000000000E+00  0.00000000000E+00  0.96695529231E+03  0.26453238445E+04  0.24622623144E+04 0.  0.
        2    1    3    3  502    0 -0.46634018639E+03  0.70681162473E+03 -0.47662312288E+03  0.97171263425E+03  0.25500000920E-02 0. -1.
       -2    1    3    3    0  502  0.46634018639E+03 -0.70681162473E+03  0.14435784152E+04  0.16736112103E+04  0.25500000920E-02 0.  1.
</event>
<event>
 5   0  0.6445331E-05  0.2483697E+04  0.7818609E-02  0.8408817E-01
       -2   -1    0    0    0  501  0.00000000000E+00  0.00000000000E+00  0.83931157677E+03  0.83931157677E+03  0.25500000920E-02 0. -1.
        2   -1    0    0  501    0  0.00000000000E+00  0.00000000000E+00 -0.18374430447E+04  0.18374430447E+04  0.25500000920E-02 0.  1.
    10030    2    1    2    0    0  0.00000000000E+00  0.00000000000E+00 -0.99813146793E+03  0.26767546215E+04  0.24836966152E+04 0.  0.
        1    1    3    3  502    0  0.70370735676E+03  0.96312103268E+02 -0.15969268943E+04  0.17477572975E+04  0.50400001928E-02 0.  1.
       -1    1    3    3    0  502 -0.70370735676E+03 -0.96312103268E+02  0.59879542640E+03  0.92899732395E+03  0.50400001928E-02 0. -1.
</event>
<event>
 5   0  0.2896652E-05  0.1416794E+04  0.7818609E-02  0.8941751E-01
        1   -1    0    0  501    0  0.00000000000E+00  0.00000000000E+00  0.58222401879E+03  0.58222401881E+03  0.50400001928E-02 0.  1.
       -1   -1    0    0    0  501  0.00000000000E+00  0.00000000000E+00 -0.86191280734E+03  0.86191280736E+03  0.50400001928E-02 0. -1.
    10030    2    1    2    0    0  0.00000000000E+00  0.00000000000E+00 -0.27968878855E+03  0.14441368262E+04  0.14167940409E+04 0.  0.
        4    1    3    3  502    0  0.30578987971E+03  0.60538105099E+03 -0.34831798517E+03  0.76244389900E+03  0.12699999809E+01 0.  1.
       -4    1    3    3    0  502 -0.30578987971E+03 -0.60538105099E+03  0.68629196614E+02  0.68169292717E+03  0.12699999809E+01 0. -1.
</event>
<event>
 5   0  0.6827859E-05  0.2505923E+04  0.7818609E-02  0.8400879E-01
       -2   -1    0    0    0  501  0.00000000000E+00  0.00000000000E+00  0.99705661192E+03  0.99705661192E+03  0.25500000920E-02 0. -1.
        2   -1    0    0  501    0  0.00000000000E+00  0.00000000000E+00 -0.15745469103E+04  0.15745469103E+04  0.25500000920E-02 0.  1.
    10030    2    1    2    0    0  0.00000000000E+00  0.00000000000E+00 -0.57749029835E+03  0.25716035222E+04  0.25059229100E+04 0.  0.
        3    1    3    3  502    0 -0.55350657422E+03 -0.74082737219E+03  0.57882293371E+03  0.10909769575E+04  0.10100000352E+00 0. -1.
       -3    1    3    3    0  502  0.55350657422E+03  0.74082737219E+03 -0.11563132321E+04  0.14806265646E+04  0.10100000352E+00 0.  1.
</event>
<event>
 5   0  0.2896652E-05  0.1706369E+04  0.7818609E-02  0.8757740E-01
        1   -1    0    0  501    0  0.00000000000E+00  0.00000000000E+00  0.63482825867E+03  0.63482825869E+03  0.50400001928E-02 0. -1.
       -1   -1    0    0    0  501  0.00000000000E+00  0.00000000000E+00 -0.11466472768E+04  0.11466472768E+04  0.50400001928E-02 0.  1.
    10030    2    1    2    0    0  0.00000000000E+00  0.00000000000E+00 -0.51181901809E+03  0.17814755355E+04  0.17063693551E+04 0.  0.
        4    1    3    3  502    0 -0.37475381388E+02  0.32423904302E+03  0.56706795555E+03  0.65429583549E+03  0.12699999809E+01 0. -1.
       -4    1    3    3    0  502  0.37475381388E+02 -0.32423904302E+03 -0.10788869736E+04  0.11271797000E+04  0.12699999809E+01 0.  1.
</event>
<event>
 5   0  0.6827859E-05  0.2595882E+04  0.7818609E-02  0.8369601E-01
       -2   -1    0    0    0  501  0.00000000000E+00  0.00000000000E+00  0.56617729457E+03  0.56617729458E+03  0.25500000920E-02 0.  1.
        2   -1    0    0  501    0  0.00000000000E+00  0.00000000000E+00 -0.29754834933E+04  0.29754834934E+04  0.25500000920E-02 0. -1.
    10030    2    1    2    0    0  0.00000000000E+00  0.00000000000E+00 -0.24093061988E+04  0.35416607879E+04  0.25958822734E+04 0.  0.
        3    1    3    3  502    0 -0.10040056838E+04  0.57156895778E+03 -0.39757747147E+03  0.12217963589E+04  0.10100000352E+00 0.  1.
       -3    1    3    3    0  502  0.10040056838E+04 -0.57156895778E+03 -0.20117287273E+04  0.23198644290E+04  0.10100000352E+00 0. -1.
</event>
<event>
 5   0  0.6909250E-05  0.2483312E+04  0.7818609E-02  0.8408955E-01
       -2   -1    0    0    0  501  0.00000000000E+00  0.00000000000E+00  0.16956213497E+04  0.16956213497E+04  0.25500000920E-02 0. -1.
        2   -1    0    0  501    0  0.00000000000E+00  0.00000000000E+00 -0.90922973549E+03  0.90922973549E+03  0.25500000920E-02 0.  1.
    10030    2    1    2    0    0  0.00000000000E+00  0.00000000000E+00  0.78639161417E+03  0.26048510851E+04  0.24833117817E+04 0.  0.
        4    1    3    3  502    0 -0.60652959774E+03 -0.28235055771E+03 -0.70399383304E+03  0.97118943581E+03  0.12699999809E+01 0.  1.
       -4    1    3    3    0  502  0.60652959774E+03  0.28235055771E+03  0.14903854472E+04  0.16336616493E+04  0.12699999809E+01 0. -1.
</event>
<event>
 5   0  0.6648328E-05  0.2086165E+04  0.7818609E-02  0.8567362E-01
        2   -1    0    0  501    0  0.00000000000E+00  0.00000000000E+00  0.18514105587E+04  0.18514105587E+04  0.25500000920E-02 0. -1.
       -2   -1    0    0    0  501  0.00000000000E+00  0.00000000000E+00 -0.58767155492E+03  0.58767155493E+03  0.25500000920E-02 0.  1.
    10030    2    1    2    0    0  0.00000000000E+00  0.00000000000E+00  0.12637390038E+04  0.24390821136E+04  0.20861652110E+04 0.  0.
        2    1    3    3  502    0 -0.54098265749E+02 -0.80252508424E+03 -0.14459345960E+03  0.81723950086E+03  0.25500000920E-02 0.  1.
       -2    1    3    3    0  502  0.54098265749E+02  0.80252508424E+03  0.14083324634E+04  0.16218426128E+04  0.25500000920E-02 0. -1.
</event>
<event>
 5   0  0.6648328E-05  0.2432395E+04  0.7818609E-02  0.8427474E-01
       -2   -1    0    0    0  501  0.00000000000E+00  0.00000000000E+00  0.74580635316E+03  0.74580635316E+03  0.25500000920E-02 0.  1.
        2   -1    0    0  501    0  0.00000000000E+00  0.00000000000E+00 -0.19832717773E+04  0.19832717773E+04  0.25500000920E-02 0. -1.
    10030    2    1    2    0    0  0.00000000000E+00  0.00000000000E+00 -0.12374654241E+04  0.27290781304E+04  0.24323952734E+04 0.  0.
        2    1    3    3  502    0  0.13091256370E+03  0.17081606845E+03 -0.19617379486E+04  0.19735075392E+04  0.25500000920E-02 0. -1.
       -2    1    3    3    0  502 -0.13091256370E+03 -0.17081606845E+03  0.72427252446E+03  0.75557059119E+03  0.25500000920E-02 0.  1.
</event>
<event>
 5   0  0.2896652E-05  0.2488944E+04  0.7818609E-02  0.8406935E-01
       -1   -1    0    0    0  501  0.00000000000E+00  0.00000000000E+00  0.11493430309E+04  0.11493430309E+04  0.50400001928E-02 0.  1.
        1   -1    0    0  501    0  0.00000000000E+00  0.00000000000E+00 -0.13474743768E+04  0.13474743768E+04  0.50400001928E-02 0. -1.
    10030    2    1    2    0    0  0.00000000000E+00  0.00000000000E+00 -0.19813134590E+03  0.24968174077E+04  0.24889437794E+04 0.  0.
        4    1    3    3  502    0  0.12250480456E+03  0.83441766635E+03  0.81895133189E+03  0.11755607879E+04  0.12699999809E+01 0.  1.
       -4    1    3    3    0  502 -0.12250480456E+03 -0.83441766635E+03 -0.10170826778E+04  0.13212566198E+04  0.12699999809E+01 0. -1.
</event>
<event>
 5   0  0.6648328E-05  0.2508159E+04  0.7818609E-02  0.8400085E-01
       -2   -1    0    0    0  501  0.00000000000E+00  0.00000000000E+00  0.77179152390E+03  0.77179152391E+03  0.25500000920E-02 0. -1.
        2   -1    0    0  501    0  0.00000000000E+00  0.00000000000E+00 -0.20377461512E+04  0.20377461512E+04  0.25500000920E-02 0.  1.
    10030    2    1    2    0    0  0.00000000000E+00  0.00000000000E+00 -0.12659546273E+04  0.28095376751E+04  0.25081588525E+04 0.  0.
        2    1    3    3  502    0 -0.27727979780E+03  0.12128297237E+04 -0.80964737427E+03  0.14843749175E+04  0.25500000920E-02 0.  1.
       -2    1    3    3    0  502  0.27727979780E+03 -0.12128297237E+04 -0.45630725303E+03  0.13251627576E+04  0.25500000920E-02 0. -1.
</event>
<event>
 5   0  0.7071821E-05  0.1638478E+04  0.7818609E-02  0.8797252E-01
        2   -1    0    0  501    0  0.00000000000E+00  0.00000000000E+00  0.17769456392E+04  0.17769456392E+04  0.25500000920E-02 0.  1.
       -2   -1    0    0    0  501  0.00000000000E+00  0.00000000000E+00 -0.37770023807E+03  0.37770023808E+03  0.25500000920E-02 0. -1.
    10030    2    1    2    0    0  0.00000000000E+00  0.00000000000E+00  0.13992454012E+04  0.21546458773E+04  0.16384783074E+04 0.  0.
        5    1    3    3  502    0  0.51342972928E+03 -0.20113254461E+03 -0.97100514506E+02  0.55992409068E+03  0.46999998093E+01 0. -1.
       -5    1    3    3    0  502 -0.51342972928E+03  0.20113254461E+03  0.14963459157E+04  0.15947217866E+04  0.46999998093E+01 0.  1.
</event>
<event>
 5   0  0.7071821E-05  0.2518648E+04  0.7818609E-02  0.8396372E-01
        2   -1    0    0  501    0  0.00000000000E+00  0.00000000000E+00  0.11284611748E+04  0.11284611748E+04  0.25500000920E-02 0. -1.
       -2   -1    0    0    0  501  0.00000000000E+00  0.00000000000E+00 -0.14053623222E+04  0.14053623222E+04  0.25500000920E-02 0.  1.
    10030    2    1    2    0    0  0.00000000000E+00  0.00000000000E+00 -0.27690114737E+03  0.25338234969E+04  0.25186479048E+04 0.  0.
        5    1    3    3  502    0 -0.72322170119E+02 -0.10632822614E+04 -0.81336914023E+03  0.13406681588E+04  0.46999998093E+01 0.  1.
       -5    1    3    3    0  502  0.72322170119E+02  0.10632822614E+04  0.53646799286E+03  0.11931553382E+04  0.46999998093E+01 0. -1.
</event>
<event>
 5   0  0.6827859E-05  0.2504356E+04  0.7818609E-02  0.8401435E-01
       -2   -1    0    0    0  501  0.00000000000E+00  0.00000000000E+00  0.85017939378E+03  0.85017939379E+03  0.25500000920E-02 0.  1.
        2   -1    0    0  501    0  0.00000000000E+00  0.00000000000E+00 -0.18442578761E+04  0.18442578761E+04  0.25500000920E-02 0. -1.
    10030    2    1    2    0    0  0.00000000000E+00  0.00000000000E+00 -0.99407848228E+03  0.26944372698E+04  0.25043562391E+04 0.  0.
        3    1    3    3  502    0  0.70385202720E+03  0.76331912190E+03 -0.12500819479E+04  0.16250441978E+04  0.10100000352E+00 0. -1.
       -3    1    3    3    0  502 -0.70385202720E+03 -0.76331912190E+03  0.25600346559E+03  0.10693930721E+04  0.10100000352E+00 0.  1.
</event>
<event>
 5   0  0.2980790E-05  0.2175188E+04  0.7818609E-02  0.8528827E-01
       -1   -1    0    0    0  501  0.00000000000E+00  0.00000000000E+00  0.69698212281E+03  0.69698212283E+03  0.50400001928E-02 0. -1.
        1   -1    0    0  501    0  0.00000000000E+00  0.00000000000E+00 -0.16971172414E+04  0.16971172414E+04  0.50400001928E-02 0.  1.
    10030    2    1    2    0    0  0.00000000000E+00  0.00000000000E+00 -0.10001351186E+04  0.23940993642E+04  0.21751876954E+04 0.  0.
        5    1    3    3  502    0 -0.16501124066E+03  0.10478131111E+04 -0.23569094472E+03  0.10866063393E+04  0.46999998093E+01 0. -1.
       -5    1    3    3    0  502  0.16501124066E+03 -0.10478131111E+04 -0.76444417385E+03  0.13074930249E+04  0.46999998093E+01 0.  1.
</event>
<event>
 5   0  0.2977854E-05  0.2039354E+04  0.7818609E-02  0.8588439E-01
       -1   -1    0    0    0  501  0.00000000000E+00  0.00000000000E+00  0.50732106546E+03  0.50732106548E+03  0.50400001928E-02 0. -1.
        1   -1    0    0  501    0  0.00000000000E+00  0.00000000000E+00 -0.20494735759E+04  0.20494735759E+04  0.50400001928E-02 0.  1.
    10030    2    1    2    0    0  0.00000000000E+00  0.00000000000E+00 -0.15421525105E+04  0.25567946414E+04  0.20393539352E+04 0.  0.
        1    1    3    3  502    0 -0.54370344638E+03  0.85932977150E+03 -0.67658788846E+03  0.12214058558E+04  0.50400001928E-02 0.  1.
       -1    1    3    3    0  502  0.54370344638E+03 -0.85932977150E+03 -0.86556462202E+03  0.13353887856E+04  0.50400001928E-02 0. -1.
</event>
<event>
 5   0  0.6827859E-05  0.2502581E+04  0.7818609E-02  0.8402067E-01
       -2   -1    0    0    0  501  0.00000000000E+00  0.00000000000E+00  0.72108826809E+03  0.72108826809E+03  0.25500000920E-02 0.  1.
        2   -1    0    0  501    0  0.00000000000E+00  0.00000000000E+00 -0.21713399206E+04  0.21713399206E+04  0.25500000920E-02 0. -1.
    10030    2    1    2    0    0  0.00000000000E+00  0.00000000000E+00 -0.14502516525E+04  0.28924281887E+04  0.25025808620E+04 0.  0.
        3    1    3    3  502    0  0.79163106007E+03  0.91360538146E+03 -0.10985212358E+04  0.16334330240E+04  0.10100000352E+00 0. -1.
       -3    1    3    3    0  502 -0.79163106007E+03 -0.91360538146E+03 -0.35173041667E+03  0.12589951646E+04  0.10100000352E+00 0.  1.
</event>
<event>
 5   0  0.2793920E-05  0.1547786E+04  0.7818609E-02  0.8853283E-01
        1   -1    0    0  501    0  0.00000000000E+00  0.00000000000E+00  0.91631316213E+03  0.91631316215E+03  0.50400001928E-02 0.  1.
       -1   -1    0    0    0  501  0.00000000000E+00  0.00000000000E+00 -0.65360909770E+03  0.65360909772E+03  0.50400001928E-02 0. -1.
    10030    2    1    2    0    0  0.00000000000E+00  0.00000000000E+00  0.26270406443E+03  0.15699222599E+04  0.15477863149E+04 0.  0.
        2    1    3    3  502    0 -0.21609009705E+03  0.31308986040E+03 -0.55222290896E+03  0.67057462814E+03  0.25500000920E-02 0. -1.
       -2    1    3    3    0  502  0.21609009705E+03 -0.31308986040E+03  0.81492697339E+03  0.89934763173E+03  0.25500000920E-02 0.  1.
</event>
<event>
 5   0  0.6909250E-05  0.2512999E+04  0.7818609E-02  0.8398369E-01
        2   -1    0    0  501    0  0.00000000000E+00  0.00000000000E+00  0.13670555516E+04  0.13670555516E+04  0.25500000920E-02 0. -1.
       -2   -1    0    0    0  501  0.00000000000E+00  0.00000000000E+00 -0.11548845897E+04  0.11548845897E+04  0.25500000920E-02 0.  1.
    10030    2    1    2    0    0  0.00000000000E+00  0.00000000000E+00  0.21217096188E+03  0.25219401413E+04  0.25129993154E+04 0.  0.
        4    1    3    3  502    0 -0.77480694909E+03 -0.41953496682E+03 -0.79289979770E+03  0.11853383900E+04  0.12699999809E+01 0.  1.
       -4    1    3    3    0  502  0.77480694909E+03  0.41953496682E+03  0.10050707596E+04  0.13366017512E+04  0.12699999809E+01 0. -1.
</event>
<event>
 5   0  0.2896652E-05  0.2461219E+04  0.7818609E-02  0.8416933E-01
        1   -1    0    0  501    0  0.00000000000E+00  0.00000000000E+00  0.95228479455E+03  0.95228479456E+03  0.50400001928E-02 0. -1.
       -1   -1    0    0    0  501  0.00000000000E+00  0.00000000000E+00 -0.15902807205E+04  0.15902807205E+04  0.50400001928E-02 0.  1.
    10030    2    1    2    0    0  0.00000000000E+00  0.00000000000E+00 -0.63799592593E+03  0.25425655150E+04  0.24612193313E+04 0.  0.
        4    1    3    3  502    0 -0.81866845650E+03  0.67329095905E+03 -0.96484894744E+03  0.14333435951E+04  0.12699999809E+01 0.  1.
       -4    1    3    3    0  502  0.81866845650E+03 -0.67329095905E+03  0.32685302151E+03  0.11092219200E+04  0.12699999809E+01 0. -1.
</event>
<event>
 5   0  0.6909250E-05  0.2508395E+04  0.7818609E-02  0.8400001E-01
        2   -1    0    0  501    0  0.00000000000E+00  0.00000000000E+00  0.10352116297E+04  0.10352116297E+04  0.25500000920E-02 0.  1.
       -2   -1    0    0    0  501  0.00000000000E+00  0.00000000000E+00 -0.15195066817E+04  0.15195066817E+04  0.25500000920E-02 0. -1.
    10030    2    1    2    0    0  0.00000000000E+00  0.00000000000E+00 -0.48429505195E+03  0.25547183114E+04  0.25083946965E+04 0.  0.
        4    1    3    3  502    0 -0.39072269223E+03  0.96271192043E+03  0.47334372338E+03  0.11417242913E+04  0.12699999809E+01 0.  1.
       -4    1    3    3    0  502  0.39072269223E+03 -0.96271192043E+03 -0.95763877532E+03  0.14129940201E+04  0.12699999809E+01 0. -1.
</event>
<event>
 5   0  0.6445331E-05  0.2509403E+04  0.7818609E-02  0.8399643E-01
       -2   -1    0    0    0  501  0.00000000000E+00  0.00000000000E+00  0.10688884279E+04  0.10688884279E+04  0.25500000920E-02 0.  1.
        2   -1    0    0  501    0  0.00000000000E+00  0.00000000000E+00 -0.14728157257E+04  0.14728157257E+04  0.25500000920E-02 0. -1.
    10030    2    1    2    0    0  0.00000000000E+00  0.00000000000E+00 -0.40392729784E+03  0.25417041536E+04  0.25094028657E+04 0.  0.
        1    1    3    3  502    0 -0.46473137455E+03  0.11537706554E+04 -0.35181685981E+02  0.12443471087E+04  0.50400001928E-02 0. -1.
       -1    1    3    3    0  502  0.46473137455E+03 -0.11537706554E+04 -0.36874561186E+03  0.12973570450E+04  0.50400001928E-02 0.  1.
</event>
<event>
 5   0  0.6648328E-05  0.2557088E+04  0.7818609E-02  0.8382925E-01
       -2   -1    0    0    0  501  0.00000000000E+00  0.00000000000E+00  0.12424148945E+04  0.12424148945E+04  0.25500000920E-02 0. -1.
        2   -1    0    0  501    0  0.00000000000E+00  0.00000000000E+00 -0.13157235565E+04  0.13157235565E+04  0.25500000920E-02 0.  1.
    10030    2    1    2    0    0  0.00000000000E+00  0.00000000000E+00 -0.73308662082E+02  0.25581384510E+04  0.25570878308E+04 0.  0.
        2    1    3    3  502    0  0.21583057878E+03 -0.12593640865E+04  0.91225566010E+01  0.12777573957E+04  0.25500000920E-02 0.  1.
       -2    1    3    3    0  502 -0.21583057878E+03  0.12593640865E+04 -0.82431218683E+02  0.12803810554E+04  0.25500000920E-02 0. -1.
</event>
<event>
 5   0  0.2777539E-05  0.1398788E+04  0.7818609E-02  0.8954696E-01
       -1   -1    0    0    0  501  0.00000000000E+00  0.00000000000E+00  0.65860391049E+03  0.65860391051E+03  0.50400001928E-02 0.  1.
        1   -1    0    0  501    0  0.00000000000E+00  0.00000000000E+00 -0.74271069981E+03  0.74271069983E+03  0.50400001928E-02 0. -1.
    10030    2    1    2    0    0  0.00000000000E+00  0.00000000000E+00 -0.84106789317E+02  0.14013146103E+04  0.13987882918E+04 0.  0.
        3    1    3    3  502    0 -0.13724996440E+03 -0.58253997098E+03  0.32048663315E+03  0.67889768209E+03  0.10100000352E+00 0.  1.
       -3    1    3    3    0  502  0.13724996440E+03  0.58253997098E+03 -0.40459342247E+03  0.72241692825E+03  0.10100000352E+00 0. -1.
</event>
<event>
 5   0  0.2977854E-05  0.2500564E+04  0.7818609E-02  0.8402785E-01
       -1   -1    0    0    0  501  0.00000000000E+00  0.00000000000E+00  0.14322886963E+04  0.14322886963E+04  0.50400001928E-02 0.  1.
        1   -1    0    0  501    0  0.00000000000E+00  0.00000000000E+00 -0.10914039283E+04  0.10914039283E+04  0.50400001928E-02 0. -1.
    10030    2    1    2    0    0  0.00000000000E+00  0.00000000000E+00  0.34088476798E+03  0.25236926247E+04  0.25005643441E+04 0.  0.
        1    1    3    3  502    0 -0.53835476318E+03 -0.57783570098E+02 -0.96694196193E+03  0.11082154798E+04  0.50400001928E-02 0. -1.
       -1    1    3    3    0  502  0.53835476318E+03  0.57783570098E+02  0.13078267299E+04  0.14154771448E+04  0.50400001928E-02 0.  1.
</event>
<event>
 5   0  0.2793920E-05  0.2597376E+04  0.7818609E-02  0.8369093E-01
        1   -1    0    0  501    0  0.00000000000E+00  0.00000000000E+00  0.20803274557E+04  0.20803274557E+04  0.50400001928E-02 0.  1.
       -1   -1    0    0    0  501  0.00000000000E+00  0.00000000000E+00 -0.81073339561E+03  0.81073339563E+03  0.50400001928E-02 0. -1.
    10030    2    1    2    0    0  0.00000000000E+00  0.00000000000E+00  0.12695940600E+04  0.28910608513E+04  0.25973763240E+04 0.  0.
        2    1    3    3  502    0  0.73132550657E+03 -0.13184810421E+03  0.18202920283E+04  0.19661342751E+04  0.25500000920E-02 0.  1.
       -2    1    3    3    0  502 -0.73132550657E+03  0.13184810421E+03 -0.55069796829E+03  0.92492657623E+03  0.25500000920E-02 0. -1.
</event>
<event>
 5   0  0.6648328E-05  0.2521535E+04  0.7818609E-02  0.8395353E-01
       -2   -1    0    0    0  501  0.00000000000E+00  0.00000000000E+00  0.11451983981E+04  0.11451983981E+04  0.25500000920E-02 0. -1.
        2   -1    0    0  501    0  0.00000000000E+00  0.00000000000E+00 -0.13879997604E+04  0.13879997604E+04  0.25500000920E-02 0.  1.
    10030    2    1    2    0    0  0.00000000000E+00  0.00000000000E+00 -0.24280136233E+03  0.25331981585E+04  0.25215353277E+04 0.  0.
        2    1    3    3  502    0  0.23382163788E+03 -0.12093993532E+04  0.14857215209E+03  0.12407227886E+04  0.25500000920E-02 0.  1.
       -2    1    3    3    0  502 -0.23382163788E+03  0.12093993532E+04 -0.39137351442E+03  0.12924753699E+04  0.25500000920E-02 0. -1.
</event>
<event>
 5   0  0.7071821E-05  0.2012215E+04  0.7818609E-02  0.8600931E-01
       -2   -1    0    0    0  501  0.00000000000E+00  0.00000000000E+00  0.48611873140E+03  0.48611873141E+03  0.25500000920E-02 0. -1.
        2   -1    0    0  501    0  0.00000000000E+00  0.00000000000E+00 -0.20823159055E+04  0.20823159055E+04  0.25500000920E-02 0.  1.
    10030    2    1    2    0    0  0.00000000000E+00  0.00000000000E+00 -0.15961971741E+04  0.25684346369E+04  0.20122154620E+04 0.  0.
        5    1    3    3  502    0  0.77074061337E+03 -0.47464856356E+01 -0.16235070984E+04  0.17971814073E+04  0.46999998093E+01 0.  1.
       -5    1    3    3    0  502 -0.77074061337E+03  0.47464856356E+01  0.27309924279E+02  0.77125322961E+03  0.46999998093E+01 0. -1.
</event>
<event>
 5   0  0.2977854E-05  0.2580983E+04  0.7818609E-02  0.8374690E-01
        1   -1    0    0  501    0  0.00000000000E+00  0.00000000000E+00  0.23372209644E+04  0.23372209644E+04  0.50400001928E-02 0. -1.
       -1   -1    0    0    0  501  0.00000000000E+00  0.00000000000E+00 -0.71254212774E+03  0.71254212776E+03  0.50400001928E-02 0.  1.
    10030    2    1    2    0    0  0.00000000000E+00  0.00000000000E+00  0.16246788366E+04  0.30497630921E+04  0.25809830677E+04 0.  0.
        1    1    3    3  502    0  0.58554565207E+03  0.33688274448E+03 -0.48692259302E+03  0.83273483523E+03  0.50400001928E-02 0.  1.
       -1    1    3    3    0  502 -0.58554565207E+03 -0.33688274448E+03  0.21116014296E+04  0.22170282569E+04  0.50400001928E-02 0. -1.
</event>
<event>
 5   0  0.6445331E-05  0.2308267E+04  0.7818609E-02  0.8474669E-01
       -2   -1    0    0    0  501  0.00000000000E+00  0.00000000000E+00  0.11944525816E+04  0.11944525816E+04  0.25500000920E-02 0. -1.
        2   -1    0    0  501    0  0.00000000000E+00  0.00000000000E+00 -0.11151757564E+04  0.11151757564E+04  0.25500000920E-02 0.  1.
    10030    2    1    2    0    0  0.00000000000E+00  0.00000000000E+00  0.79276825223E+02  0.23096283380E+04  0.23082673686E+04 0.  0.
        1    1    3    3  502    0 -0.90206255592E+03 -0.69028424860E+03 -0.16497020469E+03  0.11477910817E+04  0.50400001928E-02 0.  1.
       -1    1    3    3    0  502  0.90206255592E+03  0.69028424860E+03  0.24424702992E+03  0.11618372564E+04  0.50400001928E-02 0. -1.
</event>
<event>
 5   0  0.2977854E-05  0.2420117E+04  0.7818609E-02  0.8432010E-01
        1   -1    0    0  501    0  0.00000000000E+00  0.00000000000E+00  0.13766301173E+04  0.13766301173E+04  0.50400001928E-02 0.  1.
       -1   -1    0    0    0  501  0.00000000000E+00  0.00000000000E+00 -0.10636423326E+04  0.10636423327E+04  0.50400001928E-02 0. -1.
    10030    2    1    2    0    0  0.00000000000E+00  0.00000000000E+00  0.31298778463E+03  0.24402724499E+04  0.24201174097E+04 0.  0.
        1    1    3    3  502    0  0.28440518307E+03  0.66040769575E+03  0.11378502107E+04  0.13460043591E+04  0.50400001928E-02 0.  1.
       -1    1    3    3    0  502 -0.28440518307E+03 -0.66040769575E+03 -0.82486242603E+03  0.10942680909E+04  0.50400001928E-02 0. -1.
</event>
<event>
 5   0  0.7071821E-05  0.2469545E+04  0.7818609E-02  0.8413916E-01
        2   -1    0    0  501    0  0.00000000000E+00  0.00000000000E+00  0.13679368274E+04  0.13679368274E+04  0.25500000920E-02 0. -1.
       -2   -1    0    0    0  501  0.00000000000E+00  0.00000000000E+00 -0.11145713352E+04  0.11145713352E+04  0.25500000920E-02 0.  1.
    10030    2    1    2    0    0  0.00000000000E+00  0.00000000000E+00  0.25336549229E+03  0.24825081626E+04  0.24695450400E+04 0.  0.
        5    1    3    3  502    0 -0.84349202070E+03  0.42826118282E+03  0.92441918025E+03  0.13226712897E+04  0.46999998093E+01 0. -1.
       -5    1    3    3    0  502  0.84349202070E+03 -0.42826118282E+03 -0.67105368796E+03  0.11598368729E+04  0.46999998093E+01 0.  1.
</event>
<event>
 5   0  0.6445331E-05  0.2515714E+04  0.7818609E-02  0.8397408E-01
        2   -1    0    0  501    0  0.00000000000E+00  0.00000000000E+00  0.20810537315E+04  0.20810537315E+04  0.25500000920E-02 0. -1.
       -2   -1    0    0    0  501  0.00000000000E+00  0.00000000000E+00 -0.76029024756E+03  0.76029024757E+03  0.25500000920E-02 0.  1.
    10030    2    1    2    0    0  0.00000000000E+00  0.00000000000E+00  0.13207634839E+04  0.28413439791E+04  0.25157144963E+04 0.  0.
        1    1    3    3  502    0  0.36543351301E+03 -0.56882835561E+03  0.18583837396E+04  0.19775483494E+04  0.50400001928E-02 0. -1.
       -1    1    3    3    0  502 -0.36543351301E+03  0.56882835561E+03 -0.53762025564E+03  0.86379562969E+03  0.50400001928E-02 0.  1.
</event>
<event>
 5   0  0.7071821E-05  0.2116099E+04  0.7818609E-02  0.8554185E-01
       -2   -1    0    0    0  501  0.00000000000E+00  0.00000000000E+00  0.92508702120E+03  0.92508702121E+03  0.25500000920E-02 0.  1.
        2   -1    0    0  501    0  0.00000000000E+00  0.00000000000E+00 -0.12101222494E+04  0.12101222494E+04  0.25500000920E-02 0. -1.
    10030    2    1    2    0    0  0.00000000000E+00  0.00000000000E+00 -0.28503522822E+03  0.21352092706E+04  0.21160986622E+04 0.  0.
        5    1    3    3  502    0 -0.85625665954E+03  0.37106847341E+03 -0.64559728466E+03  0.11347621878E+04  0.46999998093E+01 0. -1.
       -5    1    3    3    0  502  0.85625665954E+03 -0.37106847341E+03  0.36056205644E+03  0.10004470828E+04  0.46999998093E+01 0.  1.
</event>
<event>
 5   0  0.7071821E-05  0.2606065E+04  0.7818609E-02  0.8366144E-01
       -2   -1    0    0    0  501  0.00000000000E+00  0.00000000000E+00  0.94263955747E+03  0.94263955747E+03  0.25500000920E-02 0.  1.
        2   -1    0    0  501    0  0.00000000000E+00  0.00000000000E+00 -0.18012118304E+04  0.18012118304E+04  0.25500000920E-02 0. -1.
    10030    2    1    2    0    0  0.00000000000E+00  0.00000000000E+00 -0.85857227292E+03  0.27438513879E+04  0.26060648670E+04 0.  0.
        5    1    3    3  502    0 -0.55489184600E+03 -0.11681556812E+04 -0.26155615315E+03  0.13194416878E+04  0.46999998093E+01 0.  1.
       -5    1    3    3    0  502  0.55489184600E+03  0.11681556812E+04 -0.59701611976E+03  0.14244097000E+04  0.46999998093E+01 0. -1.
</event>
<event>
 5   0  0.2793920E-05  0.2544538E+04  0.7818609E-02  0.8387288E-01
       -1   -1    0    0    0  501  0.00000000000E+00  0.00000000000E+00  0.11515523288E+04  0.11515523288E+04  0.50400001928E-02 0. -1.
        1   -1    0    0  501    0  0.00000000000E+00  0.00000000000E+00 -0.14056406080E+04  0.14056406080E+04  0.50400001928E-02 0.  1.
    10030    2    1    2    0    0  0.00000000000E+00  0.00000000000E+00 -0.25408827919E+03  0.25571929368E+04  0.25445382415E+04 0.  0.
        2    1    3    3  502    0 -0.81972038152E+03  0.97285208364E+03 -0.14404082353E+03  0.12802852961E+04  0.25500000920E-02 0. -1.
       -2    1    3    3    0  502  0.81972038152E+03 -0.97285208364E+03 -0.11004745566E+03  0.12769076408E+04  0.25500000920E-02 0.  1.
</event>
<event>
 5   0  0.6445331E-05  0.2505925E+04  0.7818609E-02  0.8400878E-01
       -2   -1    0    0    0  501  0.00000000000E+00  0.00000000000E+00  0.16252859179E+04  0.16252859179E+04  0.25500000920E-02 0. -1.
        2   -1    0    0  501    0  0.00000000000E+00  0.00000000000E+00 -0.96593154827E+03  0.96593154827E+03  0.25500000920E-02 0.  1.
    10030    2    1    2    0    0  0.00000000000E+00  0.00000000000E+00  0.65935436962E+03  0.25912174662E+04  0.25059249335E+04 0.  0.
        1    1    3    3  502    0  0.39516420239E+03 -0.10234633508E+04 -0.29613521805E+03  0.11363661578E+04  0.50400001928E-02 0.  1.
       -1    1    3    3    0  502 -0.39516420239E+03  0.10234633508E+04  0.95548958767E+03  0.14548513084E+04  0.50400001928E-02 0. -1.
</event>
<event>
 5   0  0.2793920E-05  0.2472357E+04  0.7818609E-02  0.8412900E-01
        1   -1    0    0  501    0  0.00000000000E+00  0.00000000000E+00  0.22965015168E+04  0.22965015168E+04  0.50400001928E-02 0.  1.
       -1   -1    0    0    0  501  0.00000000000E+00  0.00000000000E+00 -0.66541984119E+03  0.66541984121E+03  0.50400001928E-02 0. -1.
    10030    2    1    2    0    0  0.00000000000E+00  0.00000000000E+00  0.16310816756E+04  0.29619213580E+04  0.24723573161E+04 0.  0.
        2    1    3    3  502    0  0.46944625860E+03 -0.46753794935E+03 -0.43474512177E+03  0.79244863853E+03  0.25500000920E-02 0. -1.
       -2    1    3    3    0  502 -0.46944625860E+03  0.46753794935E+03  0.20658267974E+04  0.21694727195E+04  0.25500000920E-02 0.  1.
</event>
<event>
 5   0  0.6909250E-05  0.2488095E+04  0.7818609E-02  0.8407239E-01
        2   -1    0    0  501    0  0.00000000000E+00  0.00000000000E+00  0.20271890907E+04  0.20271890907E+04  0.25500000920E-02 0. -1.
       -2   -1    0    0    0  501  0.00000000000E+00  0.00000000000E+00 -0.76344824514E+03  0.76344824515E+03  0.25500000920E-02 0.  1.
    10030    2    1    2    0    0  0.00000000000E+00  0.00000000000E+00  0.12637408455E+04  0.27906373358E+04  0.24880948164E+04 0.  0.
        4    1    3    3  502    0 -0.60273523369E+03  0.10096281541E+04  0.17625721718E+03  0.11889941089E+04  0.12699999809E+01 0. -1.
       -4    1    3    3    0  502  0.60273523369E+03 -0.10096281541E+04  0.10874836283E+04  0.16016432269E+04  0.12699999809E+01 0.  1.
</event>
<event>
 5   0  0.2777539E-05  0.2127884E+04  0.7818609E-02  0.8549059E-01
        1   -1    0    0  501    0  0.00000000000E+00  0.00000000000E+00  0.21535886162E+04  0.21535886162E+04  0.50400001928E-02 0.  1.
       -1   -1    0    0    0  501  0.00000000000E+00  0.00000000000E+00 -0.52562150984E+03  0.52562150986E+03  0.50400001928E-02 0. -1.
    10030    2    1    2    0    0  0.00000000000E+00  0.00000000000E+00  0.16279671064E+04  0.26792101261E+04  0.21278839255E+04 0.  0.
        3    1    3    3  502    0 -0.62550056364E+03  0.29442466405E+03 -0.20427848576E+03  0.72087901056E+03  0.10100000352E+00 0. -1.
       -3    1    3    3    0  502  0.62550056364E+03 -0.29442466405E+03  0.18322455921E+04  0.19583311155E+04  0.10100000352E+00 0.  1.
</event>
<event>
 5   0  0.6827859E-05  0.2502223E+04  0.7818609E-02  0.8402194E-01
        2   -1    0    0  501    0  0.00000000000E+00  0.00000000000E+00  0.20760679925E+04  0.20760679925E+04  0.25500000920E-02 0.  1.
       -2   -1    0    0    0  501  0.00000000000E+00  0.00000000000E+00 -0.75396354519E+03  0.75396354519E+03  0.25500000920E-02 0. -1.
    10030    2    1    2    0    0  0.00000000000E+00  0.00000000000E+00  0.13221044473E+04  0.28300315377E+04  0.25022226789E+04 0.  0.
        3    1    3    3  502    0 -0.10265808032E+04 -0.26120432316E+03  0.14139867687E+04  0.17667638314E+04  0.10100000352E+00 0.  1.
       -3    1    3    3    0  502  0.10265808032E+04  0.26120432316E+03 -0.91882321399E+02  0.10632677062E+04  0.10100000352E+00 0. -1.
</event>
<event>
 5   0  0.2896652E-05  0.2496355E+04  0.7818609E-02  0.8404285E-01
        1   -1    0    0  501    0  0.00000000000E+00  0.00000000000E+00  0.11061701955E+04  0.11061701955E+04  0.50400001928E-02 0. -1.
       -1   -1    0    0    0  501  0.00000000000E+00  0.00000000000E+00 -0.14084157270E+04  0.14084157270E+04  0.50400001928E-02 0.  1.
    10030    2    1    2    0    0  0.00000000000E+00  0.00000000000E+00 -0.30224553157E+03  0.25145859225E+04  0.24963553434E+04 0.  0.
        4    1    3    3  502    0 -0.10105464809E+04  0.72239364181E+03 -0.28210665569E+02  0.12425193030E+04  0.12699999809E+01 0. -1.
       -4    1    3    3    0  502  0.10105464809E+04 -0.72239364181E+03 -0.27403486600E+03  0.12720666195E+04  0.12699999809E+01 0.  1.
</event>
<event>
 5   0  0.6445331E-05  0.2068570E+04  0.7818609E-02  0.8575216E-01
       -2   -1    0    0    0  501  0.00000000000E+00  0.00000000000E+00  0.77785859362E+03  0.77785859362E+03  0.25500000920E-02 0.  1.
        2   -1    0    0  501    0  0.00000000000E+00  0.00000000000E+00 -0.13752437929E+04  0.13752437929E+04  0.25500000920E-02 0. -1.
    10030    2    1    2    0    0  0.00000000000E+00  0.00000000000E+00 -0.59738519932E+03  0.21531023866E+04  0.20685697500E+04 0.  0.
        1    1    3    3  502    0 -0.10214800373E+04  0.14184372165E+03 -0.38067747134E+03  0.10992981603E+04  0.50400001928E-02 0. -1.
       -1    1    3    3    0  502  0.10214800373E+04 -0.14184372165E+03 -0.21670772798E+03  0.10538042263E+04  0.50400001928E-02 0.  1.
</event>
<event>
 5   0  0.2980790E-05  0.2501782E+04  0.7818609E-02  0.8402351E-01
        1   -1    0    0  501    0  0.00000000000E+00  0.00000000000E+00  0.11257599277E+04  0.11257599277E+04  0.50400001928E-02 0.  1.
       -1   -1    0    0    0  501  0.00000000000E+00  0.00000000000E+00 -0.13899306945E+04  0.13899306945E+04  0.50400001928E-02 0. -1.
    10030    2    1    2    0    0  0.00000000000E+00  0.00000000000E+00 -0.26417076682E+03  0.25156906223E+04  0.25017819875E+04 0.  0.
        5    1    3    3  502    0  0.56458456794E+03  0.21774538549E+03 -0.12329491177E+04  0.13734461781E+04  0.46999998093E+01 0. -1.
       -5    1    3    3    0  502 -0.56458456794E+03 -0.21774538549E+03  0.96877835085E+03  0.11422444442E+04  0.46999998093E+01 0.  1.
</event>
<event>
 5   0  0.2896652E-05  0.2490990E+04  0.7818609E-02  0.8406202E-01
       -1   -1    0    0    0  501  0.00000000000E+00  0.00000000000E+00  0.89715528690E+03  0.89715528692E+03  0.50400001928E-02 0. -1.
        1   -1    0    0  501    0  0.00000000000E+00  0.00000000000E+00 -0.17290856417E+04  0.17290856417E+04  0.50400001928E-02 0.  1.
    10030    2    1    2    0    0  0.00000000000E+00  0.00000000000E+00 -0.83193035480E+03  0.26262409286E+04  0.24909904255E+04 0.  0.
        4    1    3    3  502    0  0.15506801489E+03  0.31654492906E+02  0.88651000679E+03  0.90052745722E+03  0.12699999809E+01 0. -1.
       -4    1    3    3    0  502 -0.15506801489E+03 -0.31654492906E+02 -0.17184403616E+04  0.17257134714E+04  0.12699999809E+01 0.  1.
</event>
<event>
 5   0  0.6827859E-05  0.2491888E+04  0.7818609E-02  0.8405881E-01
       -2   -1    0    0    0  501  0.00000000000E+00  0.00000000000E+00  0.14333730310E+04  0.14333730310E+04  0.25500000920E-02 0. -1.
        2   -1    0    0  501    0  0.00000000000E+00  0.00000000000E+00 -0.10830236719E+04  0.10830236719E+04  0.25500000920E-02 0.  1.
    10030    2    1    2    0    0  0.00000000000E+00  0.00000000000E+00  0.35034935911E+03  0.25163967029E+04  0.24918883789E+04 0.  0.
        3    1    3    3  502    0 -0.11413927727E+04 -0.10247803626E+03 -0.31861069820E+03  0.11894502918E+04  0.10100000352E+00 0.  1.
       -3    1    3    3    0  502  0.11413927727E+04  0.10247803626E+03  0.66896005731E+03  0.13269464111E+04  0.10100000352E+00 0. -1.
</event>
<event>
 5   0  0.2980790E-05  0.2494049E+04  0.7818609E-02  0.8405109E-01
       -1   -1    0    0    0  501  0.00000000000E+00  0.00000000000E+00  0.14431596759E+04  0.14431596759E+04  0.50400001928E-02 0.  1.
        1   -1    0    0  501    0  0.00000000000E+00  0.00000000000E+00 -0.10775454650E+04  0.10775454650E+04  0.50400001928E-02 0. -1.
    10030    2    1    2    0    0  0.00000000000E+00  0.00000000000E+00  0.36561421086E+03  0.25207051409E+04  0.24940490485E+04 0.  0.
        5    1    3    3  502    0  0.61823027547E+02 -0.45715886667E+03 -0.98812256842E+03  0.10905157570E+04  0.46999998093E+01 0. -1.
       -5    1    3    3    0  502 -0.61823027547E+02  0.45715886667E+03  0.13537367793E+04  0.14301893839E+04  0.46999998093E+01 0.  1.
</event>
<event>
 5   0  0.2777539E-05  0.2316409E+04  0.7818609E-02  0.8471479E-01
       -1   -1    0    0    0  501  0.00000000000E+00  0.00000000000E+00  0.11855423860E+04  0.11855423860E+04  0.50400001928E-02 0.  1.
        1   -1    0    0  501    0  0.00000000000E+00  0.00000000000E+00 -0.11314970279E+04  0.11314970279E+04  0.50400001928E-02 0. -1.
    10030    2    1    2    0    0  0.00000000000E+00  0.00000000000E+00  0.54045358134E+02  0.23170394139E+04  0.23164090194E+04 0.  0.
        3    1    3    3  502    0  0.75022848090E+03 -0.25586805614E+03 -0.81767527756E+03  0.11388169763E+04  0.10100000352E+00 0. -1.
       -3    1    3    3    0  502 -0.75022848090E+03  0.25586805614E+03  0.87172063569E+03  0.11782224377E+04  0.10100000352E+00 0.  1.
</event>
<event>
 5   0  0.2793920E-05  0.2626333E+04  0.7818609E-02  0.8359311E-01
        1   -1    0    0  501    0  0.00000000000E+00  0.00000000000E+00  0.11677363079E+04  0.11677363079E+04  0.50400001928E-02 0. -1.
       -1   -1    0    0    0  501  0.00000000000E+00  0.00000000000E+00 -0.14767084741E+04  0.14767084741E+04  0.50400001928E-02 0.  1.
    10030    2    1    2    0    0  0.00000000000E+00  0.00000000000E+00 -0.30897216625E+03  0.26444447820E+04  0.26263328817E+04 0.  0.
        2    1    3    3  502    0 -0.88723658567E+03 -0.63758239273E+03 -0.88800572065E+03  0.14079255046E+04  0.25500000920E-02 0.  1.
       -2    1    3    3    0  502  0.88723658567E+03  0.63758239273E+03  0.57903355440E+03  0.12365192775E+04  0.25500000920E-02 0. -1.
</event>
<event>
 5   0  0.6648328E-05  0.2497995E+04  0.7818609E-02  0.8403700E-01
        2   -1    0    0  501    0  0.00000000000E+00  0.00000000000E+00  0.13174984836E+04  0.13174984836E+04  0.25500000920E-02 0. -1.
       -2   -1    0    0    0  501  0.00000000000E+00  0.00000000000E+00 -0.11840580783E+04  0.11840580783E+04  0.25500000920E-02 0.  1.
    10030    2    1    2    0    0  0.00000000000E+00  0.00000000000E+00  0.13344040531E+03  0.25015565619E+04  0.24979949741E+04 0.  0.
        2    1    3    3  502    0 -0.10959053541E+04  0.55006046336E+03 -0.17114669875E+03  0.12380897588E+04  0.25500000920E-02 0.  1.
       -2    1    3    3    0  502  0.10959053541E+04 -0.55006046336E+03  0.30458710406E+03  0.12634668031E+04  0.25500000920E-02 0. -1.
</event>
<event>
 5   0  0.2793920E-05  0.2358822E+04  0.7818609E-02  0.8455083E-01
       -1   -1    0    0    0  501  0.00000000000E+00  0.00000000000E+00  0.17303804472E+04  0.17303804472E+04  0.50400001928E-02 0. -1.
        1   -1    0    0  501    0  0.00000000000E+00  0.00000000000E+00 -0.80387563873E+03  0.80387563875E+03  0.50400001928E-02 0.  1.
    10030    2    1    2    0    0  0.00000000000E+00  0.00000000000E+00  0.92650480843E+03  0.25342560859E+04  0.23588223225E+04 0.  0.
        2    1    3    3  502    0 -0.54656893829E+03  0.53941967532E+03 -0.49847657834E+03  0.91552721947E+03  0.25500000920E-02 0.  1.
       -2    1    3    3    0  502  0.54656893829E+03 -0.53941967532E+03  0.14249813868E+04  0.16187288664E+04  0.25500000920E-02 0. -1.
</event>
<event>
 5   0  0.2793920E-05  0.1911242E+04  0.7818609E-02  0.8649281E-01
        1   -1    0    0  501    0  0.00000000000E+00  0.00000000000E+00  0.26993239078E+04  0.26993239078E+04  0.50400001928E-02 0.  1.
       -1   -1    0    0    0  501  0.00000000000E+00  0.00000000000E+00 -0.33831125153E+03  0.33831125157E+03  0.50400001928E-02 0. -1.
    10030    2    1    2    0    0  0.00000000000E+00  0.00000000000E+00  0.23610126563E+04  0.30376351594E+04  0.19112421611E+04 0.  0.
        2    1    3    3  502    0  0.52374746853E+03  0.36152013908E+03  0.23135292311E+04  0.23994636327E+04  0.25500000920E-02 0.  1.
       -2    1    3    3    0  502 -0.52374746853E+03 -0.36152013908E+03  0.47483425196E+02  0.63817152665E+03  0.25500000920E-02 0. -1.
</event>
<event>
 5   0  0.2777539E-05  0.2393972E+04  0.7818609E-02  0.8441764E-01
       -1   -1    0    0    0  501  0.00000000000E+00  0.00000000000E+00  0.50093094258E+03  0.50093094261E+03  0.50400001928E-02 0. -1.
        1   -1    0    0  501    0  0.00000000000E+00  0.00000000000E+00 -0.28602263297E+04  0.28602263297E+04  0.50400001928E-02 0.  1.
    10030    2    1    2    0    0  0.00000000000E+00  0.00000000000E+00 -0.23592953872E+04  0.33611572724E+04  0.23939723235E+04 0.  0.
        3    1    3    3  502    0 -0.98509621365E+03  0.25193491171E+03 -0.29290760304E+03  0.10581496227E+04  0.10100000352E+00 0. -1.
       -3    1    3    3    0  502  0.98509621365E+03 -0.25193491171E+03 -0.20663877841E+04  0.23030076497E+04  0.10100000352E+00 0.  1.
</event>
<event>
 5   0  0.6445331E-05  0.2427447E+04  0.7818609E-02  0.8429299E-01
        2   -1    0    0  501    0  0.00000000000E+00  0.00000000000E+00  0.18244585258E+04  0.18244585258E+04  0.25500000920E-02 0. -1.
       -2   -1    0    0    0  501  0.00000000000E+00  0.00000000000E+00 -0.80743107879E+03  0.80743107879E+03  0.25500000920E-02 0.  1.
    10030    2    1    2    0    0  0.00000000000E+00  0.00000000000E+00  0.10170274470E+04  0.26318896046E+04  0.24274468197E+04 0.  0.
        1    1    3    3  502    0  0.64288332554E+03  0.27145376701E+03 -0.56816685513E+03  0.89988871155E+03  0.50400001928E-02 0.  1.
       -1    1    3    3    0  502 -0.64288332554E+03 -0.27145376701E+03  0.15851943021E+04  0.17320008930E+04  0.50400001928E-02 0. -1.
</event>
<event>
 5   0  0.6909250E-05  0.2496911E+04  0.7818609E-02  0.8404087E-01
        2   -1    0    0  501    0  0.00000000000E+00  0.00000000000E+00  0.11645165192E+04  0.11645165192E+04  0.25500000920E-02 0. -1.
       -2   -1    0    0    0  501  0.00000000000E+00  0.00000000000E+00 -0.13384449989E+04  0.13384449989E+04  0.25500000920E-02 0.  1.
    10030    2    1    2    0    0  0.00000000000E+00  0.00000000000E+00 -0.17392847966E+03  0.25029615181E+04  0.24969111408E+04 0.  0.
        4    1    3    3  502    0 -0.23022780703E+03 -0.85992270747E+03  0.79046687546E+03  0.11905088828E+04  0.12699999809E+01 0. -1.
       -4    1    3    3    0  502  0.23022780703E+03  0.85992270747E+03 -0.96439535512E+03  0.13124526353E+04  0.12699999809E+01 0.  1.
</event>
<event>
 5   0  0.2977854E-05  0.1914010E+04  0.7818609E-02  0.8647914E-01
       -1   -1    0    0    0  501  0.00000000000E+00  0.00000000000E+00  0.74057939743E+03  0.74057939745E+03  0.50400001928E-02 0. -1.
        1   -1    0    0  501    0  0.00000000000E+00  0.00000000000E+00 -0.12366782996E+04  0.12366782996E+04  0.50400001928E-02 0.  1.
    10030    2    1    2    0    0  0.00000000000E+00  0.00000000000E+00 -0.49609890216E+03  0.19772576971E+04  0.19140098954E+04 0.  0.
        1    1    3    3  502    0 -0.49873381182E+03 -0.62289858175E+03  0.29772712771E+03  0.85169213969E+03  0.50400001928E-02 0. -1.
       -1    1    3    3    0  502  0.49873381182E+03  0.62289858175E+03 -0.79382602987E+03  0.11255655574E+04  0.50400001928E-02 0.  1.
</event>
<event>
 5   0  0.6445331E-05  0.2901999E+04  0.7818609E-02  0.8272283E-01
       -2   -1    0    0    0  501  0.00000000000E+00  0.00000000000E+00  0.17198281095E+04  0.17198281095E+04  0.25500000920E-02 0.  1.
        2   -1    0    0  501    0  0.00000000000E+00  0.00000000000E+00 -0.12241919847E+04  0.12241919847E+04  0.25500000920E-02 0. -1.
    10030    2    1    2    0    0  0.00000000000E+00  0.00000000000E+00  0.49563612482E+03  0.29440200942E+04  0.29019991638E+04 0.  0.
        1    1    3    3  502    0  0.14126863409E+04 -0.24438938399E+03  0.47464208212E+03  0.15101966676E+04  0.50400001928E-02 0. -1.
       -1    1    3    3    0  502 -0.14126863409E+04  0.24438938399E+03  0.20994042692E+02  0.14338234266E+04  0.50400001928E-02 0.  1.
</event>
<event>
 5   0  0.6909250E-05  0.2052025E+04  0.7818609E-02  0.8582676E-01
       -2   -1    0    0    0  501  0.00000000000E+00  0.00000000000E+00  0.14483458230E+04  0.14483458230E+04  0.25500000920E-02 0. -1.
        2   -1    0    0  501    0  0.00000000000E+00  0.00000000000E+00 -0.72683047120E+03  0.72683047121E+03  0.25500000920E-02 0.  1.
    10030    2    1    2    0    0  0.00000000000E+00  0.00000000000E+00  0.72151535181E+03  0.21751762942E+04  0.20520252211E+04 0.  0.
        4    1    3    3  502    0 -0.76874114542E+03  0.11085144178E+03 -0.34988634843E+03  0.85186446136E+03  0.12699999809E+01 0.  1.
       -4    1    3    3    0  502  0.76874114542E+03 -0.11085144178E+03  0.10714017002E+04  0.13233118329E+04  0.12699999809E+01 0. -1.
</event>
<event>
 5   0  0.7071821E-05  0.2519195E+04  0.7818609E-02  0.8396179E-01
       -2   -1    0    0    0  501  0.00000000000E+00  0.00000000000E+00  0.78062818791E+03  0.78062818791E+03  0.25500000920E-02 0. -1.
        2   -1    0    0  501    0  0.00000000000E+00  0.00000000000E+00 -0.20324479382E+04  0.20324479382E+04  0.25500000920E-02 0.  1.
    10030    2    1    2    0    0  0.00000000000E+00  0.00000000000E+00 -0.12518197503E+04  0.28130761262E+04  0.25191952295E+04 0.  0.
        5    1    3    3  502    0 -0.30203488485E+03 -0.10057740564E+04 -0.14025745132E+04  0.17521540683E+04  0.46999998093E+01 0.  1.
       -5    1    3    3    0  502  0.30203488485E+03  0.10057740564E+04  0.15075476283E+03  0.10609220578E+04  0.46999998093E+01 0. -1.
</event>
<event>
 5   0  0.6445331E-05  0.2402611E+04  0.7818609E-02  0.8438527E-01
        2   -1    0    0  501    0  0.00000000000E+00  0.00000000000E+00  0.17413587662E+04  0.17413587662E+04  0.25500000920E-02 0.  1.
       -2   -1    0    0    0  501  0.00000000000E+00  0.00000000000E+00 -0.82874075760E+03  0.82874075760E+03  0.25500000920E-02 0. -1.
    10030    2    1    2    0    0  0.00000000000E+00  0.00000000000E+00  0.91261800862E+03  0.25700995238E+04  0.24026110656E+04 0.  0.
        1    1    3    3  502    0 -0.58929605569E+03 -0.89844801941E+03  0.10310298996E+04  0.14891277107E+04  0.50400001928E-02 0.  1.
       -1    1    3    3    0  502  0.58929605569E+03  0.89844801941E+03 -0.11841189099E+03  0.10809718131E+04  0.50400001928E-02 0. -1.
</event>
<event>
 5   0  0.7071821E-05  0.2418395E+04  0.7818609E-02  0.8432649E-01
        2   -1    0    0  501    0  0.00000000000E+00  0.00000000000E+00  0.17077731901E+04  0.17077731901E+04  0.25500000920E-02 0. -1.
       -2   -1    0    0    0  501  0.00000000000E+00  0.00000000000E+00 -0.85617848994E+03  0.85617848994E+03  0.25500000920E-02 0.  1.
    10030    2    1    2    0    0  0.00000000000E+00  0.00000000000E+00  0.85159470019E+03  0.25639516801E+04  0.24183950637E+04 0.  0.
        5    1    3    3  502    0  0.24719250567E+03 -0.80418802414E+03 -0.49498861763E+03  0.97614462792E+03  0.46999998093E+01 0.  1.
       -5    1    3    3    0  502 -0.24719250567E+03  0.80418802414E+03  0.13465833178E+04  0.15878070522E+04  0.46999998093E+01 0. -1.
</event>
<event>
 5   0  0.6445331E-05  0.2515598E+04  0.7818609E-02  0.8397450E-01
       -2   -1    0    0    0  501  0.00000000000E+00  0.00000000000E+00  0.14059970323E+04  0.14059970323E+04  0.25500000920E-02 0. -1.
        2   -1    0    0  501    0  0.00000000000E+00  0.00000000000E+00 -0.11252215597E+04  0.11252215597E+04  0.25500000920E-02 0.  1.
    10030    2    1    2    0    0  0.00000000000E+00  0.00000000000E+00  0.28077547261E+03  0.25312185919E+04  0.25155978800E+04 0.  0.
        1    1    3    3  502    0 -0.11943597493E+04  0.22691274464E+03  0.46499531568E+03  0.13016163982E+04  0.50400001928E-02 0. -1.
       -1    1    3    3    0  502  0.11943597493E+04 -0.22691274464E+03 -0.18421984307E+03  0.12296021938E+04  0.50400001928E-02 0.  1.
</event>
<event>
 5   0  0.2896652E-05  0.2455808E+04  0.7818609E-02  0.8418901E-01
       -1   -1    0    0    0  501  0.00000000000E+00  0.00000000000E+00  0.13326549774E+04  0.13326549774E+04  0.50400001928E-02 0. -1.
        1   -1    0    0  501    0  0.00000000000E+00  0.00000000000E+00 -0.11313864328E+04  0.11313864328E+04  0.50400001928E-02 0.  1.
    10030    2    1    2    0    0  0.00000000000E+00  0.00000000000E+00  0.20126854453E+03  0.24640414102E+04  0.24558076155E+04 0.  0.
        4    1    3    3  502    0  0.96036384697E+03  0.69205311693E+03  0.42808704728E+03  0.12587677976E+04  0.12699999809E+01 0. -1.
       -4    1    3    3    0  502 -0.96036384697E+03 -0.69205311693E+03 -0.22681850274E+03  0.12052736126E+04  0.12699999809E+01 0.  1.
</event>
<event>
 5   0  0.2777539E-05  0.2527517E+04  0.7818609E-02  0.8393247E-01
       -1   -1    0    0    0  501  0.00000000000E+00  0.00000000000E+00  0.21917800290E+04  0.21917800290E+04  0.50400001928E-02 0.  1.
        1   -1    0    0  501    0  0.00000000000E+00  0.00000000000E+00 -0.72867062632E+03  0.72867062634E+03  0.50400001928E-02 0. -1.
    10030    2    1    2    0    0  0.00000000000E+00  0.00000000000E+00  0.14631094027E+04  0.29204506554E+04  0.25275171426E+04 0.  0.
        3    1    3    3  502    0  0.12087342147E+04 -0.36798321702E+03  0.70242269313E+03  0.14456305544E+04  0.10100000352E+00 0.  1.
       -3    1    3    3    0  502 -0.12087342147E+04  0.36798321702E+03  0.76068670957E+03  0.14748201009E+04  0.10100000352E+00 0. -1.
</event>
<event>
 5   0  0.6445331E-05  0.2360849E+04  0.7818609E-02  0.8454308E-01
        2   -1    0    0  501    0  0.00000000000E+00  0.00000000000E+00  0.20004151864E+04  0.20004151864E+04  0.25500000920E-02 0. -1.
       -2   -1    0    0    0  501  0.00000000000E+00  0.00000000000E+00 -0.69655651481E+03  0.69655651481E+03  0.25500000920E-02 0.  1.
    10030    2    1    2    0    0  0.00000000000E+00  0.00000000000E+00  0.13038586716E+04  0.26969717012E+04  0.23608491950E+04 0.  0.
        1    1    3    3  502    0 -0.57602496092E+03  0.71407860578E+02  0.18261306535E+04  0.19161568312E+04  0.50400001928E-02 0. -1.
       -1    1    3    3    0  502  0.57602496092E+03 -0.71407860578E+02 -0.52227198188E+03  0.78081487002E+03  0.50400001928E-02 0.  1.
</event>
<event>
 5   0  0.2793920E-05  0.1633148E+04  0.7818609E-02  0.8800439E-01
       -1   -1    0    0    0  501  0.00000000000E+00  0.00000000000E+00  0.85720433442E+03  0.85720433444E+03  0.50400001928E-02 0.  1.
        1   -1    0    0  501    0  0.00000000000E+00  0.00000000000E+00 -0.77786901657E+03  0.77786901659E+03  0.50400001928E-02 0. -1.
    10030    2    1    2    0    0  0.00000000000E+00  0.00000000000E+00  0.79335317848E+02  0.16350733510E+04  0.16331475042E+04 0.  0.
        2    1    3    3  502    0  0.23143041186E+03  0.73809539010E+03 -0.22226626041E+03  0.80482739202E+03  0.25500000920E-02 0. -1.
       -2    1    3    3    0  502 -0.23143041186E+03 -0.73809539010E+03  0.30160157826E+03  0.83024595900E+03  0.25500000920E-02 0.  1.
</event>
<event>
 5   0  0.6648328E-05  0.1241097E+04  0.7818609E-02  0.9077626E-01
       -2   -1    0    0    0  501  0.00000000000E+00  0.00000000000E+00  0.71875455824E+03  0.71875455824E+03  0.25500000920E-02 0.  1.
        2   -1    0    0  501    0  0.00000000000E+00  0.00000000000E+00 -0.53576033194E+03  0.53576033195E+03  0.25500000920E-02 0. -1.
    10030    2    1    2    0    0  0.00000000000E+00  0.00000000000E+00  0.18299422629E+03  0.12545148902E+04  0.12410965808E+04 0.  0.
        2    1    3    3  502    0 -0.12132841684E+03 -0.29800276487E+03 -0.44485630428E+03  0.54902036763E+03  0.25500000920E-02 0. -1.
       -2    1    3    3    0  502  0.12132841684E+03  0.29800276487E+03  0.62785053058E+03  0.70549452256E+03  0.25500000920E-02 0.  1.
</event>
<event>
 5   0  0.2896652E-05  0.2148834E+04  0.7818609E-02  0.8540031E-01
       -1   -1    0    0    0  501  0.00000000000E+00  0.00000000000E+00  0.71856614910E+03  0.71856614911E+03  0.50400001928E-02 0. -1.
        1   -1    0    0  501    0  0.00000000000E+00  0.00000000000E+00 -0.16064937456E+04  0.16064937457E+04  0.50400001928E-02 0.  1.
    10030    2    1    2    0    0  0.00000000000E+00  0.00000000000E+00 -0.88792759655E+03  0.23250598948E+04  0.21488341252E+04 0.  0.
        4    1    3    3  502    0  0.70976817267E+03 -0.76329695655E+03 -0.16185720541E+03  0.10547949899E+04  0.12699999809E+01 0. -1.
       -4    1    3    3    0  502 -0.70976817267E+03  0.76329695655E+03 -0.72607039113E+03  0.12702649049E+04  0.12699999809E+01 0.  1.
</event>
<event>
 5   0  0.7071821E-05  0.2421573E+04  0.7818609E-02  0.8431471E-01
       -2   -1    0    0    0  501  0.00000000000E+00  0.00000000000E+00  0.10590933305E+04  0.10590933305E+04  0.25500000920E-02 0. -1.
        2   -1    0    0  501    0  0.00000000000E+00  0.00000000000E+00 -0.13842068733E+04  0.13842068733E+04  0.25500000920E-02 0.  1.
    10030    2    1    2    0    0  0.00000000000E+00  0.00000000000E+00 -0.32511354277E+03  0.24433002038E+04  0.24215732635E+04 0.  0.
        5    1    3    3  502    0 -0.87049374408E+03 -0.39223568871E+03 -0.91380011810E+03  0.13216130068E+04  0.46999998093E+01 0.  1.
       -5    1    3    3    0  502  0.87049374408E+03  0.39223568871E+03  0.58868657533E+03  0.11216871970E+04  0.46999998093E+01 0. -1.
</event>
<event>
 5   0  0.2896652E-05  0.2540282E+04  0.7818609E-02  0.8388774E-01
        1   -1    0    0  501    0  0.00000000000E+00  0.00000000000E+00  0.14177468043E+04  0.14177468043E+04  0.50400001928E-02 0. -1.
       -1   -1    0    0    0  501  0.00000000000E+00  0.00000000000E+00 -0.11379027108E+04  0.11379027108E+04  0.50400001928E-02 0.  1.
    10030    2    1    2    0    0  0.00000000000E+00  0.00000000000E+00  0.27984409347E+03  0.25556495151E+04  0.25402818204E+04 0.  0.
        4    1    3    3  502    0 -0.51740970690E+03 -0.93320799994E+03 -0.55320622407E+03  0.12019270840E+04  0.12699999809E+01 0.  1.
       -4    1    3    3    0  502  0.51740970690E+03  0.93320799994E+03  0.83305031754E+03  0.13537224311E+04  0.12699999809E+01 0. -1.
</event>
<event>
 5   0  0.6445331E-05  0.2513651E+04  0.7818609E-02  0.8398139E-01
       -2   -1    0    0    0  501  0.00000000000E+00  0.00000000000E+00  0.12134093431E+04  0.12134093431E+04  0.25500000920E-02 0.  1.
        2   -1    0    0  501    0  0.00000000000E+00  0.00000000000E+00 -0.13017946587E+04  0.13017946587E+04  0.25500000920E-02 0. -1.
    10030    2    1    2    0    0  0.00000000000E+00  0.00000000000E+00 -0.88385315530E+02  0.25152040018E+04  0.25136505737E+04 0.  0.
        1    1    3    3  502    0  0.36651908563E+03  0.59388952000E+03 -0.10900987840E+04  0.12943555775E+04  0.50400001928E-02 0. -1.
       -1    1    3    3    0  502 -0.36651908563E+03 -0.59388952000E+03  0.10017134685E+04  0.12208484243E+04  0.50400001928E-02 0.  1.
</event>
<event>
 5   0  0.2793920E-05  0.2104174E+04  0.7818609E-02  0.8559407E-01
       -1   -1    0    0    0  501  0.00000000000E+00  0.00000000000E+00  0.23244203621E+04  0.23244203621E+04  0.50400001928E-02 0. -1.
        1   -1    0    0  501    0  0.00000000000E+00  0.00000000000E+00 -0.47619917087E+03  0.47619917089E+03  0.50400001928E-02 0.  1.
    10030    2    1    2    0    0  0.00000000000E+00  0.00000000000E+00  0.18482211913E+04  0.28006195330E+04  0.21041739940E+04 0.  0.
        2    1    3    3  502    0 -0.19257529102E+03 -0.76529532990E+03  0.18501962547E+04  0.20114642343E+04  0.25500000920E-02 0. -1.
       -2    1    3    3    0  502  0.19257529102E+03  0.76529532990E+03 -0.19750634700E+01  0.78915529876E+03  0.25500000920E-02 0.  1.
</event>
<event>
 5   0  0.2793920E-05  0.2484683E+04  0.7818609E-02  0.8408463E-01
        1   -1    0    0  501    0  0.00000000000E+00  0.00000000000E+00  0.10243556988E+04  0.10243556988E+04  0.50400001928E-02 0. -1.
       -1   -1    0    0    0  501  0.00000000000E+00  0.00000000000E+00 -0.15067151834E+04  0.15067151834E+04  0.50400001928E-02 0.  1.
    10030    2    1    2    0    0  0.00000000000E+00  0.00000000000E+00 -0.48235948464E+03  0.25310708822E+04  0.24846829050E+04 0.  0.
        2    1    3    3  502    0 -0.80748287970E+03 -0.27606940227E+03 -0.11609031964E+04  0.14408119750E+04  0.25500000920E-02 0.  1.
       -2    1    3    3    0  502  0.80748287970E+03  0.27606940227E+03  0.67854371177E+03  0.10902589072E+04  0.25500000920E-02 0. -1.
</event>
<event>
 5   0  0.2777539E-05  0.2409719E+04  0.7818609E-02  0.8435874E-01
       -1   -1    0    0    0  501  0.00000000000E+00  0.00000000000E+00  0.10379160271E+04  0.10379160271E+04  0.50400001928E-02 0.  1.
        1   -1    0    0  501    0  0.00000000000E+00  0.00000000000E+00 -0.13986549905E+04  0.13986549905E+04  0.50400001928E-02 0. -1.
    10030    2    1    2    0    0  0.00000000000E+00  0.00000000000E+00 -0.36073896342E+03  0.24365710176E+04  0.24097190135E+04 0.  0.
        3    1    3    3  502    0 -0.47374380590E+03  0.68706836263E+02 -0.12983722881E+04  0.13838079461E+04  0.10100000352E+00 0. -1.
       -3    1    3    3    0  502  0.47374380590E+03 -0.68706836263E+02  0.93763332466E+03  0.10527630715E+04  0.10100000352E+00 0.  1.
</event>
<event>
 5   0  0.2980790E-05  0.2371773E+04  0.7818609E-02  0.8450148E-01
        1   -1    0    0  501    0  0.00000000000E+00  0.00000000000E+00  0.11459728520E+04  0.11459728520E+04  0.50400001928E-02 0. -1.
       -1   -1    0    0    0  501  0.00000000000E+00  0.00000000000E+00 -0.12271898574E+04  0.12271898574E+04  0.50400001928E-02 0.  1.
    10030    2    1    2    0    0  0.00000000000E+00  0.00000000000E+00 -0.81217005381E+02  0.23731627094E+04  0.23717725530E+04 0.  0.
        5    1    3    3  502    0  0.30378616637E+03 -0.16488425191E+03 -0.11756592728E+04  0.12254263206E+04  0.46999998093E+01 0.  1.
       -5    1    3    3    0  502 -0.30378616637E+03  0.16488425191E+03  0.10944422674E+04  0.11477363888E+04  0.46999998093E+01 0. -1.
</event>
<event>
 5   0  0.2896652E-05  0.2560226E+04  0.7818609E-02  0.8381838E-01
       -1   -1    0    0    0  501  0.00000000000E+00  0.00000000000E+00  0.15821733739E+04  0.15821733739E+04  0.50400001928E-02 0. -1.
        1   -1    0    0  501    0  0.00000000000E+00  0.00000000000E+00 -0.10357203632E+04  0.10357203632E+04  0.50400001928E-02 0.  1.
    10030    2    1    2    0    0  0.00000000000E+00  0.00000000000E+00  0.54645301074E+03  0.26178937372E+04  0.25602259131E+04 0.  0.
        4    1    3    3  502    0  0.99505427215E+03 -0.70906612253E+03  0.66363782149E+03  0.13904404128E+04  0.12699999809E+01 0. -1.
       -4    1    3    3    0  502 -0.99505427215E+03  0.70906612253E+03 -0.11718481075E+03  0.12274533243E+04  0.12699999809E+01 0.  1.
</event>
<event>
 5   0  0.6909250E-05  0.2511145E+04  0.7818609E-02  0.8399026E-01
       -2   -1    0    0    0  501  0.00000000000E+00  0.00000000000E+00  0.46632709514E+03  0.46632709515E+03  0.25500000920E-02 0.  1.
        2   -1    0    0  501    0  0.00000000000E+00  0.00000000000E+00 -0.33805927639E+04  0.33805927639E+04  0.25500000920E-02 0. -1.
    10030    2    1    2    0    0  0.00000000000E+00  0.00000000000E+00 -0.29142656688E+04  0.38469198591E+04  0.25111447616E+04 0.  0.
        4    1    3    3  502    0 -0.11159298559E+04 -0.57281234149E+03 -0.13725708075E+04  0.18593992730E+04  0.12699999809E+01 0.  1.
       -4    1    3    3    0  502  0.11159298559E+04  0.57281234149E+03 -0.15416948613E+04  0.19875205861E+04  0.12699999809E+01 0. -1.
</event>
<event>
 5   0  0.6445331E-05  0.2711369E+04  0.7818609E-02  0.8331325E-01
       -2   -1    0    0    0  501  0.00000000000E+00  0.00000000000E+00  0.77180036294E+03  0.77180036294E+03  0.25500000920E-02 0.  1.
        2   -1    0    0  501    0  0.00000000000E+00  0.00000000000E+00 -0.23812905085E+04  0.23812905085E+04  0.25500000920E-02 0. -1.
    10030    2    1    2    0    0  0.00000000000E+00  0.00000000000E+00 -0.16094901455E+04  0.31530908714E+04  0.27113693062E+04 0.  0.
        1    1    3    3  502    0 -0.10264813430E+04  0.72256142460E+03 -0.20935789009E+03  0.12726310094E+04  0.50400001928E-02 0.  1.
       -1    1    3    3    0  502  0.10264813430E+04 -0.72256142460E+03 -0.14001322555E+04  0.18804598620E+04  0.50400001928E-02 0. -1.
</event>
<event>
 5   0  0.7071821E-05  0.2391691E+04  0.7818609E-02  0.8442621E-01
        2   -1    0    0  501    0  0.00000000000E+00  0.00000000000E+00  0.19009932410E+04  0.19009932410E+04  0.25500000920E-02 0.  1.
       -2   -1    0    0    0  501  0.00000000000E+00  0.00000000000E+00 -0.75226253384E+03  0.75226253384E+03  0.25500000920E-02 0. -1.
    10030    2    1    2    0    0  0.00000000000E+00  0.00000000000E+00  0.11487307071E+04  0.26532557748E+04  0.23916906090E+04 0.  0.
        5    1    3    3  502    0  0.36080645532E+03 -0.11379423100E+04  0.65225743601E+03  0.13603513708E+04  0.46999998093E+01 0.  1.
       -5    1    3    3    0  502 -0.36080645532E+03  0.11379423100E+04  0.49647327112E+03  0.12929044041E+04  0.46999998093E+01 0. -1.
</event>
<event>
 5   0  0.6648328E-05  0.2321064E+04  0.7818609E-02  0.8469662E-01
       -2   -1    0    0    0  501  0.00000000000E+00  0.00000000000E+00  0.73456041595E+03  0.73456041595E+03  0.25500000920E-02 0.  1.
        2   -1    0    0  501    0  0.00000000000E+00  0.00000000000E+00 -0.18335250186E+04  0.18335250186E+04  0.25500000920E-02 0. -1.
    10030    2    1    2    0    0  0.00000000000E+00  0.00000000000E+00 -0.10989646026E+04  0.25680854345E+04  0.23210643251E+04 0.  0.
        2    1    3    3  502    0  0.58356516247E+03 -0.89861963669E+03 -0.56198334421E+02  0.10729509789E+04  0.25500000920E-02 0.  1.
       -2    1    3    3    0  502 -0.58356516247E+03  0.89861963669E+03 -0.10427662682E+04  0.14951344556E+04  0.25500000920E-02 0. -1.
</event>
<event>
 5   0  0.2793920E-05  0.1967933E+04  0.7818609E-02  0.8621761E-01
        1   -1    0    0  501    0  0.00000000000E+00  0.00000000000E+00  0.10386617239E+04  0.10386617239E+04  0.50400001928E-02 0. -1.
       -1   -1    0    0    0  501  0.00000000000E+00  0.00000000000E+00 -0.93215188280E+03  0.93215188281E+03  0.50400001928E-02 0.  1.
    10030    2    1    2    0    0  0.00000000000E+00  0.00000000000E+00  0.10650984111E+03  0.19708136067E+04  0.19679334151E+04 0.  0.
        2    1    3    3  502    0 -0.23999931761E+03  0.81469680321E+03  0.55083209658E+03  0.10122976599E+04  0.25500000920E-02 0.  1.
       -2    1    3    3    0  502  0.23999931761E+03 -0.81469680321E+03 -0.44432225547E+03  0.95851594683E+03  0.25500000920E-02 0. -1.
</event>
<event>
 5   0  0.2977854E-05  0.2538963E+04  0.7818609E-02  0.8389235E-01
       -1   -1    0    0    0  501  0.00000000000E+00  0.00000000000E+00  0.12033411773E+04  0.12033411773E+04  0.50400001928E-02 0.  1.
        1   -1    0    0  501    0  0.00000000000E+00  0.00000000000E+00 -0.13392568822E+04  0.13392568822E+04  0.50400001928E-02 0. -1.
    10030    2    1    2    0    0  0.00000000000E+00  0.00000000000E+00 -0.13591570488E+03  0.25425980596E+04  0.25389627436E+04 0.  0.
        1    1    3    3  502    0 -0.62538669908E+03  0.16501888543E+03 -0.11618786184E+04  0.13297750486E+04  0.50400001928E-02 0. -1.
       -1    1    3    3    0  502  0.62538669908E+03 -0.16501888543E+03  0.10259629135E+04  0.12128230110E+04  0.50400001928E-02 0.  1.
</event>
<event>
 5   0  0.7071821E-05  0.2489717E+04  0.7818609E-02  0.8406658E-01
       -2   -1    0    0    0  501  0.00000000000E+00  0.00000000000E+00  0.85790499558E+03  0.85790499558E+03  0.25500000920E-02 0. -1.
        2   -1    0    0  501    0  0.00000000000E+00  0.00000000000E+00 -0.18063452767E+04  0.18063452767E+04  0.25500000920E-02 0.  1.
    10030    2    1    2    0    0  0.00000000000E+00  0.00000000000E+00 -0.94844028114E+03  0.26642502723E+04  0.24897169611E+04 0.  0.
        5    1    3    3  502    0 -0.45976126889E+02 -0.77178079951E+03  0.56982357397E+03  0.96045843335E+03  0.46999998093E+01 0. -1.
       -5    1    3    3    0  502  0.45976126889E+02  0.77178079951E+03 -0.15182638551E+04  0.17037918390E+04  0.46999998093E+01 0.  1.
</event>
<event>
 5   0  0.6445331E-05  0.2008471E+04  0.7818609E-02  0.8602671E-01
        2   -1    0    0  501    0  0.00000000000E+00  0.00000000000E+00  0.25928929270E+04  0.25928929270E+04  0.25500000920E-02 0.  1.
       -2   -1    0    0    0  501  0.00000000000E+00  0.00000000000E+00 -0.38894345787E+03  0.38894345788E+03  0.25500000920E-02 0. -1.
    10030    2    1    2    0    0  0.00000000000E+00  0.00000000000E+00  0.22039494691E+04  0.29818363849E+04  0.20084708023E+04 0.  0.
        1    1    3    3  502    0  0.18840086030E+03  0.18435421853E+03  0.25406169154E+04  0.25542544261E+04  0.50400001928E-02 0.  1.
       -1    1    3    3    0  502 -0.18840086030E+03 -0.18435421853E+03 -0.33666744633E+03  0.42758195880E+03  0.50400001928E-02 0. -1.
</event>
<event>
 5   0  0.2980790E-05  0.2519791E+04  0.7818609E-02  0.8395969E-01
       -1   -1    0    0    0  501  0.00000000000E+00  0.00000000000E+00  0.16283650889E+04  0.16283650889E+04  0.50400001928E-02 0. -1.
        1   -1    0    0  501    0  0.00000000000E+00  0.00000000000E+00 -0.97480388681E+03  0.97480388682E+03  0.50400001928E-02 0.  1.
    10030    2    1    2    0    0  0.00000000000E+00  0.00000000000E+00  0.65356120210E+03  0.26031689757E+04  0.25197909579E+04 0.  0.
        5    1    3    3  502    0 -0.73786908790E+03 -0.29967318673E+03  0.13353316924E+04  0.15547950438E+04  0.46999998093E+01 0. -1.
       -5    1    3    3    0  502  0.73786908790E+03  0.29967318673E+03 -0.68177049025E+03  0.10483739319E+04  0.46999998093E+01 0.  1.
</event>
<event>
 5   0  0.2777539E-05  0.2559937E+04  0.7818609E-02  0.8381939E-01
        1   -1    0    0  501    0  0.00000000000E+00  0.00000000000E+00  0.63595994856E+03  0.63595994858E+03  0.50400001928E-02 0. -1.
       -1   -1    0    0    0  501  0.00000000000E+00  0.00000000000E+00 -0.25761353006E+04  0.25761353006E+04  0.50400001928E-02 0.  1.
    10030    2    1    2    0    0  0.00000000000E+00  0.00000000000E+00 -0.19401753520E+04  0.32120952491E+04  0.25599366190E+04 0.  0.
        3    1    3    3  502    0  0.11491680838E+04 -0.55633618682E+03 -0.85631498070E+03  0.15373264435E+04  0.10100000352E+00 0.  1.
       -3    1    3    3    0  502 -0.11491680838E+04  0.55633618682E+03 -0.10838603713E+04  0.16747688056E+04  0.10100000352E+00 0. -1.
</event>
<event>
 5   0  0.7071821E-05  0.2449389E+04  0.7818609E-02  0.8421241E-01
       -2   -1    0    0    0  501  0.00000000000E+00  0.00000000000E+00  0.30075493130E+04  0.30075493130E+04  0.25500000920E-02 0. -1.
        2   -1    0    0  501    0  0.00000000000E+00  0.00000000000E+00 -0.49870405222E+03  0.49870405223E+03  0.25500000920E-02 0.  1.
    10030    2    1    2    0    0  0.00000000000E+00  0.00000000000E+00  0.25088452608E+04  0.35062533652E+04  0.24493893359E+04 0.  0.
        5    1    3    3  502    0 -0.24102328607E+03  0.22202672659E+03 -0.43476504802E+03  0.54445461585E+03  0.46999998093E+01 0.  1.
       -5    1    3    3    0  502  0.24102328607E+03 -0.22202672659E+03  0.29436103088E+04  0.29617987494E+04  0.46999998093E+01 0. -1.
</event>
<event>
 5   0  0.2777539E-05  0.2444152E+04  0.7818609E-02  0.8423156E-01
        1   -1    0    0  501    0  0.00000000000E+00  0.00000000000E+00  0.67747513745E+03  0.67747513747E+03  0.50400001928E-02 0. -1.
       -1   -1    0    0    0  501  0.00000000000E+00  0.00000000000E+00 -0.22044637465E+04  0.22044637465E+04  0.50400001928E-02 0.  1.
    10030    2    1    2    0    0  0.00000000000E+00  0.00000000000E+00 -0.15269886090E+04  0.28819388839E+04  0.24441516972E+04 0.  0.
        3    1    3    3  502    0  0.76512095100E+03 -0.89778132225E+03 -0.11401624142E+04  0.16405461631E+04  0.10100000352E+00 0.  1.
       -3    1    3    3    0  502 -0.76512095100E+03  0.89778132225E+03 -0.38682619481E+03  0.12413927209E+04  0.10100000352E+00 0. -1.
</event>
<event>
 5   0  0.6827859E-05  0.2469148E+04  0.7818609E-02  0.8414060E-01
       -2   -1    0    0    0  501  0.00000000000E+00  0.00000000000E+00  0.59501840388E+03  0.59501840388E+03  0.25500000920E-02 0. -1.
        2   -1    0    0  501    0  0.00000000000E+00  0.00000000000E+00 -0.25615568978E+04  0.25615568978E+04  0.25500000920E-02 0.  1.
    10030    2    1    2    0    0  0.00000000000E+00  0.00000000000E+00 -0.19665384939E+04  0.31565753016E+04  0.24691484336E+04 0.  0.
        3    1    3    3  502    0  0.16170877526E+03 -0.97605143772E+03 -0.19273422073E+04  0.21664427367E+04  0.10100000352E+00 0.  1.
       -3    1    3    3    0  502 -0.16170877526E+03  0.97605143772E+03 -0.39196286561E+02  0.99013256494E+03  0.10100000352E+00 0. -1.
</event>
<event>
 5   0  0.2793920E-05  0.2551883E+04  0.7818609E-02  0.8384732E-01
        1   -1    0    0  501    0  0.00000000000E+00  0.00000000000E+00  0.28508989011E+04  0.28508989011E+04  0.50400001928E-02 0. -1.
       -1   -1    0    0    0  501  0.00000000000E+00  0.00000000000E+00 -0.57105739145E+03  0.57105739147E+03  0.50400001928E-02 0.  1.
    10030    2    1    2    0    0  0.00000000000E+00  0.00000000000E+00  0.22798415097E+04  0.34219562926E+04  0.25518831398E+04 0.  0.
        2    1    3    3  502    0  0.96567565805E+03 -0.56448400497E+03  0.31672912852E+03  0.11625355948E+04  0.25500000920E-02 0.  1.
       -2    1    3    3    0  502 -0.96567565805E+03  0.56448400497E+03  0.19631123812E+04  0.22594206978E+04  0.25500000920E-02 0. -1.
</event>
<event>
 5   0  0.6445331E-05  0.2475289E+04  0.7818609E-02  0.8411842E-01
        2   -1    0    0  501    0  0.00000000000E+00  0.00000000000E+00  0.18174883563E+04  0.18174883563E+04  0.25500000920E-02 0.  1.
       -2   -1    0    0    0  501  0.00000000000E+00  0.00000000000E+00 -0.84279163890E+03  0.84279163890E+03  0.25500000920E-02 0. -1.
    10030    2    1    2    0    0  0.00000000000E+00  0.00000000000E+00  0.97469671740E+03  0.26602799952E+04  0.24752890663E+04 0.  0.
        1    1    3    3  502    0 -0.11065607278E+04  0.39330912661E+03  0.67519806452E+02  0.11763195304E+04  0.50400001928E-02 0. -1.
       -1    1    3    3    0  502  0.11065607278E+04 -0.39330912661E+03  0.90717691095E+03  0.14839604648E+04  0.50400001928E-02 0.  1.
</event>
<event>
 5   0  0.2793920E-05  0.2475303E+04  0.7818609E-02  0.8411837E-01
        1   -1    0    0  501    0  0.00000000000E+00  0.00000000000E+00  0.23048199266E+04  0.23048199266E+04  0.50400001928E-02 0.  1.
       -1   -1    0    0    0  501  0.00000000000E+00  0.00000000000E+00 -0.66459900108E+03  0.66459900110E+03  0.50400001928E-02 0. -1.
    10030    2    1    2    0    0  0.00000000000E+00  0.00000000000E+00  0.16402209256E+04  0.29694189277E+04  0.24753028267E+04 0.  0.
        2    1    3    3  502    0 -0.95119623776E+03 -0.66828284491E+03  0.31058352209E+03  0.12032615542E+04  0.25500000920E-02 0. -1.
       -2    1    3    3    0  502  0.95119623776E+03  0.66828284491E+03  0.13296374035E+04  0.17661573736E+04  0.25500000920E-02 0.  1.
</event>
<event>
 5   0  0.6909250E-05  0.2503379E+04  0.7818609E-02  0.8401783E-01
        2   -1    0    0  501    0  0.00000000000E+00  0.00000000000E+00  0.19357864009E+04  0.19357864009E+04  0.25500000920E-02 0.  1.
       -2   -1    0    0    0  501  0.00000000000E+00  0.00000000000E+00 -0.80934911266E+03  0.80934911266E+03  0.25500000920E-02 0. -1.
    10030    2    1    2    0    0  0.00000000000E+00  0.00000000000E+00  0.11264372882E+04  0.27451355135E+04  0.25033793207E+04 0.  0.
        4    1    3    3  502    0 -0.98343230017E+03 -0.72464246749E+03  0.26395373866E+03  0.12497675719E+04  0.12699999809E+01 0. -1.
       -4    1    3    3    0  502  0.98343230017E+03  0.72464246749E+03  0.86248354953E+03  0.14953679416E+04  0.12699999809E+01 0.  1.
</event>
<event>
 5   0  0.2896652E-05  0.2495925E+04  0.7818609E-02  0.8404439E-01
        1   -1    0    0  501    0  0.00000000000E+00  0.00000000000E+00  0.14443424078E+04  0.14443424078E+04  0.50400001928E-02 0.  1.
       -1   -1    0    0    0  501  0.00000000000E+00  0.00000000000E+00 -0.10782836936E+04  0.10782836936E+04  0.50400001928E-02 0. -1.
    10030    2    1    2    0    0  0.00000000000E+00  0.00000000000E+00  0.36605871420E+03  0.25226261014E+04  0.24959253725E+04 0.  0.
        4    1    3    3  502    0  0.63134224407E+03 -0.64845398445E+03  0.10514790789E+04  0.13873339415E+04  0.12699999809E+01 0.  1.
       -4    1    3    3    0  502 -0.63134224407E+03  0.64845398445E+03 -0.68542036467E+03  0.11352921599E+04  0.12699999809E+01 0. -1.
</event>
<event>
 5   0  0.2793920E-05  0.1577573E+04  0.7818609E-02  0.8834445E-01
        1   -1    0    0  501    0  0.00000000000E+00  0.00000000000E+00  0.19052306031E+04  0.19052306031E+04  0.50400001928E-02 0.  1.
       -1   -1    0    0    0  501  0.00000000000E+00  0.00000000000E+00 -0.32656629270E+03  0.32656629274E+03  0.50400001928E-02 0. -1.
    10030    2    1    2    0    0  0.00000000000E+00  0.00000000000E+00  0.15786643104E+04  0.22317968959E+04  0.15775729395E+04 0.  0.
        2    1    3    3  502    0 -0.44057706359E+03  0.63781350160E+03  0.99565521618E+03  0.12618413218E+04  0.25500000920E-02 0.  1.
       -2    1    3    3    0  502  0.44057706359E+03 -0.63781350160E+03  0.58300909426E+03  0.96995557412E+03  0.25500000920E-02 0. -1.
</event>
<event>
 5   0  0.2980790E-05  0.2332286E+04  0.7818609E-02  0.8465299E-01
        1   -1    0    0  501    0  0.00000000000E+00  0.00000000000E+00  0.17015440949E+04  0.17015440949E+04  0.50400001928E-02 0.  1.
       -1   -1    0    0    0  501  0.00000000000E+00  0.00000000000E+00 -0.79920907426E+03  0.79920907428E+03  0.50400001928E-02 0. -1.
    10030    2    1    2    0    0  0.00000000000E+00  0.00000000000E+00  0.90233502066E+03  0.25007531692E+04  0.23322859867E+04 0.  0.
        5    1    3    3  502    0  0.82992651067E+02  0.52208037596E+03 -0.66334170205E+03  0.84823346006E+03  0.46999998093E+01 0. -1.
       -5    1    3    3    0  502 -0.82992651067E+02 -0.52208037596E+03  0.15656767227E+04  0.16525197091E+04  0.46999998093E+01 0.  1.
</event>
<event>
 5   0  0.2793920E-05  0.2758616E+04  0.7818609E-02  0.8316233E-01
       -1   -1    0    0    0  501  0.00000000000E+00  0.00000000000E+00  0.11831241783E+04  0.11831241783E+04  0.50400001928E-02 0.  1.
        1   -1    0    0  501    0  0.00000000000E+00  0.00000000000E+00 -0.16080229363E+04  0.16080229363E+04  0.50400001928E-02 0. -1.
    10030    2    1    2    0    0  0.00000000000E+00  0.00000000000E+00 -0.42489875802E+03  0.27911471146E+04  0.27586161859E+04 0.  0.
        2    1    3    3  502    0  0.44940546861E+03 -0.71848310680E+03  0.88864285460E+03  0.12279533269E+04  0.25500000920E-02 0.  1.
       -2    1    3    3    0  502 -0.44940546861E+03  0.71848310680E+03 -0.13135416126E+04  0.15631937878E+04  0.25500000920E-02 0. -1.
</event>
<event>
 5   0  0.2777539E-05  0.2516072E+04  0.7818609E-02  0.8397282E-01
       -1   -1    0    0    0  501  0.00000000000E+00  0.00000000000E+00  0.25797814499E+04  0.25797814499E+04  0.50400001928E-02 0.  1.
        1   -1    0    0  501    0  0.00000000000E+00  0.00000000000E+00 -0.61348385803E+03  0.61348385806E+03  0.50400001928E-02 0. -1.
    10030    2    1    2    0    0  0.00000000000E+00  0.00000000000E+00  0.19662975918E+04  0.31932653079E+04  0.25160717611E+04 0.  0.
        3    1    3    3  502    0 -0.17275489120E+03 -0.12446106586E+04  0.10609126489E+04  0.16445168296E+04  0.10100000352E+00 0.  1.
       -3    1    3    3    0  502  0.17275489120E+03  0.12446106586E+04  0.90538494293E+03  0.15487484783E+04  0.10100000352E+00 0. -1.
</event>
<event>
 5   0  0.2980790E-05  0.2463937E+04  0.7818609E-02  0.8415947E-01
       -1   -1    0    0    0  501  0.00000000000E+00  0.00000000000E+00  0.62817070396E+03  0.62817070399E+03  0.50400001928E-02 0. -1.
        1   -1    0    0  501    0  0.00000000000E+00  0.00000000000E+00 -0.24161375984E+04  0.24161375984E+04  0.50400001928E-02 0.  1.
    10030    2    1    2    0    0  0.00000000000E+00  0.00000000000E+00 -0.17879668944E+04  0.30443083024E+04  0.24639373824E+04 0.  0.
        5    1    3    3  502    0  0.22594475668E+03 -0.10867672939E+04 -0.15542907682E+04  0.19099623207E+04  0.46999998093E+01 0.  1.
       -5    1    3    3    0  502 -0.22594475668E+03  0.10867672939E+04 -0.23367612620E+03  0.11343459817E+04  0.46999998093E+01 0. -1.
</event>
<event>
 5   0  0.2980790E-05  0.2532060E+04  0.7818609E-02  0.8391652E-01
        1   -1    0    0  501    0  0.00000000000E+00  0.00000000000E+00  0.16464937744E+04  0.16464937744E+04  0.50400001928E-02 0. -1.
       -1   -1    0    0    0  501  0.00000000000E+00  0.00000000000E+00 -0.97348207573E+03  0.97348207574E+03  0.50400001928E-02 0.  1.
    10030    2    1    2    0    0  0.00000000000E+00  0.00000000000E+00  0.67301169867E+03  0.26199758502E+04  0.25320601709E+04 0.  0.
        5    1    3    3  502    0 -0.42763018465E+03 -0.46641198338E+03 -0.79810825739E+03  0.10185315869E+04  0.46999998093E+01 0.  1.
       -5    1    3    3    0  502  0.42763018465E+03  0.46641198338E+03  0.14711199561E+04  0.16014442632E+04  0.46999998093E+01 0. -1.
</event>
<event>
 5   0  0.2980790E-05  0.2455797E+04  0.7818609E-02  0.8418904E-01
        1   -1    0    0  501    0  0.00000000000E+00  0.00000000000E+00  0.80346764034E+03  0.80346764035E+03  0.50400001928E-02 0. -1.
       -1   -1    0    0    0  501  0.00000000000E+00  0.00000000000E+00 -0.18765346875E+04  0.18765346875E+04  0.50400001928E-02 0.  1.
    10030    2    1    2    0    0  0.00000000000E+00  0.00000000000E+00 -0.10730670472E+04  0.26800023279E+04  0.24557971394E+04 0.  0.
        5    1    3    3  502    0 -0.74172474485E+02  0.64290867865E+03 -0.16752946393E+04  0.17959586141E+04  0.46999998093E+01 0.  1.
       -5    1    3    3    0  502  0.74172474485E+02 -0.64290867865E+03  0.60222759217E+03  0.88404371375E+03  0.46999998093E+01 0. -1.
</event>
<event>
 5   0  0.6909250E-05  0.2448921E+04  0.7818609E-02  0.8421412E-01
       -2   -1    0    0    0  501  0.00000000000E+00  0.00000000000E+00  0.11396590232E+04  0.11396590232E+04  0.25500000920E-02 0.  1.
        2   -1    0    0  501    0  0.00000000000E+00  0.00000000000E+00 -0.13155716622E+04  0.13155716622E+04  0.25500000920E-02 0. -1.
    10030    2    1    2    0    0  0.00000000000E+00  0.00000000000E+00 -0.17591263899E+03  0.24552306853E+04  0.24489206728E+04 0.  0.
        4    1    3    3  502    0 -0.28180619742E+03 -0.11404562196E+03 -0.12771324141E+04  0.13128175627E+04  0.12699999809E+01 0. -1.
       -4    1    3    3    0  502  0.28180619742E+03  0.11404562196E+03  0.11012197751E+04  0.11424131226E+04  0.12699999809E+01 0.  1.
</event>
<event>
 5   0  0.2896652E-05  0.2510189E+04  0.7818609E-02  0.8399365E-01
        1   -1    0    0  501    0  0.00000000000E+00  0.00000000000E+00  0.97771761518E+03  0.97771761519E+03  0.50400001928E-02 0.  1.
       -1   -1    0    0    0  501  0.00000000000E+00  0.00000000000E+00 -0.16111625780E+04  0.16111625780E+04  0.50400001928E-02 0. -1.
    10030    2    1    2    0    0  0.00000000000E+00  0.00000000000E+00 -0.63344496278E+03  0.25888801932E+04  0.25101888641E+04 0.  0.
        4    1    3    3  502    0  0.91109098281E+03 -0.85920038060E+03 -0.23075260145E+03  0.12734050608E+04  0.12699999809E+01 0.  1.
       -4    1    3    3    0  502 -0.91109098281E+03  0.85920038060E+03 -0.40269236132E+03  0.13154751323E+04  0.12699999809E+01 0. -1.
</event>
<event>
 5   0  0.6827859E-05  0.2517132E+04  0.7818609E-02  0.8396908E-01
       -2   -1    0    0    0  501  0.00000000000E+00  0.00000000000E+00  0.14748254692E+04  0.14748254693E+04  0.25500000920E-02 0. -1.
        2   -1    0    0  501    0  0.00000000000E+00  0.00000000000E+00 -0.10740172768E+04  0.10740172768E+04  0.25500000920E-02 0.  1.
    10030    2    1    2    0    0  0.00000000000E+00  0.00000000000E+00  0.40080819241E+03  0.25488427461E+04  0.25171317282E+04 0.  0.
        3    1    3    3  502    0 -0.65365443415E+03  0.11234924187E+03 -0.88269797302E+03  0.11041024378E+04  0.10100000352E+00 0.  1.
       -3    1    3    3    0  502  0.65365443415E+03 -0.11234924187E+03  0.12835061654E+04  0.14447403083E+04  0.10100000352E+00 0. -1.
</event>
<event>
 5   0  0.6445331E-05  0.2065857E+04  0.7818609E-02  0.8576434E-01
       -2   -1    0    0    0  501  0.00000000000E+00  0.00000000000E+00  0.94417434604E+03  0.94417434605E+03  0.25500000920E-02 0.  1.
        2   -1    0    0  501    0  0.00000000000E+00  0.00000000000E+00 -0.11300259276E+04  0.11300259276E+04  0.25500000920E-02 0. -1.
    10030    2    1    2    0    0  0.00000000000E+00  0.00000000000E+00 -0.18585158158E+03  0.20742002737E+04  0.20658571986E+04 0.  0.
        1    1    3    3  502    0 -0.48356302816E+03 -0.87617233276E+01  0.82346582464E+03  0.95499001795E+03  0.50400001928E-02 0.  1.
       -1    1    3    3    0  502  0.48356302816E+03  0.87617233276E+01 -0.10093174062E+04  0.11192102557E+04  0.50400001928E-02 0. -1.
</event>
<event>
 5   0  0.2896652E-05  0.2634667E+04  0.7818609E-02  0.8356520E-01
       -1   -1    0    0    0  501  0.00000000000E+00  0.00000000000E+00  0.12826470008E+04  0.12826470008E+04  0.50400001928E-02 0.  1.
        1   -1    0    0  501    0  0.00000000000E+00  0.00000000000E+00 -0.13529578890E+04  0.13529578890E+04  0.50400001928E-02 0. -1.
    10030    2    1    2    0    0  0.00000000000E+00  0.00000000000E+00 -0.70310888176E+02  0.26356048897E+04  0.26346668696E+04 0.  0.
        4    1    3    3  502    0 -0.61329643174E+03 -0.78805165624E+03 -0.89465156458E+03  0.13407315022E+04  0.12699999809E+01 0. -1.
       -4    1    3    3    0  502  0.61329643174E+03  0.78805165624E+03  0.82434067641E+03  0.12948733875E+04  0.12699999809E+01 0.  1.
</event>
<event>
 5   0  0.6445331E-05  0.2464585E+04  0.7818609E-02  0.8415712E-01
        2   -1    0    0  501    0  0.00000000000E+00  0.00000000000E+00  0.19671050730E+04  0.19671050730E+04  0.25500000920E-02 0.  1.
       -2   -1    0    0    0  501  0.00000000000E+00  0.00000000000E+00 -0.77196913342E+03  0.77196913343E+03  0.25500000920E-02 0. -1.
    10030    2    1    2    0    0  0.00000000000E+00  0.00000000000E+00  0.11951359396E+04  0.27390742064E+04  0.24645846697E+04 0.  0.
        1    1    3    3  502    0 -0.22185275189E+03 -0.32199094021E+03 -0.70119344239E+03  0.80285057936E+03  0.50400001928E-02 0. -1.
       -1    1    3    3    0  502  0.22185275189E+03  0.32199094021E+03  0.18963293819E+04  0.19362236270E+04  0.50400001928E-02 0.  1.
</event>
<event>
 5   0  0.6445331E-05  0.2683621E+04  0.7818609E-02  0.8340339E-01
        2   -1    0    0  501    0  0.00000000000E+00  0.00000000000E+00  0.26336764753E+04  0.26336764753E+04  0.25500000920E-02 0. -1.
       -2   -1    0    0    0  501  0.00000000000E+00  0.00000000000E+00 -0.68362838988E+03  0.68362838989E+03  0.25500000920E-02 0.  1.
    10030    2    1    2    0    0  0.00000000000E+00  0.00000000000E+00  0.19500480854E+04  0.33173048652E+04  0.26836214400E+04 0.  0.
        1    1    3    3  502    0 -0.57347288711E+03 -0.24570979994E+02  0.24742520354E+04  0.25399602398E+04  0.50400001928E-02 0. -1.
       -1    1    3    3    0  502  0.57347288711E+03  0.24570979994E+02 -0.52420395000E+03  0.77734462533E+03  0.50400001928E-02 0.  1.
</event>
<event>
 5   0  0.2793920E-05  0.2500253E+04  0.7818609E-02  0.8402895E-01
        1   -1    0    0  501    0  0.00000000000E+00  0.00000000000E+00  0.80111830849E+03  0.80111830850E+03  0.50400001928E-02 0.  1.
       -1   -1    0    0    0  501  0.00000000000E+00  0.00000000000E+00 -0.19507929417E+04  0.19507929417E+04  0.50400001928E-02 0. -1.
    10030    2    1    2    0    0  0.00000000000E+00  0.00000000000E+00 -0.11496746332E+04  0.27519112502E+04  0.25002527406E+04 0.  0.
        2    1    3    3  502    0 -0.38345735962E+02  0.64975483446E+03 -0.17495825081E+04  0.18667326249E+04  0.25500000920E-02 0. -1.
       -2    1    3    3    0  502  0.38345735962E+02 -0.64975483446E+03  0.59990787485E+03  0.88517862530E+03  0.25500000920E-02 0.  1.
</event>
<event>
 5   0  0.6445331E-05  0.2407883E+04  0.7818609E-02  0.8436558E-01
       -2   -1    0    0    0  501  0.00000000000E+00  0.00000000000E+00  0.87902935529E+03  0.87902935530E+03  0.25500000920E-02 0. -1.
        2   -1    0    0  501    0  0.00000000000E+00  0.00000000000E+00 -0.16489490091E+04  0.16489490091E+04  0.25500000920E-02 0.  1.
    10030    2    1    2    0    0  0.00000000000E+00  0.00000000000E+00 -0.76991965378E+03  0.25279783644E+04  0.24078825423E+04 0.  0.
        1    1    3    3  502    0  0.34254454590E+03 -0.99737000362E+03 -0.99478413741E+03  0.14497169276E+04  0.50400001928E-02 0.  1.
       -1    1    3    3    0  502 -0.34254454590E+03  0.99737000362E+03  0.22486448363E+03  0.10782614368E+04  0.50400001928E-02 0. -1.
</event>
<event>
 5   0  0.2896652E-05  0.2507691E+04  0.7818609E-02  0.8400251E-01
       -1   -1    0    0    0  501  0.00000000000E+00  0.00000000000E+00  0.76151101649E+03  0.76151101651E+03  0.50400001928E-02 0. -1.
        1   -1    0    0  501    0  0.00000000000E+00  0.00000000000E+00 -0.20644857845E+04  0.20644857845E+04  0.50400001928E-02 0.  1.
    10030    2    1    2    0    0  0.00000000000E+00  0.00000000000E+00 -0.13029747680E+04  0.28259968010E+04  0.25076911041E+04 0.  0.
        4    1    3    3  502    0  0.13539346669E+03  0.12398165006E+04 -0.79690398771E+03  0.14800452441E+04  0.12699999809E+01 0. -1.
       -4    1    3    3    0  502 -0.13539346669E+03 -0.12398165006E+04 -0.50607078032E+03  0.13459515569E+04  0.12699999809E+01 0.  1.
</event>
<event>
 5   0  0.2793920E-05  0.2419286E+04  0.7818609E-02  0.8432318E-01
       -1   -1    0    0    0  501  0.00000000000E+00  0.00000000000E+00  0.15871835786E+04  0.15871835786E+04  0.50400001928E-02 0. -1.
        1   -1    0    0  501    0  0.00000000000E+00  0.00000000000E+00 -0.92190701370E+03  0.92190701371E+03  0.50400001928E-02 0.  1.
    10030    2    1    2    0    0  0.00000000000E+00  0.00000000000E+00  0.66527656486E+03  0.25090905923E+04  0.24192855748E+04 0.  0.
        2    1    3    3  502    0  0.12057298308E+04 -0.14025162998E+02  0.23286673721E+03  0.12280912211E+04  0.25500000920E-02 0.  1.
       -2    1    3    3    0  502 -0.12057298308E+04  0.14025162998E+02  0.43240982765E+03  0.12809993712E+04  0.25500000920E-02 0. -1.
</event>
<event>
 5   0  0.2977854E-05  0.2359979E+04  0.7818609E-02  0.8454640E-01
        1   -1    0    0  501    0  0.00000000000E+00  0.00000000000E+00  0.27375091567E+04  0.27375091567E+04  0.50400001928E-02 0.  1.
       -1   -1    0    0    0  501  0.00000000000E+00  0.00000000000E+00 -0.50862868730E+03  0.50862868732E+03  0.50400001928E-02 0. -1.
    10030    2    1    2    0    0  0.00000000000E+00  0.00000000000E+00  0.22288804694E+04  0.32461378440E+04  0.23599793973E+04 0.  0.
        1    1    3    3  502    0 -0.96022422842E+03 -0.66093430960E+03  0.86264229604E+03  0.14501780792E+04  0.50400001928E-02 0. -1.
       -1    1    3    3    0  502  0.96022422842E+03  0.66093430960E+03  0.13662381733E+04  0.17959597648E+04  0.50400001928E-02 0.  1.
</event>
<event>
 5   0  0.6445331E-05  0.2118315E+04  0.7818609E-02  0.8553218E-01
        2   -1    0    0  501    0  0.00000000000E+00  0.00000000000E+00  0.10707715733E+04  0.10707715733E+04  0.25500000920E-02 0. -1.
       -2   -1    0    0    0  501  0.00000000000E+00  0.00000000000E+00 -0.10476697654E+04  0.10476697654E+04  0.25500000920E-02 0.  1.
    10030    2    1    2    0    0  0.00000000000E+00  0.00000000000E+00  0.23101807870E+02  0.21184413387E+04  0.21183153712E+04 0.  0.
        1    1    3    3  502    0  0.82562411717E+03 -0.42841945797E+03 -0.49505259870E+03  0.10536961091E+04  0.50400001928E-02 0.  1.
       -1    1    3    3    0  502 -0.82562411717E+03  0.42841945797E+03  0.51815440657E+03  0.10647452296E+04  0.50400001928E-02 0. -1.
</event>
<event>
 5   0  0.2977854E-05  0.2534003E+04  0.7818609E-02  0.8390971E-01
       -1   -1    0    0    0  501  0.00000000000E+00  0.00000000000E+00  0.12735410679E+04  0.12735410679E+04  0.50400001928E-02 0. -1.
        1   -1    0    0  501    0  0.00000000000E+00  0.00000000000E+00 -0.12604952513E+04  0.12604952513E+04  0.50400001928E-02 0.  1.
    10030    2    1    2    0    0  0.00000000000E+00  0.00000000000E+00  0.13045816572E+02  0.25340363192E+04  0.25340027375E+04 0.  0.
        1    1    3    3  502    0 -0.11573666575E+03 -0.75553552267E+02  0.12659796147E+04  0.12735021398E+04  0.50400001928E-02 0. -1.
       -1    1    3    3    0  502  0.11573666575E+03  0.75553552267E+02 -0.12529337982E+04  0.12605341795E+04  0.50400001928E-02 0.  1.
</event>
<event>
 5   0  0.2896652E-05  0.2505852E+04  0.7818609E-02  0.8400904E-01
       -1   -1    0    0    0  501  0.00000000000E+00  0.00000000000E+00  0.97368421689E+03  0.97368421691E+03  0.50400001928E-02 0.  1.
        1   -1    0    0  501    0  0.00000000000E+00  0.00000000000E+00 -0.16122518013E+04  0.16122518013E+04  0.50400001928E-02 0. -1.
    10030    2    1    2    0    0  0.00000000000E+00  0.00000000000E+00 -0.63856758437E+03  0.25859360182E+04  0.25058524558E+04 0.  0.
        4    1    3    3  502    0  0.99122186935E+03  0.36485149547E+03  0.37618672836E+03  0.11212294482E+04  0.12699999809E+01 0.  1.
       -4    1    3    3    0  502 -0.99122186935E+03 -0.36485149547E+03 -0.10147543127E+04  0.14647065700E+04  0.12699999809E+01 0. -1.
</event>
<event>
 5   0  0.6648328E-05  0.2495955E+04  0.7818609E-02  0.8404428E-01
        2   -1    0    0  501    0  0.00000000000E+00  0.00000000000E+00  0.14814428440E+04  0.14814428440E+04  0.25500000920E-02 0. -1.
       -2   -1    0    0    0  501  0.00000000000E+00  0.00000000000E+00 -0.10513050702E+04  0.10513050702E+04  0.25500000920E-02 0.  1.
    10030    2    1    2    0    0  0.00000000000E+00  0.00000000000E+00  0.43013777376E+03  0.25327479142E+04  0.24959554268E+04 0.  0.
        2    1    3    3  502    0  0.12078987774E+04  0.25262714032E+03  0.40384462693E+03  0.12984338302E+04  0.25500000920E-02 0. -1.
       -2    1    3    3    0  502 -0.12078987774E+04 -0.25262714032E+03  0.26293146828E+02  0.12343140841E+04  0.25500000920E-02 0.  1.
</event>
<event>
 5   0  0.6648328E-05  0.1857702E+04  0.7818609E-02  0.8676202E-01
        2   -1    0    0  501    0  0.00000000000E+00  0.00000000000E+00  0.21937784996E+04  0.21937784996E+04  0.25500000920E-02 0. -1.
       -2   -1    0    0    0  501  0.00000000000E+00  0.00000000000E+00 -0.39327764925E+03  0.39327764926E+03  0.25500000920E-02 0.  1.
    10030    2    1    2    0    0  0.00000000000E+00  0.00000000000E+00  0.18005008504E+04  0.25870561489E+04  0.18577018613E+04 0.  0.
        2    1    3    3  502    0 -0.89971365138E+02  0.84582213528E+03  0.14199278670E+04  0.16552054491E+04  0.25500000920E-02 0. -1.
       -2    1    3    3    0  502  0.89971365138E+02 -0.84582213528E+03  0.38057298333E+03  0.93185069980E+03  0.25500000920E-02 0.  1.
</event>
<event>
 5   0  0.2331375E-05  0.1641794E+04  0.7818609E-02  0.8795276E-01
       -4   -1    0    0    0  501  0.00000000000E+00  0.00000000000E+00  0.38659239207E+03  0.38659447811E+03  0.12699999809E+01 0. -1.
        4   -1    0    0  501    0  0.00000000000E+00  0.00000000000E+00 -0.17430995911E+04  0.17431000537E+04  0.12699999809E+01 0.  1.
    10030    2    1    2    0    0  0.00000000000E+00  0.00000000000E+00 -0.13565071990E+04  0.21296945318E+04  0.16417938415E+04 0.  0.
        2    1    3    3  502    0 -0.12845307044E+03  0.21762587144E+03 -0.16913887053E+04  0.17101628471E+04  0.25500000920E-02 0.  1.
       -2    1    3    3    0  502  0.12845307044E+03 -0.21762587144E+03  0.33488150630E+03  0.41953168473E+03  0.25500000920E-02 0. -1.
</event>
<event>
 5   0  0.6445331E-05  0.2462645E+04  0.7818609E-02  0.8416416E-01
       -2   -1    0    0    0  501  0.00000000000E+00  0.00000000000E+00  0.11471594959E+04  0.11471594959E+04  0.25500000920E-02 0. -1.
        2   -1    0    0  501    0  0.00000000000E+00  0.00000000000E+00 -0.13216602065E+04  0.13216602065E+04  0.25500000920E-02 0.  1.
    10030    2    1    2    0    0  0.00000000000E+00  0.00000000000E+00 -0.17450071066E+03  0.24688197024E+04  0.24626449653E+04 0.  0.
        1    1    3    3  502    0 -0.97345189927E+03 -0.57549776854E+03  0.40115573003E+03  0.11998884121E+04  0.50400001928E-02 0.  1.
       -1    1    3    3    0  502  0.97345189927E+03  0.57549776854E+03 -0.57565644070E+03  0.12689312903E+04  0.50400001928E-02 0. -1.
</event>
<event>
 5   0  0.2777539E-05  0.2498667E+04  0.7818609E-02  0.8403460E-01
        1   -1    0    0  501    0  0.00000000000E+00  0.00000000000E+00  0.18331014948E+04  0.18331014948E+04  0.50400001928E-02 0. -1.
       -1   -1    0    0    0  501  0.00000000000E+00  0.00000000000E+00 -0.85147200373E+03  0.85147200375E+03  0.50400001928E-02 0.  1.
    10030    2    1    2    0    0  0.00000000000E+00  0.00000000000E+00  0.98162949110E+03  0.26845734986E+04  0.24986673271E+04 0.  0.
        3    1    3    3  502    0  0.11952407621E+04 -0.22421274742E+02  0.88076707038E+03  0.14848750235E+04  0.10100000352E+00 0.  1.
       -3    1    3    3    0  502 -0.11952407621E+04  0.22421274742E+02  0.10086242073E+03  0.11996984751E+04  0.10100000352E+00 0. -1.
</event>
<event>
 5   0  0.6909250E-05  0.2550080E+04  0.7818609E-02  0.8385359E-01
       -2   -1    0    0    0  501  0.00000000000E+00  0.00000000000E+00  0.92516569051E+03  0.92516569051E+03  0.25500000920E-02 0.  1.
        2   -1    0    0  501    0  0.00000000000E+00  0.00000000000E+00 -0.17572273600E+04  0.17572273600E+04  0.25500000920E-02 0. -1.
    10030    2    1    2    0    0  0.00000000000E+00  0.00000000000E+00 -0.83206166953E+03  0.26823930505E+04  0.25500795783E+04 0.  0.
        4    1    3    3  502    0 -0.12763490428E+03 -0.52198720139E+03 -0.16322965492E+04  0.17184745982E+04  0.12699999809E+01 0. -1.
       -4    1    3    3    0  502  0.12763490428E+03  0.52198720139E+03  0.80023487968E+03  0.96391845234E+03  0.12699999809E+01 0.  1.
</event>
<event>
 5   0  0.7071821E-05  0.2525163E+04  0.7818609E-02  0.8394075E-01
        2   -1    0    0  501    0  0.00000000000E+00  0.00000000000E+00  0.20008227085E+04  0.20008227085E+04  0.25500000920E-02 0. -1.
       -2   -1    0    0    0  501  0.00000000000E+00  0.00000000000E+00 -0.79672849599E+03  0.79672849600E+03  0.25500000920E-02 0.  1.
    10030    2    1    2    0    0  0.00000000000E+00  0.00000000000E+00  0.12040942125E+04  0.27975512045E+04  0.25251633352E+04 0.  0.
        5    1    3    3  502    0  0.93799123665E+03  0.65579106957E+03  0.11436439138E+02  0.11445708231E+04  0.46999998093E+01 0.  1.
       -5    1    3    3    0  502 -0.93799123665E+03 -0.65579106957E+03  0.11926577734E+04  0.16529803814E+04  0.46999998093E+01 0. -1.
</event>
<event>
 5   0  0.6445331E-05  0.2469446E+04  0.7818609E-02  0.8413952E-01
        2   -1    0    0  501    0  0.00000000000E+00  0.00000000000E+00  0.18450578520E+04  0.18450578520E+04  0.25500000920E-02 0. -1.
       -2   -1    0    0    0  501  0.00000000000E+00  0.00000000000E+00 -0.82628320238E+03  0.82628320238E+03  0.25500000920E-02 0.  1.
    10030    2    1    2    0    0  0.00000000000E+00  0.00000000000E+00  0.10187746496E+04  0.26713410544E+04  0.24694455333E+04 0.  0.
        1    1    3    3  502    0  0.19542781443E+03 -0.53364386415E+03  0.16951693920E+04  0.17878945920E+04  0.50400001928E-02 0. -1.
       -1    1    3    3    0  502 -0.19542781443E+03  0.53364386415E+03 -0.67639474238E+03  0.88344646241E+03  0.50400001928E-02 0.  1.
</event>
<event>
 5   0  0.2977854E-05  0.2461940E+04  0.7818609E-02  0.8416671E-01
       -1   -1    0    0    0  501  0.00000000000E+00  0.00000000000E+00  0.14969130022E+04  0.14969130022E+04  0.50400001928E-02 0.  1.
        1   -1    0    0  501    0  0.00000000000E+00  0.00000000000E+00 -0.10122745762E+04  0.10122745762E+04  0.50400001928E-02 0. -1.
    10030    2    1    2    0    0  0.00000000000E+00  0.00000000000E+00  0.48463842600E+03  0.25091875783E+04  0.24619398651E+04 0.  0.
        1    1    3    3  502    0 -0.62639732001E+03 -0.23389770967E+03  0.12956942906E+04  0.14580485026E+04  0.50400001928E-02 0.  1.
       -1    1    3    3    0  502  0.62639732001E+03  0.23389770967E+03 -0.81105586459E+03  0.10511390758E+04  0.50400001928E-02 0. -1.
</event>
<event>
 5   0  0.2793920E-05  0.2490241E+04  0.7818609E-02  0.8406470E-01
        1   -1    0    0  501    0  0.00000000000E+00  0.00000000000E+00  0.15103338011E+04  0.15103338011E+04  0.50400001928E-02 0.  1.
       -1   -1    0    0    0  501  0.00000000000E+00  0.00000000000E+00 -0.10264784266E+04  0.10264784266E+04  0.50400001928E-02 0. -1.
    10030    2    1    2    0    0  0.00000000000E+00  0.00000000000E+00  0.48385537454E+03  0.25368122277E+04  0.24902410035E+04 0.  0.
        2    1    3    3  502    0  0.65906791775E+02 -0.92644483571E+03 -0.60284634963E+03  0.11072793054E+04  0.25500000920E-02 0. -1.
       -2    1    3    3    0  502 -0.65906791775E+02  0.92644483571E+03  0.10867017242E+04  0.14295329224E+04  0.25500000920E-02 0.  1.
</event>
<event>
 5   0  0.2793920E-05  0.2138911E+04  0.7818609E-02  0.8544294E-01
        1   -1    0    0  501    0  0.00000000000E+00  0.00000000000E+00  0.17002618910E+04  0.17002618910E+04  0.50400001928E-02 0.  1.
       -1   -1    0    0    0  501  0.00000000000E+00  0.00000000000E+00 -0.67268156146E+03  0.67268156148E+03  0.50400001928E-02 0. -1.
    10030    2    1    2    0    0  0.00000000000E+00  0.00000000000E+00  0.10275803295E+04  0.23729434525E+04  0.21389107730E+04 0.  0.
        2    1    3    3  502    0 -0.63553831667E+03 -0.47392404163E+03 -0.28253761789E+03  0.84162964226E+03  0.25500000920E-02 0. -1.
       -2    1    3    3    0  502  0.63553831667E+03  0.47392404163E+03  0.13101179474E+04  0.15313138102E+04  0.25500000920E-02 0.  1.
</event>
<event>
 5   0  0.6648328E-05  0.2554714E+04  0.7818609E-02  0.8383749E-01
        2   -1    0    0  501    0  0.00000000000E+00  0.00000000000E+00  0.30529445261E+04  0.30529445261E+04  0.25500000920E-02 0.  1.
       -2   -1    0    0    0  501  0.00000000000E+00  0.00000000000E+00 -0.53444815191E+03  0.53444815192E+03  0.25500000920E-02 0. -1.
    10030    2    1    2    0    0  0.00000000000E+00  0.00000000000E+00  0.25184963742E+04  0.35873926780E+04  0.25547137295E+04 0.  0.
        2    1    3    3  502    0  0.53562935106E+03  0.11129036294E+04  0.80166200335E+03  0.14724521240E+04  0.25500000920E-02 0. -1.
       -2    1    3    3    0  502 -0.53562935106E+03 -0.11129036294E+04  0.17168343708E+04  0.21149405540E+04  0.25500000920E-02 0.  1.
</event>
<event>
 5   0  0.6909250E-05  0.2534241E+04  0.7818609E-02  0.8390888E-01
        2   -1    0    0  501    0  0.00000000000E+00  0.00000000000E+00  0.14690458260E+04  0.14690458260E+04  0.25500000920E-02 0.  1.
       -2   -1    0    0    0  501  0.00000000000E+00  0.00000000000E+00 -0.10929503136E+04  0.10929503136E+04  0.25500000920E-02 0. -1.
    10030    2    1    2    0    0  0.00000000000E+00  0.00000000000E+00  0.37609551248E+03  0.25619961396E+04  0.25342407906E+04 0.  0.
        4    1    3    3  502    0 -0.85923666025E+03 -0.18229254837E+03 -0.73523124144E+03  0.11454627025E+04  0.12699999809E+01 0. -1.
       -4    1    3    3    0  502  0.85923666025E+03  0.18229254837E+03  0.11113267539E+04  0.14165334371E+04  0.12699999809E+01 0.  1.
</event>
<event>
 5   0  0.7071821E-05  0.2292893E+04  0.7818609E-02  0.8480729E-01
       -2   -1    0    0    0  501  0.00000000000E+00  0.00000000000E+00  0.56495959567E+03  0.56495959568E+03  0.25500000920E-02 0. -1.
        2   -1    0    0  501    0  0.00000000000E+00  0.00000000000E+00 -0.23264308436E+04  0.23264308436E+04  0.25500000920E-02 0.  1.
    10030    2    1    2    0    0  0.00000000000E+00  0.00000000000E+00 -0.17614712479E+04  0.28913904393E+04  0.22928928704E+04 0.  0.
        5    1    3    3  502    0  0.12175239922E+03 -0.21353850531E+03  0.53132571261E+03  0.58544977824E+03  0.46999998093E+01 0. -1.
       -5    1    3    3    0  502 -0.12175239922E+03  0.21353850531E+03 -0.22927969605E+04  0.23059406610E+04  0.46999998093E+01 0.  1.
</event>
<event>
 5   0  0.2977854E-05  0.2444965E+04  0.7818609E-02  0.8422858E-01
        1   -1    0    0  501    0  0.00000000000E+00  0.00000000000E+00  0.83182642136E+03  0.83182642137E+03  0.50400001928E-02 0.  1.
       -1   -1    0    0    0  501  0.00000000000E+00  0.00000000000E+00 -0.17966055855E+04  0.17966055855E+04  0.50400001928E-02 0. -1.
    10030    2    1    2    0    0  0.00000000000E+00  0.00000000000E+00 -0.96477916410E+03  0.26284320068E+04  0.24449654352E+04 0.  0.
        1    1    3    3  502    0  0.10458285501E+04 -0.34755110306E+03 -0.10511600096E+04  0.15229860443E+04  0.50400001928E-02 0. -1.
       -1    1    3    3    0  502 -0.10458285501E+04  0.34755110306E+03  0.86380845449E+02  0.11054459625E+04  0.50400001928E-02 0.  1.
</event>
<event>
 5   0  0.2896652E-05  0.2502231E+04  0.7818609E-02  0.8402191E-01
       -1   -1    0    0    0  501  0.00000000000E+00  0.00000000000E+00  0.76146343062E+03  0.76146343064E+03  0.50400001928E-02 0. -1.
        1   -1    0    0  501    0  0.00000000000E+00  0.00000000000E+00 -0.20556342459E+04  0.20556342460E+04  0.50400001928E-02 0.  1.
    10030    2    1    2    0    0  0.00000000000E+00  0.00000000000E+00 -0.12941708153E+04  0.28170976766E+04  0.25022312484E+04 0.  0.
        4    1    3    3  502    0 -0.81899253966E+03 -0.81693947085E+03 -0.11051013615E+03  0.11620468933E+04  0.12699999809E+01 0. -1.
       -4    1    3    3    0  502  0.81899253966E+03  0.81693947085E+03 -0.11836606792E+04  0.16550507833E+04  0.12699999809E+01 0.  1.
</event>
<event>
 5   0  0.6648328E-05  0.2517705E+04  0.7818609E-02  0.8396705E-01
        2   -1    0    0  501    0  0.00000000000E+00  0.00000000000E+00  0.14906001869E+04  0.14906001869E+04  0.25500000920E-02 0.  1.
       -2   -1    0    0    0  501  0.00000000000E+00  0.00000000000E+00 -0.10631355759E+04  0.10631355759E+04  0.25500000920E-02 0. -1.
    10030    2    1    2    0    0  0.00000000000E+00  0.00000000000E+00  0.42746461104E+03  0.25537357628E+04  0.25177053745E+04 0.  0.
        2    1    3    3  502    0  0.73413599032E+03 -0.93527092664E+03  0.63319946811E+03  0.13470816326E+04  0.25500000920E-02 0.  1.
       -2    1    3    3    0  502 -0.73413599032E+03  0.93527092664E+03 -0.20573485707E+03  0.12066541302E+04  0.25500000920E-02 0. -1.
</event>
<event>
 5   0  0.6445331E-05  0.2516457E+04  0.7818609E-02  0.8397146E-01
        2   -1    0    0  501    0  0.00000000000E+00  0.00000000000E+00  0.15255773197E+04  0.15255773197E+04  0.25500000920E-02 0. -1.
       -2   -1    0    0    0  501  0.00000000000E+00  0.00000000000E+00 -0.10377307241E+04  0.10377307241E+04  0.25500000920E-02 0.  1.
    10030    2    1    2    0    0  0.00000000000E+00  0.00000000000E+00  0.48784659565E+03  0.25633080438E+04  0.25164566013E+04 0.  0.
        1    1    3    3  502    0  0.97354972659E+03 -0.79411586430E+03  0.31390006144E+03  0.12949719397E+04  0.50400001928E-02 0. -1.
       -1    1    3    3    0  502 -0.97354972659E+03  0.79411586430E+03  0.17394653421E+03  0.12683361041E+04  0.50400001928E-02 0.  1.
</event>
<event>
 5   0  0.6445331E-05  0.2476504E+04  0.7818609E-02  0.8411404E-01
       -2   -1    0    0    0  501  0.00000000000E+00  0.00000000000E+00  0.11203136629E+04  0.11203136629E+04  0.25500000920E-02 0. -1.
        2   -1    0    0  501    0  0.00000000000E+00  0.00000000000E+00 -0.13686061424E+04  0.13686061424E+04  0.25500000920E-02 0.  1.
    10030    2    1    2    0    0  0.00000000000E+00  0.00000000000E+00 -0.24829247953E+03  0.24889198053E+04  0.24765041171E+04 0.  0.
        1    1    3    3  502    0  0.75555004844E+03  0.73586745812E+01  0.86177043094E+03  0.11461057113E+04  0.50400001928E-02 0. -1.
       -1    1    3    3    0  502 -0.75555004844E+03 -0.73586745812E+01 -0.11100629105E+04  0.13428140940E+04  0.50400001928E-02 0.  1.
</event>
<event>
 5   0  0.2793920E-05  0.2796415E+04  0.7818609E-02  0.8304382E-01
       -1   -1    0    0    0  501  0.00000000000E+00  0.00000000000E+00  0.12707241536E+04  0.12707241536E+04  0.50400001928E-02 0.  1.
        1   -1    0    0  501    0  0.00000000000E+00  0.00000000000E+00 -0.15384804344E+04  0.15384804344E+04  0.50400001928E-02 0. -1.
    10030    2    1    2    0    0  0.00000000000E+00  0.00000000000E+00 -0.26775628074E+03  0.28092045880E+04  0.27964150249E+04 0.  0.
        2    1    3    3  502    0  0.12651988343E+04 -0.18679038194E+03  0.43383081991E+03  0.13504917317E+04  0.25500000920E-02 0.  1.
       -2    1    3    3    0  502 -0.12651988343E+04  0.18679038194E+03 -0.70158710065E+03  0.14587128563E+04  0.25500000920E-02 0. -1.
</event>
<event>
 5   0  0.7071821E-05  0.2474516E+04  0.7818609E-02  0.8412121E-01
       -2   -1    0    0    0  501  0.00000000000E+00  0.00000000000E+00  0.11378664308E+04  0.11378664308E+04  0.25500000920E-02 0.  1.
        2   -1    0    0  501    0  0.00000000000E+00  0.00000000000E+00 -0.13453311467E+04  0.13453311468E+04  0.25500000920E-02 0. -1.
    10030    2    1    2    0    0  0.00000000000E+00  0.00000000000E+00 -0.20746471592E+03  0.24831975776E+04  0.24745158316E+04 0.  0.
        5    1    3    3  502    0 -0.12610215844E+02 -0.12171648519E+04  0.11871123670E+03  0.12230142035E+04  0.46999998093E+01 0.  1.
       -5    1    3    3    0  502  0.12610215844E+02  0.12171648519E+04 -0.32617595262E+03  0.12601833741E+04  0.46999998093E+01 0. -1.
</event>
<event>
 5   0  0.2896652E-05  0.2597470E+04  0.7818609E-02  0.8369061E-01
        1   -1    0    0  501    0  0.00000000000E+00  0.00000000000E+00  0.12949940880E+04  0.12949940880E+04  0.50400001928E-02 0.  1.
       -1   -1    0    0    0  501  0.00000000000E+00  0.00000000000E+00 -0.13024866271E+04  0.13024866271E+04  0.50400001928E-02 0. -1.
    10030    2    1    2    0    0  0.00000000000E+00  0.00000000000E+00 -0.74925391211E+01  0.25974807151E+04  0.25974699088E+04 0.  0.
        4    1    3    3  502    0  0.12022180454E+04  0.68464915033E+02  0.48276905923E+03  0.12973369842E+04  0.12699999809E+01 0.  1.
       -4    1    3    3    0  502 -0.12022180454E+04 -0.68464915033E+02 -0.49026159835E+03  0.13001437309E+04  0.12699999809E+01 0. -1.
</event>
<event>
 5   0  0.2977854E-05  0.2568118E+04  0.7818609E-02  0.8379112E-01
        1   -1    0    0  501    0  0.00000000000E+00  0.00000000000E+00  0.15325080843E+04  0.15325080843E+04  0.50400001928E-02 0.  1.
       -1   -1    0    0    0  501  0.00000000000E+00  0.00000000000E+00 -0.10758880604E+04  0.10758880605E+04  0.50400001928E-02 0. -1.
    10030    2    1    2    0    0  0.00000000000E+00  0.00000000000E+00  0.45662002384E+03  0.26083961448E+04  0.25681177157E+04 0.  0.
        1    1    3    3  502    0  0.10508695540E+04 -0.63541286419E+03  0.60933480550E+03  0.13708994247E+04  0.50400001928E-02 0.  1.
       -1    1    3    3    0  502 -0.10508695540E+04  0.63541286419E+03 -0.15271478165E+03  0.12374967200E+04  0.50400001928E-02 0. -1.
</event>
<event>
 5   0  0.2977854E-05  0.2496182E+04  0.7818609E-02  0.8404347E-01
       -1   -1    0    0    0  501  0.00000000000E+00  0.00000000000E+00  0.18343254979E+04  0.18343254980E+04  0.50400001928E-02 0. -1.
        1   -1    0    0  501    0  0.00000000000E+00  0.00000000000E+00 -0.84921164520E+03  0.84921164522E+03  0.50400001928E-02 0.  1.
    10030    2    1    2    0    0  0.00000000000E+00  0.00000000000E+00  0.98511385275E+03  0.26835371432E+04  0.24961815431E+04 0.  0.
        1    1    3    3  502    0  0.84209808375E+03 -0.74317898364E+03 -0.92620135523E+02  0.11269528268E+04  0.50400001928E-02 0.  1.
       -1    1    3    3    0  502 -0.84209808375E+03  0.74317898364E+03  0.10777339883E+04  0.15565843163E+04  0.50400001928E-02 0. -1.
</event>
<event>
 5   0  0.2793920E-05  0.2532141E+04  0.7818609E-02  0.8391624E-01
        1   -1    0    0  501    0  0.00000000000E+00  0.00000000000E+00  0.18678365679E+04  0.18678365679E+04  0.50400001928E-02 0. -1.
       -1   -1    0    0    0  501  0.00000000000E+00  0.00000000000E+00 -0.85817735466E+03  0.85817735468E+03  0.50400001928E-02 0.  1.
    10030    2    1    2    0    0  0.00000000000E+00  0.00000000000E+00  0.10096592132E+04  0.27260139226E+04  0.25321414217E+04 0.  0.
        2    1    3    3  502    0  0.10736843543E+04  0.12023993724E+03 -0.20576773736E+03  0.10998163923E+04  0.25500000920E-02 0.  1.
       -2    1    3    3    0  502 -0.10736843543E+04 -0.12023993724E+03  0.12154269506E+04  0.16261975302E+04  0.25500000920E-02 0. -1.
</event>
<event>
 5   0  0.2777539E-05  0.2389177E+04  0.7818609E-02  0.8443567E-01
       -1   -1    0    0    0  501  0.00000000000E+00  0.00000000000E+00  0.95163943685E+03  0.95163943686E+03  0.50400001928E-02 0.  1.
        1   -1    0    0  501    0  0.00000000000E+00  0.00000000000E+00 -0.14995612725E+04  0.14995612725E+04  0.50400001928E-02 0. -1.
    10030    2    1    2    0    0  0.00000000000E+00  0.00000000000E+00 -0.54792183563E+03  0.24512007094E+04  0.23891769670E+04 0.  0.
        3    1    3    3  502    0  0.54424032618E+03  0.10429158908E+04 -0.60791779827E+02  0.11779502276E+04  0.10100000352E+00 0.  1.
       -3    1    3    3    0  502 -0.54424032618E+03 -0.10429158908E+04 -0.48713005580E+03  0.12732504818E+04  0.10100000352E+00 0. -1.
</event>
<event>
 5   0  0.6827859E-05  0.2505856E+04  0.7818609E-02  0.8400902E-01
        2   -1    0    0  501    0  0.00000000000E+00  0.00000000000E+00  0.10386630648E+04  0.10386630648E+04  0.25500000920E-02 0.  1.
       -2   -1    0    0    0  501  0.00000000000E+00  0.00000000000E+00 -0.15113932266E+04  0.15113932266E+04  0.25500000920E-02 0. -1.
    10030    2    1    2    0    0  0.00000000000E+00  0.00000000000E+00 -0.47273016180E+03  0.25500562913E+04  0.25058557985E+04 0.  0.
        3    1    3    3  502    0  0.61330903155E+03 -0.28142241875E+03  0.83794629687E+03  0.10758719964E+04  0.10100000352E+00 0.  1.
       -3    1    3    3    0  502 -0.61330903155E+03  0.28142241875E+03 -0.13106764587E+04  0.14741842950E+04  0.10100000352E+00 0. -1.
</event>
<event>
 5   0  0.2777539E-05  0.2455318E+04  0.7818609E-02  0.8419079E-01
        1   -1    0    0  501    0  0.00000000000E+00  0.00000000000E+00  0.10669011897E+04  0.10669011897E+04  0.50400001928E-02 0.  1.
       -1   -1    0    0    0  501  0.00000000000E+00  0.00000000000E+00 -0.14126391193E+04  0.14126391193E+04  0.50400001928E-02 0. -1.
    10030    2    1    2    0    0  0.00000000000E+00  0.00000000000E+00 -0.34573792961E+03  0.24795403091E+04  0.24553177856E+04 0.  0.
        3    1    3    3  502    0  0.57507798525E+03  0.64518905102E+03  0.70760547750E+03  0.11170000549E+04  0.10100000352E+00 0.  1.
       -3    1    3    3    0  502 -0.57507798525E+03 -0.64518905102E+03 -0.10533434071E+04  0.13625402541E+04  0.10100000352E+00 0. -1.
</event>
<event>
 5   0  0.6909250E-05  0.2483497E+04  0.7818609E-02  0.8408889E-01
        2   -1    0    0  501    0  0.00000000000E+00  0.00000000000E+00  0.14091471944E+04  0.14091471944E+04  0.25500000920E-02 0.  1.
       -2   -1    0    0    0  501  0.00000000000E+00  0.00000000000E+00 -0.10942356099E+04  0.10942356099E+04  0.25500000920E-02 0. -1.
    10030    2    1    2    0    0  0.00000000000E+00  0.00000000000E+00  0.31491158450E+03  0.25033828044E+04  0.24834967604E+04 0.  0.
        4    1    3    3  502    0  0.38541390217E+02 -0.12334627363E+04  0.29647920546E+03  0.12691797716E+04  0.12699999809E+01 0. -1.
       -4    1    3    3    0  502 -0.38541390217E+02  0.12334627363E+04  0.18432379037E+02  0.12342030327E+04  0.12699999809E+01 0.  1.
</event>
<event>
 5   0  0.6827859E-05  0.2440687E+04  0.7818609E-02  0.8424426E-01
       -2   -1    0    0    0  501  0.00000000000E+00  0.00000000000E+00  0.16747767393E+04  0.16747767393E+04  0.25500000920E-02 0. -1.
        2   -1    0    0  501    0  0.00000000000E+00  0.00000000000E+00 -0.88921574288E+03  0.88921574288E+03  0.25500000920E-02 0.  1.
    10030    2    1    2    0    0  0.00000000000E+00  0.00000000000E+00  0.78556099645E+03  0.25639924822E+04  0.24406866595E+04 0.  0.
        3    1    3    3  502    0 -0.15851260617E+03  0.33639510609E+03 -0.82824390800E+03  0.90789641207E+03  0.10100000352E+00 0.  1.
       -3    1    3    3    0  502  0.15851260617E+03 -0.33639510609E+03  0.16138049044E+04  0.16560960701E+04  0.10100000352E+00 0. -1.
</event>
<event>
 5   0  0.6648328E-05  0.2436541E+04  0.7818609E-02  0.8425949E-01
        2   -1    0    0  501    0  0.00000000000E+00  0.00000000000E+00  0.24177058074E+04  0.24177058074E+04  0.25500000920E-02 0. -1.
       -2   -1    0    0    0  501  0.00000000000E+00  0.00000000000E+00 -0.61388056028E+03  0.61388056028E+03  0.25500000920E-02 0.  1.
    10030    2    1    2    0    0  0.00000000000E+00  0.00000000000E+00  0.18038252471E+04  0.30315863677E+04  0.24365406589E+04 0.  0.
        2    1    3    3  502    0  0.45412385941E+02  0.51760880404E+02 -0.61145739396E+03  0.61532236931E+03  0.25500000920E-02 0.  1.
       -2    1    3    3    0  502 -0.45412385941E+02 -0.51760880404E+02  0.24152826411E+04  0.24162639984E+04  0.25500000920E-02 0. -1.
</event>
<event>
 5   0  0.2980790E-05  0.2445936E+04  0.7818609E-02  0.8422503E-01
        1   -1    0    0  501    0  0.00000000000E+00  0.00000000000E+00  0.17252590851E+04  0.17252590851E+04  0.50400001928E-02 0. -1.
       -1   -1    0    0    0  501  0.00000000000E+00  0.00000000000E+00 -0.86691367825E+03  0.86691367827E+03  0.50400001928E-02 0.  1.
    10030    2    1    2    0    0  0.00000000000E+00  0.00000000000E+00  0.85834540685E+03  0.25921727634E+04  0.24459359758E+04 0.  0.
        5    1    3    3  502    0 -0.34945624841E+03 -0.11460848892E+04  0.68876307027E+03  0.13820444637E+04  0.46999998093E+01 0.  1.
       -5    1    3    3    0  502  0.34945624841E+03  0.11460848892E+04  0.16958233658E+03  0.12101282996E+04  0.46999998093E+01 0. -1.
</event>
<event>
 5   0  0.2977854E-05  0.2639004E+04  0.7818609E-02  0.8355072E-01
       -1   -1    0    0    0  501  0.00000000000E+00  0.00000000000E+00  0.26480564253E+04  0.26480564253E+04  0.50400001928E-02 0.  1.
        1   -1    0    0  501    0  0.00000000000E+00  0.00000000000E+00 -0.65749551841E+03  0.65749551843E+03  0.50400001928E-02 0. -1.
    10030    2    1    2    0    0  0.00000000000E+00  0.00000000000E+00  0.19905609069E+04  0.33055519437E+04  0.26390037758E+04 0.  0.
        1    1    3    3  502    0 -0.76895417299E+02  0.33816210340E+03  0.25899518204E+04  0.26130665788E+04  0.50400001928E-02 0.  1.
       -1    1    3    3    0  502  0.76895417299E+02 -0.33816210340E+03 -0.59939091351E+03  0.69248536491E+03  0.50400001928E-02 0. -1.
</event>
<event>
 5   0  0.6909250E-05  0.2496075E+04  0.7818609E-02  0.8404385E-01
        2   -1    0    0  501    0  0.00000000000E+00  0.00000000000E+00  0.12333527286E+04  0.12333527286E+04  0.25500000920E-02 0. -1.
       -2   -1    0    0    0  501  0.00000000000E+00  0.00000000000E+00 -0.12628973773E+04  0.12628973773E+04  0.25500000920E-02 0.  1.
    10030    2    1    2    0    0  0.00000000000E+00  0.00000000000E+00 -0.29544648766E+02  0.24962501059E+04  0.24960752603E+04 0.  0.
        4    1    3    3  502    0 -0.21112753158E+03  0.12113706222E+04  0.19879050803E+03  0.12455974060E+04  0.12699999809E+01 0.  1.
       -4    1    3    3    0  502  0.21112753158E+03 -0.12113706222E+04 -0.22833515680E+03  0.12506526999E+04  0.12699999809E+01 0. -1.
</event>
<event>
 5   0  0.6909250E-05  0.2542681E+04  0.7818609E-02  0.8387936E-01
       -2   -1    0    0    0  501  0.00000000000E+00  0.00000000000E+00  0.82626784026E+03  0.82626784026E+03  0.25500000920E-02 0. -1.
        2   -1    0    0  501    0  0.00000000000E+00  0.00000000000E+00 -0.19561528742E+04  0.19561528742E+04  0.25500000920E-02 0.  1.
    10030    2    1    2    0    0  0.00000000000E+00  0.00000000000E+00 -0.11298850339E+04  0.27824207144E+04  0.25426806410E+04 0.  0.
        4    1    3    3  502    0  0.98431405318E+03  0.32518192520E+03  0.24044566239E+03  0.10641584324E+04  0.12699999809E+01 0. -1.
       -4    1    3    3    0  502 -0.98431405318E+03 -0.32518192520E+03 -0.13703306963E+04  0.17182622820E+04  0.12699999809E+01 0.  1.
</event>
<event>
 5   0  0.7071821E-05  0.2544808E+04  0.7818609E-02  0.8387194E-01
        2   -1    0    0  501    0  0.00000000000E+00  0.00000000000E+00  0.15254450334E+04  0.15254450334E+04  0.25500000920E-02 0. -1.
       -2   -1    0    0    0  501  0.00000000000E+00  0.00000000000E+00 -0.10613376263E+04  0.10613376263E+04  0.25500000920E-02 0.  1.
    10030    2    1    2    0    0  0.00000000000E+00  0.00000000000E+00  0.46410740713E+03  0.25867826597E+04  0.25448082134E+04 0.  0.
        5    1    3    3  502    0 -0.93879728068E+03 -0.83174863408E+03  0.44969741205E+03  0.13324398586E+04  0.46999998093E+01 0. -1.
       -5    1    3    3    0  502  0.93879728068E+03  0.83174863408E+03  0.14409995083E+02  0.12543428010E+04  0.46999998093E+01 0.  1.
</event>
<event>
 5   0  0.6827859E-05  0.2499887E+04  0.7818609E-02  0.8403026E-01
        2   -1    0    0  501    0  0.00000000000E+00  0.00000000000E+00  0.14232055786E+04  0.14232055786E+04  0.25500000920E-02 0.  1.
       -2   -1    0    0    0  501  0.00000000000E+00  0.00000000000E+00 -0.10977742970E+04  0.10977742970E+04  0.25500000920E-02 0. -1.
    10030    2    1    2    0    0  0.00000000000E+00  0.00000000000E+00  0.32543128158E+03  0.25209798756E+04  0.24998868003E+04 0.  0.
        3    1    3    3  502    0  0.70701511790E+03 -0.24156784254E+03 -0.84780380617E+03  0.11300427883E+04  0.10100000352E+00 0. -1.
       -3    1    3    3    0  502 -0.70701511790E+03  0.24156784254E+03  0.11732350878E+04  0.13909370873E+04  0.10100000352E+00 0.  1.
</event>
<event>
 5   0  0.6909250E-05  0.2556895E+04  0.7818609E-02  0.8382992E-01
       -2   -1    0    0    0  501  0.00000000000E+00  0.00000000000E+00  0.11728294610E+04  0.11728294610E+04  0.25500000920E-02 0. -1.
        2   -1    0    0  501    0  0.00000000000E+00  0.00000000000E+00 -0.13935770553E+04  0.13935770553E+04  0.25500000920E-02 0.  1.
    10030    2    1    2    0    0  0.00000000000E+00  0.00000000000E+00 -0.22074759434E+03  0.25664065163E+04  0.25568951692E+04 0.  0.
        4    1    3    3  502    0  0.47097005350E+03  0.32118201567E+03  0.10381975313E+04  0.11844097287E+04  0.12699999809E+01 0. -1.
       -4    1    3    3    0  502 -0.47097005350E+03 -0.32118201567E+03 -0.12589451257E+04  0.13819967876E+04  0.12699999809E+01 0.  1.
</event>
<event>
 5   0  0.2980790E-05  0.2478198E+04  0.7818609E-02  0.8410794E-01
       -1   -1    0    0    0  501  0.00000000000E+00  0.00000000000E+00  0.12623381995E+04  0.12623381995E+04  0.50400001928E-02 0. -1.
        1   -1    0    0  501    0  0.00000000000E+00  0.00000000000E+00 -0.12162880554E+04  0.12162880555E+04  0.50400001928E-02 0.  1.
    10030    2    1    2    0    0  0.00000000000E+00  0.00000000000E+00  0.46050144004E+02  0.24786262549E+04  0.24781984375E+04 0.  0.
        5    1    3    3  502    0  0.27326968729E+03 -0.67729412294E+02 -0.11838651325E+04  0.12168904376E+04  0.46999998093E+01 0.  1.
       -5    1    3    3    0  502 -0.27326968729E+03  0.67729412294E+02  0.12299152765E+04  0.12617358173E+04  0.46999998093E+01 0. -1.
</event>
<event>
 5   0  0.2793920E-05  0.2411673E+04  0.7818609E-02  0.8435146E-01
       -1   -1    0    0    0  501  0.00000000000E+00  0.00000000000E+00  0.96627166955E+03  0.96627166957E+03  0.50400001928E-02 0. -1.
        1   -1    0    0  501    0  0.00000000000E+00  0.00000000000E+00 -0.15047954536E+04  0.15047954536E+04  0.50400001928E-02 0.  1.
    10030    2    1    2    0    0  0.00000000000E+00  0.00000000000E+00 -0.53852378402E+03  0.24710671231E+04  0.24116726273E+04 0.  0.
        2    1    3    3  502    0 -0.49497253977E+03  0.55238240890E+03  0.70489853518E+03  0.10232331531E+04  0.25500000920E-02 0. -1.
       -2    1    3    3    0  502  0.49497253977E+03 -0.55238240890E+03 -0.12434223192E+04  0.14478339700E+04  0.25500000920E-02 0.  1.
</event>
<event>
 5   0  0.6909250E-05  0.2299112E+04  0.7818609E-02  0.8478272E-01
        2   -1    0    0  501    0  0.00000000000E+00  0.00000000000E+00  0.29282358591E+04  0.29282358591E+04  0.25500000920E-02 0.  1.
       -2   -1    0    0    0  501  0.00000000000E+00  0.00000000000E+00 -0.45128825223E+03  0.45128825224E+03  0.25500000920E-02 0. -1.
    10030    2    1    2    0    0  0.00000000000E+00  0.00000000000E+00  0.24769476068E+04  0.33795241113E+04  0.22991115179E+04 0.  0.
        4    1    3    3  502    0 -0.74566694721E+03  0.63016807497E+03  0.34635356525E+03  0.10359022174E+04  0.12699999809E+01 0. -1.
       -4    1    3    3    0  502  0.74566694721E+03 -0.63016807497E+03  0.21305940416E+04  0.23436218939E+04  0.12699999809E+01 0.  1.
</event>
<event>
 5   0  0.6827859E-05  0.2405712E+04  0.7818609E-02  0.8437368E-01
        2   -1    0    0  501    0  0.00000000000E+00  0.00000000000E+00  0.14529968091E+04  0.14529968091E+04  0.25500000920E-02 0.  1.
       -2   -1    0    0    0  501  0.00000000000E+00  0.00000000000E+00 -0.99577781874E+03  0.99577781875E+03  0.25500000920E-02 0. -1.
    10030    2    1    2    0    0  0.00000000000E+00  0.00000000000E+00  0.45721899036E+03  0.24487746279E+04  0.24057115315E+04 0.  0.
        3    1    3    3  502    0  0.46101736201E+02  0.11199830371E+04 -0.21552016733E+03  0.11414623630E+04  0.10100000352E+00 0. -1.
       -3    1    3    3    0  502 -0.46101736201E+02 -0.11199830371E+04  0.67273915769E+03  0.13073122649E+04  0.10100000352E+00 0.  1.
</event>
<event>
 5   0  0.2331375E-05  0.2441823E+04  0.7818609E-02  0.8424010E-01
        3   -1    0    0  501    0  0.00000000000E+00  0.00000000000E+00  0.48283397582E+03  0.48283398638E+03  0.10100000352E+00 0. -1.
       -3   -1    0    0    0  501  0.00000000000E+00  0.00000000000E+00 -0.30872405064E+04  0.30872405081E+04  0.10100000352E+00 0.  1.
    10030    2    1    2    0    0  0.00000000000E+00  0.00000000000E+00 -0.26044065306E+04  0.35700744945E+04  0.24418227862E+04 0.  0.
        1    1    3    3  502    0  0.76596677736E+02  0.44296137312E+03 -0.29618381720E+04  0.29957581989E+04  0.50400001928E-02 0.  1.
       -1    1    3    3    0  502 -0.76596677736E+02 -0.44296137312E+03  0.35743164135E+03  0.57431629560E+03  0.50400001928E-02 0. -1.
</event>
<event>
 5   0  0.6648328E-05  0.1844867E+04  0.7818609E-02  0.8682797E-01
       -2   -1    0    0    0  501  0.00000000000E+00  0.00000000000E+00  0.52796756870E+03  0.52796756871E+03  0.25500000920E-02 0.  1.
        2   -1    0    0  501    0  0.00000000000E+00  0.00000000000E+00 -0.16116213673E+04  0.16116213673E+04  0.25500000920E-02 0. -1.
    10030    2    1    2    0    0  0.00000000000E+00  0.00000000000E+00 -0.10836537986E+04  0.21395889360E+04  0.18448672743E+04 0.  0.
        2    1    3    3  502    0  0.44922834354E+02 -0.66717405068E+03 -0.12787438520E+04  0.14430263732E+04  0.25500000920E-02 0. -1.
       -2    1    3    3    0  502 -0.44922834354E+02  0.66717405068E+03  0.19509005335E+03  0.69656256278E+03  0.25500000920E-02 0.  1.
</event>
<event>
 5   0  0.6909250E-05  0.2509363E+04  0.7818609E-02  0.8399657E-01
       -2   -1    0    0    0  501  0.00000000000E+00  0.00000000000E+00  0.87193109210E+03  0.87193109211E+03  0.25500000920E-02 0. -1.
        2   -1    0    0  501    0  0.00000000000E+00  0.00000000000E+00 -0.18054477248E+04  0.18054477248E+04  0.25500000920E-02 0.  1.
    10030    2    1    2    0    0  0.00000000000E+00  0.00000000000E+00 -0.93351663265E+03  0.26773788169E+04  0.25093632709E+04 0.  0.
        4    1    3    3  502    0  0.51010754269E+03 -0.87277070662E+03 -0.12596763514E+04  0.16151546473E+04  0.12699999809E+01 0.  1.
       -4    1    3    3    0  502 -0.51010754269E+03  0.87277070662E+03  0.32615971874E+03  0.10622241696E+04  0.12699999809E+01 0. -1.
</event>
<event>
 5   0  0.2977854E-05  0.2398319E+04  0.7818609E-02  0.8440133E-01
       -1   -1    0    0    0  501  0.00000000000E+00  0.00000000000E+00  0.13609099107E+04  0.13609099107E+04  0.50400001928E-02 0.  1.
        1   -1    0    0  501    0  0.00000000000E+00  0.00000000000E+00 -0.10566339571E+04  0.10566339571E+04  0.50400001928E-02 0. -1.
    10030    2    1    2    0    0  0.00000000000E+00  0.00000000000E+00  0.30427595359E+03  0.24175438678E+04  0.23983190982E+04 0.  0.
        1    1    3    3  502    0 -0.59016433295E+03 -0.95870613261E+03  0.56845250648E+03  0.12611699492E+04  0.50400001928E-02 0. -1.
       -1    1    3    3    0  502  0.59016433295E+03  0.95870613261E+03 -0.26417655289E+03  0.11563739186E+04  0.50400001928E-02 0.  1.
</event>
<event>
 5   0  0.6648328E-05  0.2485970E+04  0.7818609E-02  0.8408001E-01
        2   -1    0    0  501    0  0.00000000000E+00  0.00000000000E+00  0.13536839429E+04  0.13536839429E+04  0.25500000920E-02 0. -1.
       -2   -1    0    0    0  501  0.00000000000E+00  0.00000000000E+00 -0.11413388174E+04  0.11413388174E+04  0.25500000920E-02 0.  1.
    10030    2    1    2    0    0  0.00000000000E+00  0.00000000000E+00  0.21234512554E+03  0.24950227603E+04  0.24859702577E+04 0.  0.
        2    1    3    3  502    0 -0.29704256019E+03  0.32202993150E+03 -0.10612805122E+04  0.11481523788E+04  0.25500000920E-02 0.  1.
       -2    1    3    3    0  502  0.29704256019E+03 -0.32202993150E+03  0.12736256378E+04  0.13468703815E+04  0.25500000920E-02 0. -1.
</event>
<event>
 5   0  0.2980790E-05  0.1441411E+04  0.7818609E-02  0.8924377E-01
        1   -1    0    0  501    0  0.00000000000E+00  0.00000000000E+00  0.66659915107E+03  0.66659915109E+03  0.50400001928E-02 0.  1.
       -1   -1    0    0    0  501  0.00000000000E+00  0.00000000000E+00 -0.77920336610E+03  0.77920336612E+03  0.50400001928E-02 0. -1.
    10030    2    1    2    0    0  0.00000000000E+00  0.00000000000E+00 -0.11260421504E+03  0.14458025172E+04  0.14414108399E+04 0.  0.
        5    1    3    3  502    0  0.25476686786E+03  0.67274904174E+03 -0.12617349794E+02  0.71949893512E+03  0.46999998093E+01 0. -1.
       -5    1    3    3    0  502 -0.25476686786E+03 -0.67274904174E+03 -0.99986865242E+02  0.72630358208E+03  0.46999998093E+01 0.  1.
</event>
<event>
 5   0  0.2777539E-05  0.2376043E+04  0.7818609E-02  0.8448528E-01
        1   -1    0    0  501    0  0.00000000000E+00  0.00000000000E+00  0.21835860462E+04  0.21835860462E+04  0.50400001928E-02 0.  1.
       -1   -1    0    0    0  501  0.00000000000E+00  0.00000000000E+00 -0.64636547381E+03  0.64636547383E+03  0.50400001928E-02 0. -1.
    10030    2    1    2    0    0  0.00000000000E+00  0.00000000000E+00  0.15372205724E+04  0.28299515200E+04  0.23760426169E+04 0.  0.
        3    1    3    3  502    0 -0.90755073506E+03 -0.49413670497E+03  0.14667392773E+04  0.17941971847E+04  0.10100000352E+00 0.  1.
       -3    1    3    3    0  502  0.90755073506E+03  0.49413670497E+03  0.70481295057E+02  0.10357543353E+04  0.10100000352E+00 0. -1.
</event>
<event>
 5   0  0.7071821E-05  0.2395656E+04  0.7818609E-02  0.8441132E-01
        2   -1    0    0  501    0  0.00000000000E+00  0.00000000000E+00  0.77764672334E+03  0.77764672334E+03  0.25500000920E-02 0.  1.
       -2   -1    0    0    0  501  0.00000000000E+00  0.00000000000E+00 -0.18450427753E+04  0.18450427753E+04  0.25500000920E-02 0. -1.
    10030    2    1    2    0    0  0.00000000000E+00  0.00000000000E+00 -0.10673960519E+04  0.26226894986E+04  0.23956556252E+04 0.  0.
        5    1    3    3  502    0  0.74563906958E+03 -0.20941906461E+03  0.46664495536E+03  0.90421986876E+03  0.46999998093E+01 0.  1.
       -5    1    3    3    0  502 -0.74563906958E+03  0.20941906461E+03 -0.15340410073E+04  0.17184696298E+04  0.46999998093E+01 0. -1.
</event>
<event>
 5   0  0.2980790E-05  0.1394939E+04  0.7818609E-02  0.8957490E-01
        1   -1    0    0  501    0  0.00000000000E+00  0.00000000000E+00  0.78478556426E+03  0.78478556428E+03  0.50400001928E-02 0.  1.
       -1   -1    0    0    0  501  0.00000000000E+00  0.00000000000E+00 -0.61986870378E+03  0.61986870380E+03  0.50400001928E-02 0. -1.
    10030    2    1    2    0    0  0.00000000000E+00  0.00000000000E+00  0.16491686048E+03  0.14046542681E+04  0.13949394402E+04 0.  0.
        5    1    3    3  502    0 -0.29387897574E+03 -0.38460765401E+03  0.58810496837E+03  0.76169379919E+03  0.46999998093E+01 0.  1.
       -5    1    3    3    0  502  0.29387897574E+03  0.38460765401E+03 -0.42318810788E+03  0.64296046889E+03  0.46999998093E+01 0. -1.
</event>
<event>
 5   0  0.6827859E-05  0.2542709E+04  0.7818609E-02  0.8387926E-01
       -2   -1    0    0    0  501  0.00000000000E+00  0.00000000000E+00  0.11924652576E+04  0.11924652576E+04  0.25500000920E-02 0. -1.
        2   -1    0    0  501    0  0.00000000000E+00  0.00000000000E+00 -0.13554631699E+04  0.13554631699E+04  0.25500000920E-02 0.  1.
    10030    2    1    2    0    0  0.00000000000E+00  0.00000000000E+00 -0.16299791228E+03  0.25479284276E+04  0.25427093724E+04 0.  0.
        3    1    3    3  502    0 -0.58601357101E+03  0.66709960357E+03 -0.99326158396E+03  0.13322921492E+04  0.10100000352E+00 0.  1.
       -3    1    3    3    0  502  0.58601357101E+03 -0.66709960357E+03  0.83026367168E+03  0.12156362783E+04  0.10100000352E+00 0. -1.
</event>
<event>
 5   0  0.2977854E-05  0.2558242E+04  0.7818609E-02  0.8382525E-01
       -1   -1    0    0    0  501  0.00000000000E+00  0.00000000000E+00  0.10504764784E+04  0.10504764785E+04  0.50400001928E-02 0. -1.
        1   -1    0    0  501    0  0.00000000000E+00  0.00000000000E+00 -0.15575318459E+04  0.15575318459E+04  0.50400001928E-02 0.  1.
    10030    2    1    2    0    0  0.00000000000E+00  0.00000000000E+00 -0.50705536749E+03  0.26080083244E+04  0.25582420281E+04 0.  0.
        1    1    3    3  502    0  0.73883536442E+02 -0.15248853511E+03 -0.15460397302E+04  0.15552975206E+04  0.50400001928E-02 0.  1.
       -1    1    3    3    0  502 -0.73883536442E+02  0.15248853511E+03  0.10389843627E+04  0.10527108037E+04  0.50400001928E-02 0. -1.
</event>
<event>
 5   0  0.2980790E-05  0.2531768E+04  0.7818609E-02  0.8391755E-01
       -1   -1    0    0    0  501  0.00000000000E+00  0.00000000000E+00  0.85962065608E+03  0.85962065610E+03  0.50400001928E-02 0.  1.
        1   -1    0    0  501    0  0.00000000000E+00  0.00000000000E+00 -0.18641508405E+04  0.18641508405E+04  0.50400001928E-02 0. -1.
    10030    2    1    2    0    0  0.00000000000E+00  0.00000000000E+00 -0.10045301844E+04  0.27237714966E+04  0.25317682110E+04 0.  0.
        5    1    3    3  502    0  0.81279968939E+03  0.69441713785E+02  0.53911849358E+03  0.97782223681E+03  0.46999998093E+01 0.  1.
       -5    1    3    3    0  502 -0.81279968939E+03 -0.69441713785E+02 -0.15436486780E+04  0.17459492598E+04  0.46999998093E+01 0. -1.
</event>
<event>
 5   0  0.6827859E-05  0.2610379E+04  0.7818609E-02  0.8364684E-01
       -2   -1    0    0    0  501  0.00000000000E+00  0.00000000000E+00  0.14994199964E+04  0.14994199964E+04  0.25500000920E-02 0. -1.
        2   -1    0    0  501    0  0.00000000000E+00  0.00000000000E+00 -0.11361187028E+04  0.11361187028E+04  0.25500000920E-02 0.  1.
    10030    2    1    2    0    0  0.00000000000E+00  0.00000000000E+00  0.36330129354E+03  0.26355386992E+04  0.26103785942E+04 0.  0.
        3    1    3    3  502    0 -0.11215124290E+03  0.79331131966E+02 -0.11287993459E+04  0.11371276548E+04  0.10100000352E+00 0.  1.
       -3    1    3    3    0  502  0.11215124290E+03 -0.79331131966E+02  0.14921006394E+04  0.14984110444E+04  0.10100000352E+00 0. -1.
</event>
<event>
 5   0  0.7071821E-05  0.2459474E+04  0.7818609E-02  0.8417567E-01
        2   -1    0    0  501    0  0.00000000000E+00  0.00000000000E+00  0.20435009981E+04  0.20435009981E+04  0.25500000920E-02 0.  1.
       -2   -1    0    0    0  501  0.00000000000E+00  0.00000000000E+00 -0.74003078035E+03  0.74003078035E+03  0.25500000920E-02 0. -1.
    10030    2    1    2    0    0  0.00000000000E+00  0.00000000000E+00  0.13034702178E+04  0.27835317784E+04  0.24594744465E+04 0.  0.
        5    1    3    3  502    0 -0.93643367785E+03 -0.17800943412E+02  0.15536031616E+04  0.18140919989E+04  0.46999998093E+01 0.  1.
       -5    1    3    3    0  502  0.93643367785E+03  0.17800943412E+02 -0.25013294387E+03  0.96943977957E+03  0.46999998093E+01 0. -1.
</event>
<event>
 5   0  0.7071821E-05  0.2537212E+04  0.7818609E-02  0.8389847E-01
       -2   -1    0    0    0  501  0.00000000000E+00  0.00000000000E+00  0.99649439511E+03  0.99649439511E+03  0.25500000920E-02 0. -1.
        2   -1    0    0  501    0  0.00000000000E+00  0.00000000000E+00 -0.16150223167E+04  0.16150223167E+04  0.25500000920E-02 0.  1.
    10030    2    1    2    0    0  0.00000000000E+00  0.00000000000E+00 -0.61852792162E+03  0.26115167118E+04  0.25372116085E+04 0.  0.
        5    1    3    3  502    0  0.33647235071E+03  0.10257088941E+04 -0.99514722728E+03  0.14682072307E+04  0.46999998093E+01 0.  1.
       -5    1    3    3    0  502 -0.33647235071E+03 -0.10257088941E+04  0.37661930566E+03  0.11433094811E+04  0.46999998093E+01 0. -1.
</event>
<event>
 5   0  0.2896652E-05  0.2406256E+04  0.7818609E-02  0.8437165E-01
       -1   -1    0    0    0  501  0.00000000000E+00  0.00000000000E+00  0.18001501663E+04  0.18001501663E+04  0.50400001928E-02 0.  1.
        1   -1    0    0  501    0  0.00000000000E+00  0.00000000000E+00 -0.80410927386E+03  0.80410927387E+03  0.50400001928E-02 0. -1.
    10030    2    1    2    0    0  0.00000000000E+00  0.00000000000E+00  0.99604089240E+03  0.26042594401E+04  0.24062563812E+04 0.  0.
        4    1    3    3  502    0 -0.87475820299E+02 -0.11375374484E+04  0.84660054754E+02  0.11440333926E+04  0.12699999809E+01 0. -1.
       -4    1    3    3    0  502  0.87475820299E+02  0.11375374484E+04  0.91138083764E+03  0.14602260475E+04  0.12699999809E+01 0.  1.
</event>
<event>
 5   0  0.2331375E-05  0.2425697E+04  0.7818609E-02  0.8429945E-01
        3   -1    0    0  501    0  0.00000000000E+00  0.00000000000E+00  0.10953459776E+04  0.10953459823E+04  0.10100000352E+00 0. -1.
       -3   -1    0    0    0  501  0.00000000000E+00  0.00000000000E+00 -0.13429556421E+04  0.13429556459E+04  0.10100000352E+00 0.  1.
    10030    2    1    2    0    0  0.00000000000E+00  0.00000000000E+00 -0.24760966451E+03  0.24383016282E+04  0.24256966595E+04 0.  0.
        2    1    3    3  502    0  0.24230517179E+03  0.25463992887E+03  0.10430233509E+04  0.11006593479E+04  0.25500000920E-02 0. -1.
       -2    1    3    3    0  502 -0.24230517179E+03 -0.25463992887E+03 -0.12906330154E+04  0.13376422803E+04  0.25500000920E-02 0.  1.
</event>
<event>
 5   0  0.2896652E-05  0.2552327E+04  0.7818609E-02  0.8384577E-01
       -1   -1    0    0    0  501  0.00000000000E+00  0.00000000000E+00  0.94466787917E+03  0.94466787919E+03  0.50400001928E-02 0.  1.
        1   -1    0    0  501    0  0.00000000000E+00  0.00000000000E+00 -0.17239849045E+04  0.17239849045E+04  0.50400001928E-02 0. -1.
    10030    2    1    2    0    0  0.00000000000E+00  0.00000000000E+00 -0.77931702534E+03  0.26686527837E+04  0.25523269097E+04 0.  0.
        4    1    3    3  502    0  0.88190565610E+03 -0.92027322945E+03 -0.45521496480E+03  0.13534706056E+04  0.12699999809E+01 0. -1.
       -4    1    3    3    0  502 -0.88190565610E+03  0.92027322945E+03 -0.32410206054E+03  0.13151821781E+04  0.12699999809E+01 0.  1.
</event>
<event>
 5   0  0.2777539E-05  0.2438555E+04  0.7818609E-02  0.8425208E-01
        1   -1    0    0  501    0  0.00000000000E+00  0.00000000000E+00  0.10147865240E+04  0.10147865240E+04  0.50400001928E-02 0. -1.
       -1   -1    0    0    0  501  0.00000000000E+00  0.00000000000E+00 -0.14649761537E+04  0.14649761537E+04  0.50400001928E-02 0.  1.
    10030    2    1    2    0    0  0.00000000000E+00  0.00000000000E+00 -0.45018962968E+03  0.24797626777E+04  0.24385553582E+04 0.  0.
        3    1    3    3  502    0  0.60171421785E+03  0.95224122515E+03 -0.69968755563E+03  0.13260414913E+04  0.10100000352E+00 0.  1.
       -3    1    3    3    0  502 -0.60171421785E+03 -0.95224122515E+03  0.24949792594E+03  0.11537211865E+04  0.10100000352E+00 0. -1.
</event>
<event>
 5   0  0.2896652E-05  0.2479332E+04  0.7818609E-02  0.8410386E-01
        1   -1    0    0  501    0  0.00000000000E+00  0.00000000000E+00  0.15646261068E+04  0.15646261068E+04  0.50400001928E-02 0.  1.
       -1   -1    0    0    0  501  0.00000000000E+00  0.00000000000E+00 -0.98219769906E+03  0.98219769907E+03  0.50400001928E-02 0. -1.
    10030    2    1    2    0    0  0.00000000000E+00  0.00000000000E+00  0.58242840770E+03  0.25468238058E+04  0.24793322988E+04 0.  0.
        4    1    3    3  502    0  0.17886086471E+03  0.42918194162E+03 -0.88923385501E+03  0.10034574280E+04  0.12699999809E+01 0. -1.
       -4    1    3    3    0  502 -0.17886086471E+03 -0.42918194162E+03  0.14716622627E+04  0.15433663779E+04  0.12699999809E+01 0.  1.
</event>
<event>
 5   0  0.6827859E-05  0.2557107E+04  0.7818609E-02  0.8382919E-01
        2   -1    0    0  501    0  0.00000000000E+00  0.00000000000E+00  0.11282591457E+04  0.11282591457E+04  0.25500000920E-02 0. -1.
       -2   -1    0    0    0  501  0.00000000000E+00  0.00000000000E+00 -0.14488683408E+04  0.14488683408E+04  0.25500000920E-02 0.  1.
    10030    2    1    2    0    0  0.00000000000E+00  0.00000000000E+00 -0.32060919511E+03  0.25771274864E+04  0.25571069249E+04 0.  0.
        3    1    3    3  502    0 -0.66942687862E+03  0.23771475271E+03 -0.12316695586E+04  0.14218475872E+04  0.10100000352E+00 0.  1.
       -3    1    3    3    0  502  0.66942687862E+03 -0.23771475271E+03  0.91106036348E+03  0.11552798992E+04  0.10100000352E+00 0. -1.
</event>
<event>
 5   0  0.7071821E-05  0.2472259E+04  0.7818609E-02  0.8412935E-01
        2   -1    0    0  501    0  0.00000000000E+00  0.00000000000E+00  0.20315833048E+04  0.20315833048E+04  0.25500000920E-02 0.  1.
       -2   -1    0    0    0  501  0.00000000000E+00  0.00000000000E+00 -0.75213098259E+03  0.75213098259E+03  0.25500000920E-02 0. -1.
    10030    2    1    2    0    0  0.00000000000E+00  0.00000000000E+00  0.12794523222E+04  0.27837142874E+04  0.24722594906E+04 0.  0.
        5    1    3    3  502    0 -0.54581201795E+03 -0.31128458554E+03 -0.55889286892E+03  0.84094719279E+03  0.46999998093E+01 0. -1.
       -5    1    3    3    0  502  0.54581201795E+03  0.31128458554E+03  0.18383451911E+04  0.19427670946E+04  0.46999998093E+01 0.  1.
</event>
<event>
 5   0  0.7071821E-05  0.2556217E+04  0.7818609E-02  0.8383227E-01
        2   -1    0    0  501    0  0.00000000000E+00  0.00000000000E+00  0.14391512891E+04  0.14391512891E+04  0.25500000920E-02 0. -1.
       -2   -1    0    0    0  501  0.00000000000E+00  0.00000000000E+00 -0.11350863041E+04  0.11350863041E+04  0.25500000920E-02 0.  1.
    10030    2    1    2    0    0  0.00000000000E+00  0.00000000000E+00  0.30406498500E+03  0.25742375931E+04  0.25562166713E+04 0.  0.
        5    1    3    3  502    0 -0.11691109062E+04 -0.50542175546E+03  0.25892866639E+03  0.12997452082E+04  0.46999998093E+01 0.  1.
       -5    1    3    3    0  502  0.11691109062E+04  0.50542175546E+03  0.45136318615E+02  0.12744923849E+04  0.46999998093E+01 0. -1.
</event>
<event>
 5   0  0.2977854E-05  0.2374897E+04  0.7818609E-02  0.8448962E-01
       -1   -1    0    0    0  501  0.00000000000E+00  0.00000000000E+00  0.95280709007E+03  0.95280709008E+03  0.50400001928E-02 0. -1.
        1   -1    0    0  501    0  0.00000000000E+00  0.00000000000E+00 -0.14798728765E+04  0.14798728765E+04  0.50400001928E-02 0.  1.
    10030    2    1    2    0    0  0.00000000000E+00  0.00000000000E+00 -0.52706578642E+03  0.24326799666E+04  0.23748965191E+04 0.  0.
        1    1    3    3  502    0  0.62732143893E+03  0.23451602718E+03 -0.12679537058E+04  0.14339583518E+04  0.50400001928E-02 0.  1.
       -1    1    3    3    0  502 -0.62732143893E+03 -0.23451602718E+03  0.74088791935E+03  0.99872161477E+03  0.50400001928E-02 0. -1.
</event>
<event>
 5   0  0.6445331E-05  0.2503756E+04  0.7818609E-02  0.8401649E-01
       -2   -1    0    0    0  501  0.00000000000E+00  0.00000000000E+00  0.97855691221E+03  0.97855691221E+03  0.25500000920E-02 0.  1.
        2   -1    0    0  501    0  0.00000000000E+00  0.00000000000E+00 -0.16015404508E+04  0.16015404508E+04  0.25500000920E-02 0. -1.
    10030    2    1    2    0    0  0.00000000000E+00  0.00000000000E+00 -0.62298353857E+03  0.25800973630E+04  0.25037559612E+04 0.  0.
        1    1    3    3  502    0 -0.11317900030E+04  0.52353415110E+03 -0.42513513755E+03  0.13174887110E+04  0.50400001928E-02 0.  1.
       -1    1    3    3    0  502  0.11317900030E+04 -0.52353415110E+03 -0.19784840102E+03  0.12626086520E+04  0.50400001928E-02 0. -1.
</event>
<event>
 5   0  0.6445331E-05  0.2449751E+04  0.7818609E-02  0.8421109E-01
       -2   -1    0    0    0  501  0.00000000000E+00  0.00000000000E+00  0.78059366311E+03  0.78059366312E+03  0.25500000920E-02 0.  1.
        2   -1    0    0  501    0  0.00000000000E+00  0.00000000000E+00 -0.19220244711E+04  0.19220244711E+04  0.25500000920E-02 0. -1.
    10030    2    1    2    0    0  0.00000000000E+00  0.00000000000E+00 -0.11414308080E+04  0.27026181343E+04  0.24497511078E+04 0.  0.
        1    1    3    3  502    0 -0.59494481329E+03  0.31292165957E+03  0.55891061188E+03  0.87421986250E+03  0.50400001928E-02 0.  1.
       -1    1    3    3    0  502  0.59494481329E+03 -0.31292165957E+03 -0.17003414199E+04  0.18283982718E+04  0.50400001928E-02 0. -1.
</event>
<event>
 5   0  0.2777539E-05  0.1340751E+04  0.7818609E-02  0.8997859E-01
        1   -1    0    0  501    0  0.00000000000E+00  0.00000000000E+00  0.94178175182E+03  0.94178175184E+03  0.50400001928E-02 0.  1.
       -1   -1    0    0    0  501  0.00000000000E+00  0.00000000000E+00 -0.47718384780E+03  0.47718384783E+03  0.50400001928E-02 0. -1.
    10030    2    1    2    0    0  0.00000000000E+00  0.00000000000E+00  0.46459790402E+03  0.14189655997E+04  0.13407505960E+04 0.  0.
        3    1    3    3  502    0 -0.84258480147E+02  0.44595325329E+03 -0.28986902551E+03  0.53851449168E+03  0.10100000352E+00 0. -1.
       -3    1    3    3    0  502  0.84258480147E+02 -0.44595325329E+03  0.75446692953E+03  0.88045110799E+03  0.10100000352E+00 0.  1.
</event>
<event>
 5   0  0.6909250E-05  0.2572133E+04  0.7818609E-02  0.8377729E-01
        2   -1    0    0  501    0  0.00000000000E+00  0.00000000000E+00  0.12798506593E+04  0.12798506593E+04  0.25500000920E-02 0. -1.
       -2   -1    0    0    0  501  0.00000000000E+00  0.00000000000E+00 -0.12923126434E+04  0.12923126434E+04  0.25500000920E-02 0.  1.
    10030    2    1    2    0    0  0.00000000000E+00  0.00000000000E+00 -0.12461984077E+02  0.25721633027E+04  0.25721331137E+04 0.  0.
        4    1    3    3  502    0  0.33295309408E+03 -0.34053763591E+03  0.11884134874E+04  0.12802936672E+04  0.12699999809E+01 0. -1.
       -4    1    3    3    0  502 -0.33295309408E+03  0.34053763591E+03 -0.12008754714E+04  0.12918696355E+04  0.12699999809E+01 0.  1.
</event>
<event>
 5   0  0.2793920E-05  0.2410315E+04  0.7818609E-02  0.8435652E-01
        1   -1    0    0  501    0  0.00000000000E+00  0.00000000000E+00  0.16349400872E+04  0.16349400872E+04  0.50400001928E-02 0. -1.
       -1   -1    0    0    0  501  0.00000000000E+00  0.00000000000E+00 -0.88835323730E+03  0.88835323732E+03  0.50400001928E-02 0.  1.
    10030    2    1    2    0    0  0.00000000000E+00  0.00000000000E+00  0.74658684994E+03  0.25232933246E+04  0.24103147673E+04 0.  0.
        2    1    3    3  502    0  0.63498380088E+03 -0.55560490596E+03  0.12741536493E+04  0.15281913365E+04  0.25500000920E-02 0. -1.
       -2    1    3    3    0  502 -0.63498380088E+03  0.55560490596E+03 -0.52756679935E+03  0.99510198808E+03  0.25500000920E-02 0.  1.
</event>
<event>
 5   0  0.6648328E-05  0.2700968E+04  0.7818609E-02  0.8334691E-01
       -2   -1    0    0    0  501  0.00000000000E+00  0.00000000000E+00  0.80031372672E+03  0.80031372673E+03  0.25500000920E-02 0.  1.
        2   -1    0    0  501    0  0.00000000000E+00  0.00000000000E+00 -0.22788650874E+04  0.22788650874E+04  0.25500000920E-02 0. -1.
    10030    2    1    2    0    0  0.00000000000E+00  0.00000000000E+00 -0.14785513607E+04  0.30791788141E+04  0.27009679826E+04 0.  0.
        2    1    3    3  502    0 -0.83766227491E+03  0.50580567441E+03 -0.18003529474E+04  0.20490944835E+04  0.25500000920E-02 0. -1.
       -2    1    3    3    0  502  0.83766227491E+03 -0.50580567441E+03  0.32180158669E+03  0.10300843307E+04  0.25500000920E-02 0.  1.
</event>
<event>
 5   0  0.2977854E-05  0.1785791E+04  0.7818609E-02  0.8713892E-01
        1   -1    0    0  501    0  0.00000000000E+00  0.00000000000E+00  0.17366487226E+04  0.17366487227E+04  0.50400001928E-02 0. -1.
       -1   -1    0    0    0  501  0.00000000000E+00  0.00000000000E+00 -0.45908105069E+03  0.45908105072E+03  0.50400001928E-02 0.  1.
    10030    2    1    2    0    0  0.00000000000E+00  0.00000000000E+00  0.12775676719E+04  0.21957297734E+04  0.17857911640E+04 0.  0.
        1    1    3    3  502    0  0.89113573691E+03 -0.56018979134E+02  0.64028604848E+03  0.10987389369E+04  0.50400001928E-02 0.  1.
       -1    1    3    3    0  502 -0.89113573691E+03  0.56018979134E+02  0.63728162347E+03  0.10969908364E+04  0.50400001928E-02 0. -1.
</event>
<event>
 5   0  0.6648328E-05  0.2511795E+04  0.7818609E-02  0.8398795E-01
       -2   -1    0    0    0  501  0.00000000000E+00  0.00000000000E+00  0.86308396650E+03  0.86308396651E+03  0.25500000920E-02 0. -1.
        2   -1    0    0  501    0  0.00000000000E+00  0.00000000000E+00 -0.18274918485E+04  0.18274918485E+04  0.25500000920E-02 0.  1.
    10030    2    1    2    0    0  0.00000000000E+00  0.00000000000E+00 -0.96440788198E+03  0.26905758150E+04  0.25117953048E+04 0.  0.
        2    1    3    3  502    0 -0.12028320663E+03 -0.50405003157E+03 -0.17076336720E+04  0.17845299778E+04  0.25500000920E-02 0.  1.
       -2    1    3    3    0  502  0.12028320663E+03  0.50405003157E+03  0.74322578999E+03  0.90604583716E+03  0.25500000920E-02 0. -1.
</event>
<event>
 5   0  0.7071821E-05  0.2502060E+04  0.7818609E-02  0.8402252E-01
        2   -1    0    0  501    0  0.00000000000E+00  0.00000000000E+00  0.19332412716E+04  0.19332412716E+04  0.25500000920E-02 0.  1.
       -2   -1    0    0    0  501  0.00000000000E+00  0.00000000000E+00 -0.80956095675E+03  0.80956095675E+03  0.25500000920E-02 0. -1.
    10030    2    1    2    0    0  0.00000000000E+00  0.00000000000E+00  0.11236803148E+04  0.27428022283E+04  0.25020604736E+04 0.  0.
        5    1    3    3  502    0  0.12437910230E+04 -0.26344498788E+02  0.70621004059E+03  0.14305470468E+04  0.46999998093E+01 0.  1.
       -5    1    3    3    0  502 -0.12437910230E+04  0.26344498788E+02  0.41747027422E+03  0.13122551815E+04  0.46999998093E+01 0. -1.
</event>
<event>
 5   0  0.7071821E-05  0.2571353E+04  0.7818609E-02  0.8377998E-01
       -2   -1    0    0    0  501  0.00000000000E+00  0.00000000000E+00  0.10033389741E+04  0.10033389741E+04  0.25500000920E-02 0.  1.
        2   -1    0    0  501    0  0.00000000000E+00  0.00000000000E+00 -0.16474630170E+04  0.16474630170E+04  0.25500000920E-02 0. -1.
    10030    2    1    2    0    0  0.00000000000E+00  0.00000000000E+00 -0.64412404285E+03  0.26508019911E+04  0.25713528373E+04 0.  0.
        5    1    3    3  502    0 -0.36203366277E+03 -0.87189092281E+03  0.57764638599E+03  0.11067789262E+04  0.46999998093E+01 0.  1.
       -5    1    3    3    0  502  0.36203366277E+03  0.87189092281E+03 -0.12217704288E+04  0.15440230649E+04  0.46999998093E+01 0. -1.
</event>
<event>
 5   0  0.7071821E-05  0.2486889E+04  0.7818609E-02  0.8407671E-01
       -2   -1    0    0    0  501  0.00000000000E+00  0.00000000000E+00  0.71547493332E+03  0.71547493332E+03  0.25500000920E-02 0.  1.
        2   -1    0    0  501    0  0.00000000000E+00  0.00000000000E+00 -0.21610174332E+04  0.21610174332E+04  0.25500000920E-02 0. -1.
    10030    2    1    2    0    0  0.00000000000E+00  0.00000000000E+00 -0.14455424999E+04  0.28764923665E+04  0.24868886617E+04 0.  0.
        5    1    3    3  502    0  0.30138932152E+03 -0.11619767639E+04 -0.34778008758E+03  0.12497994248E+04  0.46999998093E+01 0.  1.
       -5    1    3    3    0  502 -0.30138932152E+03  0.11619767639E+04 -0.10977624123E+04  0.16266929417E+04  0.46999998093E+01 0. -1.
</event>
<event>
 5   0  0.2777539E-05  0.2663013E+04  0.7818609E-02  0.8347107E-01
       -1   -1    0    0    0  501  0.00000000000E+00  0.00000000000E+00  0.65313151105E+03  0.65313151107E+03  0.50400001928E-02 0. -1.
        1   -1    0    0  501    0  0.00000000000E+00  0.00000000000E+00 -0.27144755866E+04  0.27144755866E+04  0.50400001928E-02 0.  1.
    10030    2    1    2    0    0  0.00000000000E+00  0.00000000000E+00 -0.20613440755E+04  0.33676070976E+04  0.26630129865E+04 0.  0.
        3    1    3    3  502    0 -0.12027770082E+03  0.97086945791E+03  0.11156095904E+03  0.98463195530E+03  0.10100000352E+00 0. -1.
       -3    1    3    3    0  502  0.12027770082E+03 -0.97086945791E+03 -0.21729050345E+04  0.23829751423E+04  0.10100000352E+00 0.  1.
</event>
<event>
 5   0  0.2777539E-05  0.2437180E+04  0.7818609E-02  0.8425714E-01
        1   -1    0    0  501    0  0.00000000000E+00  0.00000000000E+00  0.13769528598E+04  0.13769528598E+04  0.50400001928E-02 0. -1.
       -1   -1    0    0    0  501  0.00000000000E+00  0.00000000000E+00 -0.10784403455E+04  0.10784403455E+04  0.50400001928E-02 0.  1.
    10030    2    1    2    0    0  0.00000000000E+00  0.00000000000E+00  0.29851251434E+03  0.24553932053E+04  0.24371799424E+04 0.  0.
        3    1    3    3  502    0  0.52406449441E+03 -0.70986557546E+03  0.99601852636E+03  0.13306410653E+04  0.10100000352E+00 0. -1.
       -3    1    3    3    0  502 -0.52406449441E+03  0.70986557546E+03 -0.69750601202E+03  0.11247521400E+04  0.10100000352E+00 0.  1.
</event>
<event>
 5   0  0.2777539E-05  0.2477107E+04  0.7818609E-02  0.8411187E-01
        1   -1    0    0  501    0  0.00000000000E+00  0.00000000000E+00  0.20471741593E+04  0.20471741593E+04  0.50400001928E-02 0. -1.
       -1   -1    0    0    0  501  0.00000000000E+00  0.00000000000E+00 -0.74933311489E+03  0.74933311491E+03  0.50400001928E-02 0.  1.
    10030    2    1    2    0    0  0.00000000000E+00  0.00000000000E+00  0.12978410444E+04  0.27965072742E+04  0.24771074983E+04 0.  0.
        3    1    3    3  502    0 -0.63746426453E+03  0.92892409547E+03  0.12298092533E+04  0.16678403621E+04  0.10100000352E+00 0. -1.
       -3    1    3    3    0  502  0.63746426453E+03 -0.92892409547E+03  0.68031791086E+02  0.11286669121E+04  0.10100000352E+00 0.  1.
</event>
<event>
 5   0  0.6445331E-05  0.2554245E+04  0.7818609E-02  0.8383911E-01
        2   -1    0    0  501    0  0.00000000000E+00  0.00000000000E+00  0.19428430210E+04  0.19428430210E+04  0.25500000920E-02 0. -1.
       -2   -1    0    0    0  501  0.00000000000E+00  0.00000000000E+00 -0.83951269103E+03  0.83951269104E+03  0.25500000920E-02 0.  1.
    10030    2    1    2    0    0  0.00000000000E+00  0.00000000000E+00  0.11033303300E+04  0.27823557121E+04  0.25542446029E+04 0.  0.
        1    1    3    3  502    0  0.35812920366E+03 -0.60047682885E+03  0.17158544758E+04  0.18528317599E+04  0.50400001928E-02 0. -1.
       -1    1    3    3    0  502 -0.35812920366E+03  0.60047682885E+03 -0.61252414575E+03  0.92952395217E+03  0.50400001928E-02 0.  1.
</event>
<event>
 5   0  0.2980790E-05  0.2485382E+04  0.7818609E-02  0.8408212E-01
        1   -1    0    0  501    0  0.00000000000E+00  0.00000000000E+00  0.89182283335E+03  0.89182283336E+03  0.50400001928E-02 0.  1.
       -1   -1    0    0    0  501  0.00000000000E+00  0.00000000000E+00 -0.17316005240E+04  0.17316005240E+04  0.50400001928E-02 0. -1.
    10030    2    1    2    0    0  0.00000000000E+00  0.00000000000E+00 -0.83977769064E+03  0.26234233573E+04  0.24853819711E+04 0.  0.
        5    1    3    3  502    0  0.36907403509E+03 -0.98673247430E+02 -0.16680666717E+04  0.17112628566E+04  0.46999998093E+01 0. -1.
       -5    1    3    3    0  502 -0.36907403509E+03  0.98673247430E+02  0.82828898102E+03  0.91216050080E+03  0.46999998093E+01 0.  1.
</event>
<event>
 5   0  0.6445331E-05  0.2475201E+04  0.7818609E-02  0.8411874E-01
        2   -1    0    0  501    0  0.00000000000E+00  0.00000000000E+00  0.14308051985E+04  0.14308051985E+04  0.25500000920E-02 0. -1.
       -2   -1    0    0    0  501  0.00000000000E+00  0.00000000000E+00 -0.10704847426E+04  0.10704847426E+04  0.25500000920E-02 0.  1.
    10030    2    1    2    0    0  0.00000000000E+00  0.00000000000E+00  0.36032045582E+03  0.25012899411E+04  0.24752011107E+04 0.  0.
        1    1    3    3  502    0  0.11747538472E+04  0.28906147063E+03 -0.83457121930E+02  0.12126698753E+04  0.50400001928E-02 0.  1.
       -1    1    3    3    0  502 -0.11747538472E+04 -0.28906147063E+03  0.44377757775E+03  0.12886200658E+04  0.50400001928E-02 0. -1.
</event>
<event>
 5   0  0.6827859E-05  0.2442864E+04  0.7818609E-02  0.8423628E-01
        2   -1    0    0  501    0  0.00000000000E+00  0.00000000000E+00  0.17479453911E+04  0.17479453911E+04  0.25500000920E-02 0.  1.
       -2   -1    0    0    0  501  0.00000000000E+00  0.00000000000E+00 -0.85351428273E+03  0.85351428273E+03  0.25500000920E-02 0. -1.
    10030    2    1    2    0    0  0.00000000000E+00  0.00000000000E+00  0.89443110840E+03  0.26014596739E+04  0.24428641851E+04 0.  0.
        3    1    3    3  502    0  0.94589883402E+03  0.35521454017E+03  0.11780611514E+04  0.15520083957E+04  0.10100000352E+00 0.  1.
       -3    1    3    3    0  502 -0.94589883402E+03 -0.35521454017E+03 -0.28363004299E+03  0.10494512782E+04  0.10100000352E+00 0. -1.
</event>
<event>
 5   0  0.6648328E-05  0.2460777E+04  0.7818609E-02  0.8417094E-01
        2   -1    0    0  501    0  0.00000000000E+00  0.00000000000E+00  0.13797770058E+04  0.13797770058E+04  0.25500000920E-02 0.  1.
       -2   -1    0    0    0  501  0.00000000000E+00  0.00000000000E+00 -0.10971739839E+04  0.10971739839E+04  0.25500000920E-02 0. -1.
    10030    2    1    2    0    0  0.00000000000E+00  0.00000000000E+00  0.28260302190E+03  0.24769509897E+04  0.24607766533E+04 0.  0.
        2    1    3    3  502    0 -0.11423344896E+04 -0.45692435652E+03  0.12907753040E+03  0.12370808230E+04  0.25500000920E-02 0.  1.
       -2    1    3    3    0  502  0.11423344896E+04  0.45692435652E+03  0.15352549150E+03  0.12398701667E+04  0.25500000920E-02 0. -1.
</event>
<event>
 5   0  0.2793920E-05  0.2502240E+04  0.7818609E-02  0.8402188E-01
       -1   -1    0    0    0  501  0.00000000000E+00  0.00000000000E+00  0.26589237856E+04  0.26589237856E+04  0.50400001928E-02 0. -1.
        1   -1    0    0  501    0  0.00000000000E+00  0.00000000000E+00 -0.58869718629E+03  0.58869718631E+03  0.50400001928E-02 0.  1.
    10030    2    1    2    0    0  0.00000000000E+00  0.00000000000E+00  0.20702265993E+04  0.32476209719E+04  0.25022397577E+04 0.  0.
        2    1    3    3  502    0 -0.59703439222E+03  0.85872077187E+03  0.14395672253E+03  0.10557343262E+04  0.25500000920E-02 0.  1.
       -2    1    3    3    0  502  0.59703439222E+03 -0.85872077187E+03  0.19262698768E+04  0.21918866458E+04  0.25500000920E-02 0. -1.
</event>
<event>
 5   0  0.7071821E-05  0.2384566E+04  0.7818609E-02  0.8445304E-01
        2   -1    0    0  501    0  0.00000000000E+00  0.00000000000E+00  0.17686987681E+04  0.17686987681E+04  0.25500000920E-02 0.  1.
       -2   -1    0    0    0  501  0.00000000000E+00  0.00000000000E+00 -0.80372038588E+03  0.80372038588E+03  0.25500000920E-02 0. -1.
    10030    2    1    2    0    0  0.00000000000E+00  0.00000000000E+00  0.96497838226E+03  0.25724191540E+04  0.23845664230E+04 0.  0.
        5    1    3    3  502    0  0.17378605317E+03 -0.99820942125E+03 -0.19542124060E+03  0.10319085193E+04  0.46999998093E+01 0. -1.
       -5    1    3    3    0  502 -0.17378605317E+03  0.99820942125E+03  0.11603996229E+04  0.15405106347E+04  0.46999998093E+01 0.  1.
</event>
<event>
 5   0  0.2331375E-05  0.1236175E+04  0.7818609E-02  0.9081769E-01
        3   -1    0    0  501    0  0.00000000000E+00  0.00000000000E+00  0.15527240922E+04  0.15527240955E+04  0.10100000352E+00 0. -1.
       -3   -1    0    0    0  501  0.00000000000E+00  0.00000000000E+00 -0.24604002621E+03  0.24604004694E+03  0.10100000352E+00 0.  1.
    10030    2    1    2    0    0  0.00000000000E+00  0.00000000000E+00  0.13066840660E+04  0.17987641424E+04  0.12361752270E+04 0.  0.
        5    1    3    3  502    0 -0.42125268266E+03  0.20623803999E+03  0.67633537751E+02  0.47390329943E+03  0.46999998093E+01 0.  1.
       -5    1    3    3    0  502  0.42125268266E+03 -0.20623803999E+03  0.12390505282E+04  0.13248608430E+04  0.46999998093E+01 0. -1.
</event>
<event>
 5   0  0.7071821E-05  0.2277887E+04  0.7818609E-02  0.8486691E-01
        2   -1    0    0  501    0  0.00000000000E+00  0.00000000000E+00  0.19445808056E+04  0.19445808056E+04  0.25500000920E-02 0.  1.
       -2   -1    0    0    0  501  0.00000000000E+00  0.00000000000E+00 -0.66708096219E+03  0.66708096219E+03  0.25500000920E-02 0. -1.
    10030    2    1    2    0    0  0.00000000000E+00  0.00000000000E+00  0.12774998434E+04  0.26116617678E+04  0.22778874730E+04 0.  0.
        5    1    3    3  502    0 -0.91031837453E+03  0.13936305012E+03  0.14070683889E+04  0.16816554771E+04  0.46999998093E+01 0.  1.
       -5    1    3    3    0  502  0.91031837453E+03 -0.13936305012E+03 -0.12956854545E+03  0.93000629069E+03  0.46999998093E+01 0. -1.
</event>
<event>
 5   0  0.6445331E-05  0.2491771E+04  0.7818609E-02  0.8405923E-01
        2   -1    0    0  501    0  0.00000000000E+00  0.00000000000E+00  0.23223640523E+04  0.23223640523E+04  0.25500000920E-02 0. -1.
       -2   -1    0    0    0  501  0.00000000000E+00  0.00000000000E+00 -0.66838381837E+03  0.66838381837E+03  0.25500000920E-02 0.  1.
    10030    2    1    2    0    0  0.00000000000E+00  0.00000000000E+00  0.16539802339E+04  0.29907478707E+04  0.24917708987E+04 0.  0.
        1    1    3    3  502    0  0.12063278191E+04 -0.20917834360E+03  0.11039545622E+04  0.16485442251E+04  0.50400001928E-02 0.  1.
       -1    1    3    3    0  502 -0.12063278191E+04  0.20917834360E+03  0.55002567173E+03  0.13422036456E+04  0.50400001928E-02 0. -1.
</event>
<event>
 5   0  0.6909250E-05  0.2534340E+04  0.7818609E-02  0.8390853E-01
        2   -1    0    0  501    0  0.00000000000E+00  0.00000000000E+00  0.18345562927E+04  0.18345562927E+04  0.25500000920E-02 0.  1.
       -2   -1    0    0    0  501  0.00000000000E+00  0.00000000000E+00 -0.87526300696E+03  0.87526300696E+03  0.25500000920E-02 0. -1.
    10030    2    1    2    0    0  0.00000000000E+00  0.00000000000E+00  0.95929328570E+03  0.27098192996E+04  0.25343395646E+04 0.  0.
        4    1    3    3  502    0 -0.10906323595E+03  0.34133093104E+03 -0.81996093826E+03  0.89484029139E+03  0.12699999809E+01 0. -1.
       -4    1    3    3    0  502  0.10906323595E+03 -0.34133093104E+03  0.17792542240E+04  0.18149790082E+04  0.12699999809E+01 0.  1.
</event>
<event>
 5   0  0.2793920E-05  0.2491714E+04  0.7818609E-02  0.8405943E-01
        1   -1    0    0  501    0  0.00000000000E+00  0.00000000000E+00  0.15979221276E+04  0.15979221276E+04  0.50400001928E-02 0.  1.
       -1   -1    0    0    0  501  0.00000000000E+00  0.00000000000E+00 -0.97136130721E+03  0.97136130723E+03  0.50400001928E-02 0. -1.
    10030    2    1    2    0    0  0.00000000000E+00  0.00000000000E+00  0.62656082042E+03  0.25692834349E+04  0.24917140500E+04 0.  0.
        2    1    3    3  502    0  0.10655225349E+04  0.62873165412E+03  0.46453702573E+03  0.13215280601E+04  0.25500000920E-02 0.  1.
       -2    1    3    3    0  502 -0.10655225349E+04 -0.62873165412E+03  0.16202379469E+03  0.12477553748E+04  0.25500000920E-02 0. -1.
</event>
<event>
 5   0  0.2793920E-05  0.2567619E+04  0.7818609E-02  0.8379284E-01
        1   -1    0    0  501    0  0.00000000000E+00  0.00000000000E+00  0.82333662699E+03  0.82333662700E+03  0.50400001928E-02 0. -1.
       -1   -1    0    0    0  501  0.00000000000E+00  0.00000000000E+00 -0.20018142558E+04  0.20018142558E+04  0.50400001928E-02 0.  1.
    10030    2    1    2    0    0  0.00000000000E+00  0.00000000000E+00 -0.11784776288E+04  0.28251508828E+04  0.25676191285E+04 0.  0.
        2    1    3    3  502    0 -0.95232388745E+03 -0.13714966258E+03  0.34597473151E+03  0.10224623863E+04  0.25500000920E-02 0. -1.
       -2    1    3    3    0  502  0.95232388745E+03  0.13714966258E+03 -0.15244523603E+04  0.18026884965E+04  0.25500000920E-02 0.  1.
</event>
<event>
 5   0  0.7071821E-05  0.2366148E+04  0.7818609E-02  0.8452287E-01
       -2   -1    0    0    0  501  0.00000000000E+00  0.00000000000E+00  0.11023037130E+04  0.11023037130E+04  0.25500000920E-02 0.  1.
        2   -1    0    0  501    0  0.00000000000E+00  0.00000000000E+00 -0.12697628959E+04  0.12697628959E+04  0.25500000920E-02 0. -1.
    10030    2    1    2    0    0  0.00000000000E+00  0.00000000000E+00 -0.16745918288E+03  0.23720666090E+04  0.23661482243E+04 0.  0.
        5    1    3    3  502    0 -0.35930843795E+03  0.24070244959E+03  0.10202068778E+04  0.11080994478E+04  0.46999998093E+01 0.  1.
       -5    1    3    3    0  502  0.35930843795E+03 -0.24070244959E+03 -0.11876660606E+04  0.12639671611E+04  0.46999998093E+01 0. -1.
</event>
<event>
 5   0  0.6827859E-05  0.2497062E+04  0.7818609E-02  0.8404033E-01
        2   -1    0    0  501    0  0.00000000000E+00  0.00000000000E+00  0.18968578190E+04  0.18968578190E+04  0.25500000920E-02 0.  1.
       -2   -1    0    0    0  501  0.00000000000E+00  0.00000000000E+00 -0.82179540592E+03  0.82179540592E+03  0.25500000920E-02 0. -1.
    10030    2    1    2    0    0  0.00000000000E+00  0.00000000000E+00  0.10750624131E+04  0.27186532249E+04  0.24970615061E+04 0.  0.
        3    1    3    3  502    0 -0.99709643934E+03 -0.58859259393E+03  0.10460868681E+04  0.15604295232E+04  0.10100000352E+00 0.  1.
       -3    1    3    3    0  502  0.99709643934E+03  0.58859259393E+03  0.28975545016E+02  0.11582237018E+04  0.10100000352E+00 0. -1.
</event>
<event>
 5   0  0.2793920E-05  0.2501491E+04  0.7818609E-02  0.8402454E-01
       -1   -1    0    0    0  501  0.00000000000E+00  0.00000000000E+00  0.14108846531E+04  0.14108846531E+04  0.50400001928E-02 0.  1.
        1   -1    0    0  501    0  0.00000000000E+00  0.00000000000E+00 -0.11087829046E+04  0.11087829046E+04  0.50400001928E-02 0. -1.
    10030    2    1    2    0    0  0.00000000000E+00  0.00000000000E+00  0.30210174849E+03  0.25196675577E+04  0.25014913821E+04 0.  0.
        2    1    3    3  502    0 -0.40277025958E+03 -0.18160848921E+03 -0.10275620983E+04  0.11185210732E+04  0.25500000920E-02 0. -1.
       -2    1    3    3    0  502  0.40277025958E+03  0.18160848921E+03  0.13296638468E+04  0.14011464844E+04  0.25500000920E-02 0.  1.
</event>
<event>
 5   0  0.6909250E-05  0.2488439E+04  0.7818609E-02  0.8407116E-01
       -2   -1    0    0    0  501  0.00000000000E+00  0.00000000000E+00  0.56161993645E+03  0.56161993645E+03  0.25500000920E-02 0.  1.
        2   -1    0    0  501    0  0.00000000000E+00  0.00000000000E+00 -0.27564594147E+04  0.27564594147E+04  0.25500000920E-02 0. -1.
    10030    2    1    2    0    0  0.00000000000E+00  0.00000000000E+00 -0.21948394783E+04  0.33180793512E+04  0.24884393192E+04 0.  0.
        4    1    3    3  502    0  0.10943990732E+04 -0.58295430913E+03 -0.12342856644E+04  0.17495735972E+04  0.12699999809E+01 0. -1.
       -4    1    3    3    0  502 -0.10943990732E+04  0.58295430913E+03 -0.96055381389E+03  0.15685057539E+04  0.12699999809E+01 0.  1.
</event>
<event>
 5   0  0.2896652E-05  0.1292828E+04  0.7818609E-02  0.9035272E-01
        1   -1    0    0  501    0  0.00000000000E+00  0.00000000000E+00  0.66742020082E+03  0.66742020084E+03  0.50400001928E-02 0. -1.
       -1   -1    0    0    0  501  0.00000000000E+00  0.00000000000E+00 -0.62606853280E+03  0.62606853282E+03  0.50400001928E-02 0.  1.
    10030    2    1    2    0    0  0.00000000000E+00  0.00000000000E+00  0.41351668021E+02  0.12934887337E+04  0.12928275769E+04 0.  0.
        4    1    3    3  502    0 -0.14607925877E+02 -0.46781146708E+03 -0.42540889652E+03  0.63248344039E+03  0.12699999809E+01 0.  1.
       -4    1    3    3    0  502  0.14607925877E+02  0.46781146708E+03  0.46676056454E+03  0.66100529328E+03  0.12699999809E+01 0. -1.
</event>
<event>
 5   0  0.2777539E-05  0.1237889E+04  0.7818609E-02  0.9080324E-01
        1   -1    0    0  501    0  0.00000000000E+00  0.00000000000E+00  0.15042378665E+04  0.15042378665E+04  0.50400001928E-02 0. -1.
       -1   -1    0    0    0  501  0.00000000000E+00  0.00000000000E+00 -0.25467521096E+03  0.25467521101E+03  0.50400001928E-02 0.  1.
    10030    2    1    2    0    0  0.00000000000E+00  0.00000000000E+00  0.12495626555E+04  0.17589130775E+04  0.12378886800E+04 0.  0.
        3    1    3    3  502    0  0.61834286452E+03 -0.23467384749E+02  0.64454506829E+03  0.89349704616E+03  0.10100000352E+00 0. -1.
       -3    1    3    3    0  502 -0.61834286452E+03  0.23467384749E+02  0.60501758725E+03  0.86541603136E+03  0.10100000352E+00 0.  1.
</event>
<event>
 5   0  0.6445331E-05  0.2552331E+04  0.7818609E-02  0.8384576E-01
       -2   -1    0    0    0  501  0.00000000000E+00  0.00000000000E+00  0.16035133026E+04  0.16035133026E+04  0.25500000920E-02 0.  1.
        2   -1    0    0  501    0  0.00000000000E+00  0.00000000000E+00 -0.10156435401E+04  0.10156435401E+04  0.25500000920E-02 0. -1.
    10030    2    1    2    0    0  0.00000000000E+00  0.00000000000E+00  0.58786976258E+03  0.26191568427E+04  0.25523306426E+04 0.  0.
        1    1    3    3  502    0  0.86921969179E+03 -0.93402880588E+03  0.26786814251E+03  0.13037277417E+04  0.50400001928E-02 0.  1.
       -1    1    3    3    0  502 -0.86921969179E+03  0.93402880588E+03  0.32000162007E+03  0.13154291010E+04  0.50400001928E-02 0. -1.
</event>
<event>
 5   0  0.2793920E-05  0.2098261E+04  0.7818609E-02  0.8562010E-01
        1   -1    0    0  501    0  0.00000000000E+00  0.00000000000E+00  0.20524943186E+04  0.20524943186E+04  0.50400001928E-02 0. -1.
       -1   -1    0    0    0  501  0.00000000000E+00  0.00000000000E+00 -0.53626216670E+03  0.53626216672E+03  0.50400001928E-02 0.  1.
    10030    2    1    2    0    0  0.00000000000E+00  0.00000000000E+00  0.15162321519E+04  0.25887564853E+04  0.20982612330E+04 0.  0.
        2    1    3    3  502    0  0.22987991315E+03  0.48203119146E+03  0.18722497227E+04  0.19469252343E+04  0.25500000920E-02 0. -1.
       -2    1    3    3    0  502 -0.22987991315E+03 -0.48203119146E+03 -0.35601757079E+03  0.64183125097E+03  0.25500000920E-02 0.  1.
</event>
<event>
 5   0  0.6445331E-05  0.1533804E+04  0.7818609E-02  0.8862280E-01
        2   -1    0    0  501    0  0.00000000000E+00  0.00000000000E+00  0.17747795466E+04  0.17747795466E+04  0.25500000920E-02 0. -1.
       -2   -1    0    0    0  501  0.00000000000E+00  0.00000000000E+00 -0.33138699577E+03  0.33138699578E+03  0.25500000920E-02 0.  1.
    10030    2    1    2    0    0  0.00000000000E+00  0.00000000000E+00  0.14433925508E+04  0.21061665423E+04  0.15338042406E+04 0.  0.
        1    1    3    3  502    0 -0.12205595543E+03  0.57284558446E+01 -0.31793430298E+03  0.34060636004E+03  0.50400001928E-02 0.  1.
       -1    1    3    3    0  502  0.12205595543E+03 -0.57284558446E+01  0.17613268538E+04  0.17655601823E+04  0.50400001928E-02 0. -1.
</event>
<event>
 5   0  0.6827859E-05  0.2488776E+04  0.7818609E-02  0.8406995E-01
       -2   -1    0    0    0  501  0.00000000000E+00  0.00000000000E+00  0.87574201545E+03  0.87574201546E+03  0.25500000920E-02 0. -1.
        2   -1    0    0  501    0  0.00000000000E+00  0.00000000000E+00 -0.17682170411E+04  0.17682170411E+04  0.25500000920E-02 0.  1.
    10030    2    1    2    0    0  0.00000000000E+00  0.00000000000E+00 -0.89247502568E+03  0.26439590566E+04  0.24887763703E+04 0.  0.
        3    1    3    3  502    0 -0.68726394105E+03 -0.62619702426E+03  0.43240453571E+03  0.10253916962E+04  0.10100000352E+00 0. -1.
       -3    1    3    3    0  502  0.68726394105E+03  0.62619702426E+03 -0.13248795614E+04  0.16185673604E+04  0.10100000352E+00 0.  1.
</event>
<event>
 5   0  0.2977854E-05  0.2475964E+04  0.7818609E-02  0.8411599E-01
       -1   -1    0    0    0  501  0.00000000000E+00  0.00000000000E+00  0.14465138634E+04  0.14465138634E+04  0.50400001928E-02 0. -1.
        1   -1    0    0  501    0  0.00000000000E+00  0.00000000000E+00 -0.10595124877E+04  0.10595124877E+04  0.50400001928E-02 0.  1.
    10030    2    1    2    0    0  0.00000000000E+00  0.00000000000E+00  0.38700137568E+03  0.25060263511E+04  0.24759640562E+04 0.  0.
        1    1    3    3  502    0 -0.76346856776E+03 -0.45092793106E+03  0.10679226882E+04  0.13880486738E+04  0.50400001928E-02 0. -1.
       -1    1    3    3    0  502  0.76346856776E+03  0.45092793106E+03 -0.68092131249E+03  0.11179776772E+04  0.50400001928E-02 0.  1.
</event>
<event>
 5   0  0.2977854E-05  0.1567338E+04  0.7818609E-02  0.8840869E-01
       -1   -1    0    0    0  501  0.00000000000E+00  0.00000000000E+00  0.86544805850E+03  0.86544805852E+03  0.50400001928E-02 0. -1.
        1   -1    0    0  501    0  0.00000000000E+00  0.00000000000E+00 -0.70961766761E+03  0.70961766763E+03  0.50400001928E-02 0.  1.
    10030    2    1    2    0    0  0.00000000000E+00  0.00000000000E+00  0.15583039089E+03  0.15750657261E+04  0.15673381674E+04 0.  0.
        1    1    3    3  502    0 -0.37537116179E+03  0.67805883549E+03 -0.38717091061E+02  0.77599375426E+03  0.50400001928E-02 0. -1.
       -1    1    3    3    0  502  0.37537116179E+03 -0.67805883549E+03  0.19454748195E+03  0.79907197188E+03  0.50400001928E-02 0.  1.
</event>
<event>
 5   0  0.6445331E-05  0.1679404E+04  0.7818609E-02  0.8773199E-01
        2   -1    0    0  501    0  0.00000000000E+00  0.00000000000E+00  0.23168324835E+04  0.23168324836E+04  0.25500000920E-02 0. -1.
       -2   -1    0    0    0  501  0.00000000000E+00  0.00000000000E+00 -0.30433771231E+03  0.30433771232E+03  0.25500000920E-02 0.  1.
    10030    2    1    2    0    0  0.00000000000E+00  0.00000000000E+00  0.20124947712E+04  0.26211701959E+04  0.16794040584E+04 0.  0.
        1    1    3    3  502    0  0.15806353877E+03  0.39068949618E+03  0.21398004135E+04  0.21809099418E+04  0.50400001928E-02 0. -1.
       -1    1    3    3    0  502 -0.15806353877E+03 -0.39068949618E+03 -0.12730564226E+03  0.44026025405E+03  0.50400001928E-02 0.  1.
</event>
<event>
 5   0  0.2793920E-05  0.2417257E+04  0.7818609E-02  0.8433071E-01
        1   -1    0    0  501    0  0.00000000000E+00  0.00000000000E+00  0.99022173148E+03  0.99022173150E+03  0.50400001928E-02 0.  1.
       -1   -1    0    0    0  501  0.00000000000E+00  0.00000000000E+00 -0.14752082876E+04  0.14752082876E+04  0.50400001928E-02 0. -1.
    10030    2    1    2    0    0  0.00000000000E+00  0.00000000000E+00 -0.48498655612E+03  0.24654300191E+04  0.24172573755E+04 0.  0.
        2    1    3    3  502    0  0.11831469151E+04 -0.17969031191E+03 -0.41515389397E+03  0.12666799069E+04  0.25500000920E-02 0. -1.
       -2    1    3    3    0  502 -0.11831469151E+04  0.17969031191E+03 -0.69832662146E+02  0.11987501122E+04  0.25500000920E-02 0.  1.
</event>
<event>
 5   0  0.2977854E-05  0.2608364E+04  0.7818609E-02  0.8365366E-01
       -1   -1    0    0    0  501  0.00000000000E+00  0.00000000000E+00  0.97392953787E+03  0.97392953788E+03  0.50400001928E-02 0. -1.
        1   -1    0    0  501    0  0.00000000000E+00  0.00000000000E+00 -0.17464203607E+04  0.17464203607E+04  0.50400001928E-02 0.  1.
    10030    2    1    2    0    0  0.00000000000E+00  0.00000000000E+00 -0.77249082285E+03  0.27203498986E+04  0.26083637590E+04 0.  0.
        1    1    3    3  502    0  0.81088575861E+02  0.45949420856E+03 -0.16563911450E+04  0.17208549940E+04  0.50400001928E-02 0.  1.
       -1    1    3    3    0  502 -0.81088575861E+02 -0.45949420856E+03  0.88390032219E+03  0.99949490465E+03  0.50400001928E-02 0. -1.
</event>
<event>
 5   0  0.6827859E-05  0.2129753E+04  0.7818609E-02  0.8548249E-01
        2   -1    0    0  501    0  0.00000000000E+00  0.00000000000E+00  0.11341664294E+04  0.11341664294E+04  0.25500000920E-02 0. -1.
       -2   -1    0    0    0  501  0.00000000000E+00  0.00000000000E+00 -0.99981974870E+03  0.99981974870E+03  0.25500000920E-02 0.  1.
    10030    2    1    2    0    0  0.00000000000E+00  0.00000000000E+00  0.13434668066E+03  0.21339861781E+04  0.21297530321E+04 0.  0.
        3    1    3    3  502    0 -0.13554034405E+03 -0.85077196828E+03 -0.55999236219E+03  0.10275094076E+04  0.10100000352E+00 0.  1.
       -3    1    3    3    0  502  0.13554034405E+03  0.85077196828E+03  0.69433904285E+03  0.11064767704E+04  0.10100000352E+00 0. -1.
</event>
<event>
 5   0  0.2896652E-05  0.2540547E+04  0.7818609E-02  0.8388681E-01
       -1   -1    0    0    0  501  0.00000000000E+00  0.00000000000E+00  0.76250594534E+03  0.76250594536E+03  0.50400001928E-02 0. -1.
        1   -1    0    0  501    0  0.00000000000E+00  0.00000000000E+00 -0.21161741247E+04  0.21161741247E+04  0.50400001928E-02 0.  1.
    10030    2    1    2    0    0  0.00000000000E+00  0.00000000000E+00 -0.13536681794E+04  0.28786800701E+04  0.25405474619E+04 0.  0.
        4    1    3    3  502    0  0.24042184324E+03 -0.57560362957E+03  0.57700104573E+03  0.84973761877E+03  0.12699999809E+01 0. -1.
       -4    1    3    3    0  502 -0.24042184324E+03  0.57560362957E+03 -0.19306692251E+04  0.20289424513E+04  0.12699999809E+01 0.  1.
</event>
<event>
 5   0  0.2977854E-05  0.2080799E+04  0.7818609E-02  0.8569749E-01
       -1   -1    0    0    0  501  0.00000000000E+00  0.00000000000E+00  0.15174506978E+04  0.15174506978E+04  0.50400001928E-02 0.  1.
        1   -1    0    0  501    0  0.00000000000E+00  0.00000000000E+00 -0.71332214330E+03  0.71332214332E+03  0.50400001928E-02 0. -1.
    10030    2    1    2    0    0  0.00000000000E+00  0.00000000000E+00  0.80412855452E+03  0.22307728412E+04  0.20807990621E+04 0.  0.
        1    1    3    3  502    0 -0.11136617004E+03 -0.31682189796E+03 -0.65361816441E+03  0.73484368660E+03  0.50400001928E-02 0. -1.
       -1    1    3    3    0  502  0.11136617004E+03  0.31682189796E+03  0.14577467189E+04  0.14959291546E+04  0.50400001928E-02 0.  1.
</event>
<event>
 5   0  0.2977854E-05  0.2483876E+04  0.7818609E-02  0.8408752E-01
       -1   -1    0    0    0  501  0.00000000000E+00  0.00000000000E+00  0.14407585186E+04  0.14407585186E+04  0.50400001928E-02 0. -1.
        1   -1    0    0  501    0  0.00000000000E+00  0.00000000000E+00 -0.10705540493E+04  0.10705540493E+04  0.50400001928E-02 0.  1.
    10030    2    1    2    0    0  0.00000000000E+00  0.00000000000E+00  0.37020446933E+03  0.25113125680E+04  0.24838758956E+04 0.  0.
        1    1    3    3  502    0  0.18196126487E+03 -0.12274538374E+04  0.23721810947E+03  0.12633389317E+04  0.50400001928E-02 0.  1.
       -1    1    3    3    0  502 -0.18196126487E+03  0.12274538374E+04  0.13298635986E+03  0.12479736363E+04  0.50400001928E-02 0. -1.
</event>
<event>
 5   0  0.6648328E-05  0.2521177E+04  0.7818609E-02  0.8395480E-01
       -2   -1    0    0    0  501  0.00000000000E+00  0.00000000000E+00  0.94404963293E+03  0.94404963293E+03  0.25500000920E-02 0.  1.
        2   -1    0    0  501    0  0.00000000000E+00  0.00000000000E+00 -0.16832630155E+04  0.16832630155E+04  0.25500000920E-02 0. -1.
    10030    2    1    2    0    0  0.00000000000E+00  0.00000000000E+00 -0.73921338257E+03  0.26273126484E+04  0.25211773693E+04 0.  0.
        2    1    3    3  502    0 -0.49720306691E+03  0.15276224452E+03  0.82700835008E+03  0.97698004289E+03  0.25500000920E-02 0.  1.
       -2    1    3    3    0  502  0.49720306691E+03 -0.15276224452E+03 -0.15662217326E+04  0.16503326055E+04  0.25500000920E-02 0. -1.
</event>
<event>
 5   0  0.6909250E-05  0.2475051E+04  0.7818609E-02  0.8411928E-01
        2   -1    0    0  501    0  0.00000000000E+00  0.00000000000E+00  0.12348719709E+04  0.12348719709E+04  0.25500000920E-02 0. -1.
       -2   -1    0    0    0  501  0.00000000000E+00  0.00000000000E+00 -0.12401851101E+04  0.12401851101E+04  0.25500000920E-02 0.  1.
    10030    2    1    2    0    0  0.00000000000E+00  0.00000000000E+00 -0.53131392025E+01  0.24750570811E+04  0.24750513783E+04 0.  0.
        4    1    3    3  502    0 -0.10688300664E+04  0.58342679013E+03 -0.22330088182E+03  0.12380021918E+04  0.12699999809E+01 0.  1.
       -4    1    3    3    0  502  0.10688300664E+04 -0.58342679013E+03  0.21798774262E+03  0.12370548893E+04  0.12699999809E+01 0. -1.
</event>
<event>
 5   0  0.6827859E-05  0.2516449E+04  0.7818609E-02  0.8397149E-01
       -2   -1    0    0    0  501  0.00000000000E+00  0.00000000000E+00  0.26824297482E+04  0.26824297482E+04  0.25500000920E-02 0.  1.
        2   -1    0    0  501    0  0.00000000000E+00  0.00000000000E+00 -0.59018461221E+03  0.59018461221E+03  0.25500000920E-02 0. -1.
    10030    2    1    2    0    0  0.00000000000E+00  0.00000000000E+00  0.20922451360E+04  0.32726143604E+04  0.25164488954E+04 0.  0.
        3    1    3    3  502    0 -0.36417665231E+03 -0.11730182396E+04  0.69108112157E+03  0.14093223731E+04  0.10100000352E+00 0.  1.
       -3    1    3    3    0  502  0.36417665231E+03  0.11730182396E+04  0.14011640144E+04  0.18632919873E+04  0.10100000352E+00 0. -1.
</event>
<event>
 5   0  0.2777539E-05  0.2249662E+04  0.7818609E-02  0.8498037E-01
       -1   -1    0    0    0  501  0.00000000000E+00  0.00000000000E+00  0.15269222763E+04  0.15269222763E+04  0.50400001928E-02 0.  1.
        1   -1    0    0  501    0  0.00000000000E+00  0.00000000000E+00 -0.82862412323E+03  0.82862412325E+03  0.50400001928E-02 0. -1.
    10030    2    1    2    0    0  0.00000000000E+00  0.00000000000E+00  0.69829815303E+03  0.23555463995E+04  0.22496618701E+04 0.  0.
        3    1    3    3  502    0 -0.94414376565E+03 -0.29408868995E+03  0.91042869470E+03  0.13441636902E+04  0.10100000352E+00 0.  1.
       -3    1    3    3    0  502  0.94414376565E+03  0.29408868995E+03 -0.21213054167E+03  0.10113827093E+04  0.10100000352E+00 0. -1.
</event>
<event>
 5   0  0.6827859E-05  0.2461047E+04  0.7818609E-02  0.8416996E-01
        2   -1    0    0  501    0  0.00000000000E+00  0.00000000000E+00  0.15171412893E+04  0.15171412893E+04  0.25500000920E-02 0.  1.
       -2   -1    0    0    0  501  0.00000000000E+00  0.00000000000E+00 -0.99805340813E+03  0.99805340813E+03  0.25500000920E-02 0. -1.
    10030    2    1    2    0    0  0.00000000000E+00  0.00000000000E+00  0.51908788119E+03  0.25151946975E+04  0.24610469597E+04 0.  0.
        3    1    3    3  502    0  0.77312758035E+03 -0.86345818410E+03 -0.16295433576E+03  0.11704018186E+04  0.10100000352E+00 0. -1.
       -3    1    3    3    0  502 -0.77312758035E+03  0.86345818410E+03  0.68204221695E+03  0.13447928789E+04  0.10100000352E+00 0.  1.
</event>
<event>
 5   0  0.6648328E-05  0.2497059E+04  0.7818609E-02  0.8404034E-01
       -2   -1    0    0    0  501  0.00000000000E+00  0.00000000000E+00  0.12384407558E+04  0.12384407558E+04  0.25500000920E-02 0. -1.
        2   -1    0    0  501    0  0.00000000000E+00  0.00000000000E+00 -0.12587001060E+04  0.12587001060E+04  0.25500000920E-02 0.  1.
    10030    2    1    2    0    0  0.00000000000E+00  0.00000000000E+00 -0.20259350158E+02  0.24971408618E+04  0.24970586782E+04 0.  0.
        2    1    3    3  502    0 -0.67385875898E+02  0.66547912527E+03 -0.10644044723E+04  0.12571237819E+04  0.25500000920E-02 0.  1.
       -2    1    3    3    0  502  0.67385875898E+02 -0.66547912527E+03  0.10441451221E+04  0.12400170799E+04  0.25500000920E-02 0. -1.
</event>
<event>
 5   0  0.2777539E-05  0.2628684E+04  0.7818609E-02  0.8358523E-01
        1   -1    0    0  501    0  0.00000000000E+00  0.00000000000E+00  0.15445228677E+04  0.15445228677E+04  0.50400001928E-02 0. -1.
       -1   -1    0    0    0  501  0.00000000000E+00  0.00000000000E+00 -0.11184651188E+04  0.11184651189E+04  0.50400001928E-02 0.  1.
    10030    2    1    2    0    0  0.00000000000E+00  0.00000000000E+00  0.42605774884E+03  0.26629879865E+04  0.26286840455E+04 0.  0.
        3    1    3    3  502    0 -0.12096445545E+04 -0.47648134970E+03  0.40847273082E+03  0.13627635183E+04  0.10100000352E+00 0. -1.
       -3    1    3    3    0  502  0.12096445545E+04  0.47648134970E+03  0.17585018012E+02  0.13002244682E+04  0.10100000352E+00 0.  1.
</event>
<event>
 5   0  0.7071821E-05  0.2470875E+04  0.7818609E-02  0.8413435E-01
        2   -1    0    0  501    0  0.00000000000E+00  0.00000000000E+00  0.16209898358E+04  0.16209898358E+04  0.25500000920E-02 0.  1.
       -2   -1    0    0    0  501  0.00000000000E+00  0.00000000000E+00 -0.94158880931E+03  0.94158880931E+03  0.25500000920E-02 0. -1.
    10030    2    1    2    0    0  0.00000000000E+00  0.00000000000E+00  0.67940102651E+03  0.25625786451E+04  0.24708750591E+04 0.  0.
        5    1    3    3  502    0  0.93018185193E+03  0.34144432980E+03  0.11049621134E+04  0.14841785169E+04  0.46999998093E+01 0.  1.
       -5    1    3    3    0  502 -0.93018185193E+03 -0.34144432980E+03 -0.42556108684E+03  0.10784001283E+04  0.46999998093E+01 0. -1.
</event>
<event>
 5   0  0.2331375E-05  0.1625275E+04  0.7818609E-02  0.8805170E-01
       -3   -1    0    0    0  501  0.00000000000E+00  0.00000000000E+00  0.14727681281E+04  0.14727681315E+04  0.10100000352E+00 0.  1.
        3   -1    0    0  501    0  0.00000000000E+00  0.00000000000E+00 -0.44839326918E+03  0.44839328055E+03  0.10100000352E+00 0. -1.
    10030    2    1    2    0    0  0.00000000000E+00  0.00000000000E+00  0.10243748589E+04  0.19211614121E+04  0.16252745367E+04 0.  0.
        4    1    3    3  502    0 -0.67568570900E+03  0.42797363967E+03  0.68211189608E+03  0.10511854571E+04  0.12699999809E+01 0.  1.
       -4    1    3    3    0  502  0.67568570900E+03 -0.42797363967E+03  0.34226296283E+03  0.86997595497E+03  0.12699999809E+01 0. -1.
</event>
<event>
 5   0  0.7071821E-05  0.2477352E+04  0.7818609E-02  0.8411099E-01
        2   -1    0    0  501    0  0.00000000000E+00  0.00000000000E+00  0.87027813096E+03  0.87027813097E+03  0.25500000920E-02 0.  1.
       -2   -1    0    0    0  501  0.00000000000E+00  0.00000000000E+00 -0.17630200432E+04  0.17630200432E+04  0.25500000920E-02 0. -1.
    10030    2    1    2    0    0  0.00000000000E+00  0.00000000000E+00 -0.89274191222E+03  0.26332981742E+04  0.24773516408E+04 0.  0.
        5    1    3    3  502    0  0.27030820290E+03 -0.11764965468E+04 -0.15125176046E+03  0.12165976468E+04  0.46999998093E+01 0.  1.
       -5    1    3    3    0  502 -0.27030820290E+03  0.11764965468E+04 -0.74149015176E+03  0.14167005274E+04  0.46999998093E+01 0. -1.
</event>
<event>
 5   0  0.6445331E-05  0.2470665E+04  0.7818609E-02  0.8413511E-01
        2   -1    0    0  501    0  0.00000000000E+00  0.00000000000E+00  0.13533275330E+04  0.13533275330E+04  0.25500000920E-02 0. -1.
       -2   -1    0    0    0  501  0.00000000000E+00  0.00000000000E+00 -0.11276253011E+04  0.11276253011E+04  0.25500000920E-02 0.  1.
    10030    2    1    2    0    0  0.00000000000E+00  0.00000000000E+00  0.22570223189E+03  0.24809528341E+04  0.24706649849E+04 0.  0.
        1    1    3    3  502    0 -0.91568106915E+03  0.63917854718E+03  0.64327914341E+03  0.12887315826E+04  0.50400001928E-02 0. -1.
       -1    1    3    3    0  502  0.91568106915E+03 -0.63917854718E+03 -0.41757691152E+03  0.11922212515E+04  0.50400001928E-02 0.  1.
</event>
<event>
 5   0  0.6909250E-05  0.2429417E+04  0.7818609E-02  0.8428572E-01
       -2   -1    0    0    0  501  0.00000000000E+00  0.00000000000E+00  0.71336975228E+03  0.71336975229E+03  0.25500000920E-02 0. -1.
        2   -1    0    0  501    0  0.00000000000E+00  0.00000000000E+00 -0.20683755724E+04  0.20683755724E+04  0.25500000920E-02 0.  1.
    10030    2    1    2    0    0  0.00000000000E+00  0.00000000000E+00 -0.13550058202E+04  0.27817453247E+04  0.24294168599E+04 0.  0.
        4    1    3    3  502    0  0.67767568364E+02  0.32987612667E+03 -0.20138537791E+04  0.20418176605E+04  0.12699999809E+01 0.  1.
       -4    1    3    3    0  502 -0.67767568364E+02 -0.32987612667E+03  0.65884795898E+03  0.73992766418E+03  0.12699999809E+01 0. -1.
</event>
<event>
 5   0  0.2777539E-05  0.2590948E+04  0.7818609E-02  0.8371283E-01
       -1   -1    0    0    0  501  0.00000000000E+00  0.00000000000E+00  0.10624384177E+04  0.10624384177E+04  0.50400001928E-02 0.  1.
        1   -1    0    0  501    0  0.00000000000E+00  0.00000000000E+00 -0.15796234377E+04  0.15796234377E+04  0.50400001928E-02 0. -1.
    10030    2    1    2    0    0  0.00000000000E+00  0.00000000000E+00 -0.51718501999E+03  0.26420618554E+04  0.25909478001E+04 0.  0.
        3    1    3    3  502    0  0.13707002464E+03 -0.95784947726E+03 -0.11369736319E+04  0.14929745017E+04  0.10100000352E+00 0. -1.
       -3    1    3    3    0  502 -0.13707002464E+03  0.95784947726E+03  0.61978861195E+03  0.11490873537E+04  0.10100000352E+00 0.  1.
</event>
<event>
 5   0  0.2896652E-05  0.2426811E+04  0.7818609E-02  0.8429534E-01
       -1   -1    0    0    0  501  0.00000000000E+00  0.00000000000E+00  0.11062462152E+04  0.11062462152E+04  0.50400001928E-02 0. -1.
        1   -1    0    0  501    0  0.00000000000E+00  0.00000000000E+00 -0.13309452913E+04  0.13309452914E+04  0.50400001928E-02 0.  1.
    10030    2    1    2    0    0  0.00000000000E+00  0.00000000000E+00 -0.22469907616E+03  0.24371915066E+04  0.24268112339E+04 0.  0.
        4    1    3    3  502    0 -0.41274368218E+03  0.16783332273E+03  0.10211171189E+04  0.11140947693E+04  0.12699999809E+01 0. -1.
       -4    1    3    3    0  502  0.41274368218E+03 -0.16783332273E+03 -0.12458161951E+04  0.13230967373E+04  0.12699999809E+01 0.  1.
</event>
<event>
 5   0  0.6445331E-05  0.2370632E+04  0.7818609E-02  0.8450581E-01
        2   -1    0    0  501    0  0.00000000000E+00  0.00000000000E+00  0.48092354592E+03  0.48092354593E+03  0.25500000920E-02 0. -1.
       -2   -1    0    0    0  501  0.00000000000E+00  0.00000000000E+00 -0.29214094722E+04  0.29214094722E+04  0.25500000920E-02 0.  1.
    10030    2    1    2    0    0  0.00000000000E+00  0.00000000000E+00 -0.24404859262E+04  0.34023330181E+04  0.23706324915E+04 0.  0.
        1    1    3    3  502    0 -0.47604714867E+03 -0.44370719371E+03 -0.26420897226E+04  0.27210540354E+04  0.50400001928E-02 0.  1.
       -1    1    3    3    0  502  0.47604714867E+03  0.44370719371E+03  0.20160379633E+03  0.68127898267E+03  0.50400001928E-02 0. -1.
</event>
<event>
 5   0  0.2977854E-05  0.2050939E+04  0.7818609E-02  0.8583168E-01
        1   -1    0    0  501    0  0.00000000000E+00  0.00000000000E+00  0.18600566446E+04  0.18600566446E+04  0.50400001928E-02 0. -1.
       -1   -1    0    0    0  501  0.00000000000E+00  0.00000000000E+00 -0.56535257748E+03  0.56535257750E+03  0.50400001928E-02 0.  1.
    10030    2    1    2    0    0  0.00000000000E+00  0.00000000000E+00  0.12947040671E+04  0.24254092221E+04  0.20509391198E+04 0.  0.
        1    1    3    3  502    0  0.73585854833E+03  0.51296402292E+02  0.14897879678E+04  0.16624040764E+04  0.50400001928E-02 0. -1.
       -1    1    3    3    0  502 -0.73585854833E+03 -0.51296402292E+02 -0.19508390073E+03  0.76300514571E+03  0.50400001928E-02 0.  1.
</event>
<event>
 5   0  0.6909250E-05  0.2428769E+04  0.7818609E-02  0.8428811E-01
        2   -1    0    0  501    0  0.00000000000E+00  0.00000000000E+00  0.13185758805E+04  0.13185758805E+04  0.25500000920E-02 0. -1.
       -2   -1    0    0    0  501  0.00000000000E+00  0.00000000000E+00 -0.11184256953E+04  0.11184256953E+04  0.25500000920E-02 0.  1.
    10030    2    1    2    0    0  0.00000000000E+00  0.00000000000E+00  0.20015018515E+03  0.24370015758E+04  0.24287685324E+04 0.  0.
        4    1    3    3  502    0  0.24076212750E+03  0.56647500573E+03 -0.95031023480E+03  0.11322329661E+04  0.12699999809E+01 0.  1.
       -4    1    3    3    0  502 -0.24076212750E+03 -0.56647500573E+03  0.11504604200E+04  0.13047686097E+04  0.12699999809E+01 0. -1.
</event>
<event>
 5   0  0.7071821E-05  0.2578959E+04  0.7818609E-02  0.8375384E-01
       -2   -1    0    0    0  501  0.00000000000E+00  0.00000000000E+00  0.81810438738E+03  0.81810438738E+03  0.25500000920E-02 0.  1.
        2   -1    0    0  501    0  0.00000000000E+00  0.00000000000E+00 -0.20324515778E+04  0.20324515778E+04  0.25500000920E-02 0. -1.
    10030    2    1    2    0    0  0.00000000000E+00  0.00000000000E+00 -0.12143471904E+04  0.28505559652E+04  0.25789591334E+04 0.  0.
        5    1    3    3  502    0 -0.90071963995E+03 -0.86574036255E+03 -0.25428064806E+03  0.12749443059E+04  0.46999998093E+01 0.  1.
       -5    1    3    3    0  502  0.90071963995E+03  0.86574036255E+03 -0.96006654235E+03  0.15756116593E+04  0.46999998093E+01 0. -1.
</event>
<event>
 5   0  0.7071821E-05  0.2643672E+04  0.7818609E-02  0.8353516E-01
       -2   -1    0    0    0  501  0.00000000000E+00  0.00000000000E+00  0.12143560402E+04  0.12143560403E+04  0.25500000920E-02 0. -1.
        2   -1    0    0  501    0  0.00000000000E+00  0.00000000000E+00 -0.14388285447E+04  0.14388285447E+04  0.25500000920E-02 0.  1.
    10030    2    1    2    0    0  0.00000000000E+00  0.00000000000E+00 -0.22447250450E+03  0.26531845850E+04  0.26436717907E+04 0.  0.
        5    1    3    3  502    0 -0.12048208826E+04  0.39020618711E+03 -0.49224610039E+03  0.13587430003E+04  0.46999998093E+01 0.  1.
       -5    1    3    3    0  502  0.12048208826E+04 -0.39020618711E+03  0.26777359589E+03  0.12944415847E+04  0.46999998093E+01 0. -1.
</event>
<event>
 5   0  0.2896652E-05  0.2411006E+04  0.7818609E-02  0.8435395E-01
        1   -1    0    0  501    0  0.00000000000E+00  0.00000000000E+00  0.15583526069E+04  0.15583526069E+04  0.50400001928E-02 0. -1.
       -1   -1    0    0    0  501  0.00000000000E+00  0.00000000000E+00 -0.93254724003E+03  0.93254724005E+03  0.50400001928E-02 0.  1.
    10030    2    1    2    0    0  0.00000000000E+00  0.00000000000E+00  0.62580536688E+03  0.24908998470E+04  0.24110059499E+04 0.  0.
        4    1    3    3  502    0 -0.10146897799E+04  0.47792433776E+03 -0.14358589163E+03  0.11307632569E+04  0.12699999809E+01 0.  1.
       -4    1    3    3    0  502  0.10146897799E+04 -0.47792433776E+03  0.76939125850E+03  0.13601365900E+04  0.12699999809E+01 0. -1.
</event>
<event>
 5   0  0.2896652E-05  0.2592425E+04  0.7818609E-02  0.8370779E-01
       -1   -1    0    0    0  501  0.00000000000E+00  0.00000000000E+00  0.10448955750E+04  0.10448955750E+04  0.50400001928E-02 0.  1.
        1   -1    0    0  501    0  0.00000000000E+00  0.00000000000E+00 -0.16079752384E+04  0.16079752384E+04  0.50400001928E-02 0. -1.
    10030    2    1    2    0    0  0.00000000000E+00  0.00000000000E+00 -0.56307966339E+03  0.26528708134E+04  0.25924245110E+04 0.  0.
        4    1    3    3  502    0 -0.59716549371E+03 -0.39724705284E+03  0.82333532152E+03  0.10919223930E+04  0.12699999809E+01 0.  1.
       -4    1    3    3    0  502  0.59716549371E+03  0.39724705284E+03 -0.13864149849E+04  0.15609484204E+04  0.12699999809E+01 0. -1.
</event>
<event>
 5   0  0.2977854E-05  0.2525644E+04  0.7818609E-02  0.8393906E-01
        1   -1    0    0  501    0  0.00000000000E+00  0.00000000000E+00  0.22770800756E+04  0.22770800756E+04  0.50400001928E-02 0.  1.
       -1   -1    0    0    0  501  0.00000000000E+00  0.00000000000E+00 -0.70033522266E+03  0.70033522268E+03  0.50400001928E-02 0. -1.
    10030    2    1    2    0    0  0.00000000000E+00  0.00000000000E+00  0.15767448529E+04  0.29774152983E+04  0.25256439827E+04 0.  0.
        1    1    3    3  502    0  0.10164051492E+04 -0.28837359921E+03 -0.27081560384E+02  0.10568690416E+04  0.50400001928E-02 0. -1.
       -1    1    3    3    0  502 -0.10164051492E+04  0.28837359921E+03  0.16038264133E+04  0.19205462567E+04  0.50400001928E-02 0.  1.
</event>
<event>
 5   0  0.7071821E-05  0.2489550E+04  0.7818609E-02  0.8406718E-01
       -2   -1    0    0    0  501  0.00000000000E+00  0.00000000000E+00  0.10634978305E+04  0.10634978305E+04  0.25500000920E-02 0. -1.
        2   -1    0    0  501    0  0.00000000000E+00  0.00000000000E+00 -0.14569517449E+04  0.14569517449E+04  0.25500000920E-02 0.  1.
    10030    2    1    2    0    0  0.00000000000E+00  0.00000000000E+00 -0.39345391446E+03  0.25204495754E+04  0.24895501761E+04 0.  0.
        5    1    3    3  502    0  0.11791292078E+03  0.11716652492E+02 -0.14512198575E+04  0.14560569706E+04  0.46999998093E+01 0.  1.
       -5    1    3    3    0  502 -0.11791292078E+03 -0.11716652492E+02  0.10577659431E+04  0.10643926048E+04  0.46999998093E+01 0. -1.
</event>
<event>
 5   0  0.6909250E-05  0.2493940E+04  0.7818609E-02  0.8405148E-01
       -2   -1    0    0    0  501  0.00000000000E+00  0.00000000000E+00  0.15880507060E+04  0.15880507060E+04  0.25500000920E-02 0. -1.
        2   -1    0    0  501    0  0.00000000000E+00  0.00000000000E+00 -0.97914653725E+03  0.97914653725E+03  0.25500000920E-02 0.  1.
    10030    2    1    2    0    0  0.00000000000E+00  0.00000000000E+00  0.60890416872E+03  0.25671972432E+04  0.24939401354E+04 0.  0.
        4    1    3    3  502    0  0.10616069613E+04  0.60273788781E+03  0.56614487192E+03  0.13456685812E+04  0.12699999809E+01 0.  1.
       -4    1    3    3    0  502 -0.10616069613E+04 -0.60273788781E+03  0.42759296799E+02  0.12215286620E+04  0.12699999809E+01 0. -1.
</event>
<event>
 5   0  0.6445331E-05  0.2513533E+04  0.7818609E-02  0.8398180E-01
       -2   -1    0    0    0  501  0.00000000000E+00  0.00000000000E+00  0.73562453753E+03  0.73562453754E+03  0.25500000920E-02 0. -1.
        2   -1    0    0  501    0  0.00000000000E+00  0.00000000000E+00 -0.21471028761E+04  0.21471028761E+04  0.25500000920E-02 0.  1.
    10030    2    1    2    0    0  0.00000000000E+00  0.00000000000E+00 -0.14114783386E+04  0.28827274136E+04  0.25135326218E+04 0.  0.
        1    1    3    3  502    0  0.77563163555E+03  0.56091399374E+03  0.22827182930E+03  0.98404114269E+03  0.50400001928E-02 0. -1.
       -1    1    3    3    0  502 -0.77563163555E+03 -0.56091399374E+03 -0.16397501679E+04  0.18986862709E+04  0.50400001928E-02 0.  1.
</event>
<event>
 5   0  0.6445331E-05  0.2495602E+04  0.7818609E-02  0.8404554E-01
        2   -1    0    0  501    0  0.00000000000E+00  0.00000000000E+00  0.15988209101E+04  0.15988209101E+04  0.25500000920E-02 0.  1.
       -2   -1    0    0    0  501  0.00000000000E+00  0.00000000000E+00 -0.97384760118E+03  0.97384760118E+03  0.25500000920E-02 0. -1.
    10030    2    1    2    0    0  0.00000000000E+00  0.00000000000E+00  0.62497330888E+03  0.25726685112E+04  0.24956024587E+04 0.  0.
        1    1    3    3  502    0 -0.77843517261E+03 -0.76025228793E+03 -0.31716383249E+03  0.11333744994E+04  0.50400001928E-02 0. -1.
       -1    1    3    3    0  502  0.77843517261E+03  0.76025228793E+03  0.94213714137E+03  0.14392940118E+04  0.50400001928E-02 0.  1.
</event>
<event>
 5   0  0.2793920E-05  0.1311361E+04  0.7818609E-02  0.9020604E-01
        1   -1    0    0  501    0  0.00000000000E+00  0.00000000000E+00  0.32044155069E+03  0.32044155073E+03  0.50400001928E-02 0.  1.
       -1   -1    0    0    0  501  0.00000000000E+00  0.00000000000E+00 -0.13416383261E+04  0.13416383261E+04  0.50400001928E-02 0. -1.
    10030    2    1    2    0    0  0.00000000000E+00  0.00000000000E+00 -0.10211967754E+04  0.16620798768E+04  0.13113606151E+04 0.  0.
        2    1    3    3  502    0 -0.53197136586E+03 -0.34089773384E+03 -0.73271593145E+03  0.96751094838E+03  0.25500000920E-02 0. -1.
       -2    1    3    3    0  502  0.53197136586E+03  0.34089773384E+03 -0.28848084394E+03  0.69456892844E+03  0.25500000920E-02 0.  1.
</event>
<event>
 5   0  0.2980790E-05  0.2525665E+04  0.7818609E-02  0.8393899E-01
       -1   -1    0    0    0  501  0.00000000000E+00  0.00000000000E+00  0.78886627896E+03  0.78886627898E+03  0.50400001928E-02 0. -1.
        1   -1    0    0  501    0  0.00000000000E+00  0.00000000000E+00 -0.20215674616E+04  0.20215674616E+04  0.50400001928E-02 0.  1.
    10030    2    1    2    0    0  0.00000000000E+00  0.00000000000E+00 -0.12327011826E+04  0.28104337406E+04  0.25256653786E+04 0.  0.
        5    1    3    3  502    0 -0.11891569810E+03  0.11671063587E+04 -0.96271130599E+02  0.11771017018E+04  0.46999998093E+01 0. -1.
       -5    1    3    3    0  502  0.11891569810E+03 -0.11671063587E+04 -0.11364300520E+04  0.16333320388E+04  0.46999998093E+01 0.  1.
</event>
<event>
 5   0  0.7071821E-05  0.2505659E+04  0.7818609E-02  0.8400972E-01
       -2   -1    0    0    0  501  0.00000000000E+00  0.00000000000E+00  0.65592034859E+03  0.65592034859E+03  0.25500000920E-02 0.  1.
        2   -1    0    0  501    0  0.00000000000E+00  0.00000000000E+00 -0.23929453896E+04  0.23929453896E+04  0.25500000920E-02 0. -1.
    10030    2    1    2    0    0  0.00000000000E+00  0.00000000000E+00 -0.17370250410E+04  0.30488657382E+04  0.25056588547E+04 0.  0.
        5    1    3    3  502    0 -0.79130445077E+03  0.49571127573E+03 -0.18848559275E+04  0.21034724529E+04  0.46999998093E+01 0. -1.
       -5    1    3    3    0  502  0.79130445077E+03 -0.49571127573E+03  0.14783088657E+03  0.94539328521E+03  0.46999998093E+01 0.  1.
</event>
<event>
 5   0  0.2896652E-05  0.2542850E+04  0.7818609E-02  0.8387877E-01
       -1   -1    0    0    0  501  0.00000000000E+00  0.00000000000E+00  0.19561750227E+04  0.19561750227E+04  0.50400001928E-02 0.  1.
        1   -1    0    0  501    0  0.00000000000E+00  0.00000000000E+00 -0.82636861459E+03  0.82636861460E+03  0.50400001928E-02 0. -1.
    10030    2    1    2    0    0  0.00000000000E+00  0.00000000000E+00  0.11298064081E+04  0.27825436373E+04  0.25428500887E+04 0.  0.
        4    1    3    3  502    0  0.51498049860E+03  0.10367269623E+04  0.11403146164E+04  0.16249082268E+04  0.12699999809E+01 0. -1.
       -4    1    3    3    0  502 -0.51498049860E+03 -0.10367269623E+04 -0.10508208277E+02  0.11576354105E+04  0.12699999809E+01 0.  1.
</event>
<event>
 5   0  0.6648328E-05  0.2463895E+04  0.7818609E-02  0.8415962E-01
       -2   -1    0    0    0  501  0.00000000000E+00  0.00000000000E+00  0.70650635545E+03  0.70650635545E+03  0.25500000920E-02 0.  1.
        2   -1    0    0  501    0  0.00000000000E+00  0.00000000000E+00 -0.21481684277E+04  0.21481684277E+04  0.25500000920E-02 0. -1.
    10030    2    1    2    0    0  0.00000000000E+00  0.00000000000E+00 -0.14416620722E+04  0.28546747831E+04  0.24638950032E+04 0.  0.
        2    1    3    3  502    0  0.59711017520E+03 -0.39053050576E+03 -0.18844278878E+04  0.20149747149E+04  0.25500000920E-02 0. -1.
       -2    1    3    3    0  502 -0.59711017520E+03  0.39053050576E+03  0.44276581554E+03  0.83970006828E+03  0.25500000920E-02 0.  1.
</event>
<event>
 5   0  0.2977854E-05  0.2389498E+04  0.7818609E-02  0.8443446E-01
        1   -1    0    0  501    0  0.00000000000E+00  0.00000000000E+00  0.13375506849E+04  0.13375506849E+04  0.50400001928E-02 0. -1.
       -1   -1    0    0    0  501  0.00000000000E+00  0.00000000000E+00 -0.10671931232E+04  0.10671931232E+04  0.50400001928E-02 0.  1.
    10030    2    1    2    0    0  0.00000000000E+00  0.00000000000E+00  0.27035756173E+03  0.24047438081E+04  0.23894977655E+04 0.  0.
        1    1    3    3  502    0  0.93175745294E+03  0.59815647501E+03  0.58688754036E+03  0.12531560576E+04  0.50400001928E-02 0. -1.
       -1    1    3    3    0  502 -0.93175745294E+03 -0.59815647501E+03 -0.31652997864E+03  0.11515877505E+04  0.50400001928E-02 0.  1.
</event>
<event>
 5   0  0.6827859E-05  0.2410415E+04  0.7818609E-02  0.8435614E-01
        2   -1    0    0  501    0  0.00000000000E+00  0.00000000000E+00  0.21548641778E+04  0.21548641778E+04  0.25500000920E-02 0. -1.
       -2   -1    0    0    0  501  0.00000000000E+00  0.00000000000E+00 -0.67406826627E+03  0.67406826628E+03  0.25500000920E-02 0.  1.
    10030    2    1    2    0    0  0.00000000000E+00  0.00000000000E+00  0.14807959115E+04  0.28289324441E+04  0.24104153670E+04 0.  0.
        3    1    3    3  502    0  0.43598882064E+03 -0.51522934661E+02 -0.57688432913E+03  0.72493889668E+03  0.10100000352E+00 0.  1.
       -3    1    3    3    0  502 -0.43598882064E+03  0.51522934661E+02  0.20576802407E+04  0.21039935474E+04  0.10100000352E+00 0. -1.
</event>
<event>
 5   0  0.7071821E-05  0.2277323E+04  0.7818609E-02  0.8486916E-01
       -2   -1    0    0    0  501  0.00000000000E+00  0.00000000000E+00  0.10348350123E+04  0.10348350123E+04  0.25500000920E-02 0.  1.
        2   -1    0    0  501    0  0.00000000000E+00  0.00000000000E+00 -0.12529050933E+04  0.12529050933E+04  0.25500000920E-02 0. -1.
    10030    2    1    2    0    0  0.00000000000E+00  0.00000000000E+00 -0.21807008099E+03  0.22877401056E+04  0.22773230404E+04 0.  0.
        5    1    3    3  502    0  0.11752997715E+03 -0.10392560619E+04  0.34320361646E+03  0.11007621314E+04  0.46999998093E+01 0.  1.
       -5    1    3    3    0  502 -0.11752997715E+03  0.10392560619E+04 -0.56127369745E+03  0.11869779741E+04  0.46999998093E+01 0. -1.
</event>
<event>
 5   0  0.2977854E-05  0.2438331E+04  0.7818609E-02  0.8425291E-01
        1   -1    0    0  501    0  0.00000000000E+00  0.00000000000E+00  0.15652132778E+04  0.15652132778E+04  0.50400001928E-02 0.  1.
       -1   -1    0    0    0  501  0.00000000000E+00  0.00000000000E+00 -0.94962432317E+03  0.94962432318E+03  0.50400001928E-02 0. -1.
    10030    2    1    2    0    0  0.00000000000E+00  0.00000000000E+00  0.61558895464E+03  0.25148376010E+04  0.24383310682E+04 0.  0.
        1    1    3    3  502    0 -0.32559948412E+03  0.72707899080E+03  0.12596303183E+04  0.14904118296E+04  0.50400001928E-02 0.  1.
       -1    1    3    3    0  502  0.32559948412E+03 -0.72707899080E+03 -0.64404136369E+03  0.10244257714E+04  0.50400001928E-02 0. -1.
</event>
<event>
 5   0  0.2896652E-05  0.2499048E+04  0.7818609E-02  0.8403325E-01
        1   -1    0    0  501    0  0.00000000000E+00  0.00000000000E+00  0.15479810036E+04  0.15479810036E+04  0.50400001928E-02 0. -1.
       -1   -1    0    0    0  501  0.00000000000E+00  0.00000000000E+00 -0.10086110175E+04  0.10086110175E+04  0.50400001928E-02 0.  1.
    10030    2    1    2    0    0  0.00000000000E+00  0.00000000000E+00  0.53936998608E+03  0.25565920211E+04  0.24990483750E+04 0.  0.
        4    1    3    3  502    0 -0.89486352761E+03  0.50339334442E+03  0.99820860140E+03  0.14319942797E+04  0.12699999809E+01 0. -1.
       -4    1    3    3    0  502  0.89486352761E+03 -0.50339334442E+03 -0.45883861532E+03  0.11245977414E+04  0.12699999809E+01 0.  1.
</event>
<event>
 5   0  0.2331375E-05  0.1778504E+04  0.7818609E-02  0.8717815E-01
        3   -1    0    0  501    0  0.00000000000E+00  0.00000000000E+00  0.11729328483E+04  0.11729328526E+04  0.10100000352E+00 0. -1.
       -3   -1    0    0    0  501  0.00000000000E+00  0.00000000000E+00 -0.67418083435E+03  0.67418084191E+03  0.10100000352E+00 0.  1.
    10030    2    1    2    0    0  0.00000000000E+00  0.00000000000E+00  0.49875201391E+03  0.18471136945E+04  0.17785037051E+04 0.  0.
        2    1    3    3  502    0 -0.59762225352E+03 -0.65813145556E+03  0.27211792445E+03  0.92969755056E+03  0.25500000920E-02 0.  1.
       -2    1    3    3    0  502  0.59762225352E+03  0.65813145556E+03  0.22663408947E+03  0.91741614397E+03  0.25500000920E-02 0. -1.
</event>
<event>
 5   0  0.2980790E-05  0.2518293E+04  0.7818609E-02  0.8396497E-01
       -1   -1    0    0    0  501  0.00000000000E+00  0.00000000000E+00  0.78897359947E+03  0.78897359948E+03  0.50400001928E-02 0. -1.
        1   -1    0    0  501    0  0.00000000000E+00  0.00000000000E+00 -0.20095091236E+04  0.20095091236E+04  0.50400001928E-02 0.  1.
    10030    2    1    2    0    0  0.00000000000E+00  0.00000000000E+00 -0.12205355241E+04  0.27984827231E+04  0.25182927919E+04 0.  0.
        5    1    3    3  502    0 -0.63194706502E+03  0.24866460671E+03  0.56800333467E+03  0.88534798684E+03  0.46999998093E+01 0. -1.
       -5    1    3    3    0  502  0.63194706502E+03 -0.24866460671E+03 -0.17885388588E+04  0.19131347362E+04  0.46999998093E+01 0.  1.
</event>
<event>
 5   0  0.7071821E-05  0.2496593E+04  0.7818609E-02  0.8404200E-01
       -2   -1    0    0    0  501  0.00000000000E+00  0.00000000000E+00  0.93735596755E+03  0.93735596755E+03  0.25500000920E-02 0. -1.
        2   -1    0    0  501    0  0.00000000000E+00  0.00000000000E+00 -0.16623822800E+04  0.16623822801E+04  0.25500000920E-02 0.  1.
    10030    2    1    2    0    0  0.00000000000E+00  0.00000000000E+00 -0.72502631250E+03  0.25997382476E+04  0.24965928387E+04 0.  0.
        5    1    3    3  502    0  0.81469336760E+03  0.71067269958E+03 -0.10123475276E+04  0.14810977603E+04  0.46999998093E+01 0.  1.
       -5    1    3    3    0  502 -0.81469336760E+03 -0.71067269958E+03  0.28732121505E+03  0.11186404873E+04  0.46999998093E+01 0. -1.
</event>
<event>
 5   0  0.7071821E-05  0.2505992E+04  0.7818609E-02  0.8400854E-01
       -2   -1    0    0    0  501  0.00000000000E+00  0.00000000000E+00  0.10203423251E+04  0.10203423251E+04  0.25500000920E-02 0.  1.
        2   -1    0    0  501    0  0.00000000000E+00  0.00000000000E+00 -0.15386983366E+04  0.15386983366E+04  0.25500000920E-02 0. -1.
    10030    2    1    2    0    0  0.00000000000E+00  0.00000000000E+00 -0.51835601154E+03  0.25590406617E+04  0.25059920498E+04 0.  0.
        5    1    3    3  502    0 -0.16607961250E+03  0.90884533304E+03  0.60514022036E+03  0.11044451337E+04  0.46999998093E+01 0.  1.
       -5    1    3    3    0  502  0.16607961250E+03 -0.90884533304E+03 -0.11234962319E+04  0.14545955280E+04  0.46999998093E+01 0. -1.
</event>
<event>
 5   0  0.6827859E-05  0.2547555E+04  0.7818609E-02  0.8386237E-01
        2   -1    0    0  501    0  0.00000000000E+00  0.00000000000E+00  0.22012463349E+04  0.22012463349E+04  0.25500000920E-02 0.  1.
       -2   -1    0    0    0  501  0.00000000000E+00  0.00000000000E+00 -0.73708645306E+03  0.73708645306E+03  0.25500000920E-02 0. -1.
    10030    2    1    2    0    0  0.00000000000E+00  0.00000000000E+00  0.14641598818E+04  0.29383327879E+04  0.25475547910E+04 0.  0.
        3    1    3    3  502    0 -0.38846900620E+03 -0.58929174889E+03 -0.49091733223E+03  0.85975157539E+03  0.10100000352E+00 0. -1.
       -3    1    3    3    0  502  0.38846900620E+03  0.58929174889E+03  0.19550772140E+04  0.20785812125E+04  0.10100000352E+00 0.  1.
</event>
<event>
 5   0  0.7071821E-05  0.2490460E+04  0.7818609E-02  0.8406392E-01
        2   -1    0    0  501    0  0.00000000000E+00  0.00000000000E+00  0.87664528068E+03  0.87664528068E+03  0.25500000920E-02 0.  1.
       -2   -1    0    0    0  501  0.00000000000E+00  0.00000000000E+00 -0.17687861562E+04  0.17687861562E+04  0.25500000920E-02 0. -1.
    10030    2    1    2    0    0  0.00000000000E+00  0.00000000000E+00 -0.89214087551E+03  0.26454314369E+04  0.24904602276E+04 0.  0.
        5    1    3    3  502    0  0.12094751474E+03  0.68150840596E+03  0.65347139945E+03  0.95190806732E+03  0.46999998093E+01 0.  1.
       -5    1    3    3    0  502 -0.12094751474E+03 -0.68150840596E+03 -0.15456122750E+04  0.16935233696E+04  0.46999998093E+01 0. -1.
</event>
<event>
 5   0  0.2793920E-05  0.2489019E+04  0.7818609E-02  0.8406908E-01
        1   -1    0    0  501    0  0.00000000000E+00  0.00000000000E+00  0.12430142176E+04  0.12430142176E+04  0.50400001928E-02 0.  1.
       -1   -1    0    0    0  501  0.00000000000E+00  0.00000000000E+00 -0.12460069014E+04  0.12460069014E+04  0.50400001928E-02 0. -1.
    10030    2    1    2    0    0  0.00000000000E+00  0.00000000000E+00 -0.29926838371E+01  0.24890211190E+04  0.24890193199E+04 0.  0.
        2    1    3    3  502    0 -0.11764790923E+04 -0.40059699691E+03 -0.66483196703E+02  0.12445886967E+04  0.25500000920E-02 0.  1.
       -2    1    3    3    0  502  0.11764790923E+04  0.40059699691E+03  0.63490512866E+02  0.12444324223E+04  0.25500000920E-02 0. -1.
</event>
<event>
 5   0  0.6827859E-05  0.2341515E+04  0.7818609E-02  0.8461730E-01
        2   -1    0    0  501    0  0.00000000000E+00  0.00000000000E+00  0.95256762677E+03  0.95256762677E+03  0.25500000920E-02 0. -1.
       -2   -1    0    0    0  501  0.00000000000E+00  0.00000000000E+00 -0.14389244180E+04  0.14389244181E+04  0.25500000920E-02 0.  1.
    10030    2    1    2    0    0  0.00000000000E+00  0.00000000000E+00 -0.48635679128E+03  0.23914920448E+04  0.23415147388E+04 0.  0.
        3    1    3    3  502    0  0.53332179212E+03 -0.86108043207E+03  0.35653508345E+03  0.10737825294E+04  0.10100000352E+00 0. -1.
       -3    1    3    3    0  502 -0.53332179212E+03  0.86108043207E+03 -0.84289187473E+03  0.13177095155E+04  0.10100000352E+00 0.  1.
</event>
<event>
 5   0  0.6648328E-05  0.2495022E+04  0.7818609E-02  0.8404761E-01
       -2   -1    0    0    0  501  0.00000000000E+00  0.00000000000E+00  0.10140249741E+04  0.10140249741E+04  0.25500000920E-02 0.  1.
        2   -1    0    0  501    0  0.00000000000E+00  0.00000000000E+00 -0.15347585876E+04  0.15347585876E+04  0.25500000920E-02 0. -1.
    10030    2    1    2    0    0  0.00000000000E+00  0.00000000000E+00 -0.52073361350E+03  0.25487835616E+04  0.24950218732E+04 0.  0.
        2    1    3    3  502    0  0.85427773825E+03  0.90897619677E+03 -0.24404259836E+03  0.12710566353E+04  0.25500000920E-02 0.  1.
       -2    1    3    3    0  502 -0.85427773825E+03 -0.90897619677E+03 -0.27669101514E+03  0.12777269263E+04  0.25500000920E-02 0. -1.
</event>
<event>
 5   0  0.6827859E-05  0.1666740E+04  0.7818609E-02  0.8780565E-01
       -2   -1    0    0    0  501  0.00000000000E+00  0.00000000000E+00  0.35028997970E+03  0.35028997971E+03  0.25500000920E-02 0. -1.
        2   -1    0    0  501    0  0.00000000000E+00  0.00000000000E+00 -0.19826580011E+04  0.19826580011E+04  0.25500000920E-02 0.  1.
    10030    2    1    2    0    0  0.00000000000E+00  0.00000000000E+00 -0.16323680214E+04  0.23329479808E+04  0.16667396089E+04 0.  0.
        3    1    3    3  502    0  0.40421173164E+03 -0.35686869371E+02 -0.18350370194E+04  0.18793673269E+04  0.10100000352E+00 0.  1.
       -3    1    3    3    0  502 -0.40421173164E+03  0.35686869371E+02  0.20266899800E+03  0.45358065390E+03  0.10100000352E+00 0. -1.
</event>
<event>
 5   0  0.2793920E-05  0.2443570E+04  0.7818609E-02  0.8423369E-01
       -1   -1    0    0    0  501  0.00000000000E+00  0.00000000000E+00  0.74287101272E+03  0.74287101273E+03  0.50400001928E-02 0.  1.
        1   -1    0    0  501    0  0.00000000000E+00  0.00000000000E+00 -0.20094457781E+04  0.20094457781E+04  0.50400001928E-02 0. -1.
    10030    2    1    2    0    0  0.00000000000E+00  0.00000000000E+00 -0.12665747654E+04  0.27523167908E+04  0.24435703552E+04 0.  0.
        2    1    3    3  502    0 -0.11055985764E+04  0.49990847929E+03 -0.47200940148E+03  0.13019406957E+04  0.25500000920E-02 0.  1.
       -2    1    3    3    0  502  0.11055985764E+04 -0.49990847929E+03 -0.79456536388E+03  0.14503760952E+04  0.25500000920E-02 0. -1.
</event>
<event>
 5   0  0.6648328E-05  0.1561465E+04  0.7818609E-02  0.8844578E-01
       -2   -1    0    0    0  501  0.00000000000E+00  0.00000000000E+00  0.45795343174E+03  0.45795343174E+03  0.25500000920E-02 0. -1.
        2   -1    0    0  501    0  0.00000000000E+00  0.00000000000E+00 -0.13310153426E+04  0.13310153426E+04  0.25500000920E-02 0.  1.
    10030    2    1    2    0    0  0.00000000000E+00  0.00000000000E+00 -0.87306191088E+03  0.17889687744E+04  0.15614647532E+04 0.  0.
        2    1    3    3  502    0 -0.63523875563E+02  0.65802496051E+03  0.39328672757E+02  0.66225287914E+03  0.25500000920E-02 0. -1.
       -2    1    3    3    0  502  0.63523875563E+02 -0.65802496051E+03 -0.91239058364E+03  0.11267158952E+04  0.25500000920E-02 0.  1.
</event>
<event>
 5   0  0.2896652E-05  0.2706901E+04  0.7818609E-02  0.8332769E-01
        1   -1    0    0  501    0  0.00000000000E+00  0.00000000000E+00  0.19658050427E+04  0.19658050427E+04  0.50400001928E-02 0. -1.
       -1   -1    0    0    0  501  0.00000000000E+00  0.00000000000E+00 -0.93184626124E+03  0.93184626125E+03  0.50400001928E-02 0.  1.
    10030    2    1    2    0    0  0.00000000000E+00  0.00000000000E+00  0.10339587815E+04  0.28976513040E+04  0.27069008696E+04 0.  0.
        4    1    3    3  502    0  0.39376431825E+03  0.12364566474E+04  0.92872867338E+03  0.15957487086E+04  0.12699999809E+01 0. -1.
       -4    1    3    3    0  502 -0.39376431825E+03 -0.12364566474E+04  0.10523010811E+03  0.13019025954E+04  0.12699999809E+01 0.  1.
</event>
<event>
 5   0  0.2896652E-05  0.2472987E+04  0.7818609E-02  0.8412673E-01
        1   -1    0    0  501    0  0.00000000000E+00  0.00000000000E+00  0.21311077335E+04  0.21311077335E+04  0.50400001928E-02 0.  1.
       -1   -1    0    0    0  501  0.00000000000E+00  0.00000000000E+00 -0.71742796548E+03  0.71742796549E+03  0.50400001928E-02 0. -1.
    10030    2    1    2    0    0  0.00000000000E+00  0.00000000000E+00  0.14136797680E+04  0.28485356990E+04  0.24729870889E+04 0.  0.
        4    1    3    3  502    0  0.85639430971E+03 -0.88771956344E+03  0.60736932173E+03  0.13749023030E+04  0.12699999809E+01 0.  1.
       -4    1    3    3    0  502 -0.85639430971E+03  0.88771956344E+03  0.80631044631E+03  0.14736333960E+04  0.12699999809E+01 0. -1.
</event>
<event>
 5   0  0.6909250E-05  0.2428693E+04  0.7818609E-02  0.8428839E-01
       -2   -1    0    0    0  501  0.00000000000E+00  0.00000000000E+00  0.11426126596E+04  0.11426126596E+04  0.25500000920E-02 0. -1.
        2   -1    0    0  501    0  0.00000000000E+00  0.00000000000E+00 -0.12905840203E+04  0.12905840203E+04  0.25500000920E-02 0.  1.
    10030    2    1    2    0    0  0.00000000000E+00  0.00000000000E+00 -0.14797136068E+03  0.24331966799E+04  0.24286931794E+04 0.  0.
        4    1    3    3  502    0 -0.56728219548E+03 -0.45980150473E+02 -0.11486876062E+04  0.12819547937E+04  0.12699999809E+01 0.  1.
       -4    1    3    3    0  502  0.56728219548E+03  0.45980150473E+02  0.10007162455E+04  0.11512418862E+04  0.12699999809E+01 0. -1.
</event>
<event>
 5   0  0.2777539E-05  0.2496752E+04  0.7818609E-02  0.8404144E-01
       -1   -1    0    0    0  501  0.00000000000E+00  0.00000000000E+00  0.10557848637E+04  0.10557848637E+04  0.50400001928E-02 0. -1.
        1   -1    0    0  501    0  0.00000000000E+00  0.00000000000E+00 -0.14760986122E+04  0.14760986122E+04  0.50400001928E-02 0.  1.
    10030    2    1    2    0    0  0.00000000000E+00  0.00000000000E+00 -0.42031374847E+03  0.25318834759E+04  0.24967519477E+04 0.  0.
        3    1    3    3  502    0  0.10657415176E+04  0.56560015984E+03 -0.53518840842E+03  0.13198996803E+04  0.10100000352E+00 0.  1.
       -3    1    3    3    0  502 -0.10657415176E+04 -0.56560015984E+03  0.11487465996E+03  0.12119837956E+04  0.10100000352E+00 0. -1.
</event>
<event>
 5   0  0.2793920E-05  0.2459770E+04  0.7818609E-02  0.8417459E-01
       -1   -1    0    0    0  501  0.00000000000E+00  0.00000000000E+00  0.10652977667E+04  0.10652977667E+04  0.50400001928E-02 0. -1.
        1   -1    0    0  501    0  0.00000000000E+00  0.00000000000E+00 -0.14199008701E+04  0.14199008701E+04  0.50400001928E-02 0.  1.
    10030    2    1    2    0    0  0.00000000000E+00  0.00000000000E+00 -0.35460310334E+03  0.24851986368E+04  0.24597700916E+04 0.  0.
        2    1    3    3  502    0 -0.41407083353E+03 -0.75862362651E+03  0.70676002885E+03  0.11164560897E+04  0.25500000920E-02 0. -1.
       -2    1    3    3    0  502  0.41407083353E+03  0.75862362651E+03 -0.10613631322E+04  0.13687425471E+04  0.25500000920E-02 0.  1.
</event>
<event>
 5   0  0.6445331E-05  0.2488019E+04  0.7818609E-02  0.8407266E-01
        2   -1    0    0  501    0  0.00000000000E+00  0.00000000000E+00  0.20598405717E+04  0.20598405717E+04  0.25500000920E-02 0.  1.
       -2   -1    0    0    0  501  0.00000000000E+00  0.00000000000E+00 -0.75130078722E+03  0.75130078723E+03  0.25500000920E-02 0. -1.
    10030    2    1    2    0    0  0.00000000000E+00  0.00000000000E+00  0.13085397844E+04  0.28111413589E+04  0.24880191664E+04 0.  0.
        1    1    3    3  502    0 -0.11429761120E+03  0.55124988953E+03 -0.59913346050E+03  0.82213215978E+03  0.50400001928E-02 0. -1.
       -1    1    3    3    0  502  0.11429761120E+03 -0.55124988953E+03  0.19076732449E+04  0.19890091991E+04  0.50400001928E-02 0.  1.
</event>
<event>
 5   0  0.6827859E-05  0.2467289E+04  0.7818609E-02  0.8414733E-01
       -2   -1    0    0    0  501  0.00000000000E+00  0.00000000000E+00  0.52151341328E+03  0.52151341329E+03  0.25500000920E-02 0. -1.
        2   -1    0    0  501    0  0.00000000000E+00  0.00000000000E+00 -0.29181959236E+04  0.29181959236E+04  0.25500000920E-02 0.  1.
    10030    2    1    2    0    0  0.00000000000E+00  0.00000000000E+00 -0.23966825103E+04  0.34397093369E+04  0.24672886469E+04 0.  0.
        3    1    3    3  502    0 -0.10005537465E+03 -0.97133655310E+03 -0.22493790287E+04  0.24521851076E+04  0.10100000352E+00 0.  1.
       -3    1    3    3    0  502  0.10005537465E+03  0.97133655310E+03 -0.14730348164E+03  0.98752422922E+03  0.10100000352E+00 0. -1.
</event>
<event>
 5   0  0.6648328E-05  0.2305925E+04  0.7818609E-02  0.8475588E-01
       -2   -1    0    0    0  501  0.00000000000E+00  0.00000000000E+00  0.10399501068E+04  0.10399501068E+04  0.25500000920E-02 0.  1.
        2   -1    0    0  501    0  0.00000000000E+00  0.00000000000E+00 -0.12782564633E+04  0.12782564633E+04  0.25500000920E-02 0. -1.
    10030    2    1    2    0    0  0.00000000000E+00  0.00000000000E+00 -0.23830635643E+03  0.23182065701E+04  0.23059253636E+04 0.  0.
        2    1    3    3  502    0 -0.90439094664E+02 -0.34230893102E+03  0.98394562721E+03  0.10457072398E+04  0.25500000920E-02 0.  1.
       -2    1    3    3    0  502  0.90439094664E+02  0.34230893102E+03 -0.12222519836E+04  0.12724993303E+04  0.25500000920E-02 0. -1.
</event>
<event>
 5   0  0.2977854E-05  0.2308583E+04  0.7818609E-02  0.8474545E-01
       -1   -1    0    0    0  501  0.00000000000E+00  0.00000000000E+00  0.96032653862E+03  0.96032653863E+03  0.50400001928E-02 0. -1.
        1   -1    0    0  501    0  0.00000000000E+00  0.00000000000E+00 -0.13874327045E+04  0.13874327045E+04  0.50400001928E-02 0.  1.
    10030    2    1    2    0    0  0.00000000000E+00  0.00000000000E+00 -0.42710616589E+03  0.23477592431E+04  0.23085826359E+04 0.  0.
        1    1    3    3  502    0  0.87320814866E+03  0.58352571986E+03  0.27352533526E+03  0.10852699414E+04  0.50400001928E-02 0. -1.
       -1    1    3    3    0  502 -0.87320814866E+03 -0.58352571986E+03 -0.70063150114E+03  0.12624893018E+04  0.50400001928E-02 0.  1.
</event>
<event>
 5   0  0.6909250E-05  0.2480049E+04  0.7818609E-02  0.8410128E-01
        2   -1    0    0  501    0  0.00000000000E+00  0.00000000000E+00  0.12977351065E+04  0.12977351065E+04  0.25500000920E-02 0. -1.
       -2   -1    0    0    0  501  0.00000000000E+00  0.00000000000E+00 -0.11848802255E+04  0.11848802255E+04  0.25500000920E-02 0.  1.
    10030    2    1    2    0    0  0.00000000000E+00  0.00000000000E+00  0.11285488095E+03  0.24826153320E+04  0.24800489234E+04 0.  0.
        4    1    3    3  502    0  0.35327569795E+03  0.88404687680E+03 -0.73894902991E+03  0.12051513933E+04  0.12699999809E+01 0.  1.
       -4    1    3    3    0  502 -0.35327569795E+03 -0.88404687680E+03  0.85180391085E+03  0.12774639387E+04  0.12699999809E+01 0. -1.
</event>
<event>
 5   0  0.2777539E-05  0.2496322E+04  0.7818609E-02  0.8404297E-01
        1   -1    0    0  501    0  0.00000000000E+00  0.00000000000E+00  0.12441981774E+04  0.12441981775E+04  0.50400001928E-02 0.  1.
       -1   -1    0    0    0  501  0.00000000000E+00  0.00000000000E+00 -0.12521365967E+04  0.12521365967E+04  0.50400001928E-02 0. -1.
    10030    2    1    2    0    0  0.00000000000E+00  0.00000000000E+00 -0.79384192572E+01  0.24963347742E+04  0.24963221519E+04 0.  0.
        3    1    3    3  502    0 -0.41794585689E+03  0.11734377144E+04  0.75222430279E+02  0.12479155553E+04  0.10100000352E+00 0.  1.
       -3    1    3    3    0  502  0.41794585689E+03 -0.11734377144E+04 -0.83160849536E+02  0.12484192189E+04  0.10100000352E+00 0. -1.
</event>
<event>
 5   0  0.6827859E-05  0.2501226E+04  0.7818609E-02  0.8402549E-01
        2   -1    0    0  501    0  0.00000000000E+00  0.00000000000E+00  0.17385701121E+04  0.17385701121E+04  0.25500000920E-02 0. -1.
       -2   -1    0    0    0  501  0.00000000000E+00  0.00000000000E+00 -0.89960873811E+03  0.89960873811E+03  0.25500000920E-02 0.  1.
    10030    2    1    2    0    0  0.00000000000E+00  0.00000000000E+00  0.83896137398E+03  0.26381788502E+04  0.25012259911E+04 0.  0.
        3    1    3    3  502    0 -0.27603319020E+03 -0.47523502062E+03 -0.76541274987E+03  0.94228410513E+03  0.10100000352E+00 0.  1.
       -3    1    3    3    0  502  0.27603319020E+03  0.47523502062E+03  0.16043741238E+04  0.16958947451E+04  0.10100000352E+00 0. -1.
</event>
<event>
 5   0  0.6827859E-05  0.2498514E+04  0.7818609E-02  0.8403515E-01
        2   -1    0    0  501    0  0.00000000000E+00  0.00000000000E+00  0.10077930261E+04  0.10077930261E+04  0.25500000920E-02 0.  1.
       -2   -1    0    0    0  501  0.00000000000E+00  0.00000000000E+00 -0.15485746645E+04  0.15485746645E+04  0.25500000920E-02 0. -1.
    10030    2    1    2    0    0  0.00000000000E+00  0.00000000000E+00 -0.54078163838E+03  0.25563676905E+04  0.24985137560E+04 0.  0.
        3    1    3    3  502    0 -0.37760378834E+02  0.81192010039E+03  0.70026098718E+03  0.10728492699E+04  0.10100000352E+00 0.  1.
       -3    1    3    3    0  502  0.37760378834E+02 -0.81192010039E+03 -0.12410426256E+04  0.14835184206E+04  0.10100000352E+00 0. -1.
</event>
<event>
 5   0  0.2977854E-05  0.2422788E+04  0.7818609E-02  0.8431021E-01
        1   -1    0    0  501    0  0.00000000000E+00  0.00000000000E+00  0.10941226234E+04  0.10941226234E+04  0.50400001928E-02 0. -1.
       -1   -1    0    0    0  501  0.00000000000E+00  0.00000000000E+00 -0.13412350031E+04  0.13412350031E+04  0.50400001928E-02 0.  1.
    10030    2    1    2    0    0  0.00000000000E+00  0.00000000000E+00 -0.24711237966E+03  0.24353576265E+04  0.24227881130E+04 0.  0.
        1    1    3    3  502    0  0.11472379912E+04  0.71363811448E+02  0.26082508431E+03  0.11786761755E+04  0.50400001928E-02 0. -1.
       -1    1    3    3    0  502 -0.11472379912E+04 -0.71363811448E+02 -0.50793746396E+03  0.12566814510E+04  0.50400001928E-02 0.  1.
</event>
<event>
 5   0  0.2977854E-05  0.2467175E+04  0.7818609E-02  0.8414774E-01
        1   -1    0    0  501    0  0.00000000000E+00  0.00000000000E+00  0.95273534101E+03  0.95273534102E+03  0.50400001928E-02 0.  1.
       -1   -1    0    0    0  501  0.00000000000E+00  0.00000000000E+00 -0.15972305381E+04  0.15972305381E+04  0.50400001928E-02 0. -1.
    10030    2    1    2    0    0  0.00000000000E+00  0.00000000000E+00 -0.64449519710E+03  0.25499658791E+04  0.24671748875E+04 0.  0.
        1    1    3    3  502    0  0.66909358578E+03  0.98318913230E+03 -0.66094989716E+03  0.13605887928E+04  0.50400001928E-02 0. -1.
       -1    1    3    3    0  502 -0.66909358578E+03 -0.98318913230E+03  0.16454700067E+02  0.11893770864E+04  0.50400001928E-02 0.  1.
</event>
<event>
 5   0  0.6445331E-05  0.2550364E+04  0.7818609E-02  0.8385260E-01
        2   -1    0    0  501    0  0.00000000000E+00  0.00000000000E+00  0.21742383962E+04  0.21742383962E+04  0.25500000920E-02 0.  1.
       -2   -1    0    0    0  501  0.00000000000E+00  0.00000000000E+00 -0.74788914986E+03  0.74788914987E+03  0.25500000920E-02 0. -1.
    10030    2    1    2    0    0  0.00000000000E+00  0.00000000000E+00  0.14263492463E+04  0.29221275461E+04  0.25503641354E+04 0.  0.
        1    1    3    3  502    0  0.22674129206E+03  0.51582584200E+03 -0.59751742586E+03  0.82128861372E+03  0.50400001928E-02 0. -1.
       -1    1    3    3    0  502 -0.22674129206E+03 -0.51582584200E+03  0.20238666722E+04  0.21008389324E+04  0.50400001928E-02 0.  1.
</event>
<event>
 5   0  0.2896652E-05  0.2442846E+04  0.7818609E-02  0.8423635E-01
       -1   -1    0    0    0  501  0.00000000000E+00  0.00000000000E+00  0.13669264122E+04  0.13669264122E+04  0.50400001928E-02 0. -1.
        1   -1    0    0  501    0  0.00000000000E+00  0.00000000000E+00 -0.10914080427E+04  0.10914080427E+04  0.50400001928E-02 0.  1.
    10030    2    1    2    0    0  0.00000000000E+00  0.00000000000E+00  0.27551836950E+03  0.24583344548E+04  0.24428462743E+04 0.  0.
        4    1    3    3  502    0  0.59377445110E+02  0.75405177094E+03 -0.82735892091E+03  0.11210014055E+04  0.12699999809E+01 0.  1.
       -4    1    3    3    0  502 -0.59377445110E+02 -0.75405177094E+03  0.11028772904E+04  0.13373330493E+04  0.12699999809E+01 0. -1.
</event>
<event>
 5   0  0.7071821E-05  0.2512513E+04  0.7818609E-02  0.8398541E-01
        2   -1    0    0  501    0  0.00000000000E+00  0.00000000000E+00  0.10891866827E+04  0.10891866827E+04  0.25500000920E-02 0.  1.
       -2   -1    0    0    0  501  0.00000000000E+00  0.00000000000E+00 -0.14489533678E+04  0.14489533678E+04  0.25500000920E-02 0. -1.
    10030    2    1    2    0    0  0.00000000000E+00  0.00000000000E+00 -0.35976668506E+03  0.25381400505E+04  0.25125132534E+04 0.  0.
        5    1    3    3  502    0  0.25787589534E+03 -0.11812013731E+04  0.16480347633E+03  0.12202126605E+04  0.46999998093E+01 0.  1.
       -5    1    3    3    0  502 -0.25787589534E+03  0.11812013731E+04 -0.52457016140E+03  0.13179273900E+04  0.46999998093E+01 0. -1.
</event>
<event>
 5   0  0.2793920E-05  0.2523994E+04  0.7818609E-02  0.8394487E-01
        1   -1    0    0  501    0  0.00000000000E+00  0.00000000000E+00  0.22366443866E+04  0.22366443866E+04  0.50400001928E-02 0.  1.
       -1   -1    0    0    0  501  0.00000000000E+00  0.00000000000E+00 -0.71206517370E+03  0.71206517371E+03  0.50400001928E-02 0. -1.
    10030    2    1    2    0    0  0.00000000000E+00  0.00000000000E+00  0.15245792129E+04  0.29487095604E+04  0.25239941154E+04 0.  0.
        2    1    3    3  502    0  0.32421723011E+03  0.55740742086E+03 -0.50506479214E+03  0.81909113620E+03  0.25500000920E-02 0. -1.
       -2    1    3    3    0  502 -0.32421723011E+03 -0.55740742086E+03  0.20296440051E+04  0.21296184242E+04  0.25500000920E-02 0.  1.
</event>
<event>
 5   0  0.2980790E-05  0.2497980E+04  0.7818609E-02  0.8403706E-01
        1   -1    0    0  501    0  0.00000000000E+00  0.00000000000E+00  0.12223954676E+04  0.12223954676E+04  0.50400001928E-02 0. -1.
       -1   -1    0    0    0  501  0.00000000000E+00  0.00000000000E+00 -0.12761627861E+04  0.12761627861E+04  0.50400001928E-02 0.  1.
    10030    2    1    2    0    0  0.00000000000E+00  0.00000000000E+00 -0.53767318567E+02  0.24985582537E+04  0.24979796682E+04 0.  0.
        5    1    3    3  502    0  0.33378502263E+03 -0.77548834975E+03  0.89374187775E+03  0.12294678751E+04  0.46999998093E+01 0. -1.
       -5    1    3    3    0  502 -0.33378502263E+03  0.77548834975E+03 -0.94750919631E+03  0.12690903786E+04  0.46999998093E+01 0.  1.
</event>
<event>
 5   0  0.2977854E-05  0.2017195E+04  0.7818609E-02  0.8598623E-01
       -1   -1    0    0    0  501  0.00000000000E+00  0.00000000000E+00  0.91585881678E+03  0.91585881679E+03  0.50400001928E-02 0. -1.
        1   -1    0    0  501    0  0.00000000000E+00  0.00000000000E+00 -0.11107271267E+04  0.11107271267E+04  0.50400001928E-02 0.  1.
    10030    2    1    2    0    0  0.00000000000E+00  0.00000000000E+00 -0.19486830993E+03  0.20265859435E+04  0.20171953124E+04 0.  0.
        1    1    3    3  502    0  0.42163256886E+03 -0.59985686095E+03  0.59836993312E+03  0.94638726409E+03  0.50400001928E-02 0. -1.
       -1    1    3    3    0  502 -0.42163256886E+03  0.59985686095E+03 -0.79323824305E+03  0.10801986794E+04  0.50400001928E-02 0.  1.
</event>
<event>
 5   0  0.7071821E-05  0.2524521E+04  0.7818609E-02  0.8394302E-01
       -2   -1    0    0    0  501  0.00000000000E+00  0.00000000000E+00  0.71263980839E+03  0.71263980839E+03  0.25500000920E-02 0. -1.
        2   -1    0    0  501    0  0.00000000000E+00  0.00000000000E+00 -0.22357734608E+04  0.22357734608E+04  0.25500000920E-02 0.  1.
    10030    2    1    2    0    0  0.00000000000E+00  0.00000000000E+00 -0.15231336525E+04  0.29484132692E+04  0.25245206838E+04 0.  0.
        5    1    3    3  502    0 -0.69827352137E+03 -0.44809242706E+03  0.34942596483E+03  0.90027402980E+03  0.46999998093E+01 0. -1.
       -5    1    3    3    0  502  0.69827352137E+03  0.44809242706E+03 -0.18725596173E+04  0.20481392394E+04  0.46999998093E+01 0.  1.
</event>
<event>
 5   0  0.2793920E-05  0.2027880E+04  0.7818609E-02  0.8593696E-01
        1   -1    0    0  501    0  0.00000000000E+00  0.00000000000E+00  0.13445894568E+04  0.13445894568E+04  0.50400001928E-02 0.  1.
       -1   -1    0    0    0  501  0.00000000000E+00  0.00000000000E+00 -0.76460099692E+03  0.76460099694E+03  0.50400001928E-02 0. -1.
    10030    2    1    2    0    0  0.00000000000E+00  0.00000000000E+00  0.57998845991E+03  0.21091904538E+04  0.20278801140E+04 0.  0.
        2    1    3    3  502    0 -0.97447594239E+03  0.27773858442E+03  0.32795924651E+03  0.10650349060E+04  0.25500000920E-02 0. -1.
       -2    1    3    3    0  502  0.97447594239E+03 -0.27773858442E+03  0.25202921341E+03  0.10441555478E+04  0.25500000920E-02 0.  1.
</event>
<event>
 5   0  0.2777539E-05  0.2503895E+04  0.7818609E-02  0.8401599E-01
       -1   -1    0    0    0  501  0.00000000000E+00  0.00000000000E+00  0.17048127312E+04  0.17048127312E+04  0.50400001928E-02 0. -1.
        1   -1    0    0  501    0  0.00000000000E+00  0.00000000000E+00 -0.91938133406E+03  0.91938133407E+03  0.50400001928E-02 0.  1.
    10030    2    1    2    0    0  0.00000000000E+00  0.00000000000E+00  0.78543139715E+03  0.26241940653E+04  0.25038953678E+04 0.  0.
        3    1    3    3  502    0 -0.17375183819E+03  0.11489516977E+04 -0.95602568185E+02  0.11659414935E+04  0.10100000352E+00 0.  1.
       -3    1    3    3    0  502  0.17375183819E+03 -0.11489516977E+04  0.88103396534E+03  0.14582525718E+04  0.10100000352E+00 0. -1.
</event>
<event>
 5   0  0.6827859E-05  0.2468263E+04  0.7818609E-02  0.8414380E-01
       -2   -1    0    0    0  501  0.00000000000E+00  0.00000000000E+00  0.10196018704E+04  0.10196018704E+04  0.25500000920E-02 0.  1.
        2   -1    0    0  501    0  0.00000000000E+00  0.00000000000E+00 -0.14937987397E+04  0.14937987397E+04  0.25500000920E-02 0. -1.
    10030    2    1    2    0    0  0.00000000000E+00  0.00000000000E+00 -0.47419686932E+03  0.25134006101E+04  0.24682625379E+04 0.  0.
        3    1    3    3  502    0 -0.25464586284E+03  0.27055390014E+03  0.96129908975E+03  0.10306017070E+04  0.10100000352E+00 0.  1.
       -3    1    3    3    0  502  0.25464586284E+03 -0.27055390014E+03 -0.14354959591E+04  0.14827989031E+04  0.10100000352E+00 0. -1.
</event>
<event>
 5   0  0.7071821E-05  0.2151010E+04  0.7818609E-02  0.8539100E-01
       -2   -1    0    0    0  501  0.00000000000E+00  0.00000000000E+00  0.12371079827E+04  0.12371079827E+04  0.25500000920E-02 0. -1.
        2   -1    0    0  501    0  0.00000000000E+00  0.00000000000E+00 -0.93501247173E+03  0.93501247173E+03  0.25500000920E-02 0.  1.
    10030    2    1    2    0    0  0.00000000000E+00  0.00000000000E+00  0.30209551099E+03  0.21721204545E+04  0.21510103605E+04 0.  0.
        5    1    3    3  502    0 -0.86279019189E+03 -0.14865743553E+03 -0.47972913239E+03  0.99833264938E+03  0.46999998093E+01 0.  1.
       -5    1    3    3    0  502  0.86279019189E+03  0.14865743553E+03  0.78182464338E+03  0.11737878051E+04  0.46999998093E+01 0. -1.
</event>
<event>
 5   0  0.6445331E-05  0.2672067E+04  0.7818609E-02  0.8344126E-01
        2   -1    0    0  501    0  0.00000000000E+00  0.00000000000E+00  0.15080666862E+04  0.15080666862E+04  0.25500000920E-02 0. -1.
       -2   -1    0    0    0  501  0.00000000000E+00  0.00000000000E+00 -0.11836250793E+04  0.11836250793E+04  0.25500000920E-02 0.  1.
    10030    2    1    2    0    0  0.00000000000E+00  0.00000000000E+00  0.32444160691E+03  0.26916917655E+04  0.26720670284E+04 0.  0.
        1    1    3    3  502    0  0.79633533543E+03 -0.27964546276E+03 -0.88106610370E+03  0.12200938613E+04  0.50400001928E-02 0.  1.
       -1    1    3    3    0  502 -0.79633533543E+03  0.27964546276E+03  0.12055077106E+04  0.14715979042E+04  0.50400001928E-02 0. -1.
</event>
<event>
 5   0  0.2896652E-05  0.2578129E+04  0.7818609E-02  0.8375669E-01
       -1   -1    0    0    0  501  0.00000000000E+00  0.00000000000E+00  0.85031839399E+03  0.85031839401E+03  0.50400001928E-02 0.  1.
        1   -1    0    0  501    0  0.00000000000E+00  0.00000000000E+00 -0.19541938258E+04  0.19541938259E+04  0.50400001928E-02 0. -1.
    10030    2    1    2    0    0  0.00000000000E+00  0.00000000000E+00 -0.11038754319E+04  0.28045122199E+04  0.25781287443E+04 0.  0.
        4    1    3    3  502    0  0.58069786492E+03 -0.10649443347E+04 -0.77312582947E+02  0.12154403707E+04  0.12699999809E+01 0.  1.
       -4    1    3    3    0  502 -0.58069786492E+03  0.10649443347E+04 -0.10265628489E+04  0.15890718492E+04  0.12699999809E+01 0. -1.
</event>
<event>
 5   0  0.2777539E-05  0.2497180E+04  0.7818609E-02  0.8403991E-01
       -1   -1    0    0    0  501  0.00000000000E+00  0.00000000000E+00  0.16411208727E+04  0.16411208727E+04  0.50400001928E-02 0. -1.
        1   -1    0    0  501    0  0.00000000000E+00  0.00000000000E+00 -0.94994681300E+03  0.94994681301E+03  0.50400001928E-02 0.  1.
    10030    2    1    2    0    0  0.00000000000E+00  0.00000000000E+00  0.69117405968E+03  0.25910676857E+04  0.24971804442E+04 0.  0.
        3    1    3    3  502    0 -0.28857657827E+03 -0.62982124245E+03 -0.73222951693E+03  0.10080234693E+04  0.10100000352E+00 0.  1.
       -3    1    3    3    0  502  0.28857657827E+03  0.62982124245E+03  0.14234035766E+04  0.15830442164E+04  0.10100000352E+00 0. -1.
</event>
<event>
 5   0  0.2777539E-05  0.2485354E+04  0.7818609E-02  0.8408222E-01
       -1   -1    0    0    0  501  0.00000000000E+00  0.00000000000E+00  0.85153806217E+03  0.85153806219E+03  0.50400001928E-02 0. -1.
        1   -1    0    0  501    0  0.00000000000E+00  0.00000000000E+00 -0.18134791791E+04  0.18134791791E+04  0.50400001928E-02 0.  1.
    10030    2    1    2    0    0  0.00000000000E+00  0.00000000000E+00 -0.96194111689E+03  0.26650172413E+04  0.24853543377E+04 0.  0.
        3    1    3    3  502    0  0.93816296849E+03 -0.17396871060E+03  0.37271645540E+03  0.10243692860E+04  0.10100000352E+00 0. -1.
       -3    1    3    3    0  502 -0.93816296849E+03  0.17396871060E+03 -0.13346575723E+04  0.16406479553E+04  0.10100000352E+00 0.  1.
</event>
<event>
 5   0  0.6648328E-05  0.2603575E+04  0.7818609E-02  0.8366988E-01
       -2   -1    0    0    0  501  0.00000000000E+00  0.00000000000E+00  0.13217669453E+04  0.13217669453E+04  0.25500000920E-02 0. -1.
        2   -1    0    0  501    0  0.00000000000E+00  0.00000000000E+00 -0.12821098132E+04  0.12821098133E+04  0.25500000920E-02 0.  1.
    10030    2    1    2    0    0  0.00000000000E+00  0.00000000000E+00  0.39657132025E+02  0.26038767585E+04  0.26035747513E+04 0.  0.
        2    1    3    3  502    0 -0.65070632206E+03  0.99931804549E+03  0.54199553350E+03  0.13098910000E+04  0.25500000920E-02 0. -1.
       -2    1    3    3    0  502  0.65070632206E+03 -0.99931804549E+03 -0.50233840148E+03  0.12939857585E+04  0.25500000920E-02 0.  1.
</event>
<event>
 5   0  0.2777539E-05  0.2445075E+04  0.7818609E-02  0.8422818E-01
        1   -1    0    0  501    0  0.00000000000E+00  0.00000000000E+00  0.99411658579E+03  0.99411658580E+03  0.50400001928E-02 0.  1.
       -1   -1    0    0    0  501  0.00000000000E+00  0.00000000000E+00 -0.15034438509E+04  0.15034438509E+04  0.50400001928E-02 0. -1.
    10030    2    1    2    0    0  0.00000000000E+00  0.00000000000E+00 -0.50932726513E+03  0.24975604367E+04  0.24450754328E+04 0.  0.
        3    1    3    3  502    0  0.19279492966E+02  0.63905715066E+03 -0.13190644656E+04  0.14658433802E+04  0.10100000352E+00 0. -1.
       -3    1    3    3    0  502 -0.19279492966E+02 -0.63905715066E+03  0.80973720049E+03  0.10317170565E+04  0.10100000352E+00 0.  1.
</event>
<event>
 5   0  0.2793920E-05  0.2550475E+04  0.7818609E-02  0.8385221E-01
        1   -1    0    0  501    0  0.00000000000E+00  0.00000000000E+00  0.19962253063E+04  0.19962253063E+04  0.50400001928E-02 0.  1.
       -1   -1    0    0    0  501  0.00000000000E+00  0.00000000000E+00 -0.81465300896E+03  0.81465300897E+03  0.50400001928E-02 0. -1.
    10030    2    1    2    0    0  0.00000000000E+00  0.00000000000E+00  0.11815722973E+04  0.28108783153E+04  0.25504752125E+04 0.  0.
        2    1    3    3  502    0  0.25993150806E+02 -0.42764103422E+03 -0.73296305237E+03  0.84899195177E+03  0.25500000920E-02 0. -1.
       -2    1    3    3    0  502 -0.25993150806E+02  0.42764103422E+03  0.19145353497E+04  0.19618863635E+04  0.25500000920E-02 0.  1.
</event>
<event>
 5   0  0.2896652E-05  0.2565764E+04  0.7818609E-02  0.8379924E-01
       -1   -1    0    0    0  501  0.00000000000E+00  0.00000000000E+00  0.17611640141E+04  0.17611640141E+04  0.50400001928E-02 0.  1.
        1   -1    0    0  501    0  0.00000000000E+00  0.00000000000E+00 -0.93448774382E+03  0.93448774383E+03  0.50400001928E-02 0. -1.
    10030    2    1    2    0    0  0.00000000000E+00  0.00000000000E+00  0.82667627029E+03  0.26956517579E+04  0.25657639689E+04 0.  0.
        4    1    3    3  502    0  0.99724081251E+03 -0.37520837227E+03  0.11640113466E+04  0.15780350404E+04  0.12699999809E+01 0.  1.
       -4    1    3    3    0  502 -0.99724081251E+03  0.37520837227E+03 -0.33733507631E+03  0.11176167176E+04  0.12699999809E+01 0. -1.
</event>
<event>
 5   0  0.6445331E-05  0.2515496E+04  0.7818609E-02  0.8397486E-01
       -2   -1    0    0    0  501  0.00000000000E+00  0.00000000000E+00  0.86622168807E+03  0.86622168807E+03  0.25500000920E-02 0. -1.
        2   -1    0    0  501    0  0.00000000000E+00  0.00000000000E+00 -0.18262416233E+04  0.18262416233E+04  0.25500000920E-02 0.  1.
    10030    2    1    2    0    0  0.00000000000E+00  0.00000000000E+00 -0.96001993528E+03  0.26924633114E+04  0.25154960559E+04 0.  0.
        1    1    3    3  502    0  0.54316291455E+03  0.92998248189E+03 -0.11753564787E+04  0.15941631724E+04  0.50400001928E-02 0.  1.
       -1    1    3    3    0  502 -0.54316291455E+03 -0.92998248189E+03  0.21533654339E+03  0.10983001390E+04  0.50400001928E-02 0. -1.
</event>
<event>
 5   0  0.6827859E-05  0.2480214E+04  0.7818609E-02  0.8410069E-01
        2   -1    0    0  501    0  0.00000000000E+00  0.00000000000E+00  0.16639898836E+04  0.16639898836E+04  0.25500000920E-02 0. -1.
       -2   -1    0    0    0  501  0.00000000000E+00  0.00000000000E+00 -0.92420341546E+03  0.92420341546E+03  0.25500000920E-02 0.  1.
    10030    2    1    2    0    0  0.00000000000E+00  0.00000000000E+00  0.73978646812E+03  0.25881932990E+04  0.24802138083E+04 0.  0.
        3    1    3    3  502    0 -0.22338223749E+03 -0.94611388705E+02 -0.89920066694E+03  0.93134998176E+03  0.10100000352E+00 0.  1.
       -3    1    3    3    0  502  0.22338223749E+03  0.94611388705E+02  0.16389871351E+04  0.16568433173E+04  0.10100000352E+00 0. -1.
</event>
<event>
 5   0  0.2793920E-05  0.2399631E+04  0.7818609E-02  0.8439642E-01
        1   -1    0    0  501    0  0.00000000000E+00  0.00000000000E+00  0.11722418143E+04  0.11722418143E+04  0.50400001928E-02 0.  1.
       -1   -1    0    0    0  501  0.00000000000E+00  0.00000000000E+00 -0.12280376697E+04  0.12280376697E+04  0.50400001928E-02 0. -1.
    10030    2    1    2    0    0  0.00000000000E+00  0.00000000000E+00 -0.55795855414E+02  0.24002794840E+04  0.23996308932E+04 0.  0.
        2    1    3    3  502    0  0.78939379635E+03 -0.77991480728E+03 -0.48425301776E+03  0.12107479744E+04  0.25500000920E-02 0. -1.
       -2    1    3    3    0  502 -0.78939379635E+03  0.77991480728E+03  0.42845716234E+03  0.11895315096E+04  0.25500000920E-02 0.  1.
</event>
<event>
 5   0  0.2980790E-05  0.2536860E+04  0.7818609E-02  0.8389970E-01
       -1   -1    0    0    0  501  0.00000000000E+00  0.00000000000E+00  0.17492013976E+04  0.17492013976E+04  0.50400001928E-02 0.  1.
        1   -1    0    0  501    0  0.00000000000E+00  0.00000000000E+00 -0.91979953292E+03  0.91979953294E+03  0.50400001928E-02 0. -1.
    10030    2    1    2    0    0  0.00000000000E+00  0.00000000000E+00  0.82940186463E+03  0.26690009305E+04  0.25368599713E+04 0.  0.
        5    1    3    3  502    0 -0.28713333939E+03  0.90121354823E+03  0.13038626086E+04  0.16108107294E+04  0.46999998093E+01 0.  1.
       -5    1    3    3    0  502  0.28713333939E+03 -0.90121354823E+03 -0.47446074392E+03  0.10581902011E+04  0.46999998093E+01 0. -1.
</event>
<event>
 5   0  0.7071821E-05  0.2544985E+04  0.7818609E-02  0.8387132E-01
       -2   -1    0    0    0  501  0.00000000000E+00  0.00000000000E+00  0.15054699383E+04  0.15054699383E+04  0.25500000920E-02 0. -1.
        2   -1    0    0  501    0  0.00000000000E+00  0.00000000000E+00 -0.10755694473E+04  0.10755694473E+04  0.25500000920E-02 0.  1.
    10030    2    1    2    0    0  0.00000000000E+00  0.00000000000E+00  0.42990049101E+03  0.25810393857E+04  0.25449852413E+04 0.  0.
        5    1    3    3  502    0  0.80588741162E+03  0.39898139645E+03  0.11280240577E+04  0.14426021765E+04  0.46999998093E+01 0. -1.
       -5    1    3    3    0  502 -0.80588741162E+03 -0.39898139645E+03 -0.69812356666E+03  0.11384372092E+04  0.46999998093E+01 0.  1.
</event>
<event>
 5   0  0.6445331E-05  0.2288246E+04  0.7818609E-02  0.8482570E-01
        2   -1    0    0  501    0  0.00000000000E+00  0.00000000000E+00  0.20781941408E+04  0.20781941408E+04  0.25500000920E-02 0. -1.
       -2   -1    0    0    0  501  0.00000000000E+00  0.00000000000E+00 -0.62988205759E+03  0.62988205759E+03  0.25500000920E-02 0.  1.
    10030    2    1    2    0    0  0.00000000000E+00  0.00000000000E+00  0.14483120832E+04  0.27080761984E+04  0.22882457923E+04 0.  0.
        1    1    3    3  502    0 -0.57100488955E+03  0.75732067088E+03  0.14814268759E+04  0.17590357504E+04  0.50400001928E-02 0. -1.
       -1    1    3    3    0  502  0.57100488955E+03 -0.75732067088E+03 -0.33114792700E+02  0.94904044801E+03  0.50400001928E-02 0.  1.
</event>
<event>
 5   0  0.2331375E-05  0.2525621E+04  0.7818609E-02  0.8393914E-01
       -3   -1    0    0    0  501  0.00000000000E+00  0.00000000000E+00  0.16187460911E+04  0.16187460942E+04  0.10100000352E+00 0.  1.
        3   -1    0    0  501    0  0.00000000000E+00  0.00000000000E+00 -0.98513906937E+03  0.98513907454E+03  0.10100000352E+00 0. -1.
    10030    2    1    2    0    0  0.00000000000E+00  0.00000000000E+00  0.63360702172E+03  0.26038851688E+04  0.25256207384E+04 0.  0.
        2    1    3    3  502    0  0.93079042144E+03  0.28690842029E+03 -0.51184601435E+03  0.11003061359E+04  0.25500000920E-02 0. -1.
       -2    1    3    3    0  502 -0.93079042144E+03 -0.28690842029E+03  0.11454530361E+04  0.15035790329E+04  0.25500000920E-02 0.  1.
</event>
<event>
 5   0  0.2896652E-05  0.2641353E+04  0.7818609E-02  0.8354289E-01
        1   -1    0    0  501    0  0.00000000000E+00  0.00000000000E+00  0.19598326686E+04  0.19598326687E+04  0.50400001928E-02 0. -1.
       -1   -1    0    0    0  501  0.00000000000E+00  0.00000000000E+00 -0.88996672023E+03  0.88996672025E+03  0.50400001928E-02 0.  1.
    10030    2    1    2    0    0  0.00000000000E+00  0.00000000000E+00  0.10698659484E+04  0.28497993889E+04  0.26413525720E+04 0.  0.
        4    1    3    3  502    0  0.10001077511E+04  0.86247833268E+03  0.54571411431E+03  0.14289471284E+04  0.12699999809E+01 0. -1.
       -4    1    3    3    0  502 -0.10001077511E+04 -0.86247833268E+03  0.52415183410E+03  0.14208522605E+04  0.12699999809E+01 0.  1.
</event>
<event>
 5   0  0.6909250E-05  0.1414863E+04  0.7818609E-02  0.8943129E-01
       -2   -1    0    0    0  501  0.00000000000E+00  0.00000000000E+00  0.86627706482E+03  0.86627706483E+03  0.25500000920E-02 0. -1.
        2   -1    0    0  501    0  0.00000000000E+00  0.00000000000E+00 -0.57771313678E+03  0.57771313678E+03  0.25500000920E-02 0.  1.
    10030    2    1    2    0    0  0.00000000000E+00  0.00000000000E+00  0.28856392805E+03  0.14439902016E+04  0.14148634428E+04 0.  0.
        4    1    3    3  502    0 -0.34558075583E+03 -0.58662519959E+03 -0.51773810893E+02  0.68281573209E+03  0.12699999809E+01 0.  1.
       -4    1    3    3    0  502  0.34558075583E+03  0.58662519959E+03  0.34033773894E+03  0.76117446952E+03  0.12699999809E+01 0. -1.
</event>
<event>
 5   0  0.6445331E-05  0.2344429E+04  0.7818609E-02  0.8460606E-01
       -2   -1    0    0    0  501  0.00000000000E+00  0.00000000000E+00  0.53356635375E+03  0.53356635375E+03  0.25500000920E-02 0. -1.
        2   -1    0    0  501    0  0.00000000000E+00  0.00000000000E+00 -0.25752885525E+04  0.25752885525E+04  0.25500000920E-02 0.  1.
    10030    2    1    2    0    0  0.00000000000E+00  0.00000000000E+00 -0.20417221987E+04  0.31088549062E+04  0.23444294170E+04 0.  0.
        1    1    3    3  502    0  0.26361794811E+02 -0.19416400257E+03 -0.25534178684E+04  0.25609251092E+04  0.50400001928E-02 0.  1.
       -1    1    3    3    0  502 -0.26361794811E+02  0.19416400257E+03  0.51169566967E+03  0.54792979706E+03  0.50400001928E-02 0. -1.
</event>
<event>
 5   0  0.7071821E-05  0.1502348E+04  0.7818609E-02  0.8882893E-01
        2   -1    0    0  501    0  0.00000000000E+00  0.00000000000E+00  0.15778599996E+04  0.15778599996E+04  0.25500000920E-02 0. -1.
       -2   -1    0    0    0  501  0.00000000000E+00  0.00000000000E+00 -0.35761243395E+03  0.35761243395E+03  0.25500000920E-02 0.  1.
    10030    2    1    2    0    0  0.00000000000E+00  0.00000000000E+00  0.12202475657E+04  0.19354724336E+04  0.15023479689E+04 0.  0.
        5    1    3    3  502    0 -0.48565855885E+02  0.13802048701E+03  0.15593050616E+04  0.15661617612E+04  0.46999998093E+01 0. -1.
       -5    1    3    3    0  502  0.48565855885E+02 -0.13802048701E+03 -0.33905749591E+03  0.36931067237E+03  0.46999998093E+01 0.  1.
</event>
<event>
 5   0  0.7071821E-05  0.2442169E+04  0.7818609E-02  0.8423883E-01
        2   -1    0    0  501    0  0.00000000000E+00  0.00000000000E+00  0.16543242572E+04  0.16543242572E+04  0.25500000920E-02 0.  1.
       -2   -1    0    0    0  501  0.00000000000E+00  0.00000000000E+00 -0.90130297507E+03  0.90130297507E+03  0.25500000920E-02 0. -1.
    10030    2    1    2    0    0  0.00000000000E+00  0.00000000000E+00  0.75302128217E+03  0.25556272323E+04  0.24421690153E+04 0.  0.
        5    1    3    3  502    0  0.56911192870E+03  0.88639367098E+03  0.10228144341E+04  0.14682484749E+04  0.46999998093E+01 0.  1.
       -5    1    3    3    0  502 -0.56911192870E+03 -0.88639367098E+03 -0.26979315193E+03  0.10873787575E+04  0.46999998093E+01 0. -1.
</event>
<event>
 5   0  0.7071821E-05  0.2558754E+04  0.7818609E-02  0.8382348E-01
        2   -1    0    0  501    0  0.00000000000E+00  0.00000000000E+00  0.19497480803E+04  0.19497480803E+04  0.25500000920E-02 0. -1.
       -2   -1    0    0    0  501  0.00000000000E+00  0.00000000000E+00 -0.83949597646E+03  0.83949597647E+03  0.25500000920E-02 0.  1.
    10030    2    1    2    0    0  0.00000000000E+00  0.00000000000E+00  0.11102521038E+04  0.27892440567E+04  0.25587541253E+04 0.  0.
        5    1    3    3  502    0 -0.60813064452E+03  0.56138712934E+03  0.16186125842E+04  0.18179403669E+04  0.46999998093E+01 0. -1.
       -5    1    3    3    0  502  0.60813064452E+03 -0.56138712934E+03 -0.50836048043E+03  0.97130368982E+03  0.46999998093E+01 0.  1.
</event>
<event>
 5   0  0.2980790E-05  0.2436740E+04  0.7818609E-02  0.8425875E-01
       -1   -1    0    0    0  501  0.00000000000E+00  0.00000000000E+00  0.82810898016E+03  0.82810898018E+03  0.50400001928E-02 0. -1.
        1   -1    0    0  501    0  0.00000000000E+00  0.00000000000E+00 -0.17925481157E+04  0.17925481157E+04  0.50400001928E-02 0.  1.
    10030    2    1    2    0    0  0.00000000000E+00  0.00000000000E+00 -0.96443913557E+03  0.26206570959E+04  0.24367397826E+04 0.  0.
        5    1    3    3  502    0  0.11026938366E+04 -0.22041234945E+03 -0.98653425103E+03  0.14959235340E+04  0.46999998093E+01 0.  1.
       -5    1    3    3    0  502 -0.11026938366E+04  0.22041234945E+03  0.22095115463E+02  0.11247335619E+04  0.46999998093E+01 0. -1.
</event>
<event>
 5   0  0.6445331E-05  0.2444050E+04  0.7818609E-02  0.8423193E-01
       -2   -1    0    0    0  501  0.00000000000E+00  0.00000000000E+00  0.57857334459E+03  0.57857334460E+03  0.25500000920E-02 0.  1.
        2   -1    0    0  501    0  0.00000000000E+00  0.00000000000E+00 -0.25810823952E+04  0.25810823952E+04  0.25500000920E-02 0. -1.
    10030    2    1    2    0    0  0.00000000000E+00  0.00000000000E+00 -0.20025090506E+04  0.31596557398E+04  0.24440503056E+04 0.  0.
        1    1    3    3  502    0  0.86249870391E+03  0.14872535811E+03  0.10128217822E+03  0.88106828682E+03  0.50400001928E-02 0.  1.
       -1    1    3    3    0  502 -0.86249870391E+03 -0.14872535811E+03 -0.21037912288E+04  0.22785874530E+04  0.50400001928E-02 0. -1.
</event>
<event>
 5   0  0.2793920E-05  0.2487341E+04  0.7818609E-02  0.8407509E-01
       -1   -1    0    0    0  501  0.00000000000E+00  0.00000000000E+00  0.16872980749E+04  0.16872980749E+04  0.50400001928E-02 0.  1.
        1   -1    0    0  501    0  0.00000000000E+00  0.00000000000E+00 -0.91668219629E+03  0.91668219630E+03  0.50400001928E-02 0. -1.
    10030    2    1    2    0    0  0.00000000000E+00  0.00000000000E+00  0.77061587864E+03  0.26039802712E+04  0.24873408332E+04 0.  0.
        2    1    3    3  502    0  0.22695911286E+03  0.11312673898E+04 -0.10061266788E+03  0.11581879188E+04  0.25500000920E-02 0. -1.
       -2    1    3    3    0  502 -0.22695911286E+03 -0.11312673898E+04  0.87122854652E+03  0.14457923525E+04  0.25500000920E-02 0.  1.
</event>
<event>
 5   0  0.2793920E-05  0.2524765E+04  0.7818609E-02  0.8394216E-01
       -1   -1    0    0    0  501  0.00000000000E+00  0.00000000000E+00  0.23816059489E+04  0.23816059489E+04  0.50400001928E-02 0.  1.
        1   -1    0    0  501    0  0.00000000000E+00  0.00000000000E+00 -0.66913240180E+03  0.66913240182E+03  0.50400001928E-02 0. -1.
    10030    2    1    2    0    0  0.00000000000E+00  0.00000000000E+00  0.17124735471E+04  0.30507383507E+04  0.25247651049E+04 0.  0.
        2    1    3    3  502    0  0.44745892196E+02  0.11355251037E+04  0.19199802247E+03  0.11525114736E+04  0.25500000920E-02 0. -1.
       -2    1    3    3    0  502 -0.44745892196E+02 -0.11355251037E+04  0.15204755246E+04  0.18982268771E+04  0.25500000920E-02 0.  1.
</event>
<event>
 5   0  0.2777539E-05  0.2384798E+04  0.7818609E-02  0.8445217E-01
        1   -1    0    0  501    0  0.00000000000E+00  0.00000000000E+00  0.18348976417E+04  0.18348976417E+04  0.50400001928E-02 0.  1.
       -1   -1    0    0    0  501  0.00000000000E+00  0.00000000000E+00 -0.77487463223E+03  0.77487463224E+03  0.50400001928E-02 0. -1.
    10030    2    1    2    0    0  0.00000000000E+00  0.00000000000E+00  0.10600230095E+04  0.26097722739E+04  0.23847982181E+04 0.  0.
        3    1    3    3  502    0  0.72494765254E+03  0.94446089741E+03  0.60143858234E+03  0.13338979962E+04  0.10100000352E+00 0.  1.
       -3    1    3    3    0  502 -0.72494765254E+03 -0.94446089741E+03  0.45858442712E+03  0.12758742778E+04  0.10100000352E+00 0. -1.
</event>
<event>
 5   0  0.6445331E-05  0.2241288E+04  0.7818609E-02  0.8501437E-01
        2   -1    0    0  501    0  0.00000000000E+00  0.00000000000E+00  0.11600419201E+04  0.11600419201E+04  0.25500000920E-02 0. -1.
       -2   -1    0    0    0  501  0.00000000000E+00  0.00000000000E+00 -0.10825845188E+04  0.10825845188E+04  0.25500000920E-02 0.  1.
    10030    2    1    2    0    0  0.00000000000E+00  0.00000000000E+00  0.77457401233E+02  0.22426264389E+04  0.22412884008E+04 0.  0.
        1    1    3    3  502    0  0.96132703588E+03 -0.31239262612E+03  0.52286112369E+03  0.11380345238E+04  0.50400001928E-02 0. -1.
       -1    1    3    3    0  502 -0.96132703588E+03  0.31239262612E+03 -0.44540372246E+03  0.11045919150E+04  0.50400001928E-02 0.  1.
</event>
<event>
 5   0  0.2896652E-05  0.2462067E+04  0.7818609E-02  0.8416625E-01
        1   -1    0    0  501    0  0.00000000000E+00  0.00000000000E+00  0.21991144859E+04  0.21991144859E+04  0.50400001928E-02 0.  1.
       -1   -1    0    0    0  501  0.00000000000E+00  0.00000000000E+00 -0.68911527021E+03  0.68911527023E+03  0.50400001928E-02 0. -1.
    10030    2    1    2    0    0  0.00000000000E+00  0.00000000000E+00  0.15099992157E+04  0.28882297562E+04  0.24620669148E+04 0.  0.
        4    1    3    3  502    0 -0.34113132627E+02 -0.55633707875E+03 -0.53260771274E+03  0.77093919318E+03  0.12699999809E+01 0. -1.
       -4    1    3    3    0  502  0.34113132627E+02  0.55633707875E+03  0.20426069285E+04  0.21172905630E+04  0.12699999809E+01 0.  1.
</event>
<event>
 5   0  0.2896652E-05  0.1626572E+04  0.7818609E-02  0.8804388E-01
       -1   -1    0    0    0  501  0.00000000000E+00  0.00000000000E+00  0.10117578413E+04  0.10117578413E+04  0.50400001928E-02 0. -1.
        1   -1    0    0  501    0  0.00000000000E+00  0.00000000000E+00 -0.65374712973E+03  0.65374712975E+03  0.50400001928E-02 0.  1.
    10030    2    1    2    0    0  0.00000000000E+00  0.00000000000E+00  0.35801071155E+03  0.16655049710E+04  0.16265715905E+04 0.  0.
        4    1    3    3  502    0  0.17692632140E+03  0.73281991295E+03  0.49143874683E+03  0.89991199726E+03  0.12699999809E+01 0.  1.
       -4    1    3    3    0  502 -0.17692632140E+03 -0.73281991295E+03 -0.13342803528E+03  0.76559297379E+03  0.12699999809E+01 0. -1.
</event>
<event>
 5   0  0.2980790E-05  0.2429030E+04  0.7818609E-02  0.8428714E-01
        1   -1    0    0  501    0  0.00000000000E+00  0.00000000000E+00  0.18117485091E+04  0.18117485091E+04  0.50400001928E-02 0.  1.
       -1   -1    0    0    0  501  0.00000000000E+00  0.00000000000E+00 -0.81415655988E+03  0.81415655989E+03  0.50400001928E-02 0. -1.
    10030    2    1    2    0    0  0.00000000000E+00  0.00000000000E+00  0.99759194920E+03  0.26259050690E+04  0.24290302045E+04 0.  0.
        5    1    3    3  502    0 -0.14949726383E+03 -0.11037667648E+04  0.10221567111E+04  0.15117793936E+04  0.46999998093E+01 0.  1.
       -5    1    3    3    0  502  0.14949726383E+03  0.11037667648E+04 -0.24564761920E+02  0.11141256753E+04  0.46999998093E+01 0. -1.
</event>
<event>
 5   0  0.6648328E-05  0.2488120E+04  0.7818609E-02  0.8407230E-01
       -2   -1    0    0    0  501  0.00000000000E+00  0.00000000000E+00  0.73374586086E+03  0.73374586086E+03  0.25500000920E-02 0.  1.
        2   -1    0    0  501    0  0.00000000000E+00  0.00000000000E+00 -0.21092930633E+04  0.21092930633E+04  0.25500000920E-02 0. -1.
    10030    2    1    2    0    0  0.00000000000E+00  0.00000000000E+00 -0.13755472024E+04  0.28430389242E+04  0.24881198159E+04 0.  0.
        2    1    3    3  502    0 -0.47378126641E+03 -0.30379141600E+03 -0.19555062921E+04  0.20348864271E+04  0.25500000920E-02 0. -1.
       -2    1    3    3    0  502  0.47378126641E+03  0.30379141600E+03  0.57995908964E+03  0.80815249706E+03  0.25500000920E-02 0.  1.
</event>
<event>
 5   0  0.6909250E-05  0.2424337E+04  0.7818609E-02  0.8430448E-01
        2   -1    0    0  501    0  0.00000000000E+00  0.00000000000E+00  0.11917405967E+04  0.11917405967E+04  0.25500000920E-02 0.  1.
       -2   -1    0    0    0  501  0.00000000000E+00  0.00000000000E+00 -0.12329462042E+04  0.12329462042E+04  0.25500000920E-02 0. -1.
    10030    2    1    2    0    0  0.00000000000E+00  0.00000000000E+00 -0.41205607468E+02  0.24246868009E+04  0.24243366475E+04 0.  0.
        4    1    3    3  502    0  0.93464369491E+03  0.30670686443E+02 -0.79197998057E+03  0.12254523369E+04  0.12699999809E+01 0. -1.
       -4    1    3    3    0  502 -0.93464369491E+03 -0.30670686443E+02  0.75077437310E+03  0.11992344640E+04  0.12699999809E+01 0.  1.
</event>
<event>
 5   0  0.7071821E-05  0.2463280E+04  0.7818609E-02  0.8416185E-01
        2   -1    0    0  501    0  0.00000000000E+00  0.00000000000E+00  0.15959724132E+04  0.15959724132E+04  0.25500000920E-02 0.  1.
       -2   -1    0    0    0  501  0.00000000000E+00  0.00000000000E+00 -0.95047793025E+03  0.95047793025E+03  0.25500000920E-02 0. -1.
    10030    2    1    2    0    0  0.00000000000E+00  0.00000000000E+00  0.64549448293E+03  0.25464503434E+04  0.24632795668E+04 0.  0.
        5    1    3    3  502    0  0.78280086844E+03 -0.27146822008E+03 -0.61930769862E+03  0.10344255941E+04  0.46999998093E+01 0. -1.
       -5    1    3    3    0  502 -0.78280086844E+03  0.27146822008E+03  0.12648021815E+04  0.15120247493E+04  0.46999998093E+01 0.  1.
</event>
<event>
 5   0  0.6827859E-05  0.3065132E+04  0.7818609E-02  0.8225373E-01
        2   -1    0    0  501    0  0.00000000000E+00  0.00000000000E+00  0.20031538429E+04  0.20031538429E+04  0.25500000920E-02 0.  1.
       -2   -1    0    0    0  501  0.00000000000E+00  0.00000000000E+00 -0.11725301316E+04  0.11725301316E+04  0.25500000920E-02 0. -1.
    10030    2    1    2    0    0  0.00000000000E+00  0.00000000000E+00  0.83062371129E+03  0.31756839745E+04  0.30651318008E+04 0.  0.
        3    1    3    3  502    0 -0.60461693626E+03  0.59610255158E+03  0.17372052355E+04  0.19335930109E+04  0.10100000352E+00 0.  1.
       -3    1    3    3    0  502  0.60461693626E+03 -0.59610255158E+03 -0.90658152416E+03  0.12420909636E+04  0.10100000352E+00 0. -1.
</event>
<event>
 5   0  0.7071821E-05  0.2497886E+04  0.7818609E-02  0.8403739E-01
        2   -1    0    0  501    0  0.00000000000E+00  0.00000000000E+00  0.17334807391E+04  0.17334807391E+04  0.25500000920E-02 0.  1.
       -2   -1    0    0    0  501  0.00000000000E+00  0.00000000000E+00 -0.89984208107E+03  0.89984208108E+03  0.25500000920E-02 0. -1.
    10030    2    1    2    0    0  0.00000000000E+00  0.00000000000E+00  0.83363865800E+03  0.26333228202E+04  0.24978862390E+04 0.  0.
        5    1    3    3  502    0  0.11386932247E+04 -0.51291285998E+03  0.40457203061E+03  0.13127842472E+04  0.46999998093E+01 0.  1.
       -5    1    3    3    0  502 -0.11386932247E+04  0.51291285998E+03  0.42906662739E+03  0.13205385729E+04  0.46999998093E+01 0. -1.
</event>
<event>
 5   0  0.6648328E-05  0.2641952E+04  0.7818609E-02  0.8354089E-01
       -2   -1    0    0    0  501  0.00000000000E+00  0.00000000000E+00  0.73488312224E+03  0.73488312225E+03  0.25500000920E-02 0. -1.
        2   -1    0    0  501    0  0.00000000000E+00  0.00000000000E+00 -0.23744960409E+04  0.23744960409E+04  0.25500000920E-02 0.  1.
    10030    2    1    2    0    0  0.00000000000E+00  0.00000000000E+00 -0.16396129187E+04  0.31093791632E+04  0.26419516001E+04 0.  0.
        2    1    3    3  502    0 -0.97507255274E+03  0.38358121525E+03 -0.17665372102E+04  0.20539120592E+04  0.25500000920E-02 0.  1.
       -2    1    3    3    0  502  0.97507255274E+03 -0.38358121525E+03  0.12692429155E+03  0.10554671040E+04  0.25500000920E-02 0. -1.
</event>
<event>
 5   0  0.2977854E-05  0.1398404E+04  0.7818609E-02  0.8954974E-01
       -1   -1    0    0    0  501  0.00000000000E+00  0.00000000000E+00  0.39116440170E+03  0.39116440173E+03  0.50400001928E-02 0.  1.
        1   -1    0    0  501    0  0.00000000000E+00  0.00000000000E+00 -0.12498164969E+04  0.12498164969E+04  0.50400001928E-02 0. -1.
    10030    2    1    2    0    0  0.00000000000E+00  0.00000000000E+00 -0.85865209516E+03  0.16409808986E+04  0.13984044083E+04 0.  0.
        1    1    3    3  502    0  0.83372333220E+02 -0.42913691836E+03  0.21101941163E+03  0.48542623823E+03  0.50400001928E-02 0.  1.
       -1    1    3    3    0  502 -0.83372333220E+02  0.42913691836E+03 -0.10696715068E+04  0.11555546604E+04  0.50400001928E-02 0. -1.
</event>
<event>
 5   0  0.2896652E-05  0.2557985E+04  0.7818609E-02  0.8382614E-01
       -1   -1    0    0    0  501  0.00000000000E+00  0.00000000000E+00  0.60936390121E+03  0.60936390123E+03  0.50400001928E-02 0. -1.
        1   -1    0    0  501    0  0.00000000000E+00  0.00000000000E+00 -0.26844753118E+04  0.26844753118E+04  0.50400001928E-02 0.  1.
    10030    2    1    2    0    0  0.00000000000E+00  0.00000000000E+00 -0.20751114106E+04  0.32938392130E+04  0.25579854173E+04 0.  0.
        4    1    3    3  502    0 -0.97991236212E+03  0.15163788507E+03 -0.20777808566E+04  0.23022591485E+04  0.12699999809E+01 0.  1.
       -4    1    3    3    0  502  0.97991236212E+03 -0.15163788507E+03  0.26694460205E+01  0.99158006458E+03  0.12699999809E+01 0. -1.
</event>
<event>
 5   0  0.6909250E-05  0.2453945E+04  0.7818609E-02  0.8419579E-01
       -2   -1    0    0    0  501  0.00000000000E+00  0.00000000000E+00  0.16803988056E+04  0.16803988056E+04  0.25500000920E-02 0.  1.
        2   -1    0    0  501    0  0.00000000000E+00  0.00000000000E+00 -0.89589504944E+03  0.89589504944E+03  0.25500000920E-02 0. -1.
    10030    2    1    2    0    0  0.00000000000E+00  0.00000000000E+00  0.78450375611E+03  0.25762938550E+04  0.24539445560E+04 0.  0.
        4    1    3    3  502    0  0.46148804662E+03  0.52552149839E+03  0.14506398177E+04  0.16104352070E+04  0.12699999809E+01 0.  1.
       -4    1    3    3    0  502 -0.46148804662E+03 -0.52552149839E+03 -0.66613606157E+03  0.96585864798E+03  0.12699999809E+01 0. -1.
</event>
<event>
 5   0  0.6909250E-05  0.2454746E+04  0.7818609E-02  0.8419287E-01
       -2   -1    0    0    0  501  0.00000000000E+00  0.00000000000E+00  0.18366866751E+04  0.18366866751E+04  0.25500000920E-02 0. -1.
        2   -1    0    0  501    0  0.00000000000E+00  0.00000000000E+00 -0.82019646791E+03  0.82019646791E+03  0.25500000920E-02 0.  1.
    10030    2    1    2    0    0  0.00000000000E+00  0.00000000000E+00  0.10164902072E+04  0.26568831430E+04  0.24547455458E+04 0.  0.
        4    1    3    3  502    0  0.64957883914E+03  0.38919423938E+03 -0.53722318535E+03  0.92845850096E+03  0.12699999809E+01 0.  1.
       -4    1    3    3    0  502 -0.64957883914E+03 -0.38919423938E+03  0.15537133926E+04  0.17284246421E+04  0.12699999809E+01 0. -1.
</event>
<event>
 5   0  0.2793920E-05  0.2396696E+04  0.7818609E-02  0.8440742E-01
       -1   -1    0    0    0  501  0.00000000000E+00  0.00000000000E+00  0.11081771737E+04  0.11081771737E+04  0.50400001928E-02 0. -1.
        1   -1    0    0  501    0  0.00000000000E+00  0.00000000000E+00 -0.12958559572E+04  0.12958559572E+04  0.50400001928E-02 0.  1.
    10030    2    1    2    0    0  0.00000000000E+00  0.00000000000E+00 -0.18767878347E+03  0.24040331309E+04  0.23966960526E+04 0.  0.
        2    1    3    3  502    0  0.56837771656E+03 -0.77874679155E+03 -0.80773315604E+03  0.12577490391E+04  0.25500000920E-02 0.  1.
       -2    1    3    3    0  502 -0.56837771656E+03  0.77874679155E+03  0.62005437257E+03  0.11462840917E+04  0.25500000920E-02 0. -1.
</event>
<event>
 5   0  0.2793920E-05  0.2497721E+04  0.7818609E-02  0.8403798E-01
       -1   -1    0    0    0  501  0.00000000000E+00  0.00000000000E+00  0.62739663920E+03  0.62739663922E+03  0.50400001928E-02 0.  1.
        1   -1    0    0  501    0  0.00000000000E+00  0.00000000000E+00 -0.24859111862E+04  0.24859111862E+04  0.50400001928E-02 0. -1.
    10030    2    1    2    0    0  0.00000000000E+00  0.00000000000E+00 -0.18585145470E+04  0.31133078254E+04  0.24977208199E+04 0.  0.
        2    1    3    3  502    0  0.29965637139E+03 -0.12114989290E+04 -0.87174795462E+03  0.15223232549E+04  0.25500000920E-02 0.  1.
       -2    1    3    3    0  502 -0.29965637139E+03  0.12114989290E+04 -0.98676659234E+03  0.15909845705E+04  0.25500000920E-02 0. -1.
</event>
<event>
 5   0  0.6648328E-05  0.2451945E+04  0.7818609E-02  0.8420308E-01
       -2   -1    0    0    0  501  0.00000000000E+00  0.00000000000E+00  0.87960442127E+03  0.87960442127E+03  0.25500000920E-02 0. -1.
        2   -1    0    0  501    0  0.00000000000E+00  0.00000000000E+00 -0.17087328432E+04  0.17087328432E+04  0.25500000920E-02 0.  1.
    10030    2    1    2    0    0  0.00000000000E+00  0.00000000000E+00 -0.82912842192E+03  0.25883372645E+04  0.24519453205E+04 0.  0.
        2    1    3    3  502    0 -0.21307432569E+03 -0.55112916795E+03  0.71936925249E+03  0.93093294574E+03  0.25500000920E-02 0. -1.
       -2    1    3    3    0  502  0.21307432569E+03  0.55112916795E+03 -0.15484976744E+04  0.16574043187E+04  0.25500000920E-02 0.  1.
</event>
<event>
 5   0  0.6827859E-05  0.2285149E+04  0.7818609E-02  0.8483800E-01
        2   -1    0    0  501    0  0.00000000000E+00  0.00000000000E+00  0.95316950262E+03  0.95316950263E+03  0.25500000920E-02 0.  1.
       -2   -1    0    0    0  501  0.00000000000E+00  0.00000000000E+00 -0.13696164574E+04  0.13696164574E+04  0.25500000920E-02 0. -1.
    10030    2    1    2    0    0  0.00000000000E+00  0.00000000000E+00 -0.41644695473E+03  0.23227859600E+04  0.22851491308E+04 0.  0.
        3    1    3    3  502    0  0.11010423547E+04 -0.16050844945E+03 -0.47215245789E+03  0.12087122001E+04  0.10100000352E+00 0. -1.
       -3    1    3    3    0  502 -0.11010423547E+04  0.16050844945E+03  0.55705503160E+02  0.11140737598E+04  0.10100000352E+00 0.  1.
</event>
<event>
 5   0  0.6648328E-05  0.2526632E+04  0.7818609E-02  0.8393559E-01
       -2   -1    0    0    0  501  0.00000000000E+00  0.00000000000E+00  0.88135632892E+03  0.88135632893E+03  0.25500000920E-02 0.  1.
        2   -1    0    0  501    0  0.00000000000E+00  0.00000000000E+00 -0.18108088451E+04  0.18108088451E+04  0.25500000920E-02 0. -1.
    10030    2    1    2    0    0  0.00000000000E+00  0.00000000000E+00 -0.92945251614E+03  0.26921651740E+04  0.25266324118E+04 0.  0.
        2    1    3    3  502    0  0.15485065176E+03 -0.37622423603E+03  0.80964255680E+03  0.90611504232E+03  0.25500000920E-02 0.  1.
       -2    1    3    3    0  502 -0.15485065176E+03  0.37622423603E+03 -0.17390950729E+04  0.17860501317E+04  0.25500000920E-02 0. -1.
</event>
<event>
 5   0  0.6445331E-05  0.2484560E+04  0.7818609E-02  0.8408507E-01
        2   -1    0    0  501    0  0.00000000000E+00  0.00000000000E+00  0.20475631432E+04  0.20475631432E+04  0.25500000920E-02 0.  1.
       -2   -1    0    0    0  501  0.00000000000E+00  0.00000000000E+00 -0.75370569308E+03  0.75370569309E+03  0.25500000920E-02 0. -1.
    10030    2    1    2    0    0  0.00000000000E+00  0.00000000000E+00  0.12938574501E+04  0.28012688363E+04  0.24845603216E+04 0.  0.
        1    1    3    3  502    0 -0.13781669532E+03 -0.12335683653E+04  0.58970867767E+03  0.13742054715E+04  0.50400001928E-02 0.  1.
       -1    1    3    3    0  502  0.13781669532E+03  0.12335683653E+04  0.70414877244E+03  0.14270633648E+04  0.50400001928E-02 0. -1.
</event>
<event>
 5   0  0.2980790E-05  0.2060865E+04  0.7818609E-02  0.8578681E-01
        1   -1    0    0  501    0  0.00000000000E+00  0.00000000000E+00  0.10938566158E+04  0.10938566158E+04  0.50400001928E-02 0. -1.
       -1   -1    0    0    0  501  0.00000000000E+00  0.00000000000E+00 -0.97068614075E+03  0.97068614077E+03  0.50400001928E-02 0.  1.
    10030    2    1    2    0    0  0.00000000000E+00  0.00000000000E+00  0.12317047506E+03  0.20645427566E+04  0.20608653105E+04 0.  0.
        5    1    3    3  502    0 -0.51438799754E+03  0.55153398349E+03  0.76496676379E+03  0.10742350705E+04  0.46999998093E+01 0. -1.
       -5    1    3    3    0  502  0.51438799754E+03 -0.55153398349E+03 -0.64179628872E+03  0.99030768611E+03  0.46999998093E+01 0.  1.
</event>
<event>
 5   0  0.7071821E-05  0.2478465E+04  0.7818609E-02  0.8410698E-01
       -2   -1    0    0    0  501  0.00000000000E+00  0.00000000000E+00  0.11196585400E+04  0.11196585400E+04  0.25500000920E-02 0.  1.
        2   -1    0    0  501    0  0.00000000000E+00  0.00000000000E+00 -0.13715765253E+04  0.13715765253E+04  0.25500000920E-02 0. -1.
    10030    2    1    2    0    0  0.00000000000E+00  0.00000000000E+00 -0.25191798535E+03  0.24912350653E+04  0.24784651459E+04 0.  0.
        5    1    3    3  502    0 -0.84162736341E+03  0.82540346081E+03 -0.51009001659E+03  0.12844615241E+04  0.46999998093E+01 0. -1.
       -5    1    3    3    0  502  0.84162736341E+03 -0.82540346081E+03  0.25817203124E+03  0.12067735412E+04  0.46999998093E+01 0.  1.
</event>
<event>
 5   0  0.6909250E-05  0.2431519E+04  0.7818609E-02  0.8427797E-01
        2   -1    0    0  501    0  0.00000000000E+00  0.00000000000E+00  0.21976610636E+04  0.21976610636E+04  0.25500000920E-02 0. -1.
       -2   -1    0    0    0  501  0.00000000000E+00  0.00000000000E+00 -0.67256573215E+03  0.67256573215E+03  0.25500000920E-02 0.  1.
    10030    2    1    2    0    0  0.00000000000E+00  0.00000000000E+00  0.15250953315E+04  0.28702267958E+04  0.24315192965E+04 0.  0.
        4    1    3    3  502    0  0.52559368676E+03  0.10579601365E+04  0.42341098484E+03  0.12549130843E+04  0.12699999809E+01 0.  1.
       -4    1    3    3    0  502 -0.52559368676E+03 -0.10579601365E+04  0.11016843466E+04  0.16153137115E+04  0.12699999809E+01 0. -1.
</event>
<event>
 5   0  0.6648328E-05  0.2440436E+04  0.7818609E-02  0.8424518E-01
        2   -1    0    0  501    0  0.00000000000E+00  0.00000000000E+00  0.20792910486E+04  0.20792910486E+04  0.25500000920E-02 0. -1.
       -2   -1    0    0    0  501  0.00000000000E+00  0.00000000000E+00 -0.71607651826E+03  0.71607651826E+03  0.25500000920E-02 0.  1.
    10030    2    1    2    0    0  0.00000000000E+00  0.00000000000E+00  0.13632145304E+04  0.27953675669E+04  0.24404356124E+04 0.  0.
        2    1    3    3  502    0 -0.30401728943E+03 -0.11787519878E+04  0.77777449682E+03  0.14445815757E+04  0.25500000920E-02 0.  1.
       -2    1    3    3    0  502  0.30401728943E+03  0.11787519878E+04  0.58544003354E+03  0.13507859912E+04  0.25500000920E-02 0. -1.
</event>
<event>
 5   0  0.2777539E-05  0.2554971E+04  0.7818609E-02  0.8383659E-01
       -1   -1    0    0    0  501  0.00000000000E+00  0.00000000000E+00  0.12900513201E+04  0.12900513201E+04  0.50400001928E-02 0. -1.
        1   -1    0    0  501    0  0.00000000000E+00  0.00000000000E+00 -0.12650422838E+04  0.12650422838E+04  0.50400001928E-02 0.  1.
    10030    2    1    2    0    0  0.00000000000E+00  0.00000000000E+00  0.25009036303E+02  0.25550936039E+04  0.25549712078E+04 0.  0.
        3    1    3    3  502    0 -0.29857152111E+03  0.97828490246E+03  0.77790590287E+03  0.12850384848E+04  0.10100000352E+00 0. -1.
       -3    1    3    3    0  502  0.29857152111E+03 -0.97828490246E+03 -0.75289686656E+03  0.12700551191E+04  0.10100000352E+00 0.  1.
</event>
<event>
 5   0  0.2980790E-05  0.2384648E+04  0.7818609E-02  0.8445274E-01
        1   -1    0    0  501    0  0.00000000000E+00  0.00000000000E+00  0.14840030952E+04  0.14840030952E+04  0.50400001928E-02 0. -1.
       -1   -1    0    0    0  501  0.00000000000E+00  0.00000000000E+00 -0.95797406121E+03  0.95797406122E+03  0.50400001928E-02 0.  1.
    10030    2    1    2    0    0  0.00000000000E+00  0.00000000000E+00  0.52602903399E+03  0.24419771564E+04  0.23846479589E+04 0.  0.
        5    1    3    3  502    0  0.20764300606E+03 -0.34031562764E+03 -0.88769225280E+03  0.97311354428E+03  0.46999998093E+01 0.  1.
       -5    1    3    3    0  502 -0.20764300606E+03  0.34031562764E+03  0.14137212868E+04  0.14688636121E+04  0.46999998093E+01 0. -1.
</event>
<event>
 5   0  0.6445331E-05  0.2449078E+04  0.7818609E-02  0.8421355E-01
        2   -1    0    0  501    0  0.00000000000E+00  0.00000000000E+00  0.11973597200E+04  0.11973597200E+04  0.25500000920E-02 0. -1.
       -2   -1    0    0    0  501  0.00000000000E+00  0.00000000000E+00 -0.12523357145E+04  0.12523357146E+04  0.25500000920E-02 0.  1.
    10030    2    1    2    0    0  0.00000000000E+00  0.00000000000E+00 -0.54975994520E+02  0.24496954346E+04  0.24490784720E+04 0.  0.
        1    1    3    3  502    0 -0.58947939072E+02 -0.61594339723E+02  0.11943874242E+04  0.11974264242E+04  0.50400001928E-02 0. -1.
       -1    1    3    3    0  502  0.58947939072E+02  0.61594339723E+02 -0.12493634188E+04  0.12522690104E+04  0.50400001928E-02 0.  1.
</event>
<event>
 5   0  0.7071821E-05  0.2428954E+04  0.7818609E-02  0.8428743E-01
       -2   -1    0    0    0  501  0.00000000000E+00  0.00000000000E+00  0.19397023566E+04  0.19397023566E+04  0.25500000920E-02 0. -1.
        2   -1    0    0  501    0  0.00000000000E+00  0.00000000000E+00 -0.76040234120E+03  0.76040234121E+03  0.25500000920E-02 0.  1.
    10030    2    1    2    0    0  0.00000000000E+00  0.00000000000E+00  0.11793000154E+04  0.27001046978E+04  0.24289538597E+04 0.  0.
        5    1    3    3  502    0 -0.12432914496E+03 -0.10287339857E+04 -0.11444521092E+03  0.10425311247E+04  0.46999998093E+01 0.  1.
       -5    1    3    3    0  502  0.12432914496E+03  0.10287339857E+04  0.12937452263E+04  0.16575735731E+04  0.46999998093E+01 0. -1.
</event>
<event>
 5   0  0.7071821E-05  0.2486122E+04  0.7818609E-02  0.8407946E-01
       -2   -1    0    0    0  501  0.00000000000E+00  0.00000000000E+00  0.12663136394E+04  0.12663136394E+04  0.25500000920E-02 0.  1.
        2   -1    0    0  501    0  0.00000000000E+00  0.00000000000E+00 -0.12202351586E+04  0.12202351586E+04  0.25500000920E-02 0. -1.
    10030    2    1    2    0    0  0.00000000000E+00  0.00000000000E+00  0.46078480754E+02  0.24865487980E+04  0.24861218189E+04 0.  0.
        5    1    3    3  502    0  0.45724818645E+03  0.61534004446E+01  0.11791203494E+04  0.12646978519E+04  0.46999998093E+01 0.  1.
       -5    1    3    3    0  502 -0.45724818645E+03 -0.61534004446E+01 -0.11330418686E+04  0.12218509461E+04  0.46999998093E+01 0. -1.
</event>
<event>
 5   0  0.2896652E-05  0.2563020E+04  0.7818609E-02  0.8380872E-01
        1   -1    0    0  501    0  0.00000000000E+00  0.00000000000E+00  0.11476571046E+04  0.11476571046E+04  0.50400001928E-02 0.  1.
       -1   -1    0    0    0  501  0.00000000000E+00  0.00000000000E+00 -0.14309748154E+04  0.14309748154E+04  0.50400001928E-02 0. -1.
    10030    2    1    2    0    0  0.00000000000E+00  0.00000000000E+00 -0.28331771079E+03  0.25786319200E+04  0.25630204161E+04 0.  0.
        4    1    3    3  502    0 -0.27352954170E+03  0.32741380129E+03 -0.13574267958E+04  0.14228939969E+04  0.12699999809E+01 0. -1.
       -4    1    3    3    0  502  0.27352954170E+03 -0.32741380129E+03  0.10741090850E+04  0.11557379231E+04  0.12699999809E+01 0.  1.
</event>
<event>
 5   0  0.2896652E-05  0.2502343E+04  0.7818609E-02  0.8402151E-01
        1   -1    0    0  501    0  0.00000000000E+00  0.00000000000E+00  0.16443958644E+04  0.16443958644E+04  0.50400001928E-02 0.  1.
       -1   -1    0    0    0  501  0.00000000000E+00  0.00000000000E+00 -0.95197897521E+03  0.95197897523E+03  0.50400001928E-02 0. -1.
    10030    2    1    2    0    0  0.00000000000E+00  0.00000000000E+00  0.69241688915E+03  0.25963748396E+04  0.25023431338E+04 0.  0.
        4    1    3    3  502    0 -0.89911001862E+03  0.34052873206E+02 -0.55586969180E+03  0.10576157861E+04  0.12699999809E+01 0. -1.
       -4    1    3    3    0  502  0.89911001862E+03 -0.34052873206E+02  0.12482865810E+04  0.15387590535E+04  0.12699999809E+01 0.  1.
</event>
<event>
 5   0  0.2793920E-05  0.2021387E+04  0.7818609E-02  0.8596686E-01
        1   -1    0    0  501    0  0.00000000000E+00  0.00000000000E+00  0.18617824236E+04  0.18617824236E+04  0.50400001928E-02 0.  1.
       -1   -1    0    0    0  501  0.00000000000E+00  0.00000000000E+00 -0.54866843497E+03  0.54866843500E+03  0.50400001928E-02 0. -1.
    10030    2    1    2    0    0  0.00000000000E+00  0.00000000000E+00  0.13131139886E+04  0.24104508586E+04  0.20213868988E+04 0.  0.
        2    1    3    3  502    0  0.11055676466E+03 -0.98706741447E+03  0.43354090241E+03  0.10837354811E+04  0.25500000920E-02 0. -1.
       -2    1    3    3    0  502 -0.11055676466E+03  0.98706741447E+03  0.87957308623E+03  0.13267153775E+04  0.25500000920E-02 0.  1.
</event>
<event>
 5   0  0.6445331E-05  0.1723576E+04  0.7818609E-02  0.8748031E-01
        2   -1    0    0  501    0  0.00000000000E+00  0.00000000000E+00  0.74400758646E+03  0.74400758646E+03  0.25500000920E-02 0. -1.
       -2   -1    0    0    0  501  0.00000000000E+00  0.00000000000E+00 -0.99821403858E+03  0.99821403858E+03  0.25500000920E-02 0.  1.
    10030    2    1    2    0    0  0.00000000000E+00  0.00000000000E+00 -0.25420645212E+03  0.17422216250E+04  0.17235763025E+04 0.  0.
        1    1    3    3  502    0  0.27717486898E+03 -0.27383705858E+03 -0.90409684136E+03  0.98448145804E+03  0.50400001928E-02 0.  1.
       -1    1    3    3    0  502 -0.27717486898E+03  0.27383705858E+03  0.64989038924E+03  0.75774016701E+03  0.50400001928E-02 0. -1.
</event>
<event>
 5   0  0.7071821E-05  0.2542184E+04  0.7818609E-02  0.8388110E-01
       -2   -1    0    0    0  501  0.00000000000E+00  0.00000000000E+00  0.11560622671E+04  0.11560622671E+04  0.25500000920E-02 0. -1.
        2   -1    0    0  501    0  0.00000000000E+00  0.00000000000E+00 -0.13975673890E+04  0.13975673890E+04  0.25500000920E-02 0.  1.
    10030    2    1    2    0    0  0.00000000000E+00  0.00000000000E+00 -0.24150512184E+03  0.25536296561E+04  0.25421840407E+04 0.  0.
        5    1    3    3  502    0  0.10943040256E+04  0.64664429667E+03 -0.12239927842E+03  0.12769705635E+04  0.46999998093E+01 0.  1.
       -5    1    3    3    0  502 -0.10943040256E+04 -0.64664429667E+03 -0.11910584341E+03  0.12766590926E+04  0.46999998093E+01 0. -1.
</event>
<event>
 5   0  0.6827859E-05  0.2290808E+04  0.7818609E-02  0.8481554E-01
        2   -1    0    0  501    0  0.00000000000E+00  0.00000000000E+00  0.15114399769E+04  0.15114399769E+04  0.25500000920E-02 0. -1.
       -2   -1    0    0    0  501  0.00000000000E+00  0.00000000000E+00 -0.86801341881E+03  0.86801341881E+03  0.25500000920E-02 0.  1.
    10030    2    1    2    0    0  0.00000000000E+00  0.00000000000E+00  0.64342655809E+03  0.23794533957E+04  0.22908078764E+04 0.  0.
        3    1    3    3  502    0 -0.48502940225E+03  0.26768612435E+03  0.13630240949E+04  0.14713069277E+04  0.10100000352E+00 0. -1.
       -3    1    3    3    0  502  0.48502940225E+03 -0.26768612435E+03 -0.71959753676E+03  0.90814646799E+03  0.10100000352E+00 0.  1.
</event>
<event>
 5   0  0.2896652E-05  0.2612458E+04  0.7818609E-02  0.8363982E-01
        1   -1    0    0  501    0  0.00000000000E+00  0.00000000000E+00  0.10155066515E+04  0.10155066516E+04  0.50400001928E-02 0.  1.
       -1   -1    0    0    0  501  0.00000000000E+00  0.00000000000E+00 -0.16801805614E+04  0.16801805614E+04  0.50400001928E-02 0. -1.
    10030    2    1    2    0    0  0.00000000000E+00  0.00000000000E+00 -0.66467390986E+03  0.26956872130E+04  0.26124582568E+04 0.  0.
        4    1    3    3  502    0  0.69614625655E+03 -0.57461067147E+03 -0.13065752486E+04  0.15880609331E+04  0.12699999809E+01 0. -1.
       -4    1    3    3    0  502 -0.69614625655E+03  0.57461067147E+03  0.64190133871E+03  0.11076262798E+04  0.12699999809E+01 0.  1.
</event>
<event>
 5   0  0.6445331E-05  0.2643123E+04  0.7818609E-02  0.8353699E-01
        2   -1    0    0  501    0  0.00000000000E+00  0.00000000000E+00  0.18340949283E+04  0.18340949283E+04  0.25500000920E-02 0.  1.
       -2   -1    0    0    0  501  0.00000000000E+00  0.00000000000E+00 -0.95225431525E+03  0.95225431525E+03  0.25500000920E-02 0. -1.
    10030    2    1    2    0    0  0.00000000000E+00  0.00000000000E+00  0.88184061310E+03  0.27863492436E+04  0.26431230089E+04 0.  0.
        1    1    3    3  502    0  0.78191691423E+03 -0.25577284526E+03 -0.64939323525E+03  0.10481056164E+04  0.50400001928E-02 0. -1.
       -1    1    3    3    0  502 -0.78191691423E+03  0.25577284526E+03  0.15312338483E+04  0.17382436272E+04  0.50400001928E-02 0.  1.
</event>
<event>
 5   0  0.2896652E-05  0.2536630E+04  0.7818609E-02  0.8390051E-01
       -1   -1    0    0    0  501  0.00000000000E+00  0.00000000000E+00  0.10751407113E+04  0.10751407113E+04  0.50400001928E-02 0.  1.
        1   -1    0    0  501    0  0.00000000000E+00  0.00000000000E+00 -0.14961979173E+04  0.14961979173E+04  0.50400001928E-02 0. -1.
    10030    2    1    2    0    0  0.00000000000E+00  0.00000000000E+00 -0.42105720603E+03  0.25713386286E+04  0.25366302789E+04 0.  0.
        4    1    3    3  502    0  0.91890297973E+03 -0.28641318214E+03 -0.10477879856E+04  0.14227707028E+04  0.12699999809E+01 0. -1.
       -4    1    3    3    0  502 -0.91890297973E+03  0.28641318214E+03  0.62673077959E+03  0.11485679257E+04  0.12699999809E+01 0.  1.
</event>
<event>
 5   0  0.6827859E-05  0.2498459E+04  0.7818609E-02  0.8403535E-01
        2   -1    0    0  501    0  0.00000000000E+00  0.00000000000E+00  0.19690839600E+04  0.19690839600E+04  0.25500000920E-02 0. -1.
       -2   -1    0    0    0  501  0.00000000000E+00  0.00000000000E+00 -0.79253824906E+03  0.79253824906E+03  0.25500000920E-02 0.  1.
    10030    2    1    2    0    0  0.00000000000E+00  0.00000000000E+00  0.11765457109E+04  0.27616222090E+04  0.24984590082E+04 0.  0.
        3    1    3    3  502    0  0.47635780469E+03  0.11194837448E+04  0.90171482213E+03  0.15143481250E+04  0.10100000352E+00 0. -1.
       -3    1    3    3    0  502 -0.47635780469E+03 -0.11194837448E+04  0.27483088879E+03  0.12472740840E+04  0.10100000352E+00 0.  1.
</event>
<event>
 5   0  0.6909250E-05  0.1244062E+04  0.7818609E-02  0.9075140E-01
        2   -1    0    0  501    0  0.00000000000E+00  0.00000000000E+00  0.45067448075E+03  0.45067448076E+03  0.25500000920E-02 0. -1.
       -2   -1    0    0    0  501  0.00000000000E+00  0.00000000000E+00 -0.85854093842E+03  0.85854093842E+03  0.25500000920E-02 0.  1.
    10030    2    1    2    0    0  0.00000000000E+00  0.00000000000E+00 -0.40786645766E+03  0.13092154192E+04  0.12440618821E+04 0.  0.
        4    1    3    3  502    0 -0.53109119977E+03  0.68872318911E+02  0.12905487941E+03  0.55087025114E+03  0.12699999809E+01 0. -1.
       -4    1    3    3    0  502  0.53109119977E+03 -0.68872318911E+02 -0.53692133708E+03  0.75834516804E+03  0.12699999809E+01 0.  1.
</event>
<event>
 5   0  0.2977854E-05  0.2400963E+04  0.7818609E-02  0.8439143E-01
       -1   -1    0    0    0  501  0.00000000000E+00  0.00000000000E+00  0.13402453035E+04  0.13402453035E+04  0.50400001928E-02 0.  1.
        1   -1    0    0  501    0  0.00000000000E+00  0.00000000000E+00 -0.10752928616E+04  0.10752928616E+04  0.50400001928E-02 0. -1.
    10030    2    1    2    0    0  0.00000000000E+00  0.00000000000E+00  0.26495244193E+03  0.24155381650E+04  0.24009633130E+04 0.  0.
        1    1    3    3  502    0 -0.87073283431E+02  0.10859554909E+03 -0.10671468311E+04  0.10761863729E+04  0.50400001928E-02 0. -1.
       -1    1    3    3    0  502  0.87073283431E+02 -0.10859554909E+03  0.13320992730E+04  0.13393517922E+04  0.50400001928E-02 0.  1.
</event>
<event>
 5   0  0.6445331E-05  0.2502747E+04  0.7818609E-02  0.8402008E-01
       -2   -1    0    0    0  501  0.00000000000E+00  0.00000000000E+00  0.98966294639E+03  0.98966294640E+03  0.25500000920E-02 0.  1.
        2   -1    0    0  501    0  0.00000000000E+00  0.00000000000E+00 -0.15822916868E+04  0.15822916868E+04  0.25500000920E-02 0. -1.
    10030    2    1    2    0    0  0.00000000000E+00  0.00000000000E+00 -0.59262874037E+03  0.25719546332E+04  0.25027468532E+04 0.  0.
        1    1    3    3  502    0  0.47537738819E+02 -0.11017332769E+04  0.31153105848E+03  0.11459178202E+04  0.50400001928E-02 0. -1.
       -1    1    3    3    0  502 -0.47537738819E+02  0.11017332769E+04 -0.90415979885E+03  0.14260368130E+04  0.50400001928E-02 0.  1.
</event>
<event>
 5   0  0.2980790E-05  0.2528282E+04  0.7818609E-02  0.8392979E-01
        1   -1    0    0  501    0  0.00000000000E+00  0.00000000000E+00  0.14973266636E+04  0.14973266636E+04  0.50400001928E-02 0. -1.
       -1   -1    0    0    0  501  0.00000000000E+00  0.00000000000E+00 -0.10672705970E+04  0.10672705970E+04  0.50400001928E-02 0.  1.
    10030    2    1    2    0    0  0.00000000000E+00  0.00000000000E+00  0.43005606655E+03  0.25645972606E+04  0.25282822012E+04 0.  0.
        5    1    3    3  502    0 -0.96540225451E+03  0.73459681196E+03 -0.14560158870E+03  0.12218248245E+04  0.46999998093E+01 0.  1.
       -5    1    3    3    0  502  0.96540225451E+03 -0.73459681196E+03  0.57565765525E+03  0.13427724361E+04  0.46999998093E+01 0. -1.
</event>
<event>
 5   0  0.2980790E-05  0.2465365E+04  0.7818609E-02  0.8415429E-01
       -1   -1    0    0    0  501  0.00000000000E+00  0.00000000000E+00  0.79695706954E+03  0.79695706955E+03  0.50400001928E-02 0.  1.
        1   -1    0    0  501    0  0.00000000000E+00  0.00000000000E+00 -0.19066345945E+04  0.19066345945E+04  0.50400001928E-02 0. -1.
    10030    2    1    2    0    0  0.00000000000E+00  0.00000000000E+00 -0.11096775250E+04  0.27035916641E+04  0.24653648161E+04 0.  0.
        5    1    3    3  502    0  0.77447622567E+03  0.80303218657E+03 -0.11297170998E+04  0.15877521634E+04  0.46999998093E+01 0. -1.
       -5    1    3    3    0  502 -0.77447622567E+03 -0.80303218657E+03  0.20039574774E+02  0.11158395007E+04  0.46999998093E+01 0.  1.
</event>
<event>
 5   0  0.2896652E-05  0.2461172E+04  0.7818609E-02  0.8416950E-01
        1   -1    0    0  501    0  0.00000000000E+00  0.00000000000E+00  0.23604075563E+04  0.23604075563E+04  0.50400001928E-02 0. -1.
       -1   -1    0    0    0  501  0.00000000000E+00  0.00000000000E+00 -0.64155968529E+03  0.64155968531E+03  0.50400001928E-02 0.  1.
    10030    2    1    2    0    0  0.00000000000E+00  0.00000000000E+00  0.17188478710E+04  0.30019672416E+04  0.24611723459E+04 0.  0.
        4    1    3    3  502    0 -0.60061251854E+03 -0.84534225041E+03  0.51264455377E+02  0.10382526547E+04  0.12699999809E+01 0.  1.
       -4    1    3    3    0  502  0.60061251854E+03  0.84534225041E+03  0.16675834156E+04  0.19637145869E+04  0.12699999809E+01 0. -1.
</event>
<event>
 5   0  0.2777539E-05  0.2474739E+04  0.7818609E-02  0.8412041E-01
        1   -1    0    0  501    0  0.00000000000E+00  0.00000000000E+00  0.13147902003E+04  0.13147902003E+04  0.50400001928E-02 0.  1.
       -1   -1    0    0    0  501  0.00000000000E+00  0.00000000000E+00 -0.11645074790E+04  0.11645074790E+04  0.50400001928E-02 0. -1.
    10030    2    1    2    0    0  0.00000000000E+00  0.00000000000E+00  0.15028272128E+03  0.24792976793E+04  0.24747387916E+04 0.  0.
        3    1    3    3  502    0  0.52112725688E+03 -0.64999935134E+03 -0.84142664359E+03  0.11840910359E+04  0.10100000352E+00 0. -1.
       -3    1    3    3    0  502 -0.52112725688E+03  0.64999935134E+03  0.99170936487E+03  0.12952066434E+04  0.10100000352E+00 0.  1.
</event>
<event>
 5   0  0.2777539E-05  0.2366793E+04  0.7818609E-02  0.8452042E-01
       -1   -1    0    0    0  501  0.00000000000E+00  0.00000000000E+00  0.17454108779E+04  0.17454108779E+04  0.50400001928E-02 0.  1.
        1   -1    0    0  501    0  0.00000000000E+00  0.00000000000E+00 -0.80234789351E+03  0.80234789353E+03  0.50400001928E-02 0. -1.
    10030    2    1    2    0    0  0.00000000000E+00  0.00000000000E+00  0.94306298434E+03  0.25477587714E+04  0.23667925479E+04 0.  0.
        3    1    3    3  502    0 -0.24986847629E+03 -0.76944588380E+03  0.14012504005E+04  0.16180185162E+04  0.10100000352E+00 0.  1.
       -3    1    3    3    0  502  0.24986847629E+03  0.76944588380E+03 -0.45818741620E+03  0.92974025518E+03  0.10100000352E+00 0. -1.
</event>
<event>
 5   0  0.2896652E-05  0.2478913E+04  0.7818609E-02  0.8410537E-01
        1   -1    0    0  501    0  0.00000000000E+00  0.00000000000E+00  0.14523371992E+04  0.14523371992E+04  0.50400001928E-02 0. -1.
       -1   -1    0    0    0  501  0.00000000000E+00  0.00000000000E+00 -0.10577791817E+04  0.10577791817E+04  0.50400001928E-02 0.  1.
    10030    2    1    2    0    0  0.00000000000E+00  0.00000000000E+00  0.39455801747E+03  0.25101163809E+04  0.24789127085E+04 0.  0.
        4    1    3    3  502    0 -0.17717390320E+03  0.62150995664E+03 -0.87366597968E+03  0.10867194096E+04  0.12699999809E+01 0.  1.
       -4    1    3    3    0  502  0.17717390320E+03 -0.62150995664E+03  0.12682239972E+04  0.14233969713E+04  0.12699999809E+01 0. -1.
</event>
<event>
 5   0  0.2777539E-05  0.1550837E+04  0.7818609E-02  0.8851334E-01
       -1   -1    0    0    0  501  0.00000000000E+00  0.00000000000E+00  0.93670447578E+03  0.93670447579E+03  0.50400001928E-02 0. -1.
        1   -1    0    0  501    0  0.00000000000E+00  0.00000000000E+00 -0.64190307312E+03  0.64190307314E+03  0.50400001928E-02 0.  1.
    10030    2    1    2    0    0  0.00000000000E+00  0.00000000000E+00  0.29480140265E+03  0.15786075489E+04  0.15508365248E+04 0.  0.
        3    1    3    3  502    0  0.23232649941E+03 -0.12860500510E+03  0.88897843831E+03  0.92779174584E+03  0.10100000352E+00 0. -1.
       -3    1    3    3    0  502 -0.23232649941E+03  0.12860500510E+03 -0.59417703565E+03  0.65081580310E+03  0.10100000352E+00 0.  1.
</event>
<event>
 5   0  0.2977854E-05  0.2500111E+04  0.7818609E-02  0.8402946E-01
       -1   -1    0    0    0  501  0.00000000000E+00  0.00000000000E+00  0.71404534430E+03  0.71404534432E+03  0.50400001928E-02 0.  1.
        1   -1    0    0  501    0  0.00000000000E+00  0.00000000000E+00 -0.21884312845E+04  0.21884312845E+04  0.50400001928E-02 0. -1.
    10030    2    1    2    0    0  0.00000000000E+00  0.00000000000E+00 -0.14743859402E+04  0.29024766288E+04  0.25001113336E+04 0.  0.
        1    1    3    3  502    0  0.83523551245E+03  0.82605591731E+02 -0.18126743858E+04  0.19975561254E+04  0.50400001928E-02 0. -1.
       -1    1    3    3    0  502 -0.83523551245E+03 -0.82605591731E+02  0.33828844564E+03  0.90492050342E+03  0.50400001928E-02 0.  1.
</event>
<event>
 5   0  0.2980790E-05  0.1832689E+04  0.7818609E-02  0.8689106E-01
       -1   -1    0    0    0  501  0.00000000000E+00  0.00000000000E+00  0.36637252137E+03  0.36637252141E+03  0.50400001928E-02 0.  1.
        1   -1    0    0  501    0  0.00000000000E+00  0.00000000000E+00 -0.22918952598E+04  0.22918952598E+04  0.50400001928E-02 0. -1.
    10030    2    1    2    0    0  0.00000000000E+00  0.00000000000E+00 -0.19255227384E+04  0.26582677812E+04  0.18326892209E+04 0.  0.
        5    1    3    3  502    0 -0.10068804287E+03 -0.87937939640E+03 -0.61884563857E+03  0.10800176939E+04  0.46999998093E+01 0.  1.
       -5    1    3    3    0  502  0.10068804287E+03  0.87937939640E+03 -0.13066770999E+04  0.15782500873E+04  0.46999998093E+01 0. -1.
</event>
<event>
 5   0  0.6827859E-05  0.2488921E+04  0.7818609E-02  0.8406943E-01
        2   -1    0    0  501    0  0.00000000000E+00  0.00000000000E+00  0.22604531674E+04  0.22604531674E+04  0.25500000920E-02 0. -1.
       -2   -1    0    0    0  501  0.00000000000E+00  0.00000000000E+00 -0.68511985790E+03  0.68511985790E+03  0.25500000920E-02 0.  1.
    10030    2    1    2    0    0  0.00000000000E+00  0.00000000000E+00  0.15753333095E+04  0.29455730253E+04  0.24889205314E+04 0.  0.
        3    1    3    3  502    0  0.11971765767E+04  0.33905173500E+03  0.76137573357E+03  0.14587257634E+04  0.10100000352E+00 0. -1.
       -3    1    3    3    0  502 -0.11971765767E+04 -0.33905173500E+03  0.81395757595E+03  0.14868472620E+04  0.10100000352E+00 0.  1.
</event>
<event>
 5   0  0.6648328E-05  0.2405541E+04  0.7818609E-02  0.8437432E-01
       -2   -1    0    0    0  501  0.00000000000E+00  0.00000000000E+00  0.60150348471E+03  0.60150348471E+03  0.25500000920E-02 0.  1.
        2   -1    0    0  501    0  0.00000000000E+00  0.00000000000E+00 -0.24050679579E+04  0.24050679579E+04  0.25500000920E-02 0. -1.
    10030    2    1    2    0    0  0.00000000000E+00  0.00000000000E+00 -0.18035644732E+04  0.30065714426E+04  0.24055409018E+04 0.  0.
        2    1    3    3  502    0  0.53690830773E+03 -0.58185512417E+03 -0.20334551166E+04  0.21821470225E+04  0.25500000920E-02 0. -1.
       -2    1    3    3    0  502 -0.53690830773E+03  0.58185512417E+03  0.22989064348E+03  0.82442442007E+03  0.25500000920E-02 0.  1.
</event>
<event>
 5   0  0.2980790E-05  0.1699396E+04  0.7818609E-02  0.8761709E-01
        1   -1    0    0  501    0  0.00000000000E+00  0.00000000000E+00  0.16621067311E+04  0.16621067312E+04  0.50400001928E-02 0.  1.
       -1   -1    0    0    0  501  0.00000000000E+00  0.00000000000E+00 -0.43438060363E+03  0.43438060366E+03  0.50400001928E-02 0. -1.
    10030    2    1    2    0    0  0.00000000000E+00  0.00000000000E+00  0.12277261275E+04  0.20964873348E+04  0.16993962754E+04 0.  0.
        5    1    3    3  502    0  0.52706634980E+03 -0.40255695359E+03 -0.41391032127E+02  0.66451963516E+03  0.46999998093E+01 0. -1.
       -5    1    3    3    0  502 -0.52706634980E+03  0.40255695359E+03  0.12691171596E+04  0.14319676997E+04  0.46999998093E+01 0.  1.
</event>
<event>
 5   0  0.6827859E-05  0.2595117E+04  0.7818609E-02  0.8369862E-01
        2   -1    0    0  501    0  0.00000000000E+00  0.00000000000E+00  0.10177302435E+04  0.10177302435E+04  0.25500000920E-02 0. -1.
       -2   -1    0    0    0  501  0.00000000000E+00  0.00000000000E+00 -0.16543265624E+04  0.16543265624E+04  0.25500000920E-02 0.  1.
    10030    2    1    2    0    0  0.00000000000E+00  0.00000000000E+00 -0.63659631892E+03  0.26720568059E+04  0.25951170881E+04 0.  0.
        3    1    3    3  502    0  0.71676429559E+03  0.27632534693E+03 -0.13950319244E+04  0.15925516736E+04  0.10100000352E+00 0.  1.
       -3    1    3    3    0  502 -0.71676429559E+03 -0.27632534693E+03  0.75843560552E+03  0.10795051323E+04  0.10100000352E+00 0. -1.
</event>
<event>
 5   0  0.6445331E-05  0.2513515E+04  0.7818609E-02  0.8398186E-01
       -2   -1    0    0    0  501  0.00000000000E+00  0.00000000000E+00  0.10806922109E+04  0.10806922109E+04  0.25500000920E-02 0. -1.
        2   -1    0    0  501    0  0.00000000000E+00  0.00000000000E+00 -0.14615074888E+04  0.14615074888E+04  0.25500000920E-02 0.  1.
    10030    2    1    2    0    0  0.00000000000E+00  0.00000000000E+00 -0.38081527790E+03  0.25421996997E+04  0.25135152749E+04 0.  0.
        1    1    3    3  502    0  0.65062950580E+03  0.94264794815E+03 -0.71354908481E+03  0.13494651549E+04  0.50400001928E-02 0.  1.
       -1    1    3    3    0  502 -0.65062950580E+03 -0.94264794815E+03  0.33273380691E+03  0.11927345448E+04  0.50400001928E-02 0. -1.
</event>
<event>
 5   0  0.6909250E-05  0.2524710E+04  0.7818609E-02  0.8394235E-01
       -2   -1    0    0    0  501  0.00000000000E+00  0.00000000000E+00  0.81724394152E+03  0.81724394152E+03  0.25500000920E-02 0. -1.
        2   -1    0    0  501    0  0.00000000000E+00  0.00000000000E+00 -0.19498945606E+04  0.19498945606E+04  0.25500000920E-02 0.  1.
    10030    2    1    2    0    0  0.00000000000E+00  0.00000000000E+00 -0.11326506191E+04  0.27671385021E+04  0.25247095011E+04 0.  0.
        4    1    3    3  502    0 -0.81157238737E+02 -0.93695074564E+03  0.35659771286E+03  0.10057965693E+04  0.12699999809E+01 0. -1.
       -4    1    3    3    0  502  0.81157238737E+02  0.93695074564E+03 -0.14892483320E+04  0.17613419328E+04  0.12699999809E+01 0.  1.
</event>
<event>
 5   0  0.6648328E-05  0.2477856E+04  0.7818609E-02  0.8410917E-01
       -2   -1    0    0    0  501  0.00000000000E+00  0.00000000000E+00  0.91176679780E+03  0.91176679780E+03  0.25500000920E-02 0.  1.
        2   -1    0    0  501    0  0.00000000000E+00  0.00000000000E+00 -0.16834817435E+04  0.16834817435E+04  0.25500000920E-02 0. -1.
    10030    2    1    2    0    0  0.00000000000E+00  0.00000000000E+00 -0.77171494567E+03  0.25952485413E+04  0.24778561366E+04 0.  0.
        2    1    3    3  502    0 -0.31420455781E+03 -0.86967657999E+03 -0.12494707057E+04  0.15544255860E+04  0.25500000920E-02 0. -1.
       -2    1    3    3    0  502  0.31420455781E+03  0.86967657999E+03  0.47775576007E+03  0.10408229553E+04  0.25500000920E-02 0.  1.
</event>
<event>
 5   0  0.2980790E-05  0.2516743E+04  0.7818609E-02  0.8397045E-01
        1   -1    0    0  501    0  0.00000000000E+00  0.00000000000E+00  0.11693566155E+04  0.11693566155E+04  0.50400001928E-02 0.  1.
       -1   -1    0    0    0  501  0.00000000000E+00  0.00000000000E+00 -0.13541626912E+04  0.13541626912E+04  0.50400001928E-02 0. -1.
    10030    2    1    2    0    0  0.00000000000E+00  0.00000000000E+00 -0.18480607571E+03  0.25235193067E+04  0.25167432140E+04 0.  0.
        5    1    3    3  502    0 -0.54061257467E+03  0.70612892924E+03 -0.98507919466E+03  0.13271334260E+04  0.46999998093E+01 0. -1.
       -5    1    3    3    0  502  0.54061257467E+03 -0.70612892924E+03  0.80027311895E+03  0.11963858807E+04  0.46999998093E+01 0.  1.
</event>
<event>
 5   0  0.6648328E-05  0.2449828E+04  0.7818609E-02  0.8421081E-01
       -2   -1    0    0    0  501  0.00000000000E+00  0.00000000000E+00  0.10907924981E+04  0.10907924981E+04  0.25500000920E-02 0.  1.
        2   -1    0    0  501    0  0.00000000000E+00  0.00000000000E+00 -0.13755272930E+04  0.13755272930E+04  0.25500000920E-02 0. -1.
    10030    2    1    2    0    0  0.00000000000E+00  0.00000000000E+00 -0.28473479487E+03  0.24663197911E+04  0.24498284447E+04 0.  0.
        2    1    3    3  502    0 -0.67510695860E+03 -0.81246119223E+03 -0.76666461278E+03  0.13052345471E+04  0.25500000920E-02 0. -1.
       -2    1    3    3    0  502  0.67510695860E+03  0.81246119223E+03  0.48192981791E+03  0.11610852440E+04  0.25500000920E-02 0.  1.
</event>
<event>
 5   0  0.2980790E-05  0.1903182E+04  0.7818609E-02  0.8653274E-01
       -1   -1    0    0    0  501  0.00000000000E+00  0.00000000000E+00  0.15413543282E+04  0.15413543282E+04  0.50400001928E-02 0. -1.
        1   -1    0    0  501    0  0.00000000000E+00  0.00000000000E+00 -0.58748679834E+03  0.58748679836E+03  0.50400001928E-02 0.  1.
    10030    2    1    2    0    0  0.00000000000E+00  0.00000000000E+00  0.95386752986E+03  0.21288411266E+04  0.19031818824E+04 0.  0.
        5    1    3    3  502    0 -0.67664267007E+03  0.25028503841E+03  0.11710016753E+04  0.13754108176E+04  0.46999998093E+01 0. -1.
       -5    1    3    3    0  502  0.67664267007E+03 -0.25028503841E+03 -0.21713414547E+03  0.75343030901E+03  0.46999998093E+01 0.  1.
</event>
<event>
 5   0  0.2896652E-05  0.1851348E+04  0.7818609E-02  0.8679460E-01
        1   -1    0    0  501    0  0.00000000000E+00  0.00000000000E+00  0.76027576459E+03  0.76027576461E+03  0.50400001928E-02 0. -1.
       -1   -1    0    0    0  501  0.00000000000E+00  0.00000000000E+00 -0.11270549423E+04  0.11270549423E+04  0.50400001928E-02 0.  1.
    10030    2    1    2    0    0  0.00000000000E+00  0.00000000000E+00 -0.36677917771E+03  0.18873307069E+04  0.18513482201E+04 0.  0.
        4    1    3    3  502    0 -0.97940766457E+02  0.48092292435E+03 -0.98349520810E+03  0.10991558989E+04  0.12699999809E+01 0.  1.
       -4    1    3    3    0  502  0.97940766457E+02 -0.48092292435E+03  0.61671603039E+03  0.78817480799E+03  0.12699999809E+01 0. -1.
</event>
<event>
 5   0  0.2793920E-05  0.2247664E+04  0.7818609E-02  0.8498847E-01
       -1   -1    0    0    0  501  0.00000000000E+00  0.00000000000E+00  0.77747467037E+03  0.77747467038E+03  0.50400001928E-02 0.  1.
        1   -1    0    0  501    0  0.00000000000E+00  0.00000000000E+00 -0.16244888352E+04  0.16244888352E+04  0.50400001928E-02 0. -1.
    10030    2    1    2    0    0  0.00000000000E+00  0.00000000000E+00 -0.84701416486E+03  0.24019635056E+04  0.22476644961E+04 0.  0.
        2    1    3    3  502    0  0.34238277113E+03 -0.27119769802E+03  0.68306022873E+03  0.81076841912E+03  0.25500000920E-02 0.  1.
       -2    1    3    3    0  502 -0.34238277113E+03  0.27119769802E+03 -0.15300743936E+04  0.15911950865E+04  0.25500000920E-02 0. -1.
</event>
<event>
 5   0  0.2896652E-05  0.2517190E+04  0.7818609E-02  0.8396887E-01
        1   -1    0    0  501    0  0.00000000000E+00  0.00000000000E+00  0.86809243088E+03  0.86809243089E+03  0.50400001928E-02 0. -1.
       -1   -1    0    0    0  501  0.00000000000E+00  0.00000000000E+00 -0.18247608150E+04  0.18247608150E+04  0.50400001928E-02 0.  1.
    10030    2    1    2    0    0  0.00000000000E+00  0.00000000000E+00 -0.95666838408E+03  0.26928532459E+04  0.25171897439E+04 0.  0.
        4    1    3    3  502    0 -0.11550908809E+03  0.61595281187E+03 -0.16459791470E+04  0.17612464851E+04  0.12699999809E+01 0.  1.
       -4    1    3    3    0  502  0.11550908809E+03 -0.61595281187E+03  0.68931076296E+03  0.93160676077E+03  0.12699999809E+01 0. -1.
</event>
<event>
 5   0  0.6445331E-05  0.2129852E+04  0.7818609E-02  0.8548206E-01
        2   -1    0    0  501    0  0.00000000000E+00  0.00000000000E+00  0.16677280363E+04  0.16677280363E+04  0.25500000920E-02 0. -1.
       -2   -1    0    0    0  501  0.00000000000E+00  0.00000000000E+00 -0.68000711407E+03  0.68000711408E+03  0.25500000920E-02 0.  1.
    10030    2    1    2    0    0  0.00000000000E+00  0.00000000000E+00  0.98772092226E+03  0.23477351504E+04  0.21298515714E+04 0.  0.
        1    1    3    3  502    0 -0.39087364545E+03  0.97070077438E+03  0.27610467129E+03  0.10822550483E+04  0.50400001928E-02 0.  1.
       -1    1    3    3    0  502  0.39087364545E+03 -0.97070077438E+03  0.71161625097E+03  0.12654801021E+04  0.50400001928E-02 0. -1.
</event>
<event>
 5   0  0.6909250E-05  0.2477398E+04  0.7818609E-02  0.8411082E-01
        2   -1    0    0  501    0  0.00000000000E+00  0.00000000000E+00  0.18303100791E+04  0.18303100791E+04  0.25500000920E-02 0. -1.
       -2   -1    0    0    0  501  0.00000000000E+00  0.00000000000E+00 -0.83831414498E+03  0.83831414499E+03  0.25500000920E-02 0.  1.
    10030    2    1    2    0    0  0.00000000000E+00  0.00000000000E+00  0.99199593410E+03  0.26686242241E+04  0.24773976903E+04 0.  0.
        4    1    3    3  502    0  0.40355253195E+03 -0.61864865942E+03  0.15671330816E+04  0.17324804525E+04  0.12699999809E+01 0. -1.
       -4    1    3    3    0  502 -0.40355253195E+03  0.61864865942E+03 -0.57513714748E+03  0.93614377163E+03  0.12699999809E+01 0.  1.
</event>
<event>
 5   0  0.2777539E-05  0.2656455E+04  0.7818609E-02  0.8349273E-01
       -1   -1    0    0    0  501  0.00000000000E+00  0.00000000000E+00  0.11411260027E+04  0.11411260027E+04  0.50400001928E-02 0.  1.
        1   -1    0    0  501    0  0.00000000000E+00  0.00000000000E+00 -0.15460071350E+04  0.15460071350E+04  0.50400001928E-02 0. -1.
    10030    2    1    2    0    0  0.00000000000E+00  0.00000000000E+00 -0.40488113226E+03  0.26871331377E+04  0.26564554896E+04 0.  0.
        3    1    3    3  502    0  0.37262088743E+03  0.85640580042E+03  0.75287658405E+03  0.11996251005E+04  0.10100000352E+00 0.  1.
       -3    1    3    3    0  502 -0.37262088743E+03 -0.85640580042E+03 -0.11577577163E+04  0.14875080372E+04  0.10100000352E+00 0. -1.
</event>
<event>
 5   0  0.6827859E-05  0.2411122E+04  0.7818609E-02  0.8435351E-01
       -2   -1    0    0    0  501  0.00000000000E+00  0.00000000000E+00  0.94631717232E+03  0.94631717232E+03  0.25500000920E-02 0.  1.
        2   -1    0    0  501    0  0.00000000000E+00  0.00000000000E+00 -0.15358244304E+04  0.15358244304E+04  0.25500000920E-02 0. -1.
    10030    2    1    2    0    0  0.00000000000E+00  0.00000000000E+00 -0.58950725810E+03  0.24821416027E+04  0.24111217573E+04 0.  0.
        3    1    3    3  502    0 -0.65376204469E+03 -0.22788720212E+03  0.72125109241E+03  0.99977024184E+03  0.10100000352E+00 0.  1.
       -3    1    3    3    0  502  0.65376204469E+03  0.22788720212E+03 -0.13107583505E+04  0.14823713609E+04  0.10100000352E+00 0. -1.
</event>
<event>
 5   0  0.2777539E-05  0.2199714E+04  0.7818609E-02  0.8518547E-01
        1   -1    0    0  501    0  0.00000000000E+00  0.00000000000E+00  0.16923784105E+04  0.16923784105E+04  0.50400001928E-02 0. -1.
       -1   -1    0    0    0  501  0.00000000000E+00  0.00000000000E+00 -0.71478448399E+03  0.71478448401E+03  0.50400001928E-02 0.  1.
    10030    2    1    2    0    0  0.00000000000E+00  0.00000000000E+00  0.97759392647E+03  0.24071628945E+04  0.21997143713E+04 0.  0.
        3    1    3    3  502    0  0.51068311262E+03  0.93236436668E+03  0.18008353457E+03  0.10782071431E+04  0.10100000352E+00 0.  1.
       -3    1    3    3    0  502 -0.51068311262E+03 -0.93236436668E+03  0.79751039191E+03  0.13289557514E+04  0.10100000352E+00 0. -1.
</event>
<event>
 5   0  0.2793920E-05  0.1490805E+04  0.7818609E-02  0.8890591E-01
       -1   -1    0    0    0  501  0.00000000000E+00  0.00000000000E+00  0.22692318682E+03  0.22692318688E+03  0.50400001928E-02 0. -1.
        1   -1    0    0  501    0  0.00000000000E+00  0.00000000000E+00 -0.24485145392E+04  0.24485145392E+04  0.50400001928E-02 0.  1.
    10030    2    1    2    0    0  0.00000000000E+00  0.00000000000E+00 -0.22215913524E+04  0.26754377261E+04  0.14908047790E+04 0.  0.
        2    1    3    3  502    0 -0.27147319801E+02  0.74389806292E+03 -0.11803803897E+04  0.13954996128E+04  0.25500000920E-02 0.  1.
       -2    1    3    3    0  502  0.27147319801E+02 -0.74389806292E+03 -0.10412109627E+04  0.12799381133E+04  0.25500000920E-02 0. -1.
</event>
<event>
 5   0  0.6648328E-05  0.2504123E+04  0.7818609E-02  0.8401518E-01
        2   -1    0    0  501    0  0.00000000000E+00  0.00000000000E+00  0.11660386971E+04  0.11660386971E+04  0.25500000920E-02 0. -1.
       -2   -1    0    0    0  501  0.00000000000E+00  0.00000000000E+00 -0.13444308548E+04  0.13444308548E+04  0.25500000920E-02 0.  1.
    10030    2    1    2    0    0  0.00000000000E+00  0.00000000000E+00 -0.17839215763E+03  0.25104695519E+04  0.25041233215E+04 0.  0.
        2    1    3    3  502    0  0.84980221051E+03  0.84965439051E+03 -0.44162934425E+03  0.12802784299E+04  0.25500000920E-02 0. -1.
       -2    1    3    3    0  502 -0.84980221051E+03 -0.84965439051E+03  0.26323718663E+03  0.12301911220E+04  0.25500000920E-02 0.  1.
</event>
<event>
 5   0  0.2980790E-05  0.2437805E+04  0.7818609E-02  0.8425484E-01
        1   -1    0    0  501    0  0.00000000000E+00  0.00000000000E+00  0.11320034057E+04  0.11320034057E+04  0.50400001928E-02 0. -1.
       -1   -1    0    0    0  501  0.00000000000E+00  0.00000000000E+00 -0.13124725530E+04  0.13124725530E+04  0.50400001928E-02 0.  1.
    10030    2    1    2    0    0  0.00000000000E+00  0.00000000000E+00 -0.18046914731E+03  0.24444759587E+04  0.24378050782E+04 0.  0.
        5    1    3    3  502    0 -0.36192481613E+03  0.11526292038E+04  0.71941283997E+02  0.12102649678E+04  0.46999998093E+01 0. -1.
       -5    1    3    3    0  502  0.36192481613E+03 -0.11526292038E+04 -0.25241043131E+03  0.12342109908E+04  0.46999998093E+01 0.  1.
</event>
<event>
 5   0  0.2977854E-05  0.1373617E+04  0.7818609E-02  0.8973140E-01
        1   -1    0    0  501    0  0.00000000000E+00  0.00000000000E+00  0.73537896427E+03  0.73537896428E+03  0.50400001928E-02 0.  1.
       -1   -1    0    0    0  501  0.00000000000E+00  0.00000000000E+00 -0.64144627890E+03  0.64144627892E+03  0.50400001928E-02 0. -1.
    10030    2    1    2    0    0  0.00000000000E+00  0.00000000000E+00  0.93932685370E+02  0.13768252432E+04  0.13736172687E+04 0.  0.
        1    1    3    3  502    0  0.37363554573E+03 -0.55663627779E+03  0.19650804718E+03  0.69861497222E+03  0.50400001928E-02 0.  1.
       -1    1    3    3    0  502 -0.37363554573E+03  0.55663627779E+03 -0.10257536181E+03  0.67821027098E+03  0.50400001928E-02 0. -1.
</event>
<event>
 5   0  0.6909250E-05  0.2502900E+04  0.7818609E-02  0.8401953E-01
       -2   -1    0    0    0  501  0.00000000000E+00  0.00000000000E+00  0.12203199312E+04  0.12203199312E+04  0.25500000920E-02 0.  1.
        2   -1    0    0  501    0  0.00000000000E+00  0.00000000000E+00 -0.12833742398E+04  0.12833742398E+04  0.25500000920E-02 0. -1.
    10030    2    1    2    0    0  0.00000000000E+00  0.00000000000E+00 -0.63054308579E+02  0.25036941710E+04  0.25029000491E+04 0.  0.
        4    1    3    3  502    0  0.35627161743E+03  0.10602053662E+04  0.53004268798E+03  0.12377042247E+04  0.12699999809E+01 0.  1.
       -4    1    3    3    0  502 -0.35627161743E+03 -0.10602053662E+04 -0.59309699656E+03  0.12659899463E+04  0.12699999809E+01 0. -1.
</event>
<event>
 5   0  0.2977854E-05  0.2678255E+04  0.7818609E-02  0.8342095E-01
        1   -1    0    0  501    0  0.00000000000E+00  0.00000000000E+00  0.93670357787E+03  0.93670357788E+03  0.50400001928E-02 0. -1.
       -1   -1    0    0    0  501  0.00000000000E+00  0.00000000000E+00 -0.19144400808E+04  0.19144400808E+04  0.50400001928E-02 0.  1.
    10030    2    1    2    0    0  0.00000000000E+00  0.00000000000E+00 -0.97773650291E+03  0.28511436587E+04  0.26782553077E+04 0.  0.
        1    1    3    3  502    0  0.96040366501E+03 -0.31975152451E+03  0.44445157484E+03  0.11055104882E+04  0.50400001928E-02 0. -1.
       -1    1    3    3    0  502 -0.96040366501E+03  0.31975152451E+03 -0.14221880777E+04  0.17456331704E+04  0.50400001928E-02 0.  1.
</event>
<event>
 5   0  0.6909250E-05  0.2503973E+04  0.7818609E-02  0.8401571E-01
        2   -1    0    0  501    0  0.00000000000E+00  0.00000000000E+00  0.12592877354E+04  0.12592877354E+04  0.25500000920E-02 0. -1.
       -2   -1    0    0    0  501  0.00000000000E+00  0.00000000000E+00 -0.12447279865E+04  0.12447279865E+04  0.25500000920E-02 0.  1.
    10030    2    1    2    0    0  0.00000000000E+00  0.00000000000E+00  0.14559748922E+02  0.25040157219E+04  0.25039733923E+04 0.  0.
        4    1    3    3  502    0 -0.22524670745E+03 -0.31615917170E+03  0.11975841528E+04  0.12589289563E+04  0.12699999809E+01 0. -1.
       -4    1    3    3    0  502  0.22524670745E+03  0.31615917170E+03 -0.11830244038E+04  0.12450867657E+04  0.12699999809E+01 0.  1.
</event>
<event>
 5   0  0.7071821E-05  0.2480769E+04  0.7818609E-02  0.8409869E-01
       -2   -1    0    0    0  501  0.00000000000E+00  0.00000000000E+00  0.63187214140E+03  0.63187214140E+03  0.25500000920E-02 0.  1.
        2   -1    0    0  501    0  0.00000000000E+00  0.00000000000E+00 -0.24349126827E+04  0.24349126827E+04  0.25500000920E-02 0. -1.
    10030    2    1    2    0    0  0.00000000000E+00  0.00000000000E+00 -0.18030405413E+04  0.30667848241E+04  0.24807688252E+04 0.  0.
        5    1    3    3  502    0  0.11529797092E+04 -0.42090858415E+02 -0.33853268102E+03  0.12023977363E+04  0.46999998093E+01 0.  1.
       -5    1    3    3    0  502 -0.11529797092E+04  0.42090858415E+02 -0.14645078603E+04  0.18643870878E+04  0.46999998093E+01 0. -1.
</event>
<event>
 5   0  0.2896652E-05  0.2418225E+04  0.7818609E-02  0.8432712E-01
        1   -1    0    0  501    0  0.00000000000E+00  0.00000000000E+00  0.97449473757E+03  0.97449473758E+03  0.50400001928E-02 0. -1.
       -1   -1    0    0    0  501  0.00000000000E+00  0.00000000000E+00 -0.15002160819E+04  0.15002160819E+04  0.50400001928E-02 0.  1.
    10030    2    1    2    0    0  0.00000000000E+00  0.00000000000E+00 -0.52572134435E+03  0.24747108195E+04  0.24182247018E+04 0.  0.
        4    1    3    3  502    0 -0.65331649660E+03 -0.60372391350E+03  0.57519812897E+03  0.10593203052E+04  0.12699999809E+01 0. -1.
       -4    1    3    3    0  502  0.65331649660E+03  0.60372391350E+03 -0.11009194733E+04  0.14153905143E+04  0.12699999809E+01 0.  1.
</event>
<event>
 5   0  0.7071821E-05  0.2447462E+04  0.7818609E-02  0.8421945E-01
        2   -1    0    0  501    0  0.00000000000E+00  0.00000000000E+00  0.19766030318E+04  0.19766030318E+04  0.25500000920E-02 0.  1.
       -2   -1    0    0    0  501  0.00000000000E+00  0.00000000000E+00 -0.75762186157E+03  0.75762186158E+03  0.25500000920E-02 0. -1.
    10030    2    1    2    0    0  0.00000000000E+00  0.00000000000E+00  0.12189811702E+04  0.27342248934E+04  0.24474620884E+04 0.  0.
        5    1    3    3  502    0  0.13433888187E+03 -0.46558396974E+03  0.18648409314E+04  0.19267768832E+04  0.46999998093E+01 0.  1.
       -5    1    3    3    0  502 -0.13433888187E+03  0.46558396974E+03 -0.64585976119E+03  0.80744801020E+03  0.46999998093E+01 0. -1.
</event>
<event>
 5   0  0.2793920E-05  0.2481077E+04  0.7818609E-02  0.8409758E-01
        1   -1    0    0  501    0  0.00000000000E+00  0.00000000000E+00  0.16367346780E+04  0.16367346780E+04  0.50400001928E-02 0. -1.
       -1   -1    0    0    0  501  0.00000000000E+00  0.00000000000E+00 -0.94024724289E+03  0.94024724290E+03  0.50400001928E-02 0.  1.
    10030    2    1    2    0    0  0.00000000000E+00  0.00000000000E+00  0.69648743510E+03  0.25769819209E+04  0.24810765956E+04 0.  0.
        2    1    3    3  502    0  0.32365456512E+03 -0.69808706924E+02  0.15899943093E+04  0.16241020401E+04  0.25500000920E-02 0. -1.
       -2    1    3    3    0  502 -0.32365456512E+03  0.69808706924E+02 -0.89350687417E+03  0.95287988082E+03  0.25500000920E-02 0.  1.
</event>
<event>
 5   0  0.6648328E-05  0.2558699E+04  0.7818609E-02  0.8382367E-01
       -2   -1    0    0    0  501  0.00000000000E+00  0.00000000000E+00  0.12844868008E+04  0.12844868008E+04  0.25500000920E-02 0.  1.
        2   -1    0    0  501    0  0.00000000000E+00  0.00000000000E+00 -0.12742325724E+04  0.12742325724E+04  0.25500000920E-02 0. -1.
    10030    2    1    2    0    0  0.00000000000E+00  0.00000000000E+00  0.10254228396E+02  0.25587193733E+04  0.25586988260E+04 0.  0.
        2    1    3    3  502    0  0.24577096353E+02  0.14108602423E+03 -0.12661917201E+04  0.12742647967E+04  0.25500000920E-02 0. -1.
       -2    1    3    3    0  502 -0.24577096353E+02 -0.14108602423E+03  0.12764459485E+04  0.12844545766E+04  0.25500000920E-02 0.  1.
</event>
<event>
 5   0  0.2980790E-05  0.2202834E+04  0.7818609E-02  0.8517250E-01
        1   -1    0    0  501    0  0.00000000000E+00  0.00000000000E+00  0.16342094353E+04  0.16342094353E+04  0.50400001928E-02 0.  1.
       -1   -1    0    0    0  501  0.00000000000E+00  0.00000000000E+00 -0.74232773285E+03  0.74232773287E+03  0.50400001928E-02 0. -1.
    10030    2    1    2    0    0  0.00000000000E+00  0.00000000000E+00  0.89188170240E+03  0.23765371681E+04  0.22028336161E+04 0.  0.
        5    1    3    3  502    0  0.13694283800E+03 -0.28357154820E+03 -0.69271375741E+03  0.76094717525E+03  0.46999998093E+01 0. -1.
       -5    1    3    3    0  502 -0.13694283800E+03  0.28357154820E+03  0.15845954598E+04  0.16155899929E+04  0.46999998093E+01 0.  1.
</event>
</LesHouchesEvents>
