<LesHouchesEvents version="3.0">
<header>
<!--
#*********************************************************************
#                                                                    *
#                        MadGraph5_aMC@NLO                           *
#                                                                    *
#                           Going Beyond                             *
#                                                                    *
#                   http://madgraph.hep.uiuc.edu                     *
#                   http://madgraph.phys.ucl.ac.be                   *
#                   http://amcatnlo.cern.ch                          *
#                                                                    *
#                     The MadGraph5_aMC@NLO team                     *
#                                                                    *
#....................................................................*
#                                                                    *
# This file contains all the information necessary to reproduce      *
# the events generated:                                              *
#                                                                    *
# 1. software version                                                *
# 2. proc_card          : code generation info including model       *
# 3. param_card         : model primary parameters in the LH format  *
# 4. run_card           : running parameters (collider and cuts)     *
# 5. pythia_card        : present only if pythia has been run        *
# 6. pgs_card           : present only if pgs has been run           *
# 7. delphes_cards      : present only if delphes has been run       *
#                                                                    *
#                                                                    *
#*********************************************************************
-->
<MGVersion>
#5.2.2.3
</MGVersion>
<MG5ProcCard>
#************************************************************
#*                     MadGraph5_aMC@NLO                    *
#*                                                          *
#*                *                       *                 *
#*                  *        * *        *                   *
#*                    * * * * 5 * * * *                     *
#*                  *        * *        *                   *
#*                *                       *                 *
#*                                                          *
#*                                                          *
#*         VERSION 2.2.3                 2015-02-10         *
#*                                                          *
#*    The MadGraph5_aMC@NLO Development Team - Find us at   *
#*    https://server06.fynu.ucl.ac.be/projects/madgraph     *
#*                                                          *
#************************************************************
#*                                                          *
#*               Command File for MadGraph5_aMC@NLO         *
#*                                                          *
#*     run as ./bin/mg5_aMC  filename                       *
#*                                                          *
#************************************************************
set group_subprocesses Auto
set ignore_six_quark_processes False
set loop_optimized_output True
set gauge unitary
set complex_mass_scheme False
import model sm
define p = g u c d s u~ c~ d~ s~
define j = g u c d s u~ c~ d~ s~
define l+ = e+ mu+
define l- = e- mu-
define vl = ve vm vt
define vl~ = ve~ vm~ vt~
import model Zprime_UFO
generate p p > zph, zph > j j
add process p p > zph, zph > b b~
output Dijet_signal
</MG5ProcCard>
<MGProcCard>
#*********************************************************************
#                        MadGraph/MadEvent                           *
#                   http://madgraph.hep.uiuc.edu                     *
#                                                                    *
#                          proc_card.dat                             *
#*********************************************************************
#                                                                    *
#            This Files is generated by MADGRAPH 5                   *
#                                                                    *
# WARNING: This Files is generated for MADEVENT (compatibility issue)*
#          This files is NOT a valid MG4 proc_card.dat               *
#          Running this in MG4 will NEVER reproduce the result of MG5*
#                                                                    *
#*********************************************************************
#*********************************************************************
# Process(es) requested : mg2 input                                  *
#*********************************************************************
# Begin PROCESS # This is TAG. Do not modify this line
p p > zph , zph > j j           #Process
# Be carefull the coupling are here in MG5 convention
          
end_coup           # End the couplings input

done               # this tells MG there are no more procs
# End PROCESS  # This is TAG. Do not modify this line
#*********************************************************************
# Model information                                                  *
#*********************************************************************
# Begin MODEL  # This is TAG. Do not modify this line
Zprime_UFO
# End   MODEL  # This is TAG. Do not modify this line
#*********************************************************************
# Start multiparticle definitions                                    *
#*********************************************************************
# Begin MULTIPARTICLES # This is TAG. Do not modify this line

# End  MULTIPARTICLES # This is TAG. Do not modify this line
</MGProcCard>
<MGRunCard>
#*********************************************************************
#                       MadGraph5_aMC@NLO                            *
#                                                                    *
#                     run_card.dat MadEvent                          *
#                                                                    *
#  This file is used to set the parameters of the run.               *
#                                                                    *
#  Some notation/conventions:                                        *
#                                                                    *
#   Lines starting with a '# ' are info or comments                  *
#                                                                    *
#   mind the format:   value    = variable     ! comment             *
#*********************************************************************
#
#*******************                                                 
# Running parameters
#*******************                                                 
#                                                                    
#*********************************************************************
# Tag name for the run (one word)                                    *
#*********************************************************************
  tag_1     = run_tag ! name of the run 
#*********************************************************************
# Run to generate the grid pack                                      *
#*********************************************************************
  .false.     = gridpack  !True = setting up the grid pack
#*********************************************************************
# Number of events and rnd seed                                      *
# Warning: Do not generate more than 1M events in a single run       *
# If you want to run Pythia, avoid more than 50k events in a run.    *
#*********************************************************************
  2000 = nevents ! Number of unweighted events requested 
 624 = iseed   ! rnd seed (0=assigned automatically=default))
#*********************************************************************
# Collider type and energy                                           *
# lpp: 0=No PDF, 1=proton, -1=antiproton, 2=photon from proton,      *
#                                         3=photon from electron     *
#*********************************************************************
        1     = lpp1    ! beam 1 type 
        1     = lpp2    ! beam 2 type
     4000     = ebeam1  ! beam 1 total energy in GeV
     4000     = ebeam2  ! beam 2 total energy in GeV
#*********************************************************************
# Beam polarization from -100 (left-handed) to 100 (right-handed)    *
#*********************************************************************
        0     = polbeam1 ! beam polarization for beam 1
        0     = polbeam2 ! beam polarization for beam 2
#*********************************************************************
# PDF CHOICE: this automatically fixes also alpha_s and its evol.    *
#*********************************************************************
 'nn23lo1'    = pdlabel     ! PDF set                                     
 230000    = lhaid     ! if pdlabel=lhapdf, this is the lhapdf number
#*********************************************************************
# Renormalization and factorization scales                           *
#*********************************************************************
 F        = fixed_ren_scale  ! if .true. use fixed ren scale
 F        = fixed_fac_scale  ! if .true. use fixed fac scale
 91.1880  = scale            ! fixed ren scale
 91.1880  = dsqrt_q2fact1    ! fixed fact scale for pdf1
 91.1880  = dsqrt_q2fact2    ! fixed fact scale for pdf2
 1        = scalefact        ! scale factor for event-by-event scales
#*********************************************************************
# Matching - Warning! ickkw > 1 is still beta
#*********************************************************************
 0        = ickkw            ! 0 no matching, 1 MLM, 2 CKKW matching
 1        = highestmult      ! for ickkw=2, highest mult group
 1        = ktscheme         ! for ickkw=1, 1 Durham kT, 2 Pythia pTE
 1        = alpsfact         ! scale factor for QCD emission vx
 F        = chcluster        ! cluster only according to channel diag
 T        = pdfwgt           ! for ickkw=1, perform pdf reweighting
 5        = asrwgtflavor     ! highest quark flavor for a_s reweight
 T        = clusinfo         ! include clustering tag in output
 3.0      = lhe_version       ! Change the way clustering information pass to shower.        
#*********************************************************************
#**********************************************************
#
#**********************************************************
# Automatic ptj and mjj cuts if xqcut > 0
# (turn off for VBF and single top processes)
#**********************************************************
   T  = auto_ptj_mjj  ! Automatic setting of ptj and mjj
#**********************************************************
#                                                                    
#**********************************
# BW cutoff (M+/-bwcutoff*Gamma)
#**********************************
  15  = bwcutoff      ! (M+/-bwcutoff*Gamma)
#**********************************************************
# Apply pt/E/eta/dr/mij cuts on decay products or not
# (note that etmiss/ptll/ptheavy/ht/sorted cuts always apply)
#**********************************************************
   T  = cut_decays    ! Cut decay products 
#*************************************************************
# Number of helicities to sum per event (0 = all helicities)
# 0 gives more stable result, but longer run time (needed for
# long decay chains e.g.).
# Use >=2 if most helicities contribute, e.g. pure QCD.
#*************************************************************
   0  = nhel          ! Number of helicities used per event
#*******************                                                 
# Standard Cuts
#*******************                                                 
#                                                                    
#*********************************************************************
# Minimum and maximum pt's (for max, -1 means no cut)                *
#*********************************************************************
 20  = ptj       ! minimum pt for the jets 
  0  = ptb       ! minimum pt for the b 
 10  = pta       ! minimum pt for the photons 
 10  = ptl       ! minimum pt for the charged leptons 
  0  = misset    ! minimum missing Et (sum of neutrino's momenta)
  0  = ptheavy   ! minimum pt for one heavy final state
 1.0 = ptonium   ! minimum pt for the quarkonium states
 -1  = ptjmax    ! maximum pt for the jets
 -1  = ptbmax    ! maximum pt for the b
 -1  = ptamax    ! maximum pt for the photons
 -1  = ptlmax    ! maximum pt for the charged leptons
 -1  = missetmax ! maximum missing Et (sum of neutrino's momenta)
#*********************************************************************
# Minimum and maximum E's (in the center of mass frame)              *
#*********************************************************************
  0  = ej     ! minimum E for the jets 
  0  = eb     ! minimum E for the b 
  0  = ea     ! minimum E for the photons 
  0  = el     ! minimum E for the charged leptons 
 -1   = ejmax ! maximum E for the jets
 -1   = ebmax ! maximum E for the b
 -1   = eamax ! maximum E for the photons
 -1   = elmax ! maximum E for the charged leptons
#*********************************************************************
# Maximum and minimum absolute rapidity (for max, -1 means no cut)   *
#*********************************************************************
   5  = etaj    ! max rap for the jets 
  -1  = etab    ! max rap for the b
 2.5  = etaa    ! max rap for the photons 
 2.5  = etal    ! max rap for the charged leptons 
 0.6  = etaonium ! max rap for the quarkonium states
   0  = etajmin ! min rap for the jets
   0  = etabmin ! min rap for the b
   0  = etaamin ! min rap for the photons
   0  = etalmin ! main rap for the charged leptons
#*********************************************************************
# Minimum and maximum DeltaR distance                                *
#*********************************************************************
 0.4 = drjj    ! min distance between jets 
 0   = drbb    ! min distance between b's 
 0.4 = drll    ! min distance between leptons 
 0.4 = draa    ! min distance between gammas 
 0   = drbj    ! min distance between b and jet 
 0.4 = draj    ! min distance between gamma and jet 
 0.4 = drjl    ! min distance between jet and lepton 
 0   = drab    ! min distance between gamma and b 
 0   = drbl    ! min distance between b and lepton 
 0.4 = dral    ! min distance between gamma and lepton 
 -1  = drjjmax ! max distance between jets
 -1  = drbbmax ! max distance between b's
 -1  = drllmax ! max distance between leptons
 -1  = draamax ! max distance between gammas
 -1  = drbjmax ! max distance between b and jet
 -1  = drajmax ! max distance between gamma and jet
 -1  = drjlmax ! max distance between jet and lepton
 -1  = drabmax ! max distance between gamma and b
 -1  = drblmax ! max distance between b and lepton
 -1  = dralmax ! maxdistance between gamma and lepton
#*********************************************************************
# Minimum and maximum invariant mass for pairs                       *
# WARNING: for four lepton final state mmll cut require to have      *
#          different lepton masses for each flavor!                  *           
#*********************************************************************
 0   = mmjj    ! min invariant mass of a jet pair 
 0   = mmbb    ! min invariant mass of a b pair 
 0   = mmaa    ! min invariant mass of gamma gamma pair
 0   = mmll    ! min invariant mass of l+l- (same flavour) lepton pair
 -1  = mmjjmax ! max invariant mass of a jet pair
 -1  = mmbbmax ! max invariant mass of a b pair
 -1  = mmaamax ! max invariant mass of gamma gamma pair
 -1  = mmllmax ! max invariant mass of l+l- (same flavour) lepton pair
#*********************************************************************
# Minimum and maximum invariant mass for all letpons                 *
#*********************************************************************
 0   = mmnl    ! min invariant mass for all letpons (l+- and vl) 
 -1  = mmnlmax ! max invariant mass for all letpons (l+- and vl) 
#*********************************************************************
# Minimum and maximum pt for 4-momenta sum of leptons                *
#*********************************************************************
 0   = ptllmin  ! Minimum pt for 4-momenta sum of leptons(l and vl)
 -1  = ptllmax  ! Maximum pt for 4-momenta sum of leptons(l and vl)
#*********************************************************************
# Inclusive cuts                                                     *
#*********************************************************************
 0  = xptj ! minimum pt for at least one jet  
 0  = xptb ! minimum pt for at least one b 
 0  = xpta ! minimum pt for at least one photon 
 0  = xptl ! minimum pt for at least one charged lepton 
#*********************************************************************
# Control the pt's of the jets sorted by pt                          *
#*********************************************************************
 0   = ptj1min ! minimum pt for the leading jet in pt
 0   = ptj2min ! minimum pt for the second jet in pt
 0   = ptj3min ! minimum pt for the third jet in pt
 0   = ptj4min ! minimum pt for the fourth jet in pt
 -1  = ptj1max ! maximum pt for the leading jet in pt 
 -1  = ptj2max ! maximum pt for the second jet in pt
 -1  = ptj3max ! maximum pt for the third jet in pt
 -1  = ptj4max ! maximum pt for the fourth jet in pt
 0   = cutuse  ! reject event if fails any (0) / all (1) jet pt cuts
#*********************************************************************
# Control the pt's of leptons sorted by pt                           *
#*********************************************************************
 0   = ptl1min ! minimum pt for the leading lepton in pt
 0   = ptl2min ! minimum pt for the second lepton in pt
 0   = ptl3min ! minimum pt for the third lepton in pt
 0   = ptl4min ! minimum pt for the fourth lepton in pt
 -1  = ptl1max ! maximum pt for the leading lepton in pt 
 -1  = ptl2max ! maximum pt for the second lepton in pt
 -1  = ptl3max ! maximum pt for the third lepton in pt
 -1  = ptl4max ! maximum pt for the fourth lepton in pt
#*********************************************************************
# Control the Ht(k)=Sum of k leading jets                            *
#*********************************************************************
 0   = htjmin ! minimum jet HT=Sum(jet pt)
 -1  = htjmax ! maximum jet HT=Sum(jet pt)
 0   = ihtmin  !inclusive Ht for all partons (including b)
 -1  = ihtmax  !inclusive Ht for all partons (including b)
 0   = ht2min ! minimum Ht for the two leading jets
 0   = ht3min ! minimum Ht for the three leading jets
 0   = ht4min ! minimum Ht for the four leading jets
 -1  = ht2max ! maximum Ht for the two leading jets
 -1  = ht3max ! maximum Ht for the three leading jets
 -1  = ht4max ! maximum Ht for the four leading jets
#***********************************************************************
# Photon-isolation cuts, according to hep-ph/9801442                   *
# When ptgmin=0, all the other parameters are ignored                  *
# When ptgmin>0, pta and draj are not going to be used                 *
#***********************************************************************
   0 = ptgmin ! Min photon transverse momentum
 0.4 = R0gamma ! Radius of isolation code
 1.0 = xn ! n parameter of eq.(3.4) in hep-ph/9801442
 1.0 = epsgamma ! epsilon_gamma parameter of eq.(3.4) in hep-ph/9801442
 .true. = isoEM ! isolate photons from EM energy (photons and leptons)
#*********************************************************************
# WBF cuts                                                           *
#*********************************************************************
 0   = xetamin ! minimum rapidity for two jets in the WBF case  
 0   = deltaeta ! minimum rapidity for two jets in the WBF case 
#*********************************************************************
# KT DURHAM CUT                                                      *
#*********************************************************************
 -1    =  ktdurham        
 0.4  =  dparameter 
#*********************************************************************
# maximal pdg code for quark to be considered as a light jet         *
# (otherwise b cuts are applied)                                     *
#*********************************************************************
 4 = maxjetflavor    ! Maximum jet pdg code
#*********************************************************************
# Jet measure cuts                                                   *
#*********************************************************************
 0   = xqcut   ! minimum kt jet measure between partons
#*********************************************************************
#
#*********************************************************************
# Store info for systematics studies                                 *
# WARNING: If use_syst is T, matched Pythia output is                *
#          meaningful ONLY if plotted taking matchscale              *
#          reweighting into account!                                 *
#*********************************************************************
   F  = use_syst      ! Enable systematics studies
#
#**************************************
# Parameter of the systematics study
#  will be used by SysCalc (if installed)
#**************************************                                  
#
0.5 1 2 = sys_scalefact  # factorization/renormalization scale factor
0.5 1 2 = sys_alpsfact  # \alpha_s emission scale factors
30 50 = sys_matchscale # variation of merging scale
# PDF sets and number of members (0 or none for all members).
CT10nlo.LHgrid = sys_pdf # matching scales
# MSTW2008nlo68cl.LHgrid 1  = sys_pdf
</MGRunCard>
<slha>
######################################################################
## PARAM_CARD AUTOMATICALY GENERATED BY MG5 FOLLOWING UFO MODEL   ####
######################################################################
##                                                                  ##
##  Width set on Auto will be computed following the information    ##
##        present in the decay.py files of the model.               ##
##        See  arXiv:1402.1178 for more details.                    ##
##                                                                  ##
######################################################################

###################################
## INFORMATION FOR CKMBLOCK
###################################
Block ckmblock 
    1 2.277360e-01 # cabi 

###################################
## INFORMATION FOR FRBLOCK
###################################
Block frblock 
    1 2.000000e-01 # gz 

###################################
## INFORMATION FOR MASS
###################################
Block mass 
    1 5.040000e-03 # MD 
    2 2.550000e-03 # MU 
    3 1.010000e-01 # MS 
    4 1.270000e+00 # MC 
    5 4.700000e+00 # MB 
    6 1.720000e+02 # MT 
   11 5.110000e-04 # Me 
   13 1.056600e-01 # MM 
   15 1.777000e+00 # MTA 
   23 9.118760e+01 # MZ 
   25 1.200000e+02 # MH 
  10030 1.900000e+03 # MZph 
  10031 3.000000e+02 # MZpl 
## Dependent parameters, given by model restrictions.
## Those values should be edited following the 
## analytical expression. MG5 ignores those values 
## but they are important for interfacing the output of MG5
## to external program such as Pythia.
  12 0.000000 # ve : 0.0 
  14 0.000000 # vm : 0.0 
  16 0.000000 # vt : 0.0 
  21 0.000000 # g : 0.0 
  22 0.000000 # a : 0.0 
  24 79.824360 # w+ : cmath.sqrt(MZ__exp__2/2. + cmath.sqrt(MZ__exp__4/4. - (aEW*cmath.pi*MZ__exp__2)/(Gf*sqrt__2))) 

###################################
## INFORMATION FOR SMINPUTS
###################################
Block sminputs 
    1 1.279000e+02 # aEWM1 
    2 1.166370e-05 # Gf 
    3 1.184000e-01 # aS 

###################################
## INFORMATION FOR YUKAWA
###################################
Block yukawa 
    1 5.040000e-03 # ymdo 
    2 2.550000e-03 # ymup 
    3 1.010000e-01 # yms 
    4 1.270000e+00 # ymc 
    5 4.700000e+00 # ymb 
    6 1.720000e+02 # ymt 
   11 5.110000e-04 # yme 
   13 1.056600e-01 # ymm 
   15 1.777000e+00 # ymtau 

###################################
## INFORMATION FOR DECAY
###################################
DECAY   6 1.508336e+00 # WT 
DECAY  23 2.495200e+00 # WZ 
DECAY  24 2.085000e+00 # WW 
DECAY  25 5.753088e-03 # WH 
## Dependent parameters, given by model restrictions.
## Those values should be edited following the 
## analytical expression. MG5 ignores those values 
## but they are important for interfacing the output of MG5
## to external program such as Pythia.
DECAY  1 0.000000 # d : 0.0 
DECAY  2 0.000000 # u : 0.0 
DECAY  3 0.000000 # s : 0.0 
DECAY  4 0.000000 # c : 0.0 
DECAY  5 0.000000 # b : 0.0 
DECAY  11 0.000000 # e- : 0.0 
DECAY  12 0.000000 # ve : 0.0 
DECAY  13 0.000000 # mu- : 0.0 
DECAY  14 0.000000 # vm : 0.0 
DECAY  15 0.000000 # ta- : 0.0 
DECAY  16 0.000000 # vt : 0.0 
DECAY  21 0.000000 # g : 0.0 
DECAY  22 0.000000 # a : 0.0 
DECAY  10030 0.308725 # zph : (gz__exp__2*MZph*(5 + cmath.sqrt(1 - (4*MT__exp__2)/MZph__exp__2)))/(144.*cmath.pi) 
DECAY  10031 0.132629 # zpl : (5*gz__exp__2*MZpl)/(144.*cmath.pi) 
#===========================================================
# QUANTUM NUMBERS OF NEW STATE(S) (NON SM PDG CODE)
#===========================================================

Block QNUMBERS 10030  # zph 
        1 0  # 3 times electric charge
        2 3  # number of spin states (2S+1)
        3 1  # colour rep (1: singlet, 3: triplet, 8: octet)
        4 0  # Particle/Antiparticle distinction (0=own anti)
Block QNUMBERS 10031  # zpl 
        1 0  # 3 times electric charge
        2 3  # number of spin states (2S+1)
        3 1  # colour rep (1: singlet, 3: triplet, 8: octet)
        4 0  # Particle/Antiparticle distinction (0=own anti)
</slha>
## END BANNER##
<MGGenerationInfo>
#  Number of Events        :         3976
#  Integrated weight (pb)  :  0.20222E-02
#  Max wgt                 :  0.75772E-06
#  Average wgt             :  0.50860E-06
</MGGenerationInfo>
</header>
<init>
     2212     2212  0.40000000000E+04  0.40000000000E+04 0 0  247000  247000 2   1
  0.20229537431E-02  0.41405427469E-05  0.75771800000E-06   0
</init>
<event>
 5   0  0.6870370E-06  0.1899895E+04  0.7818609E-02  0.8654909E-01
       -2   -1    0    0    0  501  0.00000000000E+00  0.00000000000E+00  0.58393919082E+03  0.58393919083E+03  0.25500000920E-02 0.  1.
        2   -1    0    0  501    0  0.00000000000E+00  0.00000000000E+00 -0.15453669520E+04  0.15453669520E+04  0.25500000920E-02 0. -1.
    10030    2    1    2    0    0  0.00000000000E+00  0.00000000000E+00 -0.96142776121E+03  0.21293061429E+04  0.18998950787E+04 0.  0.
        1    1    3    3  502    0 -0.32659768291E+03  0.39035409341E+03 -0.13796624166E+04  0.14705477716E+04  0.50400001928E-02 0. -1.
       -1    1    3    3    0  502  0.32659768291E+03 -0.39035409341E+03  0.41823465538E+03  0.65875837127E+03  0.50400001928E-02 0.  1.
</event>
<event>
 5   0  0.6870370E-06  0.1898918E+04  0.7818609E-02  0.8655395E-01
       -2   -1    0    0    0  501  0.00000000000E+00  0.00000000000E+00  0.60522694375E+03  0.60522694376E+03  0.25500000920E-02 0.  1.
        2   -1    0    0  501    0  0.00000000000E+00  0.00000000000E+00 -0.14894785560E+04  0.14894785560E+04  0.25500000920E-02 0. -1.
    10030    2    1    2    0    0  0.00000000000E+00  0.00000000000E+00 -0.88425161223E+03  0.20947054997E+04  0.18989181701E+04 0.  0.
        1    1    3    3  502    0 -0.54434878187E+03  0.77618382628E+03 -0.38485325664E+03  0.10231759173E+04  0.50400001928E-02 0.  1.
       -1    1    3    3    0  502  0.54434878187E+03 -0.77618382628E+03 -0.49939835559E+03  0.10715295825E+04  0.50400001928E-02 0. -1.
</event>
<event>
 5   0  0.6862201E-06  0.1900537E+04  0.7818609E-02  0.8654589E-01
        2   -1    0    0  501    0  0.00000000000E+00  0.00000000000E+00  0.22593625039E+04  0.22593625039E+04  0.25500000920E-02 0.  1.
       -2   -1    0    0    0  501  0.00000000000E+00  0.00000000000E+00 -0.39967483214E+03  0.39967483215E+03  0.25500000920E-02 0. -1.
    10030    2    1    2    0    0  0.00000000000E+00  0.00000000000E+00  0.18596876718E+04  0.26590373361E+04  0.19005371130E+04 0.  0.
        3    1    3    3  502    0 -0.75820655020E+03 -0.44356125384E+03  0.14369787987E+04  0.16842006522E+04  0.10100000352E+00 0.  1.
       -3    1    3    3    0  502  0.75820655020E+03  0.44356125384E+03  0.42270887308E+03  0.97483668389E+03  0.10100000352E+00 0. -1.
</event>
<event>
 5   0  0.6870370E-06  0.1899967E+04  0.7818609E-02  0.8654873E-01
       -2   -1    0    0    0  501  0.00000000000E+00  0.00000000000E+00  0.55208467470E+03  0.55208467471E+03  0.25500000920E-02 0. -1.
        2   -1    0    0  501    0  0.00000000000E+00  0.00000000000E+00 -0.16346554601E+04  0.16346554601E+04  0.25500000920E-02 0.  1.
    10030    2    1    2    0    0  0.00000000000E+00  0.00000000000E+00 -0.10825707854E+04  0.21867401348E+04  0.18999665554E+04 0.  0.
        1    1    3    3  502    0 -0.37771695628E+03 -0.36958542763E+03 -0.14498725498E+04  0.15431765609E+04  0.50400001928E-02 0.  1.
       -1    1    3    3    0  502  0.37771695628E+03  0.36958542763E+03  0.36730176448E+03  0.64356357385E+03  0.50400001928E-02 0. -1.
</event>
<event>
 5   0  0.6862201E-06  0.1899601E+04  0.7818609E-02  0.8655055E-01
        2   -1    0    0  501    0  0.00000000000E+00  0.00000000000E+00  0.16334223308E+04  0.16334223308E+04  0.25500000920E-02 0. -1.
       -2   -1    0    0    0  501  0.00000000000E+00  0.00000000000E+00 -0.55228879448E+03  0.55228879449E+03  0.25500000920E-02 0.  1.
    10030    2    1    2    0    0  0.00000000000E+00  0.00000000000E+00  0.10811335363E+04  0.21857111253E+04  0.18996008528E+04 0.  0.
        3    1    3    3  502    0  0.60402489029E+03 -0.35353232688E+03 -0.19824130323E+03  0.72741377410E+03  0.10100000352E+00 0.  1.
       -3    1    3    3    0  502 -0.60402489029E+03  0.35353232688E+03  0.12793748396E+04  0.14582973512E+04  0.10100000352E+00 0. -1.
</event>
<event>
 5   0  0.3398807E-06  0.1899771E+04  0.7818609E-02  0.8654970E-01
       -1   -1    0    0    0  501  0.00000000000E+00  0.00000000000E+00  0.78814728101E+03  0.78814728102E+03  0.50400001928E-02 0.  1.
        1   -1    0    0  501    0  0.00000000000E+00  0.00000000000E+00 -0.11448149341E+04  0.11448149341E+04  0.50400001928E-02 0. -1.
    10030    2    1    2    0    0  0.00000000000E+00  0.00000000000E+00 -0.35666765312E+03  0.19329622152E+04  0.18997713311E+04 0.  0.
        1    1    3    3  502    0 -0.16654293125E+03  0.13441483548E+03 -0.11199639958E+04  0.11402294716E+04  0.50400001928E-02 0. -1.
       -1    1    3    3    0  502  0.16654293125E+03 -0.13441483548E+03  0.76329634269E+03  0.79273274357E+03  0.50400001928E-02 0.  1.
</event>
<event>
 5   0  0.3236653E-06  0.1904073E+04  0.7818609E-02  0.8652832E-01
       -1   -1    0    0    0  501  0.00000000000E+00  0.00000000000E+00  0.61353011450E+03  0.61353011452E+03  0.50400001928E-02 0.  1.
        1   -1    0    0  501    0  0.00000000000E+00  0.00000000000E+00 -0.14773086987E+04  0.14773086987E+04  0.50400001928E-02 0. -1.
    10030    2    1    2    0    0  0.00000000000E+00  0.00000000000E+00 -0.86377858417E+03  0.20908388132E+04  0.19040728716E+04 0.  0.
        3    1    3    3  502    0 -0.49079460913E+02 -0.17530098814E+03 -0.14580191863E+04  0.14693397115E+04  0.10100000352E+00 0. -1.
       -3    1    3    3    0  502  0.49079460913E+02  0.17530098814E+03  0.59424060216E+03  0.62149910168E+03  0.10100000352E+00 0.  1.
</event>
<event>
 5   0  0.6870370E-06  0.1900787E+04  0.7818609E-02  0.8654465E-01
       -2   -1    0    0    0  501  0.00000000000E+00  0.00000000000E+00  0.38878944541E+03  0.38878944542E+03  0.25500000920E-02 0.  1.
        2   -1    0    0  501    0  0.00000000000E+00  0.00000000000E+00 -0.23232306157E+04  0.23232306157E+04  0.25500000920E-02 0. -1.
    10030    2    1    2    0    0  0.00000000000E+00  0.00000000000E+00 -0.19344411703E+04  0.27120200611E+04  0.19007867241E+04 0.  0.
        1    1    3    3  502    0  0.59644196177E+03 -0.37527926522E+02  0.87151934920E+02  0.60394272809E+03  0.50400001928E-02 0.  1.
       -1    1    3    3    0  502 -0.59644196177E+03  0.37527926522E+02 -0.20215931052E+04  0.21080773330E+04  0.50400001928E-02 0. -1.
</event>
<event>
 5   0  0.3495279E-06  0.1891498E+04  0.7818609E-02  0.8659100E-01
        1   -1    0    0  501    0  0.00000000000E+00  0.00000000000E+00  0.10384284334E+04  0.10384284334E+04  0.50400001928E-02 0.  1.
       -1   -1    0    0    0  501  0.00000000000E+00  0.00000000000E+00 -0.86134152266E+03  0.86134152268E+03  0.50400001928E-02 0. -1.
    10030    2    1    2    0    0  0.00000000000E+00  0.00000000000E+00  0.17708691076E+03  0.18997699561E+04  0.18914983775E+04 0.  0.
        2    1    3    3  502    0 -0.27187569468E+03  0.90169088897E+03  0.16859434532E+01  0.94178856174E+03  0.25500000920E-02 0. -1.
       -2    1    3    3    0  502  0.27187569468E+03 -0.90169088897E+03  0.17540096730E+03  0.95798139437E+03  0.25500000920E-02 0.  1.
</event>
<event>
 5   0  0.6870370E-06  0.1895900E+04  0.7818609E-02  0.8656900E-01
       -2   -1    0    0    0  501  0.00000000000E+00  0.00000000000E+00  0.10038032361E+04  0.10038032361E+04  0.25500000920E-02 0. -1.
        2   -1    0    0  501    0  0.00000000000E+00  0.00000000000E+00 -0.89520483727E+03  0.89520483727E+03  0.25500000920E-02 0.  1.
    10030    2    1    2    0    0  0.00000000000E+00  0.00000000000E+00  0.10859839884E+03  0.18990080734E+04  0.18959003272E+04 0.  0.
        1    1    3    3  502    0  0.54446448824E+03 -0.38411314029E+03  0.72966331369E+03  0.98812602175E+03  0.50400001928E-02 0. -1.
       -1    1    3    3    0  502 -0.54446448824E+03  0.38411314029E+03 -0.62106491485E+03  0.91088205163E+03  0.50400001928E-02 0.  1.
</event>
<event>
 5   0  0.3495279E-06  0.1900465E+04  0.7818609E-02  0.8654625E-01
        1   -1    0    0  501    0  0.00000000000E+00  0.00000000000E+00  0.10908669701E+04  0.10908669701E+04  0.50400001928E-02 0.  1.
       -1   -1    0    0    0  501  0.00000000000E+00  0.00000000000E+00 -0.82772867916E+03  0.82772867918E+03  0.50400001928E-02 0. -1.
    10030    2    1    2    0    0  0.00000000000E+00  0.00000000000E+00  0.26313829089E+03  0.19185956492E+04  0.19004650760E+04 0.  0.
        2    1    3    3  502    0  0.25353488940E+03 -0.17708226463E+03  0.10386417750E+04  0.10837042057E+04  0.25500000920E-02 0.  1.
       -2    1    3    3    0  502 -0.25353488940E+03  0.17708226463E+03 -0.77550348414E+03  0.83489144355E+03  0.25500000920E-02 0. -1.
</event>
<event>
 5   0  0.7577180E-06  0.1899826E+04  0.7818609E-02  0.8654943E-01
       -2   -1    0    0    0  501  0.00000000000E+00  0.00000000000E+00  0.66934022645E+03  0.66934022646E+03  0.25500000920E-02 0.  1.
        2   -1    0    0  501    0  0.00000000000E+00  0.00000000000E+00 -0.13480957254E+04  0.13480957254E+04  0.25500000920E-02 0. -1.
    10030    2    1    2    0    0  0.00000000000E+00  0.00000000000E+00 -0.67875549898E+03  0.20174359519E+04  0.18998259901E+04 0.  0.
        5    1    3    3  502    0  0.54787707985E+03  0.23682156611E+03  0.44532587772E+03  0.74470865187E+03  0.46999998093E+01 0.  1.
       -5    1    3    3    0  502 -0.54787707985E+03 -0.23682156611E+03 -0.11240813767E+04  0.12727273000E+04  0.46999998093E+01 0. -1.
</event>
<event>
 5   0  0.3211263E-06  0.1897218E+04  0.7818609E-02  0.8656243E-01
       -1   -1    0    0    0  501  0.00000000000E+00  0.00000000000E+00  0.56148264807E+03  0.56148264809E+03  0.50400001928E-02 0.  1.
        1   -1    0    0  501    0  0.00000000000E+00  0.00000000000E+00 -0.16026474887E+04  0.16026474887E+04  0.50400001928E-02 0. -1.
    10030    2    1    2    0    0  0.00000000000E+00  0.00000000000E+00 -0.10411648406E+04  0.21641301368E+04  0.18972177059E+04 0.  0.
        5    1    3    3  502    0  0.30001013380E+03 -0.28661262442E+03  0.45247294990E+03  0.61392730615E+03  0.46999998093E+01 0.  1.
       -5    1    3    3    0  502 -0.30001013380E+03  0.28661262442E+03 -0.14936377905E+04  0.15502028306E+04  0.46999998093E+01 0. -1.
</event>
<event>
 5   0  0.2527750E-06  0.1898944E+04  0.7818609E-02  0.8655382E-01
       -3   -1    0    0    0  501  0.00000000000E+00  0.00000000000E+00  0.99232983515E+03  0.99232984029E+03  0.10100000352E+00 0.  1.
        3   -1    0    0  501    0  0.00000000000E+00  0.00000000000E+00 -0.90846523595E+03  0.90846524156E+03  0.10100000352E+00 0. -1.
    10030    2    1    2    0    0  0.00000000000E+00  0.00000000000E+00  0.83864599202E+02  0.19007950819E+04  0.18989440940E+04 0.  0.
        5    1    3    3  502    0 -0.18555061293E+03 -0.54948760410E+03  0.79440265388E+03  0.98359713476E+03  0.46999998093E+01 0.  1.
       -5    1    3    3    0  502  0.18555061293E+03  0.54948760410E+03 -0.71053805467E+03  0.91719794710E+03  0.46999998093E+01 0. -1.
</event>
<event>
 5   0  0.3398807E-06  0.1901537E+04  0.7818609E-02  0.8654092E-01
        1   -1    0    0  501    0  0.00000000000E+00  0.00000000000E+00  0.17083198296E+04  0.17083198296E+04  0.50400001928E-02 0.  1.
       -1   -1    0    0    0  501  0.00000000000E+00  0.00000000000E+00 -0.52915209817E+03  0.52915209819E+03  0.50400001928E-02 0. -1.
    10030    2    1    2    0    0  0.00000000000E+00  0.00000000000E+00  0.11791677314E+04  0.22374719278E+04  0.19015372962E+04 0.  0.
        1    1    3    3  502    0  0.19905476502E+03  0.23783625972E+03 -0.46795705581E+03  0.56140243322E+03  0.50400001928E-02 0. -1.
       -1    1    3    3    0  502 -0.19905476502E+03 -0.23783625972E+03  0.16471247873E+04  0.16760694946E+04  0.50400001928E-02 0.  1.
</event>
<event>
 5   0  0.3236653E-06  0.1900409E+04  0.7818609E-02  0.8654653E-01
       -1   -1    0    0    0  501  0.00000000000E+00  0.00000000000E+00  0.46037451130E+03  0.46037451133E+03  0.50400001928E-02 0.  1.
        1   -1    0    0  501    0  0.00000000000E+00  0.00000000000E+00 -0.19612044384E+04  0.19612044384E+04  0.50400001928E-02 0. -1.
    10030    2    1    2    0    0  0.00000000000E+00  0.00000000000E+00 -0.15008299271E+04  0.24215789497E+04  0.19004089401E+04 0.  0.
        3    1    3    3  502    0 -0.47141291865E+02 -0.51373583157E+03  0.26637961186E+03  0.58060736635E+03  0.10100000352E+00 0.  1.
       -3    1    3    3    0  502  0.47141291865E+02  0.51373583157E+03 -0.17672095389E+04  0.18409715833E+04  0.10100000352E+00 0. -1.
</event>
<event>
 5   0  0.3236653E-06  0.1900780E+04  0.7818609E-02  0.8654468E-01
       -1   -1    0    0    0  501  0.00000000000E+00  0.00000000000E+00  0.78467361183E+03  0.78467361185E+03  0.50400001928E-02 0. -1.
        1   -1    0    0  501    0  0.00000000000E+00  0.00000000000E+00 -0.11511039559E+04  0.11511039559E+04  0.50400001928E-02 0.  1.
    10030    2    1    2    0    0  0.00000000000E+00  0.00000000000E+00 -0.36643034408E+03  0.19357775678E+04  0.19007797334E+04 0.  0.
        3    1    3    3  502    0  0.45626254520E+03 -0.55923631467E+03 -0.81292031243E+03  0.10870879497E+04  0.10100000352E+00 0.  1.
       -3    1    3    3    0  502 -0.45626254520E+03  0.55923631467E+03  0.44648996835E+03  0.84868961808E+03  0.10100000352E+00 0. -1.
</event>
<event>
 5   0  0.6870370E-06  0.1899457E+04  0.7818609E-02  0.8655127E-01
       -2   -1    0    0    0  501  0.00000000000E+00  0.00000000000E+00  0.39288267276E+03  0.39288267277E+03  0.25500000920E-02 0.  1.
        2   -1    0    0  501    0  0.00000000000E+00  0.00000000000E+00 -0.22958113702E+04  0.22958113702E+04  0.25500000920E-02 0. -1.
    10030    2    1    2    0    0  0.00000000000E+00  0.00000000000E+00 -0.19029286975E+04  0.26886940430E+04  0.18994572986E+04 0.  0.
        1    1    3    3  502    0 -0.59677213263E+03  0.39303459711E+03 -0.65928072607E+02  0.71760691439E+03  0.50400001928E-02 0.  1.
       -1    1    3    3    0  502  0.59677213263E+03 -0.39303459711E+03 -0.18370006249E+04  0.19710871286E+04  0.50400001928E-02 0. -1.
</event>
<event>
 5   0  0.3379108E-06  0.1900754E+04  0.7818609E-02  0.8654481E-01
        1   -1    0    0  501    0  0.00000000000E+00  0.00000000000E+00  0.11749386192E+04  0.11749386193E+04  0.50400001928E-02 0.  1.
       -1   -1    0    0    0  501  0.00000000000E+00  0.00000000000E+00 -0.76873513144E+03  0.76873513146E+03  0.50400001928E-02 0. -1.
    10030    2    1    2    0    0  0.00000000000E+00  0.00000000000E+00  0.40620348780E+03  0.19436737507E+04  0.19007541597E+04 0.  0.
        4    1    3    3  502    0  0.81184142064E+03  0.22136052247E+03  0.65480916464E+03  0.10662380729E+04  0.12699999809E+01 0.  1.
       -4    1    3    3    0  502 -0.81184142064E+03 -0.22136052247E+03 -0.24860567684E+03  0.87743567778E+03  0.12699999809E+01 0. -1.
</event>
<event>
 5   0  0.3398807E-06  0.1899593E+04  0.7818609E-02  0.8655059E-01
       -1   -1    0    0    0  501  0.00000000000E+00  0.00000000000E+00  0.16661510352E+04  0.16661510352E+04  0.50400001928E-02 0.  1.
        1   -1    0    0  501    0  0.00000000000E+00  0.00000000000E+00 -0.54143557889E+03  0.54143557891E+03  0.50400001928E-02 0. -1.
    10030    2    1    2    0    0  0.00000000000E+00  0.00000000000E+00  0.11247154563E+04  0.22075866141E+04  0.18995930620E+04 0.  0.
        1    1    3    3  502    0  0.29224191168E+03  0.32937717745E+02 -0.48718945764E+03  0.56907275093E+03  0.50400001928E-02 0. -1.
       -1    1    3    3    0  502 -0.29224191168E+03 -0.32937717745E+02  0.16119049139E+04  0.16385138632E+04  0.50400001928E-02 0.  1.
</event>
<event>
 5   0  0.6984466E-06  0.1899393E+04  0.7818609E-02  0.8655159E-01
        2   -1    0    0  501    0  0.00000000000E+00  0.00000000000E+00  0.15898962545E+04  0.15898962545E+04  0.25500000920E-02 0. -1.
       -2   -1    0    0    0  501  0.00000000000E+00  0.00000000000E+00 -0.56728430506E+03  0.56728430507E+03  0.25500000920E-02 0.  1.
    10030    2    1    2    0    0  0.00000000000E+00  0.00000000000E+00  0.10226119494E+04  0.21571805595E+04  0.18993927365E+04 0.  0.
        2    1    3    3  502    0  0.46233162592E+03  0.80967491205E+03  0.30624870457E+03  0.98138283284E+03  0.25500000920E-02 0.  1.
       -2    1    3    3    0  502 -0.46233162592E+03 -0.80967491205E+03  0.71636324483E+03  0.11757977267E+04  0.25500000920E-02 0. -1.
</event>
<event>
 5   0  0.3236653E-06  0.1899423E+04  0.7818609E-02  0.8655144E-01
       -1   -1    0    0    0  501  0.00000000000E+00  0.00000000000E+00  0.46187899516E+03  0.46187899519E+03  0.50400001928E-02 0. -1.
        1   -1    0    0  501    0  0.00000000000E+00  0.00000000000E+00 -0.19527881864E+04  0.19527881865E+04  0.50400001928E-02 0.  1.
    10030    2    1    2    0    0  0.00000000000E+00  0.00000000000E+00 -0.14909091913E+04  0.24146671816E+04  0.18994229075E+04 0.  0.
        3    1    3    3  502    0  0.48411458607E+03 -0.81519406766E+03 -0.81558797095E+03  0.12506366575E+04  0.10100000352E+00 0. -1.
       -3    1    3    3    0  502 -0.48411458607E+03  0.81519406766E+03 -0.67532122034E+03  0.11640305242E+04  0.10100000352E+00 0.  1.
</event>
<event>
 5   0  0.6862201E-06  0.1900078E+04  0.7818609E-02  0.8654818E-01
        2   -1    0    0  501    0  0.00000000000E+00  0.00000000000E+00  0.15362296540E+04  0.15362296540E+04  0.25500000920E-02 0. -1.
       -2   -1    0    0    0  501  0.00000000000E+00  0.00000000000E+00 -0.58752528167E+03  0.58752528168E+03  0.25500000920E-02 0.  1.
    10030    2    1    2    0    0  0.00000000000E+00  0.00000000000E+00  0.94870437230E+03  0.21237549357E+04  0.19000776407E+04 0.  0.
        3    1    3    3  502    0 -0.82722616385E+03  0.23526388866E+03  0.23200807238E+02  0.86034325192E+03  0.10100000352E+00 0.  1.
       -3    1    3    3    0  502  0.82722616385E+03 -0.23526388866E+03  0.92550356506E+03  0.12634116837E+04  0.10100000352E+00 0. -1.
</event>
<event>
 5   0  0.3398807E-06  0.1899101E+04  0.7818609E-02  0.8655304E-01
        1   -1    0    0  501    0  0.00000000000E+00  0.00000000000E+00  0.25064859799E+04  0.25064859799E+04  0.50400001928E-02 0. -1.
       -1   -1    0    0    0  501  0.00000000000E+00  0.00000000000E+00 -0.35972502927E+03  0.35972502930E+03  0.50400001928E-02 0.  1.
    10030    2    1    2    0    0  0.00000000000E+00  0.00000000000E+00  0.21467609506E+04  0.28662110092E+04  0.18991005687E+04 0.  0.
        1    1    3    3  502    0  0.12018782289E+03  0.63688741566E+03  0.21207313143E+04  0.22175599204E+04  0.50400001928E-02 0. -1.
       -1    1    3    3    0  502 -0.12018782289E+03 -0.63688741566E+03  0.26029636296E+02  0.64865108879E+03  0.50400001928E-02 0.  1.
</event>
<event>
 5   0  0.6984466E-06  0.1900197E+04  0.7818609E-02  0.8654758E-01
        2   -1    0    0  501    0  0.00000000000E+00  0.00000000000E+00  0.11466436579E+04  0.11466436579E+04  0.25500000920E-02 0. -1.
       -2   -1    0    0    0  501  0.00000000000E+00  0.00000000000E+00 -0.78724301198E+03  0.78724301198E+03  0.25500000920E-02 0.  1.
    10030    2    1    2    0    0  0.00000000000E+00  0.00000000000E+00  0.35940064597E+03  0.19338866699E+04  0.19001970497E+04 0.  0.
        2    1    3    3  502    0  0.23210338563E+03 -0.18870355439E+03  0.10974679179E+04  0.11375046567E+04  0.25500000920E-02 0. -1.
       -2    1    3    3    0  502 -0.23210338563E+03  0.18870355439E+03 -0.73806727197E+03  0.79638201325E+03  0.25500000920E-02 0.  1.
</event>
<event>
 5   0  0.3495279E-06  0.1899489E+04  0.7818609E-02  0.8655111E-01
        1   -1    0    0  501    0  0.00000000000E+00  0.00000000000E+00  0.22889889479E+04  0.22889889479E+04  0.50400001928E-02 0. -1.
       -1   -1    0    0    0  501  0.00000000000E+00  0.00000000000E+00 -0.39406663327E+03  0.39406663330E+03  0.50400001928E-02 0.  1.
    10030    2    1    2    0    0  0.00000000000E+00  0.00000000000E+00  0.18949223146E+04  0.26830555812E+04  0.18994885294E+04 0.  0.
        2    1    3    3  502    0  0.58051487360E+03 -0.51223640291E+03  0.17245118543E+04  0.18903239898E+04  0.25500000920E-02 0. -1.
       -2    1    3    3    0  502 -0.58051487360E+03  0.51223640291E+03  0.17041046031E+03  0.79273159135E+03  0.25500000920E-02 0.  1.
</event>
<event>
 5   0  0.6862201E-06  0.1902338E+04  0.7818609E-02  0.8653693E-01
        2   -1    0    0  501    0  0.00000000000E+00  0.00000000000E+00  0.86179428919E+03  0.86179428919E+03  0.25500000920E-02 0.  1.
       -2   -1    0    0    0  501  0.00000000000E+00  0.00000000000E+00 -0.10498127064E+04  0.10498127064E+04  0.25500000920E-02 0. -1.
    10030    2    1    2    0    0  0.00000000000E+00  0.00000000000E+00 -0.18801841722E+03  0.19116069956E+04  0.19023381351E+04 0.  0.
        3    1    3    3  502    0  0.75418393022E+03  0.57953319461E+03 -0.85574225456E+02  0.95497386483E+03  0.10100000352E+00 0. -1.
       -3    1    3    3    0  502 -0.75418393022E+03 -0.57953319461E+03 -0.10244419176E+03  0.95663313077E+03  0.10100000352E+00 0.  1.
</event>
<event>
 5   0  0.7577180E-06  0.1900222E+04  0.7818609E-02  0.8654746E-01
        2   -1    0    0  501    0  0.00000000000E+00  0.00000000000E+00  0.17086451505E+04  0.17086451505E+04  0.25500000920E-02 0. -1.
       -2   -1    0    0    0  501  0.00000000000E+00  0.00000000000E+00 -0.52831965666E+03  0.52831965667E+03  0.25500000920E-02 0.  1.
    10030    2    1    2    0    0  0.00000000000E+00  0.00000000000E+00  0.11803254938E+04  0.22369648071E+04  0.19002219021E+04 0.  0.
        5    1    3    3  502    0 -0.77445948210E+03 -0.16740855471E+03 -0.27033021360E+02  0.79282153594E+03  0.46999998093E+01 0.  1.
       -5    1    3    3    0  502  0.77445948210E+03  0.16740855471E+03  0.12073585152E+04  0.14441432712E+04  0.46999998093E+01 0. -1.
</event>
<event>
 5   0  0.3495279E-06  0.1900339E+04  0.7818609E-02  0.8654688E-01
        1   -1    0    0  501    0  0.00000000000E+00  0.00000000000E+00  0.98418275414E+03  0.98418275416E+03  0.50400001928E-02 0.  1.
       -1   -1    0    0    0  501  0.00000000000E+00  0.00000000000E+00 -0.91733140283E+03  0.91733140285E+03  0.50400001928E-02 0. -1.
    10030    2    1    2    0    0  0.00000000000E+00  0.00000000000E+00  0.66851351309E+02  0.19015141570E+04  0.19003386504E+04 0.  0.
        2    1    3    3  502    0 -0.33969874312E+03 -0.76882506994E+03 -0.40994492961E+03  0.93516954055E+03  0.25500000920E-02 0. -1.
       -2    1    3    3    0  502  0.33969874312E+03  0.76882506994E+03  0.47679628092E+03  0.96634461645E+03  0.25500000920E-02 0.  1.
</event>
<event>
 5   0  0.6862201E-06  0.1897145E+04  0.7818609E-02  0.8656279E-01
       -2   -1    0    0    0  501  0.00000000000E+00  0.00000000000E+00  0.57200651752E+03  0.57200651753E+03  0.25500000920E-02 0.  1.
        2   -1    0    0  501    0  0.00000000000E+00  0.00000000000E+00 -0.15730409564E+04  0.15730409564E+04  0.25500000920E-02 0. -1.
    10030    2    1    2    0    0  0.00000000000E+00  0.00000000000E+00 -0.10010344389E+04  0.21450474739E+04  0.18971448858E+04 0.  0.
        3    1    3    3  502    0 -0.69308975170E+03 -0.64738181429E+03 -0.52052249441E+03  0.10818596465E+04  0.10100000352E+00 0.  1.
       -3    1    3    3    0  502  0.69308975170E+03  0.64738181429E+03 -0.48051194446E+03  0.10631878274E+04  0.10100000352E+00 0. -1.
</event>
<event>
 5   0  0.6870370E-06  0.1899732E+04  0.7818609E-02  0.8654990E-01
       -2   -1    0    0    0  501  0.00000000000E+00  0.00000000000E+00  0.12539485465E+04  0.12539485465E+04  0.25500000920E-02 0. -1.
        2   -1    0    0  501    0  0.00000000000E+00  0.00000000000E+00 -0.71952354306E+03  0.71952354306E+03  0.25500000920E-02 0.  1.
    10030    2    1    2    0    0  0.00000000000E+00  0.00000000000E+00  0.53442500345E+03  0.19734720896E+04  0.18997320874E+04 0.  0.
        1    1    3    3  502    0  0.52125869771E+03  0.92891067564E+01  0.10920406380E+04  0.12101031661E+04  0.50400001928E-02 0. -1.
       -1    1    3    3    0  502 -0.52125869771E+03 -0.92891067564E+01 -0.55761563456E+03  0.76336892351E+03  0.50400001928E-02 0.  1.
</event>
<event>
 5   0  0.3211263E-06  0.1899680E+04  0.7818609E-02  0.8655015E-01
        1   -1    0    0  501    0  0.00000000000E+00  0.00000000000E+00  0.65271166190E+03  0.65271166192E+03  0.50400001928E-02 0. -1.
       -1   -1    0    0    0  501  0.00000000000E+00  0.00000000000E+00 -0.13822282078E+04  0.13822282078E+04  0.50400001928E-02 0.  1.
    10030    2    1    2    0    0  0.00000000000E+00  0.00000000000E+00 -0.72951654590E+03  0.20349398697E+04  0.18996804686E+04 0.  0.
        5    1    3    3  502    0  0.87390472204E+03  0.26764506327E+03 -0.64168197263E+03  0.11167458024E+04  0.46999998093E+01 0.  1.
       -5    1    3    3    0  502 -0.87390472204E+03 -0.26764506327E+03 -0.87834573268E+02  0.91819406737E+03  0.46999998093E+01 0. -1.
</event>
<event>
 5   0  0.6862201E-06  0.1899646E+04  0.7818609E-02  0.8655033E-01
       -2   -1    0    0    0  501  0.00000000000E+00  0.00000000000E+00  0.83898025925E+03  0.83898025926E+03  0.25500000920E-02 0. -1.
        2   -1    0    0  501    0  0.00000000000E+00  0.00000000000E+00 -0.10753093971E+04  0.10753093971E+04  0.25500000920E-02 0.  1.
    10030    2    1    2    0    0  0.00000000000E+00  0.00000000000E+00 -0.23632913781E+03  0.19142896563E+04  0.18996456056E+04 0.  0.
        3    1    3    3  502    0 -0.61310230857E+03 -0.49727525643E+03  0.41409863721E+03  0.89143413272E+03  0.10100000352E+00 0. -1.
       -3    1    3    3    0  502  0.61310230857E+03  0.49727525643E+03 -0.65042777502E+03  0.10228555236E+04  0.10100000352E+00 0.  1.
</event>
<event>
 5   0  0.3379108E-06  0.1899420E+04  0.7818609E-02  0.8655145E-01
       -1   -1    0    0    0  501  0.00000000000E+00  0.00000000000E+00  0.68069827080E+03  0.68069827082E+03  0.50400001928E-02 0.  1.
        1   -1    0    0  501    0  0.00000000000E+00  0.00000000000E+00 -0.13250348662E+04  0.13250348662E+04  0.50400001928E-02 0. -1.
    10030    2    1    2    0    0  0.00000000000E+00  0.00000000000E+00 -0.64433659544E+03  0.20057331371E+04  0.18994198506E+04 0.  0.
        4    1    3    3  502    0  0.65878565233E+03  0.68016056933E+03 -0.24507230342E+03  0.97809967927E+03  0.12699999809E+01 0. -1.
       -4    1    3    3    0  502 -0.65878565233E+03 -0.68016056933E+03 -0.39926429202E+03  0.10276334578E+04  0.12699999809E+01 0.  1.
</event>
<event>
 5   0  0.3398807E-06  0.1894597E+04  0.7818609E-02  0.8657550E-01
        1   -1    0    0  501    0  0.00000000000E+00  0.00000000000E+00  0.41903581458E+03  0.41903581461E+03  0.50400001928E-02 0.  1.
       -1   -1    0    0    0  501  0.00000000000E+00  0.00000000000E+00 -0.21415224329E+04  0.21415224330E+04  0.50400001928E-02 0. -1.
    10030    2    1    2    0    0  0.00000000000E+00  0.00000000000E+00 -0.17224866184E+04  0.25605582476E+04  0.18945971574E+04 0.  0.
        1    1    3    3  502    0  0.15791870595E+03 -0.49755528614E+03 -0.19295952884E+04  0.19989591186E+04  0.50400001928E-02 0. -1.
       -1    1    3    3    0  502 -0.15791870595E+03  0.49755528614E+03  0.20710867008E+03  0.56159912901E+03  0.50400001928E-02 0.  1.
</event>
<event>
 5   0  0.3236653E-06  0.1900091E+04  0.7818609E-02  0.8654811E-01
        1   -1    0    0  501    0  0.00000000000E+00  0.00000000000E+00  0.60046465530E+03  0.60046465532E+03  0.50400001928E-02 0.  1.
       -1   -1    0    0    0  501  0.00000000000E+00  0.00000000000E+00 -0.15031467031E+04  0.15031467031E+04  0.50400001928E-02 0. -1.
    10030    2    1    2    0    0  0.00000000000E+00  0.00000000000E+00 -0.90268204779E+03  0.21036113584E+04  0.19000910157E+04 0.  0.
        3    1    3    3  502    0 -0.12523350786E+02 -0.15936006098E+03 -0.14881513551E+04  0.14967120395E+04  0.10100000352E+00 0. -1.
       -3    1    3    3    0  502  0.12523350786E+02  0.15936006098E+03  0.58546930728E+03  0.60689931893E+03  0.10100000352E+00 0.  1.
</event>
<event>
 5   0  0.7207648E-06  0.1900052E+04  0.7818609E-02  0.8654831E-01
       -2   -1    0    0    0  501  0.00000000000E+00  0.00000000000E+00  0.48797157748E+03  0.48797157749E+03  0.25500000920E-02 0.  1.
        2   -1    0    0  501    0  0.00000000000E+00  0.00000000000E+00 -0.18495936402E+04  0.18495936402E+04  0.25500000920E-02 0. -1.
    10030    2    1    2    0    0  0.00000000000E+00  0.00000000000E+00 -0.13616220627E+04  0.23375652177E+04  0.19000517112E+04 0.  0.
        4    1    3    3  502    0  0.34196431801E+02 -0.44164197298E+03  0.35314552423E+03  0.56650719539E+03  0.12699999809E+01 0.  1.
       -4    1    3    3    0  502 -0.34196431801E+02  0.44164197298E+03 -0.17147675870E+04  0.17710580223E+04  0.12699999809E+01 0. -1.
</event>
<event>
 5   0  0.7207648E-06  0.1899631E+04  0.7818609E-02  0.8655040E-01
       -2   -1    0    0    0  501  0.00000000000E+00  0.00000000000E+00  0.94827806718E+03  0.94827806719E+03  0.25500000920E-02 0. -1.
        2   -1    0    0  501    0  0.00000000000E+00  0.00000000000E+00 -0.95135499444E+03  0.95135499445E+03  0.25500000920E-02 0.  1.
    10030    2    1    2    0    0  0.00000000000E+00  0.00000000000E+00 -0.30769272604E+01  0.18996330616E+04  0.18996305697E+04 0.  0.
        4    1    3    3  502    0 -0.20457907917E+02 -0.48967994591E+03 -0.81513801112E+03  0.95113435723E+03  0.12699999809E+01 0.  1.
       -4    1    3    3    0  502  0.20457907917E+02  0.48967994591E+03  0.81206108386E+03  0.94849870440E+03  0.12699999809E+01 0. -1.
</event>
<event>
 5   0  0.3495279E-06  0.1900504E+04  0.7818609E-02  0.8654606E-01
       -1   -1    0    0    0  501  0.00000000000E+00  0.00000000000E+00  0.58993532440E+03  0.58993532442E+03  0.50400001928E-02 0.  1.
        1   -1    0    0  501    0  0.00000000000E+00  0.00000000000E+00 -0.15306405261E+04  0.15306405261E+04  0.50400001928E-02 0. -1.
    10030    2    1    2    0    0  0.00000000000E+00  0.00000000000E+00 -0.94070520174E+03  0.21205758506E+04  0.19005040546E+04 0.  0.
        2    1    3    3  502    0  0.20652853921E+02  0.55448739500E+03  0.39040043719E+03  0.67845067098E+03  0.25500000920E-02 0.  1.
       -2    1    3    3    0  502 -0.20652853921E+02 -0.55448739500E+03 -0.13311056389E+04  0.14421251796E+04  0.25500000920E-02 0. -1.
</event>
<event>
 5   0  0.3236653E-06  0.1902428E+04  0.7818609E-02  0.8653649E-01
        1   -1    0    0  501    0  0.00000000000E+00  0.00000000000E+00  0.11840900024E+04  0.11840900024E+04  0.50400001928E-02 0. -1.
       -1   -1    0    0    0  501  0.00000000000E+00  0.00000000000E+00 -0.76413754312E+03  0.76413754314E+03  0.50400001928E-02 0.  1.
    10030    2    1    2    0    0  0.00000000000E+00  0.00000000000E+00  0.41995245924E+03  0.19482275455E+04  0.19024275285E+04 0.  0.
        3    1    3    3  502    0 -0.59117875777E+03 -0.62657923524E+03  0.62306528570E+03  0.10631576657E+04  0.10100000352E+00 0. -1.
       -3    1    3    3    0  502  0.59117875777E+03  0.62657923524E+03 -0.20311282646E+03  0.88506987981E+03  0.10100000352E+00 0.  1.
</event>
<event>
 5   0  0.3211263E-06  0.1899808E+04  0.7818609E-02  0.8654952E-01
        1   -1    0    0  501    0  0.00000000000E+00  0.00000000000E+00  0.82102681552E+03  0.82102681553E+03  0.50400001928E-02 0. -1.
       -1   -1    0    0    0  501  0.00000000000E+00  0.00000000000E+00 -0.10990110690E+04  0.10990110690E+04  0.50400001928E-02 0.  1.
    10030    2    1    2    0    0  0.00000000000E+00  0.00000000000E+00 -0.27798425345E+03  0.19200378845E+04  0.18998079463E+04 0.  0.
        5    1    3    3  502    0 -0.54780794726E+03 -0.32349205221E+02 -0.92259043988E+03  0.10734687829E+04  0.46999998093E+01 0.  1.
       -5    1    3    3    0  502  0.54780794726E+03  0.32349205221E+02  0.64460618643E+03  0.84656910158E+03  0.46999998093E+01 0. -1.
</event>
<event>
 5   0  0.6984466E-06  0.1900134E+04  0.7818609E-02  0.8654790E-01
       -2   -1    0    0    0  501  0.00000000000E+00  0.00000000000E+00  0.34951468134E+03  0.34951468135E+03  0.25500000920E-02 0. -1.
        2   -1    0    0  501    0  0.00000000000E+00  0.00000000000E+00 -0.25825150871E+04  0.25825150871E+04  0.25500000920E-02 0.  1.
    10030    2    1    2    0    0  0.00000000000E+00  0.00000000000E+00 -0.22330004058E+04  0.29320297685E+04  0.19001336140E+04 0.  0.
        2    1    3    3  502    0 -0.66649372485E+02 -0.43088538878E+03 -0.24190176537E+04  0.24579973080E+04  0.25500000920E-02 0.  1.
       -2    1    3    3    0  502  0.66649372485E+02  0.43088538878E+03  0.18601724789E+03  0.47403246053E+03  0.25500000920E-02 0. -1.
</event>
<event>
 5   0  0.6862201E-06  0.1900056E+04  0.7818609E-02  0.8654828E-01
        2   -1    0    0  501    0  0.00000000000E+00  0.00000000000E+00  0.13047962544E+04  0.13047962544E+04  0.25500000920E-02 0.  1.
       -2   -1    0    0    0  501  0.00000000000E+00  0.00000000000E+00 -0.69171984068E+03  0.69171984069E+03  0.25500000920E-02 0. -1.
    10030    2    1    2    0    0  0.00000000000E+00  0.00000000000E+00  0.61307641376E+03  0.19965160951E+04  0.19000562700E+04 0.  0.
        3    1    3    3  502    0  0.15458688910E+03 -0.70694913468E+03  0.95331848710E+03  0.11968668821E+04  0.10100000352E+00 0.  1.
       -3    1    3    3    0  502 -0.15458688910E+03  0.70694913468E+03 -0.34024207335E+03  0.79964921308E+03  0.10100000352E+00 0. -1.
</event>
<event>
 5   0  0.6870370E-06  0.1900251E+04  0.7818609E-02  0.8654731E-01
       -2   -1    0    0    0  501  0.00000000000E+00  0.00000000000E+00  0.98185173854E+03  0.98185173855E+03  0.25500000920E-02 0. -1.
        2   -1    0    0  501    0  0.00000000000E+00  0.00000000000E+00 -0.91942442689E+03  0.91942442689E+03  0.25500000920E-02 0.  1.
    10030    2    1    2    0    0  0.00000000000E+00  0.00000000000E+00  0.62427311658E+02  0.19012761654E+04  0.19002510066E+04 0.  0.
        1    1    3    3  502    0  0.63543684632E+03 -0.26961629421E+03  0.68445602499E+03  0.97208692098E+03  0.50400001928E-02 0. -1.
       -1    1    3    3    0  502 -0.63543684632E+03  0.26961629421E+03 -0.62202871334E+03  0.92918924446E+03  0.50400001928E-02 0.  1.
</event>
<event>
 5   0  0.6984466E-06  0.1900958E+04  0.7818609E-02  0.8654380E-01
        2   -1    0    0  501    0  0.00000000000E+00  0.00000000000E+00  0.15660185194E+04  0.15660185194E+04  0.25500000920E-02 0.  1.
       -2   -1    0    0    0  501  0.00000000000E+00  0.00000000000E+00 -0.57688366189E+03  0.57688366190E+03  0.25500000920E-02 0. -1.
    10030    2    1    2    0    0  0.00000000000E+00  0.00000000000E+00  0.98913485752E+03  0.21429021813E+04  0.19009581774E+04 0.  0.
        2    1    3    3  502    0 -0.84661954293E+03 -0.23777507027E+03  0.87952587142E+02  0.88376314254E+03  0.25500000920E-02 0.  1.
       -2    1    3    3    0  502  0.84661954293E+03  0.23777507027E+03  0.90118227038E+03  0.12591390388E+04  0.25500000920E-02 0. -1.
</event>
<event>
 5   0  0.6862201E-06  0.1899851E+04  0.7818609E-02  0.8654931E-01
       -2   -1    0    0    0  501  0.00000000000E+00  0.00000000000E+00  0.48558067674E+03  0.48558067674E+03  0.25500000920E-02 0. -1.
        2   -1    0    0  501    0  0.00000000000E+00  0.00000000000E+00 -0.18583072623E+04  0.18583072623E+04  0.25500000920E-02 0.  1.
    10030    2    1    2    0    0  0.00000000000E+00  0.00000000000E+00 -0.13727265856E+04  0.23438879391E+04  0.18998506236E+04 0.  0.
        3    1    3    3  502    0  0.84118478898E+03 -0.37005985645E+02 -0.14381047223E+03  0.85419128672E+03  0.10100000352E+00 0. -1.
       -3    1    3    3    0  502 -0.84118478898E+03  0.37005985645E+02 -0.12289161134E+04  0.14896966524E+04  0.10100000352E+00 0.  1.
</event>
<event>
 5   0  0.3236653E-06  0.1901940E+04  0.7818609E-02  0.8653891E-01
       -1   -1    0    0    0  501  0.00000000000E+00  0.00000000000E+00  0.10153578617E+04  0.10153578617E+04  0.50400001928E-02 0. -1.
        1   -1    0    0  501    0  0.00000000000E+00  0.00000000000E+00 -0.89066523374E+03  0.89066523375E+03  0.50400001928E-02 0.  1.
    10030    2    1    2    0    0  0.00000000000E+00  0.00000000000E+00  0.12469262800E+03  0.19060230955E+04  0.19019400067E+04 0.  0.
        3    1    3    3  502    0 -0.64774947940E+02  0.44389914206E+03 -0.77796539941E+03  0.89803809222E+03  0.10100000352E+00 0.  1.
       -3    1    3    3    0  502  0.64774947940E+02 -0.44389914206E+03  0.90265802741E+03  0.10079850033E+04  0.10100000352E+00 0. -1.
</event>
<event>
 5   0  0.7577180E-06  0.1899929E+04  0.7818609E-02  0.8654892E-01
        2   -1    0    0  501    0  0.00000000000E+00  0.00000000000E+00  0.14054450991E+04  0.14054450991E+04  0.25500000920E-02 0. -1.
       -2   -1    0    0    0  501  0.00000000000E+00  0.00000000000E+00 -0.64209745740E+03  0.64209745740E+03  0.25500000920E-02 0.  1.
    10030    2    1    2    0    0  0.00000000000E+00  0.00000000000E+00  0.76334764171E+03  0.20475425565E+04  0.18999291825E+04 0.  0.
        5    1    3    3  502    0  0.53395601599E+03  0.46456753401E+03 -0.30117840848E+03  0.76919603769E+03  0.46999998093E+01 0.  1.
       -5    1    3    3    0  502 -0.53395601599E+03 -0.46456753401E+03  0.10645260502E+04  0.12783465188E+04  0.46999998093E+01 0. -1.
</event>
<event>
 5   0  0.3211263E-06  0.1899994E+04  0.7818609E-02  0.8654859E-01
       -1   -1    0    0    0  501  0.00000000000E+00  0.00000000000E+00  0.55223254873E+03  0.55223254875E+03  0.50400001928E-02 0. -1.
        1   -1    0    0  501    0  0.00000000000E+00  0.00000000000E+00 -0.16342650558E+04  0.16342650558E+04  0.50400001928E-02 0.  1.
    10030    2    1    2    0    0  0.00000000000E+00  0.00000000000E+00 -0.10820325071E+04  0.21864976046E+04  0.18999940601E+04 0.  0.
        5    1    3    3  502    0  0.11804536880E+03 -0.29433614398E+03  0.48950723809E+03  0.58327343578E+03  0.46999998093E+01 0. -1.
       -5    1    3    3    0  502 -0.11804536880E+03  0.29433614398E+03 -0.15715397452E+04  0.16032241688E+04  0.46999998093E+01 0.  1.
</event>
<event>
 5   0  0.3236653E-06  0.1900108E+04  0.7818609E-02  0.8654803E-01
       -1   -1    0    0    0  501  0.00000000000E+00  0.00000000000E+00  0.10821406453E+04  0.10821406453E+04  0.50400001928E-02 0. -1.
        1   -1    0    0  501    0  0.00000000000E+00  0.00000000000E+00 -0.83408977284E+03  0.83408977285E+03  0.50400001928E-02 0.  1.
    10030    2    1    2    0    0  0.00000000000E+00  0.00000000000E+00  0.24805087247E+03  0.19162304182E+04  0.19001078338E+04 0.  0.
        3    1    3    3  502    0 -0.21803113161E+03 -0.91326183939E+03 -0.22179420359E+02  0.93918938373E+03  0.10100000352E+00 0.  1.
       -3    1    3    3    0  502  0.21803113161E+03  0.91326183939E+03  0.27023029283E+03  0.97704103445E+03  0.10100000352E+00 0. -1.
</event>
<event>
 5   0  0.6862201E-06  0.1900002E+04  0.7818609E-02  0.8654855E-01
       -2   -1    0    0    0  501  0.00000000000E+00  0.00000000000E+00  0.81304579852E+03  0.81304579852E+03  0.25500000920E-02 0.  1.
        2   -1    0    0  501    0  0.00000000000E+00  0.00000000000E+00 -0.11100259499E+04  0.11100259499E+04  0.25500000920E-02 0. -1.
    10030    2    1    2    0    0  0.00000000000E+00  0.00000000000E+00 -0.29698015137E+03  0.19230717484E+04  0.19000020366E+04 0.  0.
        3    1    3    3  502    0 -0.42364649702E+03  0.10771396546E+03 -0.10021904170E+04  0.10933728984E+04  0.10100000352E+00 0. -1.
       -3    1    3    3    0  502  0.42364649702E+03 -0.10771396546E+03  0.70521026562E+03  0.82969885003E+03  0.10100000352E+00 0.  1.
</event>
<event>
 5   0  0.3398807E-06  0.1900294E+04  0.7818609E-02  0.8654710E-01
        1   -1    0    0  501    0  0.00000000000E+00  0.00000000000E+00  0.61252073932E+03  0.61252073934E+03  0.50400001928E-02 0. -1.
       -1   -1    0    0    0  501  0.00000000000E+00  0.00000000000E+00 -0.14738762293E+04  0.14738762293E+04  0.50400001928E-02 0.  1.
    10030    2    1    2    0    0  0.00000000000E+00  0.00000000000E+00 -0.86135548995E+03  0.20863969686E+04  0.19002944589E+04 0.  0.
        1    1    3    3  502    0  0.29676619541E+03  0.31572709223E+03 -0.13590816401E+04  0.14264840258E+04  0.50400001928E-02 0.  1.
       -1    1    3    3    0  502 -0.29676619541E+03 -0.31572709223E+03  0.49772615013E+03  0.65991294279E+03  0.50400001928E-02 0. -1.
</event>
<event>
 5   0  0.3236653E-06  0.1909738E+04  0.7818609E-02  0.8650024E-01
       -1   -1    0    0    0  501  0.00000000000E+00  0.00000000000E+00  0.42225565661E+03  0.42225565664E+03  0.50400001928E-02 0.  1.
        1   -1    0    0  501    0  0.00000000000E+00  0.00000000000E+00 -0.21592948530E+04  0.21592948530E+04  0.50400001928E-02 0. -1.
    10030    2    1    2    0    0  0.00000000000E+00  0.00000000000E+00 -0.17370391964E+04  0.25815505096E+04  0.19097376427E+04 0.  0.
        3    1    3    3  502    0 -0.51432718837E+03  0.72521799108E+03 -0.39771698336E+03  0.97398788511E+03  0.10100000352E+00 0.  1.
       -3    1    3    3    0  502  0.51432718837E+03 -0.72521799108E+03 -0.13393222130E+04  0.16075626245E+04  0.10100000352E+00 0. -1.
</event>
<event>
 5   0  0.3379108E-06  0.1901404E+04  0.7818609E-02  0.8654158E-01
        1   -1    0    0  501    0  0.00000000000E+00  0.00000000000E+00  0.73855287910E+03  0.73855287912E+03  0.50400001928E-02 0.  1.
       -1   -1    0    0    0  501  0.00000000000E+00  0.00000000000E+00 -0.12237907348E+04  0.12237907348E+04  0.50400001928E-02 0. -1.
    10030    2    1    2    0    0  0.00000000000E+00  0.00000000000E+00 -0.48523785571E+03  0.19623436139E+04  0.19014038715E+04 0.  0.
        4    1    3    3  502    0 -0.21053393175E+03  0.60330587667E+03 -0.96911902450E+03  0.11608168735E+04  0.12699999809E+01 0. -1.
       -4    1    3    3    0  502  0.21053393175E+03 -0.60330587667E+03  0.48388116879E+03  0.80152674044E+03  0.12699999809E+01 0.  1.
</event>
<event>
 5   0  0.3211263E-06  0.1904200E+04  0.7818609E-02  0.8652769E-01
        1   -1    0    0  501    0  0.00000000000E+00  0.00000000000E+00  0.13013363255E+04  0.13013363255E+04  0.50400001928E-02 0. -1.
       -1   -1    0    0    0  501  0.00000000000E+00  0.00000000000E+00 -0.69658723200E+03  0.69658723202E+03  0.50400001928E-02 0.  1.
    10030    2    1    2    0    0  0.00000000000E+00  0.00000000000E+00  0.60474909349E+03  0.19979235575E+04  0.19041998518E+04 0.  0.
        5    1    3    3  502    0 -0.18508198128E+03  0.56546053380E+03  0.10822426747E+04  0.12350191302E+04  0.46999998093E+01 0. -1.
       -5    1    3    3    0  502  0.18508198128E+03 -0.56546053380E+03 -0.47749358121E+03  0.76290442729E+03  0.46999998093E+01 0.  1.
</event>
<event>
 5   0  0.7207648E-06  0.1897346E+04  0.7818609E-02  0.8656179E-01
        2   -1    0    0  501    0  0.00000000000E+00  0.00000000000E+00  0.11418202593E+04  0.11418202593E+04  0.25500000920E-02 0.  1.
       -2   -1    0    0    0  501  0.00000000000E+00  0.00000000000E+00 -0.78819809253E+03  0.78819809253E+03  0.25500000920E-02 0. -1.
    10030    2    1    2    0    0  0.00000000000E+00  0.00000000000E+00  0.35362216674E+03  0.19300183518E+04  0.18973460943E+04 0.  0.
        4    1    3    3  502    0  0.61304417747E+03  0.29047207892E+03 -0.49776894635E+03  0.84141115336E+03  0.12699999809E+01 0. -1.
       -4    1    3    3    0  502 -0.61304417747E+03 -0.29047207892E+03  0.85139111308E+03  0.10886071984E+04  0.12699999809E+01 0.  1.
</event>
<event>
 5   0  0.6870370E-06  0.1899318E+04  0.7818609E-02  0.8655196E-01
        2   -1    0    0  501    0  0.00000000000E+00  0.00000000000E+00  0.15932628702E+04  0.15932628702E+04  0.25500000920E-02 0. -1.
       -2   -1    0    0    0  501  0.00000000000E+00  0.00000000000E+00 -0.56604132517E+03  0.56604132517E+03  0.25500000920E-02 0.  1.
    10030    2    1    2    0    0  0.00000000000E+00  0.00000000000E+00  0.10272215450E+04  0.21593041954E+04  0.18993184319E+04 0.  0.
        1    1    3    3  502    0 -0.92437844802E+02 -0.62263509359E+03 -0.29480341661E+03  0.69507429056E+03  0.50400001928E-02 0.  1.
       -1    1    3    3    0  502  0.92437844802E+02  0.62263509359E+03  0.13220249616E+04  0.14642299048E+04  0.50400001928E-02 0. -1.
</event>
<event>
 5   0  0.3379108E-06  0.1899973E+04  0.7818609E-02  0.8654870E-01
        1   -1    0    0  501    0  0.00000000000E+00  0.00000000000E+00  0.17545420146E+04  0.17545420146E+04  0.50400001928E-02 0. -1.
       -1   -1    0    0    0  501  0.00000000000E+00  0.00000000000E+00 -0.51436477935E+03  0.51436477937E+03  0.50400001928E-02 0.  1.
    10030    2    1    2    0    0  0.00000000000E+00  0.00000000000E+00  0.12401772353E+04  0.22689067940E+04  0.18999732801E+04 0.  0.
        4    1    3    3  502    0  0.71533238225E+03  0.49628898562E+03  0.16619116901E+03  0.88635449562E+03  0.12699999809E+01 0.  1.
       -4    1    3    3    0  502 -0.71533238225E+03 -0.49628898562E+03  0.10739860663E+04  0.13825522984E+04  0.12699999809E+01 0. -1.
</event>
<event>
 5   0  0.6984466E-06  0.1900424E+04  0.7818609E-02  0.8654645E-01
        2   -1    0    0  501    0  0.00000000000E+00  0.00000000000E+00  0.13770950518E+04  0.13770950518E+04  0.25500000920E-02 0.  1.
       -2   -1    0    0    0  501  0.00000000000E+00  0.00000000000E+00 -0.65565756867E+03  0.65565756868E+03  0.25500000920E-02 0. -1.
    10030    2    1    2    0    0  0.00000000000E+00  0.00000000000E+00  0.72143748316E+03  0.20327526205E+04  0.19004239459E+04 0.  0.
        2    1    3    3  502    0  0.50795346168E+03  0.72179391595E+03  0.73722224165E+03  0.11499999174E+04  0.25500000920E-02 0.  1.
       -2    1    3    3    0  502 -0.50795346168E+03 -0.72179391595E+03 -0.15784758486E+02  0.88275270316E+03  0.25500000920E-02 0. -1.
</event>
<event>
 5   0  0.3211263E-06  0.1899002E+04  0.7818609E-02  0.8655353E-01
       -1   -1    0    0    0  501  0.00000000000E+00  0.00000000000E+00  0.30163480633E+03  0.30163480638E+03  0.50400001928E-02 0.  1.
        1   -1    0    0  501    0  0.00000000000E+00  0.00000000000E+00 -0.29888866240E+04  0.29888866240E+04  0.50400001928E-02 0. -1.
    10030    2    1    2    0    0  0.00000000000E+00  0.00000000000E+00 -0.26872518177E+04  0.32905214304E+04  0.18990020938E+04 0.  0.
        5    1    3    3  502    0 -0.40532141566E+03  0.41606054390E+01 -0.28314103419E+04  0.28602813454E+04  0.46999998093E+01 0. -1.
       -5    1    3    3    0  502  0.40532141566E+03 -0.41606054390E+01  0.14415852422E+03  0.43024008499E+03  0.46999998093E+01 0.  1.
</event>
<event>
 5   0  0.6984466E-06  0.1899337E+04  0.7818609E-02  0.8655187E-01
       -2   -1    0    0    0  501  0.00000000000E+00  0.00000000000E+00  0.84212554182E+03  0.84212554182E+03  0.25500000920E-02 0.  1.
        2   -1    0    0  501    0  0.00000000000E+00  0.00000000000E+00 -0.10709449265E+04  0.10709449265E+04  0.25500000920E-02 0. -1.
    10030    2    1    2    0    0  0.00000000000E+00  0.00000000000E+00 -0.22881938464E+03  0.19130704683E+04  0.18993368068E+04 0.  0.
        2    1    3    3  502    0 -0.33341659815E+02 -0.92501023381E+03  0.99527823819E+02  0.93094650043E+03  0.25500000920E-02 0. -1.
       -2    1    3    3    0  502  0.33341659815E+02  0.92501023381E+03 -0.32834720846E+03  0.98212396786E+03  0.25500000920E-02 0.  1.
</event>
<event>
 5   0  0.3379108E-06  0.1899960E+04  0.7818609E-02  0.8654876E-01
       -1   -1    0    0    0  501  0.00000000000E+00  0.00000000000E+00  0.10985831102E+04  0.10985831102E+04  0.50400001928E-02 0. -1.
        1   -1    0    0  501    0  0.00000000000E+00  0.00000000000E+00 -0.82147789783E+03  0.82147789785E+03  0.50400001928E-02 0.  1.
    10030    2    1    2    0    0  0.00000000000E+00  0.00000000000E+00  0.27710521236E+03  0.19200610081E+04  0.18999597301E+04 0.  0.
        4    1    3    3  502    0  0.31344114913E+02 -0.53950785400E+03  0.92810522713E+03  0.10739795639E+04  0.12699999809E+01 0. -1.
       -4    1    3    3    0  502 -0.31344114913E+02  0.53950785400E+03 -0.65100001477E+03  0.84608144419E+03  0.12699999809E+01 0.  1.
</event>
<event>
 5   0  0.3379108E-06  0.1899641E+04  0.7818609E-02  0.8655035E-01
       -1   -1    0    0    0  501  0.00000000000E+00  0.00000000000E+00  0.40218442355E+03  0.40218442358E+03  0.50400001928E-02 0. -1.
        1   -1    0    0  501    0  0.00000000000E+00  0.00000000000E+00 -0.22431486324E+04  0.22431486324E+04  0.50400001928E-02 0.  1.
    10030    2    1    2    0    0  0.00000000000E+00  0.00000000000E+00 -0.18409642088E+04  0.26453330560E+04  0.18996414816E+04 0.  0.
        4    1    3    3  502    0  0.36876932130E+03 -0.57435942418E+03 -0.18402759592E+04  0.19627778222E+04  0.12699999809E+01 0.  1.
       -4    1    3    3    0  502 -0.36876932130E+03  0.57435942418E+03 -0.68824958171E+00  0.68255523370E+03  0.12699999809E+01 0. -1.
</event>
<event>
 5   0  0.3379108E-06  0.1901440E+04  0.7818609E-02  0.8654140E-01
        1   -1    0    0  501    0  0.00000000000E+00  0.00000000000E+00  0.69634274254E+03  0.69634274255E+03  0.50400001928E-02 0. -1.
       -1   -1    0    0    0  501  0.00000000000E+00  0.00000000000E+00 -0.12980222635E+04  0.12980222635E+04  0.50400001928E-02 0.  1.
    10030    2    1    2    0    0  0.00000000000E+00  0.00000000000E+00 -0.60167952093E+03  0.19943650060E+04  0.19014398574E+04 0.  0.
        4    1    3    3  502    0  0.58793398766E+03 -0.83405721467E+02 -0.10795823790E+04  0.12321211849E+04  0.12699999809E+01 0.  1.
       -4    1    3    3    0  502 -0.58793398766E+03  0.83405721467E+02  0.47790285809E+03  0.76224382116E+03  0.12699999809E+01 0. -1.
</event>
<event>
 5   0  0.6984466E-06  0.1899117E+04  0.7818609E-02  0.8655296E-01
       -2   -1    0    0    0  501  0.00000000000E+00  0.00000000000E+00  0.83040120636E+03  0.83040120637E+03  0.25500000920E-02 0. -1.
        2   -1    0    0  501    0  0.00000000000E+00  0.00000000000E+00 -0.10858136029E+04  0.10858136029E+04  0.25500000920E-02 0.  1.
    10030    2    1    2    0    0  0.00000000000E+00  0.00000000000E+00 -0.25541239655E+03  0.19162148093E+04  0.18991165586E+04 0.  0.
        2    1    3    3  502    0  0.22175133538E+03 -0.24772850589E+03 -0.10251621993E+04  0.10777293734E+04  0.25500000920E-02 0.  1.
       -2    1    3    3    0  502 -0.22175133538E+03  0.24772850589E+03  0.76974980275E+03  0.83848543590E+03  0.25500000920E-02 0. -1.
</event>
<event>
 5   0  0.3211263E-06  0.1899772E+04  0.7818609E-02  0.8654970E-01
       -1   -1    0    0    0  501  0.00000000000E+00  0.00000000000E+00  0.64476981879E+03  0.64476981881E+03  0.50400001928E-02 0.  1.
        1   -1    0    0  501    0  0.00000000000E+00  0.00000000000E+00 -0.13993891098E+04  0.13993891098E+04  0.50400001928E-02 0. -1.
    10030    2    1    2    0    0  0.00000000000E+00  0.00000000000E+00 -0.75461929104E+03  0.20441589287E+04  0.18997724735E+04 0.  0.
        5    1    3    3  502    0 -0.20889996838E+03 -0.22247304337E+03 -0.13451902091E+04  0.13793811078E+04  0.46999998093E+01 0. -1.
       -5    1    3    3    0  502  0.20889996838E+03  0.22247304337E+03  0.59057091809E+03  0.66477782086E+03  0.46999998093E+01 0.  1.
</event>
<event>
 5   0  0.7577180E-06  0.1892263E+04  0.7818609E-02  0.8658717E-01
       -2   -1    0    0    0  501  0.00000000000E+00  0.00000000000E+00  0.15086427363E+04  0.15086427363E+04  0.25500000920E-02 0.  1.
        2   -1    0    0  501    0  0.00000000000E+00  0.00000000000E+00 -0.59335782884E+03  0.59335782885E+03  0.25500000920E-02 0. -1.
    10030    2    1    2    0    0  0.00000000000E+00  0.00000000000E+00  0.91528490745E+03  0.21020005651E+04  0.18922631725E+04 0.  0.
        5    1    3    3  502    0 -0.82236971941E+03 -0.33693227453E+03  0.97128287318E+02  0.89401974655E+03  0.46999998093E+01 0. -1.
       -5    1    3    3    0  502  0.82236971941E+03  0.33693227453E+03  0.81815662013E+03  0.12079808186E+04  0.46999998093E+01 0.  1.
</event>
<event>
 5   0  0.7577180E-06  0.1899295E+04  0.7818609E-02  0.8655207E-01
        2   -1    0    0  501    0  0.00000000000E+00  0.00000000000E+00  0.22336889648E+04  0.22336889648E+04  0.25500000920E-02 0.  1.
       -2   -1    0    0    0  501  0.00000000000E+00  0.00000000000E+00 -0.40374045499E+03  0.40374045500E+03  0.25500000920E-02 0. -1.
    10030    2    1    2    0    0  0.00000000000E+00  0.00000000000E+00  0.18299485098E+04  0.26374294198E+04  0.18992952366E+04 0.  0.
        5    1    3    3  502    0 -0.13761385883E+03 -0.89344981901E+03  0.13189177867E+04  0.15989860447E+04  0.46999998093E+01 0.  1.
       -5    1    3    3    0  502  0.13761385883E+03  0.89344981901E+03  0.51103072312E+03  0.10384433751E+04  0.46999998093E+01 0. -1.
</event>
<event>
 5   0  0.7207648E-06  0.1899809E+04  0.7818609E-02  0.8654951E-01
       -2   -1    0    0    0  501  0.00000000000E+00  0.00000000000E+00  0.48658081653E+03  0.48658081654E+03  0.25500000920E-02 0. -1.
        2   -1    0    0  501    0  0.00000000000E+00  0.00000000000E+00 -0.18544062296E+04  0.18544062296E+04  0.25500000920E-02 0.  1.
    10030    2    1    2    0    0  0.00000000000E+00  0.00000000000E+00 -0.13678254131E+04  0.23409870462E+04  0.18998089350E+04 0.  0.
        4    1    3    3  502    0 -0.55852532712E+03  0.69126081958E+03 -0.10972582442E+04  0.14120089692E+04  0.12699999809E+01 0.  1.
       -4    1    3    3    0  502  0.55852532712E+03 -0.69126081958E+03 -0.27056716891E+03  0.92897807698E+03  0.12699999809E+01 0. -1.
</event>
<event>
 5   0  0.3379108E-06  0.1893722E+04  0.7818609E-02  0.8657987E-01
       -1   -1    0    0    0  501  0.00000000000E+00  0.00000000000E+00  0.93852123256E+03  0.93852123257E+03  0.50400001928E-02 0. -1.
        1   -1    0    0  501    0  0.00000000000E+00  0.00000000000E+00 -0.95527536692E+03  0.95527536693E+03  0.50400001928E-02 0.  1.
    10030    2    1    2    0    0  0.00000000000E+00  0.00000000000E+00 -0.16754134359E+02  0.18937965995E+04  0.18937224874E+04 0.  0.
        4    1    3    3  502    0  0.74545931553E+03  0.37839066032E+03 -0.45297912526E+03  0.95083162745E+03  0.12699999809E+01 0.  1.
       -4    1    3    3    0  502 -0.74545931553E+03 -0.37839066032E+03  0.43622499090E+03  0.94296497205E+03  0.12699999809E+01 0. -1.
</event>
<event>
 5   0  0.3495279E-06  0.1897691E+04  0.7818609E-02  0.8656006E-01
       -1   -1    0    0    0  501  0.00000000000E+00  0.00000000000E+00  0.13430136213E+04  0.13430136214E+04  0.50400001928E-02 0.  1.
        1   -1    0    0  501    0  0.00000000000E+00  0.00000000000E+00 -0.67036408066E+03  0.67036408068E+03  0.50400001928E-02 0. -1.
    10030    2    1    2    0    0  0.00000000000E+00  0.00000000000E+00  0.67264954068E+03  0.20133777020E+04  0.18976913254E+04 0.  0.
        2    1    3    3  502    0 -0.16335932094E+03  0.17104668754E+03  0.13112352891E+04  0.13323967954E+04  0.25500000920E-02 0.  1.
       -2    1    3    3    0  502  0.16335932094E+03 -0.17104668754E+03 -0.63858574843E+03  0.68098090661E+03  0.25500000920E-02 0. -1.
</event>
<event>
 5   0  0.6984466E-06  0.1896995E+04  0.7818609E-02  0.8656353E-01
        2   -1    0    0  501    0  0.00000000000E+00  0.00000000000E+00  0.12849915769E+04  0.12849915769E+04  0.25500000920E-02 0.  1.
       -2   -1    0    0    0  501  0.00000000000E+00  0.00000000000E+00 -0.70011966935E+03  0.70011966936E+03  0.25500000920E-02 0. -1.
    10030    2    1    2    0    0  0.00000000000E+00  0.00000000000E+00  0.58487190759E+03  0.19851112463E+04  0.18969953906E+04 0.  0.
        2    1    3    3  502    0  0.46312086068E+03 -0.80047772322E+03  0.71929347221E+02  0.92758791927E+03  0.25500000920E-02 0. -1.
       -2    1    3    3    0  502 -0.46312086068E+03  0.80047772322E+03  0.51294256037E+03  0.10575233270E+04  0.25500000920E-02 0.  1.
</event>
<event>
 5   0  0.3495279E-06  0.1900286E+04  0.7818609E-02  0.8654714E-01
       -1   -1    0    0    0  501  0.00000000000E+00  0.00000000000E+00  0.64865349282E+03  0.64865349284E+03  0.50400001928E-02 0.  1.
        1   -1    0    0  501    0  0.00000000000E+00  0.00000000000E+00 -0.13917624061E+04  0.13917624061E+04  0.50400001928E-02 0. -1.
    10030    2    1    2    0    0  0.00000000000E+00  0.00000000000E+00 -0.74310891330E+03  0.20404158990E+04  0.19002858163E+04 0.  0.
        2    1    3    3  502    0 -0.56231019177E+03 -0.68854292637E+03 -0.73167821559E+03  0.11513631592E+04  0.25500000920E-02 0. -1.
       -2    1    3    3    0  502  0.56231019177E+03  0.68854292637E+03 -0.11430697705E+02  0.88905273976E+03  0.25500000920E-02 0.  1.
</event>
<event>
 5   0  0.6862201E-06  0.1899078E+04  0.7818609E-02  0.8655316E-01
        2   -1    0    0  501    0  0.00000000000E+00  0.00000000000E+00  0.73067312395E+03  0.73067312396E+03  0.25500000920E-02 0. -1.
       -2   -1    0    0    0  501  0.00000000000E+00  0.00000000000E+00 -0.12339634525E+04  0.12339634525E+04  0.25500000920E-02 0.  1.
    10030    2    1    2    0    0  0.00000000000E+00  0.00000000000E+00 -0.50329032855E+03  0.19646365765E+04  0.18990775979E+04 0.  0.
        3    1    3    3  502    0  0.83755272249E+02 -0.93598938774E+02  0.72204138663E+03  0.73288435730E+03  0.10100000352E+00 0. -1.
       -3    1    3    3    0  502 -0.83755272249E+02  0.93598938774E+02 -0.12253317152E+04  0.12317522192E+04  0.10100000352E+00 0.  1.
</event>
<event>
 5   0  0.7577180E-06  0.1899158E+04  0.7818609E-02  0.8655276E-01
       -2   -1    0    0    0  501  0.00000000000E+00  0.00000000000E+00  0.12049578947E+04  0.12049578947E+04  0.25500000920E-02 0.  1.
        2   -1    0    0  501    0  0.00000000000E+00  0.00000000000E+00 -0.74832510117E+03  0.74832510117E+03  0.25500000920E-02 0. -1.
    10030    2    1    2    0    0  0.00000000000E+00  0.00000000000E+00  0.45663279352E+03  0.19532829959E+04  0.18991579591E+04 0.  0.
        5    1    3    3  502    0  0.52520916753E+03 -0.73529825195E+03  0.52847258517E+03  0.10468111349E+04  0.46999998093E+01 0.  1.
       -5    1    3    3    0  502 -0.52520916753E+03  0.73529825195E+03 -0.71839791648E+02  0.90647186091E+03  0.46999998093E+01 0. -1.
</event>
<event>
 5   0  0.3211263E-06  0.1899226E+04  0.7818609E-02  0.8655242E-01
       -1   -1    0    0    0  501  0.00000000000E+00  0.00000000000E+00  0.77511056101E+03  0.77511056102E+03  0.50400001928E-02 0.  1.
        1   -1    0    0  501    0  0.00000000000E+00  0.00000000000E+00 -0.11634019305E+04  0.11634019305E+04  0.50400001928E-02 0. -1.
    10030    2    1    2    0    0  0.00000000000E+00  0.00000000000E+00 -0.38829136944E+03  0.19385124915E+04  0.18992262877E+04 0.  0.
        5    1    3    3  502    0 -0.59065591587E+02 -0.71353035662E+03 -0.83085108482E+03  0.10967907408E+04  0.46999998093E+01 0.  1.
       -5    1    3    3    0  502  0.59065591587E+02  0.71353035662E+03  0.44255971538E+03  0.84172175070E+03  0.46999998093E+01 0. -1.
</event>
<event>
 5   0  0.3236653E-06  0.1899108E+04  0.7818609E-02  0.8655300E-01
       -1   -1    0    0    0  501  0.00000000000E+00  0.00000000000E+00  0.85926898641E+03  0.85926898642E+03  0.50400001928E-02 0. -1.
        1   -1    0    0  501    0  0.00000000000E+00  0.00000000000E+00 -0.10493257058E+04  0.10493257059E+04  0.50400001928E-02 0.  1.
    10030    2    1    2    0    0  0.00000000000E+00  0.00000000000E+00 -0.19005671944E+03  0.19085946923E+04  0.18991082494E+04 0.  0.
        3    1    3    3  502    0  0.87547287183E+03  0.95715004535E+02  0.26176463419E+03  0.91876811292E+03  0.10100000352E+00 0. -1.
       -3    1    3    3    0  502 -0.87547287183E+03 -0.95715004535E+02 -0.45182135363E+03  0.98982657936E+03  0.10100000352E+00 0.  1.
</event>
<event>
 5   0  0.6862201E-06  0.1900095E+04  0.7818609E-02  0.8654809E-01
       -2   -1    0    0    0  501  0.00000000000E+00  0.00000000000E+00  0.67805602229E+03  0.67805602230E+03  0.25500000920E-02 0. -1.
        2   -1    0    0  501    0  0.00000000000E+00  0.00000000000E+00 -0.13311442508E+04  0.13311442508E+04  0.25500000920E-02 0.  1.
    10030    2    1    2    0    0  0.00000000000E+00  0.00000000000E+00 -0.65308822849E+03  0.20092002731E+04  0.19000951300E+04 0.  0.
        3    1    3    3  502    0 -0.38293040707E+02 -0.75196982361E+03 -0.93917821578E+03  0.12037361438E+04  0.10100000352E+00 0.  1.
       -3    1    3    3    0  502  0.38293040707E+02  0.75196982361E+03  0.28608998730E+03  0.80546412932E+03  0.10100000352E+00 0. -1.
</event>
<event>
 5   0  0.6870370E-06  0.1900492E+04  0.7818609E-02  0.8654612E-01
        2   -1    0    0  501    0  0.00000000000E+00  0.00000000000E+00  0.10457286807E+04  0.10457286807E+04  0.25500000920E-02 0.  1.
       -2   -1    0    0    0  501  0.00000000000E+00  0.00000000000E+00 -0.86348145086E+03  0.86348145086E+03  0.25500000920E-02 0. -1.
    10030    2    1    2    0    0  0.00000000000E+00  0.00000000000E+00  0.18224722989E+03  0.19092101316E+04  0.19004918505E+04 0.  0.
        1    1    3    3  502    0 -0.68033462501E+03  0.63249982752E+03 -0.10993466682E+03  0.93541267085E+03  0.50400001928E-02 0. -1.
       -1    1    3    3    0  502  0.68033462501E+03 -0.63249982752E+03  0.29218189670E+03  0.97379746076E+03  0.50400001928E-02 0.  1.
</event>
<event>
 5   0  0.6870370E-06  0.1900269E+04  0.7818609E-02  0.8654723E-01
        2   -1    0    0  501    0  0.00000000000E+00  0.00000000000E+00  0.17275289965E+04  0.17275289965E+04  0.25500000920E-02 0. -1.
       -2   -1    0    0    0  501  0.00000000000E+00  0.00000000000E+00 -0.52257018664E+03  0.52257018665E+03  0.25500000920E-02 0.  1.
    10030    2    1    2    0    0  0.00000000000E+00  0.00000000000E+00  0.12049588099E+04  0.22500991832E+04  0.19002685601E+04 0.  0.
        1    1    3    3  502    0  0.47841346198E+03  0.80500923057E+03  0.79280537031E+03  0.12269717426E+04  0.50400001928E-02 0. -1.
       -1    1    3    3    0  502 -0.47841346198E+03 -0.80500923057E+03  0.41215343959E+03  0.10231274406E+04  0.50400001928E-02 0.  1.
</event>
<event>
 5   0  0.6984466E-06  0.1899701E+04  0.7818609E-02  0.8655005E-01
       -2   -1    0    0    0  501  0.00000000000E+00  0.00000000000E+00  0.63729139245E+03  0.63729139246E+03  0.25500000920E-02 0. -1.
        2   -1    0    0  501    0  0.00000000000E+00  0.00000000000E+00 -0.14157046344E+04  0.14157046344E+04  0.25500000920E-02 0.  1.
    10030    2    1    2    0    0  0.00000000000E+00  0.00000000000E+00 -0.77841324195E+03  0.20529960269E+04  0.18997014268E+04 0.  0.
        2    1    3    3  502    0  0.92907536560E+03 -0.79747830260E+02 -0.19385603393E+03  0.95242895446E+03  0.25500000920E-02 0. -1.
       -2    1    3    3    0  502 -0.92907536560E+03  0.79747830260E+02 -0.58455720802E+03  0.11005670724E+04  0.25500000920E-02 0.  1.
</event>
<event>
 5   0  0.3398807E-06  0.1910439E+04  0.7818609E-02  0.8649678E-01
       -1   -1    0    0    0  501  0.00000000000E+00  0.00000000000E+00  0.51228049998E+03  0.51228050001E+03  0.50400001928E-02 0. -1.
        1   -1    0    0  501    0  0.00000000000E+00  0.00000000000E+00 -0.17811418965E+04  0.17811418965E+04  0.50400001928E-02 0.  1.
    10030    2    1    2    0    0  0.00000000000E+00  0.00000000000E+00 -0.12688613965E+04  0.22934223965E+04  0.19104389667E+04 0.  0.
        1    1    3    3  502    0 -0.35396020453E+03 -0.79107613907E+03 -0.11166471961E+04  0.14135028280E+04  0.50400001928E-02 0. -1.
       -1    1    3    3    0  502  0.35396020453E+03  0.79107613907E+03 -0.15221420040E+03  0.87991956850E+03  0.50400001928E-02 0.  1.
</event>
<event>
 5   0  0.6870370E-06  0.1900016E+04  0.7818609E-02  0.8654849E-01
        2   -1    0    0  501    0  0.00000000000E+00  0.00000000000E+00  0.10927550715E+04  0.10927550715E+04  0.25500000920E-02 0.  1.
       -2   -1    0    0    0  501  0.00000000000E+00  0.00000000000E+00 -0.82590776384E+03  0.82590776385E+03  0.25500000920E-02 0. -1.
    10030    2    1    2    0    0  0.00000000000E+00  0.00000000000E+00  0.26684730767E+03  0.19186628354E+04  0.19000156816E+04 0.  0.
        1    1    3    3  502    0 -0.40570506294E+02 -0.82571932452E+03 -0.33920448928E+03  0.89359837423E+03  0.50400001928E-02 0. -1.
       -1    1    3    3    0  502  0.40570506294E+02  0.82571932452E+03  0.60605179695E+03  0.10250644611E+04  0.50400001928E-02 0.  1.
</event>
<event>
 5   0  0.7207648E-06  0.1900829E+04  0.7818609E-02  0.8654444E-01
       -2   -1    0    0    0  501  0.00000000000E+00  0.00000000000E+00  0.10311159746E+04  0.10311159746E+04  0.25500000920E-02 0. -1.
        2   -1    0    0  501    0  0.00000000000E+00  0.00000000000E+00 -0.87602945203E+03  0.87602945203E+03  0.25500000920E-02 0.  1.
    10030    2    1    2    0    0  0.00000000000E+00  0.00000000000E+00  0.15508652260E+03  0.19071454267E+04  0.19008292530E+04 0.  0.
        4    1    3    3  502    0 -0.53484386336E+03  0.80996408128E+02 -0.70650586588E+03  0.88981488397E+03  0.12699999809E+01 0.  1.
       -4    1    3    3    0  502  0.53484386336E+03 -0.80996408128E+02  0.86159238848E+03  0.10173305427E+04  0.12699999809E+01 0. -1.
</event>
<event>
 5   0  0.6862201E-06  0.1900448E+04  0.7818609E-02  0.8654633E-01
       -2   -1    0    0    0  501  0.00000000000E+00  0.00000000000E+00  0.43907809908E+03  0.43907809909E+03  0.25500000920E-02 0. -1.
        2   -1    0    0  501    0  0.00000000000E+00  0.00000000000E+00 -0.20564122615E+04  0.20564122615E+04  0.25500000920E-02 0.  1.
    10030    2    1    2    0    0  0.00000000000E+00  0.00000000000E+00 -0.16173341625E+04  0.24954903606E+04  0.19004479332E+04 0.  0.
        3    1    3    3  502    0  0.26079856106E+03  0.69938351468E+03 -0.36528817565E+02  0.74732024913E+03  0.10100000352E+00 0. -1.
       -3    1    3    3    0  502 -0.26079856106E+03 -0.69938351468E+03 -0.15808053449E+04  0.17481701115E+04  0.10100000352E+00 0.  1.
</event>
<event>
 5   0  0.3211263E-06  0.1908306E+04  0.7818609E-02  0.8650733E-01
       -1   -1    0    0    0  501  0.00000000000E+00  0.00000000000E+00  0.14504789203E+04  0.14504789203E+04  0.50400001928E-02 0.  1.
        1   -1    0    0  501    0  0.00000000000E+00  0.00000000000E+00 -0.62766011797E+03  0.62766011799E+03  0.50400001928E-02 0. -1.
    10030    2    1    2    0    0  0.00000000000E+00  0.00000000000E+00  0.82281880233E+03  0.20781390383E+04  0.19083058143E+04 0.  0.
        5    1    3    3  502    0  0.49144176523E+03 -0.60203680731E+03 -0.19140948435E+03  0.80038928445E+03  0.46999998093E+01 0. -1.
       -5    1    3    3    0  502 -0.49144176523E+03  0.60203680731E+03  0.10142282867E+04  0.12777497538E+04  0.46999998093E+01 0.  1.
</event>
<event>
 5   0  0.3495279E-06  0.1899639E+04  0.7818609E-02  0.8655036E-01
        1   -1    0    0  501    0  0.00000000000E+00  0.00000000000E+00  0.73775376060E+03  0.73775376062E+03  0.50400001928E-02 0. -1.
       -1   -1    0    0    0  501  0.00000000000E+00  0.00000000000E+00 -0.12228429631E+04  0.12228429631E+04  0.50400001928E-02 0.  1.
    10030    2    1    2    0    0  0.00000000000E+00  0.00000000000E+00 -0.48508920248E+03  0.19605967237E+04  0.18996389074E+04 0.  0.
        2    1    3    3  502    0 -0.61957644736E+03 -0.71988405225E+03 -0.24976714932E+03  0.98208535866E+03  0.25500000920E-02 0. -1.
       -2    1    3    3    0  502  0.61957644736E+03  0.71988405225E+03 -0.23532205316E+03  0.97851136504E+03  0.25500000920E-02 0.  1.
</event>
<event>
 5   0  0.6870370E-06  0.1899527E+04  0.7818609E-02  0.8655092E-01
        2   -1    0    0  501    0  0.00000000000E+00  0.00000000000E+00  0.22660321287E+04  0.22660321287E+04  0.25500000920E-02 0. -1.
       -2   -1    0    0    0  501  0.00000000000E+00  0.00000000000E+00 -0.39807515813E+03  0.39807515813E+03  0.25500000920E-02 0.  1.
    10030    2    1    2    0    0  0.00000000000E+00  0.00000000000E+00  0.18679569706E+04  0.26641072869E+04  0.18995274128E+04 0.  0.
        1    1    3    3  502    0  0.19654513875E+03  0.90052271017E+03  0.12552726747E+04  0.15573312528E+04  0.50400001928E-02 0. -1.
       -1    1    3    3    0  502 -0.19654513875E+03 -0.90052271017E+03  0.61268429592E+03  0.11067760341E+04  0.50400001928E-02 0.  1.
</event>
<event>
 5   0  0.7207648E-06  0.1899918E+04  0.7818609E-02  0.8654897E-01
       -2   -1    0    0    0  501  0.00000000000E+00  0.00000000000E+00  0.57901400974E+03  0.57901400975E+03  0.25500000920E-02 0. -1.
        2   -1    0    0  501    0  0.00000000000E+00  0.00000000000E+00 -0.15585498822E+04  0.15585498822E+04  0.25500000920E-02 0.  1.
    10030    2    1    2    0    0  0.00000000000E+00  0.00000000000E+00 -0.97953587251E+03  0.21375638920E+04  0.18999181211E+04 0.  0.
        4    1    3    3  502    0 -0.15539896309E+03  0.88256138897E+03 -0.84440474155E+03  0.12312938006E+04  0.12699999809E+01 0. -1.
       -4    1    3    3    0  502  0.15539896309E+03 -0.88256138897E+03 -0.13513113096E+03  0.90627009136E+03  0.12699999809E+01 0.  1.
</event>
<event>
 5   0  0.6862201E-06  0.1900403E+04  0.7818609E-02  0.8654656E-01
       -2   -1    0    0    0  501  0.00000000000E+00  0.00000000000E+00  0.11421287886E+04  0.11421287886E+04  0.25500000920E-02 0. -1.
        2   -1    0    0  501    0  0.00000000000E+00  0.00000000000E+00 -0.79052595399E+03  0.79052595399E+03  0.25500000920E-02 0.  1.
    10030    2    1    2    0    0  0.00000000000E+00  0.00000000000E+00  0.35160283459E+03  0.19326547426E+04  0.19004025365E+04 0.  0.
        3    1    3    3  502    0 -0.83729254301E+03 -0.43751929343E+03  0.27951506155E+03  0.98519572398E+03  0.10100000352E+00 0. -1.
       -3    1    3    3    0  502  0.83729254301E+03  0.43751929343E+03  0.72087773041E+02  0.94745901860E+03  0.10100000352E+00 0.  1.
</event>
<event>
 5   0  0.3398807E-06  0.1899565E+04  0.7818609E-02  0.8655073E-01
       -1   -1    0    0    0  501  0.00000000000E+00  0.00000000000E+00  0.11292579491E+04  0.11292579491E+04  0.50400001928E-02 0.  1.
        1   -1    0    0  501    0  0.00000000000E+00  0.00000000000E+00 -0.79883107309E+03  0.79883107311E+03  0.50400001928E-02 0. -1.
    10030    2    1    2    0    0  0.00000000000E+00  0.00000000000E+00  0.33042687599E+03  0.19280890222E+04  0.18995645178E+04 0.  0.
        1    1    3    3  502    0  0.39269136300E+03 -0.82769719670E+03 -0.89143222997E+02  0.92045405656E+03  0.50400001928E-02 0. -1.
       -1    1    3    3    0  502 -0.39269136300E+03  0.82769719670E+03  0.41957009899E+03  0.10076349656E+04  0.50400001928E-02 0.  1.
</event>
<event>
 5   0  0.6984466E-06  0.1901172E+04  0.7818609E-02  0.8654273E-01
       -2   -1    0    0    0  501  0.00000000000E+00  0.00000000000E+00  0.53818535822E+03  0.53818535822E+03  0.25500000920E-02 0.  1.
        2   -1    0    0  501    0  0.00000000000E+00  0.00000000000E+00 -0.16790016778E+04  0.16790016778E+04  0.25500000920E-02 0. -1.
    10030    2    1    2    0    0  0.00000000000E+00  0.00000000000E+00 -0.11408163196E+04  0.22171870360E+04  0.19011723956E+04 0.  0.
        2    1    3    3  502    0  0.60558064830E+03 -0.44546092091E+03  0.10805860968E+03  0.75949984647E+03  0.25500000920E-02 0. -1.
       -2    1    3    3    0  502 -0.60558064830E+03  0.44546092091E+03 -0.12488749293E+04  0.14576871896E+04  0.25500000920E-02 0.  1.
</event>
<event>
 5   0  0.3398807E-06  0.1900322E+04  0.7818609E-02  0.8654696E-01
       -1   -1    0    0    0  501  0.00000000000E+00  0.00000000000E+00  0.10912483769E+04  0.10912483769E+04  0.50400001928E-02 0.  1.
        1   -1    0    0  501    0  0.00000000000E+00  0.00000000000E+00 -0.82731437396E+03  0.82731437398E+03  0.50400001928E-02 0. -1.
    10030    2    1    2    0    0  0.00000000000E+00  0.00000000000E+00  0.26393400295E+03  0.19185627509E+04  0.19003215179E+04 0.  0.
        1    1    3    3  502    0  0.68302456534E+03 -0.57877205543E+03  0.45330798440E+03  0.10034878065E+04  0.50400001928E-02 0.  1.
       -1    1    3    3    0  502 -0.68302456534E+03  0.57877205543E+03 -0.18937398145E+03  0.91507494441E+03  0.50400001928E-02 0. -1.
</event>
<event>
 5   0  0.3495279E-06  0.1899898E+04  0.7818609E-02  0.8654907E-01
        1   -1    0    0  501    0  0.00000000000E+00  0.00000000000E+00  0.13113865477E+04  0.13113865478E+04  0.50400001928E-02 0. -1.
       -1   -1    0    0    0  501  0.00000000000E+00  0.00000000000E+00 -0.68812877111E+03  0.68812877113E+03  0.50400001928E-02 0.  1.
    10030    2    1    2    0    0  0.00000000000E+00  0.00000000000E+00  0.62325777663E+03  0.19995153189E+04  0.18998976958E+04 0.  0.
        2    1    3    3  502    0  0.80515464401E+03 -0.42766150858E+03  0.59252100317E+03  0.10873129751E+04  0.25500000920E-02 0. -1.
       -2    1    3    3    0  502 -0.80515464401E+03  0.42766150858E+03  0.30736773463E+02  0.91220234375E+03  0.25500000920E-02 0.  1.
</event>
<event>
 5   0  0.7577180E-06  0.1899989E+04  0.7818609E-02  0.8654862E-01
       -2   -1    0    0    0  501  0.00000000000E+00  0.00000000000E+00  0.71969608609E+03  0.71969608609E+03  0.25500000920E-02 0.  1.
        2   -1    0    0  501    0  0.00000000000E+00  0.00000000000E+00 -0.12539876075E+04  0.12539876075E+04  0.25500000920E-02 0. -1.
    10030    2    1    2    0    0  0.00000000000E+00  0.00000000000E+00 -0.53429152140E+03  0.19736836936E+04  0.18999894454E+04 0.  0.
        5    1    3    3  502    0 -0.30748071664E+03  0.78066184622E+03  0.19565739147E+03  0.86155743516E+03  0.46999998093E+01 0.  1.
       -5    1    3    3    0  502  0.30748071664E+03 -0.78066184622E+03 -0.72994891287E+03  0.11121262584E+04  0.46999998093E+01 0. -1.
</event>
<event>
 5   0  0.3398807E-06  0.1899900E+04  0.7818609E-02  0.8654906E-01
        1   -1    0    0  501    0  0.00000000000E+00  0.00000000000E+00  0.12915442809E+04  0.12915442809E+04  0.50400001928E-02 0. -1.
       -1   -1    0    0    0  501  0.00000000000E+00  0.00000000000E+00 -0.69870226794E+03  0.69870226796E+03  0.50400001928E-02 0.  1.
    10030    2    1    2    0    0  0.00000000000E+00  0.00000000000E+00  0.59284201297E+03  0.19902465489E+04  0.18998999113E+04 0.  0.
        1    1    3    3  502    0 -0.69563792183E+03 -0.42106535944E+03  0.81089318559E+03  0.11483709826E+04  0.50400001928E-02 0. -1.
       -1    1    3    3    0  502  0.69563792183E+03  0.42106535944E+03 -0.21805117262E+03  0.84187556628E+03  0.50400001928E-02 0.  1.
</event>
<event>
 5   0  0.7207648E-06  0.1900092E+04  0.7818609E-02  0.8654811E-01
        2   -1    0    0  501    0  0.00000000000E+00  0.00000000000E+00  0.17348115316E+04  0.17348115316E+04  0.25500000920E-02 0. -1.
       -2   -1    0    0    0  501  0.00000000000E+00  0.00000000000E+00 -0.52027963541E+03  0.52027963541E+03  0.25500000920E-02 0.  1.
    10030    2    1    2    0    0  0.00000000000E+00  0.00000000000E+00  0.12145318962E+04  0.22550911670E+04  0.19000916937E+04 0.  0.
        4    1    3    3  502    0 -0.15925586234E+03 -0.18321449008E+03 -0.48284856209E+03  0.54043901217E+03  0.12699999809E+01 0.  1.
       -4    1    3    3    0  502  0.15925586234E+03  0.18321449008E+03  0.16973804583E+04  0.17146521548E+04  0.12699999809E+01 0. -1.
</event>
<event>
 5   0  0.3211263E-06  0.1899820E+04  0.7818609E-02  0.8654946E-01
        1   -1    0    0  501    0  0.00000000000E+00  0.00000000000E+00  0.10960062184E+04  0.10960062184E+04  0.50400001928E-02 0. -1.
       -1   -1    0    0    0  501  0.00000000000E+00  0.00000000000E+00 -0.82328786429E+03  0.82328786430E+03  0.50400001928E-02 0.  1.
    10030    2    1    2    0    0  0.00000000000E+00  0.00000000000E+00  0.27271835410E+03  0.19192940827E+04  0.18998195902E+04 0.  0.
        5    1    3    3  502    0  0.86581525138E+03 -0.27258682660E+03  0.41916965772E+03  0.99983244571E+03  0.46999998093E+01 0.  1.
       -5    1    3    3    0  502 -0.86581525138E+03  0.27258682660E+03 -0.14645130362E+03  0.91946163698E+03  0.46999998093E+01 0. -1.
</event>
<event>
 5   0  0.6862201E-06  0.1900093E+04  0.7818609E-02  0.8654810E-01
        2   -1    0    0  501    0  0.00000000000E+00  0.00000000000E+00  0.22350544733E+04  0.22350544733E+04  0.25500000920E-02 0. -1.
       -2   -1    0    0    0  501  0.00000000000E+00  0.00000000000E+00 -0.40383275158E+03  0.40383275159E+03  0.25500000920E-02 0.  1.
    10030    2    1    2    0    0  0.00000000000E+00  0.00000000000E+00  0.18312217217E+04  0.26388872249E+04  0.19000928376E+04 0.  0.
        3    1    3    3  502    0  0.36158340076E+03 -0.87172652363E+03  0.76386358910E+03  0.12141405523E+04  0.10100000352E+00 0.  1.
       -3    1    3    3    0  502 -0.36158340076E+03  0.87172652363E+03  0.10673581326E+04  0.14247466726E+04  0.10100000352E+00 0. -1.
</event>
<event>
 5   0  0.6862201E-06  0.1899600E+04  0.7818609E-02  0.8655055E-01
        2   -1    0    0  501    0  0.00000000000E+00  0.00000000000E+00  0.63218051599E+03  0.63218051599E+03  0.25500000920E-02 0.  1.
       -2   -1    0    0    0  501  0.00000000000E+00  0.00000000000E+00 -0.14269976364E+04  0.14269976364E+04  0.25500000920E-02 0. -1.
    10030    2    1    2    0    0  0.00000000000E+00  0.00000000000E+00 -0.79481712039E+03  0.20591781524E+04  0.18996000654E+04 0.  0.
        3    1    3    3  502    0 -0.74093705652E+03 -0.38362788990E+03 -0.88936348107E+03  0.12194775485E+04  0.10100000352E+00 0. -1.
       -3    1    3    3    0  502  0.74093705652E+03  0.38362788990E+03  0.94546360680E+02  0.83970060388E+03  0.10100000352E+00 0.  1.
</event>
<event>
 5   0  0.3236653E-06  0.1900763E+04  0.7818609E-02  0.8654477E-01
       -1   -1    0    0    0  501  0.00000000000E+00  0.00000000000E+00  0.74385875996E+03  0.74385875998E+03  0.50400001928E-02 0. -1.
        1   -1    0    0  501    0  0.00000000000E+00  0.00000000000E+00 -0.12142425438E+04  0.12142425438E+04  0.50400001928E-02 0.  1.
    10030    2    1    2    0    0  0.00000000000E+00  0.00000000000E+00 -0.47038378385E+03  0.19581013038E+04  0.19007629552E+04 0.  0.
        3    1    3    3  502    0  0.19024392728E+03  0.21529652097E+03 -0.11684333341E+04  0.12032380522E+04  0.10100000352E+00 0.  1.
       -3    1    3    3    0  502 -0.19024392728E+03 -0.21529652097E+03  0.69804955025E+03  0.75486325160E+03  0.10100000352E+00 0. -1.
</event>
<event>
 5   0  0.6984466E-06  0.1899482E+04  0.7818609E-02  0.8655114E-01
        2   -1    0    0  501    0  0.00000000000E+00  0.00000000000E+00  0.11094783703E+04  0.11094783703E+04  0.25500000920E-02 0. -1.
       -2   -1    0    0    0  501  0.00000000000E+00  0.00000000000E+00 -0.81300191633E+03  0.81300191633E+03  0.25500000920E-02 0.  1.
    10030    2    1    2    0    0  0.00000000000E+00  0.00000000000E+00  0.29647645400E+03  0.19224802867E+04  0.18994820781E+04 0.  0.
        2    1    3    3  502    0  0.22502101152E+03  0.37850184348E+03  0.99991938699E+03  0.10925826658E+04  0.25500000920E-02 0. -1.
       -2    1    3    3    0  502 -0.22502101152E+03 -0.37850184348E+03 -0.70344293298E+03  0.82989762086E+03  0.25500000920E-02 0.  1.
</event>
<event>
 5   0  0.7207648E-06  0.1900275E+04  0.7818609E-02  0.8654719E-01
       -2   -1    0    0    0  501  0.00000000000E+00  0.00000000000E+00  0.11676107150E+04  0.11676107150E+04  0.25500000920E-02 0.  1.
        2   -1    0    0  501    0  0.00000000000E+00  0.00000000000E+00 -0.77317003564E+03  0.77317003565E+03  0.25500000920E-02 0. -1.
    10030    2    1    2    0    0  0.00000000000E+00  0.00000000000E+00  0.39444067939E+03  0.19407807507E+04  0.19002753676E+04 0.  0.
        4    1    3    3  502    0 -0.19995629506E+03 -0.60215729022E+03 -0.52509172851E+03  0.82358901058E+03  0.12699999809E+01 0. -1.
       -4    1    3    3    0  502  0.19995629506E+03  0.60215729022E+03  0.91953240790E+03  0.11171917401E+04  0.12699999809E+01 0.  1.
</event>
<event>
 5   0  0.7207648E-06  0.1900072E+04  0.7818609E-02  0.8654821E-01
       -2   -1    0    0    0  501  0.00000000000E+00  0.00000000000E+00  0.88600747187E+03  0.88600747188E+03  0.25500000920E-02 0.  1.
        2   -1    0    0  501    0  0.00000000000E+00  0.00000000000E+00 -0.10186914617E+04  0.10186914617E+04  0.25500000920E-02 0. -1.
    10030    2    1    2    0    0  0.00000000000E+00  0.00000000000E+00 -0.13268398978E+03  0.19046989335E+04  0.19000718371E+04 0.  0.
        4    1    3    3  502    0 -0.89662792109E+03  0.66746897556E+02 -0.37396036866E+03  0.97377859262E+03  0.12699999809E+01 0. -1.
       -4    1    3    3    0  502  0.89662792109E+03 -0.66746897556E+02  0.24127637888E+03  0.93092034091E+03  0.12699999809E+01 0.  1.
</event>
<event>
 5   0  0.3379108E-06  0.1900193E+04  0.7818609E-02  0.8654760E-01
       -1   -1    0    0    0  501  0.00000000000E+00  0.00000000000E+00  0.11560823228E+04  0.11560823228E+04  0.50400001928E-02 0.  1.
        1   -1    0    0  501    0  0.00000000000E+00  0.00000000000E+00 -0.78081271903E+03  0.78081271905E+03  0.50400001928E-02 0. -1.
    10030    2    1    2    0    0  0.00000000000E+00  0.00000000000E+00  0.37526960376E+03  0.19368950419E+04  0.19001934448E+04 0.  0.
        4    1    3    3  502    0 -0.16967582190E+03 -0.16015897140E+02  0.11403727789E+04  0.11530386296E+04  0.12699999809E+01 0.  1.
       -4    1    3    3    0  502  0.16967582190E+03  0.16015897140E+02 -0.76510317517E+03  0.78385641227E+03  0.12699999809E+01 0. -1.
</event>
<event>
 5   0  0.3236653E-06  0.1900309E+04  0.7818609E-02  0.8654703E-01
        1   -1    0    0  501    0  0.00000000000E+00  0.00000000000E+00  0.20813382103E+04  0.20813382103E+04  0.50400001928E-02 0.  1.
       -1   -1    0    0    0  501  0.00000000000E+00  0.00000000000E+00 -0.43375623315E+03  0.43375623318E+03  0.50400001928E-02 0. -1.
    10030    2    1    2    0    0  0.00000000000E+00  0.00000000000E+00  0.16475819771E+04  0.25150944435E+04  0.19003088402E+04 0.  0.
        3    1    3    3  502    0 -0.60349754309E+03  0.46653636692E+03  0.74010944616E+02  0.76638312631E+03  0.10100000352E+00 0. -1.
       -3    1    3    3    0  502  0.60349754309E+03 -0.46653636692E+03  0.15735710325E+04  0.17487113172E+04  0.10100000352E+00 0.  1.
</event>
<event>
 5   0  0.3398807E-06  0.1899562E+04  0.7818609E-02  0.8655074E-01
       -1   -1    0    0    0  501  0.00000000000E+00  0.00000000000E+00  0.19776981906E+04  0.19776981906E+04  0.50400001928E-02 0.  1.
        1   -1    0    0  501    0  0.00000000000E+00  0.00000000000E+00 -0.45612828211E+03  0.45612828214E+03  0.50400001928E-02 0. -1.
    10030    2    1    2    0    0  0.00000000000E+00  0.00000000000E+00  0.15215699085E+04  0.24338264728E+04  0.18995621372E+04 0.  0.
        1    1    3    3  502    0 -0.12995446226E+03  0.93933466472E+03  0.82914096657E+03  0.12596477750E+04  0.50400001928E-02 0.  1.
       -1    1    3    3    0  502  0.12995446226E+03 -0.93933466472E+03  0.69242894195E+03  0.11741786978E+04  0.50400001928E-02 0. -1.
</event>
<event>
 5   0  0.3379108E-06  0.1899644E+04  0.7818609E-02  0.8655034E-01
        1   -1    0    0  501    0  0.00000000000E+00  0.00000000000E+00  0.22706923820E+04  0.22706923821E+04  0.50400001928E-02 0. -1.
       -1   -1    0    0    0  501  0.00000000000E+00  0.00000000000E+00 -0.39730694833E+03  0.39730694837E+03  0.50400001928E-02 0.  1.
    10030    2    1    2    0    0  0.00000000000E+00  0.00000000000E+00  0.18733854337E+04  0.26679993304E+04  0.18996440308E+04 0.  0.
        4    1    3    3  502    0 -0.38579676004E+02 -0.39542599219E+03 -0.27499430741E+03  0.48319104783E+03  0.12699999809E+01 0.  1.
       -4    1    3    3    0  502  0.38579676004E+02  0.39542599219E+03  0.21483797411E+04  0.21848082826E+04  0.12699999809E+01 0. -1.
</event>
<event>
 5   0  0.3398807E-06  0.1899110E+04  0.7818609E-02  0.8655299E-01
        1   -1    0    0  501    0  0.00000000000E+00  0.00000000000E+00  0.11487975252E+04  0.11487975253E+04  0.50400001928E-02 0.  1.
       -1   -1    0    0    0  501  0.00000000000E+00  0.00000000000E+00 -0.78486830503E+03  0.78486830504E+03  0.50400001928E-02 0. -1.
    10030    2    1    2    0    0  0.00000000000E+00  0.00000000000E+00  0.36392922022E+03  0.19336658303E+04  0.18991100721E+04 0.  0.
        1    1    3    3  502    0 -0.82623087113E+03  0.23580812918E+03  0.59353722296E+03  0.10442937141E+04  0.50400001928E-02 0.  1.
       -1    1    3    3    0  502  0.82623087113E+03 -0.23580812918E+03 -0.22960800273E+03  0.88937211623E+03  0.50400001928E-02 0. -1.
</event>
<event>
 5   0  0.6984466E-06  0.1901787E+04  0.7818609E-02  0.8653967E-01
       -2   -1    0    0    0  501  0.00000000000E+00  0.00000000000E+00  0.36889728637E+03  0.36889728638E+03  0.25500000920E-02 0.  1.
        2   -1    0    0  501    0  0.00000000000E+00  0.00000000000E+00 -0.24510852401E+04  0.24510852401E+04  0.25500000920E-02 0. -1.
    10030    2    1    2    0    0  0.00000000000E+00  0.00000000000E+00 -0.20821879537E+04  0.28199825265E+04  0.19017872581E+04 0.  0.
        2    1    3    3  502    0 -0.85555992647E+03 -0.36586813697E+03 -0.75068938890E+03  0.11955654897E+04  0.25500000920E-02 0.  1.
       -2    1    3    3    0  502  0.85555992647E+03  0.36586813697E+03 -0.13314985648E+04  0.16244170368E+04  0.25500000920E-02 0. -1.
</event>
<event>
 5   0  0.3379108E-06  0.1900413E+04  0.7818609E-02  0.8654651E-01
        1   -1    0    0  501    0  0.00000000000E+00  0.00000000000E+00  0.54395240971E+03  0.54395240973E+03  0.50400001928E-02 0. -1.
       -1   -1    0    0    0  501  0.00000000000E+00  0.00000000000E+00 -0.16598738151E+04  0.16598738151E+04  0.50400001928E-02 0.  1.
    10030    2    1    2    0    0  0.00000000000E+00  0.00000000000E+00 -0.11159214054E+04  0.22038262248E+04  0.19004129673E+04 0.  0.
        4    1    3    3  502    0 -0.90832155316E+02 -0.70513236045E+03  0.17310924620E+03  0.73173120079E+03  0.12699999809E+01 0. -1.
       -4    1    3    3    0  502  0.90832155316E+02  0.70513236045E+03 -0.12890306516E+04  0.14720950241E+04  0.12699999809E+01 0.  1.
</event>
<event>
 5   0  0.6984466E-06  0.1899157E+04  0.7818609E-02  0.8655276E-01
        2   -1    0    0  501    0  0.00000000000E+00  0.00000000000E+00  0.14757749217E+04  0.14757749217E+04  0.25500000920E-02 0.  1.
       -2   -1    0    0    0  501  0.00000000000E+00  0.00000000000E+00 -0.61100043648E+03  0.61100043649E+03  0.25500000920E-02 0. -1.
    10030    2    1    2    0    0  0.00000000000E+00  0.00000000000E+00  0.86477448519E+03  0.20867753582E+04  0.18991567827E+04 0.  0.
        2    1    3    3  502    0  0.36118517983E+03 -0.21204998361E+03  0.13687986196E+04  0.14314431846E+04  0.25500000920E-02 0.  1.
       -2    1    3    3    0  502 -0.36118517983E+03  0.21204998361E+03 -0.50402413439E+03  0.65533217359E+03  0.25500000920E-02 0. -1.
</event>
<event>
 5   0  0.3398807E-06  0.1899257E+04  0.7818609E-02  0.8655226E-01
       -1   -1    0    0    0  501  0.00000000000E+00  0.00000000000E+00  0.39937703032E+03  0.39937703035E+03  0.50400001928E-02 0.  1.
        1   -1    0    0  501    0  0.00000000000E+00  0.00000000000E+00 -0.22580028935E+04  0.22580028935E+04  0.50400001928E-02 0. -1.
    10030    2    1    2    0    0  0.00000000000E+00  0.00000000000E+00 -0.18586258631E+04  0.26573799238E+04  0.18992572128E+04 0.  0.
        1    1    3    3  502    0  0.46534162365E+03 -0.56960217192E+03 -0.88874010773E+02  0.74086979340E+03  0.50400001928E-02 0.  1.
       -1    1    3    3    0  502 -0.46534162365E+03  0.56960217192E+03 -0.17697518524E+04  0.19165101304E+04  0.50400001928E-02 0. -1.
</event>
<event>
 5   0  0.3236653E-06  0.1900233E+04  0.7818609E-02  0.8654740E-01
        1   -1    0    0  501    0  0.00000000000E+00  0.00000000000E+00  0.58303610548E+03  0.58303610550E+03  0.50400001928E-02 0.  1.
       -1   -1    0    0    0  501  0.00000000000E+00  0.00000000000E+00 -0.15483111348E+04  0.15483111348E+04  0.50400001928E-02 0. -1.
    10030    2    1    2    0    0  0.00000000000E+00  0.00000000000E+00 -0.96527502928E+03  0.21313472403E+04  0.19002329269E+04 0.  0.
        3    1    3    3  502    0 -0.69338827829E+03 -0.21390314523E+03  0.20529350108E+03  0.75411358017E+03  0.10100000352E+00 0.  1.
       -3    1    3    3    0  502  0.69338827829E+03  0.21390314523E+03 -0.11705685304E+04  0.13772336601E+04  0.10100000352E+00 0. -1.
</event>
<event>
 5   0  0.6984466E-06  0.1899525E+04  0.7818609E-02  0.8655093E-01
        2   -1    0    0  501    0  0.00000000000E+00  0.00000000000E+00  0.15200706531E+04  0.15200706531E+04  0.25500000920E-02 0. -1.
       -2   -1    0    0    0  501  0.00000000000E+00  0.00000000000E+00 -0.59342531601E+03  0.59342531601E+03  0.25500000920E-02 0.  1.
    10030    2    1    2    0    0  0.00000000000E+00  0.00000000000E+00  0.92664533709E+03  0.21134959691E+04  0.18995245802E+04 0.  0.
        2    1    3    3  502    0  0.74006301060E+03 -0.59171608976E+03  0.39098178917E+03  0.10250307069E+04  0.25500000920E-02 0.  1.
       -2    1    3    3    0  502 -0.74006301060E+03  0.59171608976E+03  0.53566354792E+03  0.10884652622E+04  0.25500000920E-02 0. -1.
</event>
<event>
 5   0  0.6862201E-06  0.1899714E+04  0.7818609E-02  0.8654999E-01
       -2   -1    0    0    0  501  0.00000000000E+00  0.00000000000E+00  0.11776465817E+04  0.11776465817E+04  0.25500000920E-02 0. -1.
        2   -1    0    0  501    0  0.00000000000E+00  0.00000000000E+00 -0.76612827536E+03  0.76612827536E+03  0.25500000920E-02 0.  1.
    10030    2    1    2    0    0  0.00000000000E+00  0.00000000000E+00  0.41151830635E+03  0.19437748571E+04  0.18997140255E+04 0.  0.
        3    1    3    3  502    0 -0.55117440126E+03  0.65480302909E+03  0.62722058495E+03  0.10611154037E+04  0.10100000352E+00 0. -1.
       -3    1    3    3    0  502  0.55117440126E+03 -0.65480302909E+03 -0.21570227859E+03  0.88265945341E+03  0.10100000352E+00 0.  1.
</event>
<event>
 5   0  0.7577180E-06  0.1899903E+04  0.7818609E-02  0.8654905E-01
        2   -1    0    0  501    0  0.00000000000E+00  0.00000000000E+00  0.13532596432E+04  0.13532596432E+04  0.25500000920E-02 0. -1.
       -2   -1    0    0    0  501  0.00000000000E+00  0.00000000000E+00 -0.66684024999E+03  0.66684024999E+03  0.25500000920E-02 0.  1.
    10030    2    1    2    0    0  0.00000000000E+00  0.00000000000E+00  0.68641939318E+03  0.20200998932E+04  0.18999031541E+04 0.  0.
        5    1    3    3  502    0 -0.15697573226E+03  0.75618494445E+03 -0.24489087935E+03  0.81021644239E+03  0.46999998093E+01 0.  1.
       -5    1    3    3    0  502  0.15697573226E+03 -0.75618494445E+03  0.93131027253E+03  0.12098834508E+04  0.46999998093E+01 0. -1.
</event>
<event>
 5   0  0.3379108E-06  0.1899363E+04  0.7818609E-02  0.8655174E-01
        1   -1    0    0  501    0  0.00000000000E+00  0.00000000000E+00  0.84495402397E+03  0.84495402399E+03  0.50400001928E-02 0.  1.
       -1   -1    0    0    0  501  0.00000000000E+00  0.00000000000E+00 -0.10673891662E+04  0.10673891662E+04  0.50400001928E-02 0. -1.
    10030    2    1    2    0    0  0.00000000000E+00  0.00000000000E+00 -0.22243514225E+03  0.19123431902E+04  0.18993628102E+04 0.  0.
        4    1    3    3  502    0  0.77226265453E+03 -0.26599993796E+02  0.44463872430E+03  0.89151689569E+03  0.12699999809E+01 0.  1.
       -4    1    3    3    0  502 -0.77226265453E+03  0.26599993796E+02 -0.66707386655E+03  0.10208262945E+04  0.12699999809E+01 0. -1.
</event>
<event>
 5   0  0.3398807E-06  0.1900548E+04  0.7818609E-02  0.8654584E-01
        1   -1    0    0  501    0  0.00000000000E+00  0.00000000000E+00  0.10320070793E+04  0.10320070793E+04  0.50400001928E-02 0.  1.
       -1   -1    0    0    0  501  0.00000000000E+00  0.00000000000E+00 -0.87501420992E+03  0.87501420994E+03  0.50400001928E-02 0. -1.
    10030    2    1    2    0    0  0.00000000000E+00  0.00000000000E+00  0.15699286941E+03  0.19070212893E+04  0.19005481937E+04 0.  0.
        1    1    3    3  502    0  0.19741389693E+03 -0.80866141686E+02  0.10076683377E+04  0.10300034264E+04  0.50400001928E-02 0.  1.
       -1    1    3    3    0  502 -0.19741389693E+03  0.80866141686E+02 -0.85067546825E+03  0.87701786292E+03  0.50400001928E-02 0. -1.
</event>
<event>
 5   0  0.3236653E-06  0.1900160E+04  0.7818609E-02  0.8654777E-01
        1   -1    0    0  501    0  0.00000000000E+00  0.00000000000E+00  0.12516296322E+04  0.12516296322E+04  0.50400001928E-02 0.  1.
       -1   -1    0    0    0  501  0.00000000000E+00  0.00000000000E+00 -0.72118141897E+03  0.72118141899E+03  0.50400001928E-02 0. -1.
    10030    2    1    2    0    0  0.00000000000E+00  0.00000000000E+00  0.53044821320E+03  0.19728110512E+04  0.19001600292E+04 0.  0.
        3    1    3    3  502    0  0.17531592710E+03 -0.11028199252E+01  0.12346897472E+04  0.12470748464E+04  0.10100000352E+00 0.  1.
       -3    1    3    3    0  502 -0.17531592710E+03  0.11028199252E+01 -0.70424153399E+03  0.72573620476E+03  0.10100000352E+00 0. -1.
</event>
<event>
 5   0  0.6862201E-06  0.1900015E+04  0.7818609E-02  0.8654849E-01
        2   -1    0    0  501    0  0.00000000000E+00  0.00000000000E+00  0.11542070344E+04  0.11542070344E+04  0.25500000920E-02 0. -1.
       -2   -1    0    0    0  501  0.00000000000E+00  0.00000000000E+00 -0.78193461422E+03  0.78193461422E+03  0.25500000920E-02 0.  1.
    10030    2    1    2    0    0  0.00000000000E+00  0.00000000000E+00  0.37227242014E+03  0.19361416486E+04  0.19000151917E+04 0.  0.
        3    1    3    3  502    0  0.74587813818E+02  0.33211304923E+03  0.10899342187E+04  0.11418489527E+04  0.10100000352E+00 0. -1.
       -3    1    3    3    0  502 -0.74587813818E+02 -0.33211304923E+03 -0.71766179857E+03  0.79429269590E+03  0.10100000352E+00 0.  1.
</event>
<event>
 5   0  0.6984466E-06  0.1900195E+04  0.7818609E-02  0.8654759E-01
       -2   -1    0    0    0  501  0.00000000000E+00  0.00000000000E+00  0.50669183315E+03  0.50669183316E+03  0.25500000920E-02 0. -1.
        2   -1    0    0  501    0  0.00000000000E+00  0.00000000000E+00 -0.17815267607E+04  0.17815267607E+04  0.25500000920E-02 0.  1.
    10030    2    1    2    0    0  0.00000000000E+00  0.00000000000E+00 -0.12748349275E+04  0.22882185938E+04  0.19001947902E+04 0.  0.
        2    1    3    3  502    0  0.67442765689E+02  0.88663048858E+03 -0.23437313665E+03  0.91956126338E+03  0.25500000920E-02 0. -1.
       -2    1    3    3    0  502 -0.67442765689E+02 -0.88663048858E+03 -0.10404617909E+04  0.13686573304E+04  0.25500000920E-02 0.  1.
</event>
<event>
 5   0  0.3495279E-06  0.1900657E+04  0.7818609E-02  0.8654530E-01
        1   -1    0    0  501    0  0.00000000000E+00  0.00000000000E+00  0.20148685973E+04  0.20148685973E+04  0.50400001928E-02 0. -1.
       -1   -1    0    0    0  501  0.00000000000E+00  0.00000000000E+00 -0.44822973027E+03  0.44822973030E+03  0.50400001928E-02 0.  1.
    10030    2    1    2    0    0  0.00000000000E+00  0.00000000000E+00  0.15666388670E+04  0.24630983276E+04  0.19006567370E+04 0.  0.
        2    1    3    3  502    0 -0.92097009843E+02 -0.76025077887E+03  0.15125674931E+04  0.16953830031E+04  0.25500000920E-02 0. -1.
       -2    1    3    3    0  502  0.92097009843E+02  0.76025077887E+03  0.54071373904E+02  0.76771532450E+03  0.25500000920E-02 0.  1.
</event>
<event>
 5   0  0.3495279E-06  0.1899505E+04  0.7818609E-02  0.8655103E-01
        1   -1    0    0  501    0  0.00000000000E+00  0.00000000000E+00  0.88868999456E+03  0.88868999457E+03  0.50400001928E-02 0. -1.
       -1   -1    0    0    0  501  0.00000000000E+00  0.00000000000E+00 -0.10150107362E+04  0.10150107362E+04  0.50400001928E-02 0.  1.
    10030    2    1    2    0    0  0.00000000000E+00  0.00000000000E+00 -0.12632074168E+03  0.19037007308E+04  0.18995050784E+04 0.  0.
        2    1    3    3  502    0 -0.47015877589E+03 -0.78829568896E+03  0.18144945902E+03  0.93561919281E+03  0.25500000920E-02 0. -1.
       -2    1    3    3    0  502  0.47015877589E+03  0.78829568896E+03 -0.30777020069E+03  0.96808153800E+03  0.25500000920E-02 0.  1.
</event>
<event>
 5   0  0.6870370E-06  0.1900362E+04  0.7818609E-02  0.8654676E-01
       -2   -1    0    0    0  501  0.00000000000E+00  0.00000000000E+00  0.96512913130E+03  0.96512913130E+03  0.25500000920E-02 0.  1.
        2   -1    0    0  501    0  0.00000000000E+00  0.00000000000E+00 -0.93546466948E+03  0.93546466949E+03  0.25500000920E-02 0. -1.
    10030    2    1    2    0    0  0.00000000000E+00  0.00000000000E+00  0.29664461817E+02  0.19005938008E+04  0.19003622853E+04 0.  0.
        1    1    3    3  502    0  0.27613804323E+03  0.69146505101E+03  0.60521598658E+03  0.95951160812E+03  0.50400001928E-02 0.  1.
       -1    1    3    3    0  502 -0.27613804323E+03 -0.69146505101E+03 -0.57555152476E+03  0.94108219267E+03  0.50400001928E-02 0. -1.
</event>
<event>
 5   0  0.3236653E-06  0.1900273E+04  0.7818609E-02  0.8654721E-01
       -1   -1    0    0    0  501  0.00000000000E+00  0.00000000000E+00  0.59060827606E+03  0.59060827608E+03  0.50400001928E-02 0.  1.
        1   -1    0    0  501    0  0.00000000000E+00  0.00000000000E+00 -0.15285246411E+04  0.15285246411E+04  0.50400001928E-02 0. -1.
    10030    2    1    2    0    0  0.00000000000E+00  0.00000000000E+00 -0.93791636501E+03  0.21191329172E+04  0.19002729311E+04 0.  0.
        3    1    3    3  502    0 -0.28001905791E+02  0.58518238228E+03 -0.13031319526E+04  0.14287670990E+04  0.10100000352E+00 0. -1.
       -3    1    3    3    0  502  0.28001905791E+02 -0.58518238228E+03  0.36521558755E+03  0.69036581814E+03  0.10100000352E+00 0.  1.
</event>
<event>
 5   0  0.6870370E-06  0.1899901E+04  0.7818609E-02  0.8654906E-01
       -2   -1    0    0    0  501  0.00000000000E+00  0.00000000000E+00  0.58231120785E+03  0.58231120785E+03  0.25500000920E-02 0. -1.
        2   -1    0    0  501    0  0.00000000000E+00  0.00000000000E+00 -0.15496969557E+04  0.15496969557E+04  0.25500000920E-02 0.  1.
    10030    2    1    2    0    0  0.00000000000E+00  0.00000000000E+00 -0.96738574782E+03  0.21320081635E+04  0.18999009512E+04 0.  0.
        1    1    3    3  502    0  0.51518351290E+03  0.11169900893E+03 -0.13705004703E+04  0.14683876394E+04  0.50400001928E-02 0.  1.
       -1    1    3    3    0  502 -0.51518351290E+03 -0.11169900893E+03  0.40311472244E+03  0.66362052412E+03  0.50400001928E-02 0. -1.
</event>
<event>
 5   0  0.3495279E-06  0.1899060E+04  0.7818609E-02  0.8655324E-01
       -1   -1    0    0    0  501  0.00000000000E+00  0.00000000000E+00  0.11204600955E+04  0.11204600955E+04  0.50400001928E-02 0. -1.
        1   -1    0    0  501    0  0.00000000000E+00  0.00000000000E+00 -0.80467624530E+03  0.80467624531E+03  0.50400001928E-02 0.  1.
    10030    2    1    2    0    0  0.00000000000E+00  0.00000000000E+00  0.31578385021E+03  0.19251363408E+04  0.18990604231E+04 0.  0.
        2    1    3    3  502    0 -0.88500297591E+03 -0.37507806279E+00 -0.19089224648E+03  0.90535642585E+03  0.25500000920E-02 0.  1.
       -2    1    3    3    0  502  0.88500297591E+03  0.37507806279E+00  0.50667609669E+03  0.10197799150E+04  0.25500000920E-02 0. -1.
</event>
<event>
 5   0  0.3379108E-06  0.1897960E+04  0.7818609E-02  0.8655873E-01
       -1   -1    0    0    0  501  0.00000000000E+00  0.00000000000E+00  0.92589982449E+03  0.92589982450E+03  0.50400001928E-02 0. -1.
        1   -1    0    0  501    0  0.00000000000E+00  0.00000000000E+00 -0.97263508666E+03  0.97263508667E+03  0.50400001928E-02 0.  1.
    10030    2    1    2    0    0  0.00000000000E+00  0.00000000000E+00 -0.46735262174E+02  0.18985349112E+04  0.18979595950E+04 0.  0.
        4    1    3    3  502    0 -0.98738800159E+02 -0.86787715111E+02 -0.96348206656E+03  0.97240977146E+03  0.12699999809E+01 0.  1.
       -4    1    3    3    0  502  0.98738800159E+02  0.86787715111E+02  0.91674680439E+03  0.92612513971E+03  0.12699999809E+01 0. -1.
</event>
<event>
 5   0  0.7207648E-06  0.1900308E+04  0.7818609E-02  0.8654703E-01
       -2   -1    0    0    0  501  0.00000000000E+00  0.00000000000E+00  0.76538788319E+03  0.76538788319E+03  0.25500000920E-02 0.  1.
        2   -1    0    0  501    0  0.00000000000E+00  0.00000000000E+00 -0.11795228043E+04  0.11795228043E+04  0.25500000920E-02 0. -1.
    10030    2    1    2    0    0  0.00000000000E+00  0.00000000000E+00 -0.41413492108E+03  0.19449106875E+04  0.19003078302E+04 0.  0.
        4    1    3    3  502    0 -0.33276922021E+03  0.37317162186E+03  0.61985589380E+03  0.79637639044E+03  0.12699999809E+01 0.  1.
       -4    1    3    3    0  502  0.33276922021E+03 -0.37317162186E+03 -0.10339908149E+04  0.11485342970E+04  0.12699999809E+01 0. -1.
</event>
<event>
 5   0  0.6984466E-06  0.1899897E+04  0.7818609E-02  0.8654908E-01
       -2   -1    0    0    0  501  0.00000000000E+00  0.00000000000E+00  0.69397387053E+03  0.69397387053E+03  0.25500000920E-02 0.  1.
        2   -1    0    0  501    0  0.00000000000E+00  0.00000000000E+00 -0.13003403471E+04  0.13003403471E+04  0.25500000920E-02 0. -1.
    10030    2    1    2    0    0  0.00000000000E+00  0.00000000000E+00 -0.60636647653E+03  0.19943142176E+04  0.18998970747E+04 0.  0.
        2    1    3    3  502    0 -0.24812145185E+03  0.64874571617E+03  0.37707071749E+03  0.79032751762E+03  0.25500000920E-02 0.  1.
       -2    1    3    3    0  502  0.24812145185E+03 -0.64874571617E+03 -0.98343719402E+03  0.12039867000E+04  0.25500000920E-02 0. -1.
</event>
<event>
 5   0  0.3211263E-06  0.1902270E+04  0.7818609E-02  0.8653728E-01
       -1   -1    0    0    0  501  0.00000000000E+00  0.00000000000E+00  0.81796862761E+03  0.81796862762E+03  0.50400001928E-02 0.  1.
        1   -1    0    0  501    0  0.00000000000E+00  0.00000000000E+00 -0.11059804764E+04  0.11059804764E+04  0.50400001928E-02 0. -1.
    10030    2    1    2    0    0  0.00000000000E+00  0.00000000000E+00 -0.28801184874E+03  0.19239491040E+04  0.19022695208E+04 0.  0.
        5    1    3    3  502    0  0.25082456924E+03  0.40489402999E+03 -0.97666438310E+03  0.10866220812E+04  0.46999998093E+01 0. -1.
       -5    1    3    3    0  502 -0.25082456924E+03 -0.40489402999E+03  0.68865253436E+03  0.83732702282E+03  0.46999998093E+01 0.  1.
</event>
<event>
 5   0  0.7577180E-06  0.1899121E+04  0.7818609E-02  0.8655294E-01
       -2   -1    0    0    0  501  0.00000000000E+00  0.00000000000E+00  0.69770230972E+03  0.69770230972E+03  0.25500000920E-02 0. -1.
        2   -1    0    0  501    0  0.00000000000E+00  0.00000000000E+00 -0.12923345282E+04  0.12923345282E+04  0.25500000920E-02 0.  1.
    10030    2    1    2    0    0  0.00000000000E+00  0.00000000000E+00 -0.59463221850E+03  0.19900368379E+04  0.18991206231E+04 0.  0.
        5    1    3    3  502    0 -0.87102964958E+03  0.26378743443E+03 -0.58114505233E+03  0.10798278209E+04  0.46999998093E+01 0.  1.
       -5    1    3    3    0  502  0.87102964958E+03 -0.26378743443E+03 -0.13487166174E+02  0.91020901702E+03  0.46999998093E+01 0. -1.
</event>
<event>
 5   0  0.6984466E-06  0.1898342E+04  0.7818609E-02  0.8655682E-01
       -2   -1    0    0    0  501  0.00000000000E+00  0.00000000000E+00  0.79946218177E+03  0.79946218177E+03  0.25500000920E-02 0. -1.
        2   -1    0    0  501    0  0.00000000000E+00  0.00000000000E+00 -0.11269146216E+04  0.11269146216E+04  0.25500000920E-02 0.  1.
    10030    2    1    2    0    0  0.00000000000E+00  0.00000000000E+00 -0.32745243987E+03  0.19263768034E+04  0.18983420367E+04 0.  0.
        2    1    3    3  502    0  0.65054187544E+03  0.34497223251E+03  0.44404701916E+03  0.85987692615E+03  0.25500000920E-02 0. -1.
       -2    1    3    3    0  502 -0.65054187544E+03 -0.34497223251E+03 -0.77149945903E+03  0.10664998773E+04  0.25500000920E-02 0.  1.
</event>
<event>
 5   0  0.2527750E-06  0.1899969E+04  0.7818609E-02  0.8654872E-01
       -4   -1    0    0    0  501  0.00000000000E+00  0.00000000000E+00  0.12784194077E+04  0.12784200385E+04  0.12699999809E+01 0.  1.
        4   -1    0    0  501    0  0.00000000000E+00  0.00000000000E+00 -0.70592560099E+03  0.70592674339E+03  0.12699999809E+01 0. -1.
    10030    2    1    2    0    0  0.00000000000E+00  0.00000000000E+00  0.57249380672E+03  0.19843467819E+04  0.18999692082E+04 0.  0.
        3    1    3    3  502    0 -0.62028711569E+03 -0.14351312184E+03 -0.45013146430E+03  0.77972460997E+03  0.10100000352E+00 0. -1.
       -3    1    3    3    0  502  0.62028711569E+03  0.14351312184E+03  0.10226252710E+04  0.12046221720E+04  0.10100000352E+00 0.  1.
</event>
<event>
 5   0  0.3236653E-06  0.1901644E+04  0.7818609E-02  0.8654038E-01
       -1   -1    0    0    0  501  0.00000000000E+00  0.00000000000E+00  0.13701898371E+04  0.13701898371E+04  0.50400001928E-02 0. -1.
        1   -1    0    0  501    0  0.00000000000E+00  0.00000000000E+00 -0.65980836916E+03  0.65980836918E+03  0.50400001928E-02 0.  1.
    10030    2    1    2    0    0  0.00000000000E+00  0.00000000000E+00  0.71038146797E+03  0.20299982063E+04  0.19016442590E+04 0.  0.
        3    1    3    3  502    0  0.64934528093E+03  0.10549816392E+03  0.10880279573E+04  0.12714495674E+04  0.10100000352E+00 0. -1.
       -3    1    3    3    0  502 -0.64934528093E+03 -0.10549816392E+03 -0.37764648932E+03  0.75854863889E+03  0.10100000352E+00 0.  1.
</event>
<event>
 5   0  0.6870370E-06  0.1902505E+04  0.7818609E-02  0.8653610E-01
        2   -1    0    0  501    0  0.00000000000E+00  0.00000000000E+00  0.27926585908E+04  0.27926585908E+04  0.25500000920E-02 0. -1.
       -2   -1    0    0    0  501  0.00000000000E+00  0.00000000000E+00 -0.32402156805E+03  0.32402156806E+03  0.25500000920E-02 0.  1.
    10030    2    1    2    0    0  0.00000000000E+00  0.00000000000E+00  0.24686370227E+04  0.31166801588E+04  0.19025053121E+04 0.  0.
        1    1    3    3  502    0 -0.94567896101E+02  0.92509336410E+03  0.15625342104E+04  0.18183107484E+04  0.50400001928E-02 0. -1.
       -1    1    3    3    0  502  0.94567896101E+02 -0.92509336410E+03  0.90610281235E+03  0.12983694104E+04  0.50400001928E-02 0.  1.
</event>
<event>
 5   0  0.3236653E-06  0.1899051E+04  0.7818609E-02  0.8655329E-01
       -1   -1    0    0    0  501  0.00000000000E+00  0.00000000000E+00  0.72865323926E+03  0.72865323928E+03  0.50400001928E-02 0.  1.
        1   -1    0    0  501    0  0.00000000000E+00  0.00000000000E+00 -0.12373497766E+04  0.12373497766E+04  0.50400001928E-02 0. -1.
    10030    2    1    2    0    0  0.00000000000E+00  0.00000000000E+00 -0.50869653729E+03  0.19660030158E+04  0.18990512608E+04 0.  0.
        3    1    3    3  502    0  0.91298018637E+03  0.13425655673E+03 -0.48593392049E+03  0.10429235010E+04  0.10100000352E+00 0.  1.
       -3    1    3    3    0  502 -0.91298018637E+03 -0.13425655673E+03 -0.22762616807E+02  0.92307951481E+03  0.10100000352E+00 0. -1.
</event>
<event>
 5   0  0.6984466E-06  0.1899679E+04  0.7818609E-02  0.8655016E-01
       -2   -1    0    0    0  501  0.00000000000E+00  0.00000000000E+00  0.46549688733E+03  0.46549688733E+03  0.25500000920E-02 0.  1.
        2   -1    0    0  501    0  0.00000000000E+00  0.00000000000E+00 -0.19381332187E+04  0.19381332187E+04  0.25500000920E-02 0. -1.
    10030    2    1    2    0    0  0.00000000000E+00  0.00000000000E+00 -0.14726363314E+04  0.24036301061E+04  0.18996788998E+04 0.  0.
        2    1    3    3  502    0  0.97830835438E+02  0.50344010559E+03 -0.17478891511E+04  0.18215760475E+04  0.25500000920E-02 0. -1.
       -2    1    3    3    0  502 -0.97830835438E+02 -0.50344010559E+03  0.27525281974E+03  0.58205405853E+03  0.25500000920E-02 0.  1.
</event>
<event>
 5   0  0.6862201E-06  0.1900804E+04  0.7818609E-02  0.8654456E-01
       -2   -1    0    0    0  501  0.00000000000E+00  0.00000000000E+00  0.39143101726E+03  0.39143101727E+03  0.25500000920E-02 0.  1.
        2   -1    0    0  501    0  0.00000000000E+00  0.00000000000E+00 -0.23075944288E+04  0.23075944288E+04  0.25500000920E-02 0. -1.
    10030    2    1    2    0    0  0.00000000000E+00  0.00000000000E+00 -0.19161634115E+04  0.26990254461E+04  0.19008040769E+04 0.  0.
        3    1    3    3  502    0 -0.18005184227E+03 -0.16303405370E+03 -0.22627769604E+04  0.22757764283E+04  0.10100000352E+00 0. -1.
       -3    1    3    3    0  502  0.18005184227E+03  0.16303405370E+03  0.34661354892E+03  0.42324901779E+03  0.10100000352E+00 0.  1.
</event>
<event>
 5   0  0.6870370E-06  0.1901216E+04  0.7818609E-02  0.8654251E-01
       -2   -1    0    0    0  501  0.00000000000E+00  0.00000000000E+00  0.42074180321E+03  0.42074180322E+03  0.25500000920E-02 0.  1.
        2   -1    0    0  501    0  0.00000000000E+00  0.00000000000E+00 -0.21477674396E+04  0.21477674396E+04  0.25500000920E-02 0. -1.
    10030    2    1    2    0    0  0.00000000000E+00  0.00000000000E+00 -0.17270256364E+04  0.25685092429E+04  0.19012159745E+04 0.  0.
        1    1    3    3  502    0  0.31932552506E+03 -0.69415122548E+03 -0.99471877717E+02  0.77052538522E+03  0.50400001928E-02 0.  1.
       -1    1    3    3    0  502 -0.31932552506E+03  0.69415122548E+03 -0.16275537587E+04  0.17979838576E+04  0.50400001928E-02 0. -1.
</event>
<event>
 5   0  0.7577180E-06  0.1899646E+04  0.7818609E-02  0.8655032E-01
        2   -1    0    0  501    0  0.00000000000E+00  0.00000000000E+00  0.15378085820E+04  0.15378085820E+04  0.25500000920E-02 0.  1.
       -2   -1    0    0    0  501  0.00000000000E+00  0.00000000000E+00 -0.58665560087E+03  0.58665560088E+03  0.25500000920E-02 0. -1.
    10030    2    1    2    0    0  0.00000000000E+00  0.00000000000E+00  0.95115298113E+03  0.21244641829E+04  0.18996463015E+04 0.  0.
        5    1    3    3  502    0  0.47804823157E+03  0.19594161058E+03  0.13669060407E+04  0.14612930714E+04  0.46999998093E+01 0.  1.
       -5    1    3    3    0  502 -0.47804823157E+03 -0.19594161058E+03 -0.41575305960E+03  0.66317111143E+03  0.46999998093E+01 0. -1.
</event>
<event>
 5   0  0.3379108E-06  0.1900208E+04  0.7818609E-02  0.8654753E-01
       -1   -1    0    0    0  501  0.00000000000E+00  0.00000000000E+00  0.13382662844E+04  0.13382662844E+04  0.50400001928E-02 0.  1.
        1   -1    0    0  501    0  0.00000000000E+00  0.00000000000E+00 -0.67452784202E+03  0.67452784203E+03  0.50400001928E-02 0. -1.
    10030    2    1    2    0    0  0.00000000000E+00  0.00000000000E+00  0.66373844237E+03  0.20127941264E+04  0.19002082716E+04 0.  0.
        4    1    3    3  502    0 -0.75512944303E+03  0.48476367157E+03  0.66258569592E+03  0.11154540378E+04  0.12699999809E+01 0.  1.
       -4    1    3    3    0  502  0.75512944303E+03 -0.48476367157E+03  0.11527464509E+01  0.89734008867E+03  0.12699999809E+01 0. -1.
</event>
<event>
 5   0  0.3211263E-06  0.1899613E+04  0.7818609E-02  0.8655049E-01
        1   -1    0    0  501    0  0.00000000000E+00  0.00000000000E+00  0.58604593059E+03  0.58604593061E+03  0.50400001928E-02 0.  1.
       -1   -1    0    0    0  501  0.00000000000E+00  0.00000000000E+00 -0.15393537156E+04  0.15393537156E+04  0.50400001928E-02 0. -1.
    10030    2    1    2    0    0  0.00000000000E+00  0.00000000000E+00 -0.95330778498E+03  0.21253996462E+04  0.18996125718E+04 0.  0.
        5    1    3    3  502    0  0.29426011672E+03 -0.73415260617E+03 -0.10650302267E+04  0.13266048919E+04  0.46999998093E+01 0.  1.
       -5    1    3    3    0  502 -0.29426011672E+03  0.73415260617E+03  0.11172244175E+03  0.79879475426E+03  0.46999998093E+01 0. -1.
</event>
<event>
 5   0  0.7207648E-06  0.1900032E+04  0.7818609E-02  0.8654841E-01
        2   -1    0    0  501    0  0.00000000000E+00  0.00000000000E+00  0.17870816155E+04  0.17870816155E+04  0.25500000920E-02 0.  1.
       -2   -1    0    0    0  501  0.00000000000E+00  0.00000000000E+00 -0.50503025776E+03  0.50503025777E+03  0.25500000920E-02 0. -1.
    10030    2    1    2    0    0  0.00000000000E+00  0.00000000000E+00  0.12820513577E+04  0.22921118733E+04  0.19000318828E+04 0.  0.
        4    1    3    3  502    0 -0.66497009147E+02 -0.48865798416E+01  0.17842544532E+04  0.17855002934E+04  0.12699999809E+01 0.  1.
       -4    1    3    3    0  502  0.66497009147E+02  0.48865798416E+01 -0.50220309547E+03  0.50661157990E+03  0.12699999809E+01 0. -1.
</event>
<event>
 5   0  0.3379108E-06  0.1899820E+04  0.7818609E-02  0.8654946E-01
        1   -1    0    0  501    0  0.00000000000E+00  0.00000000000E+00  0.67222844583E+03  0.67222844585E+03  0.50400001928E-02 0.  1.
       -1   -1    0    0    0  501  0.00000000000E+00  0.00000000000E+00 -0.13422950010E+04  0.13422950010E+04  0.50400001928E-02 0. -1.
    10030    2    1    2    0    0  0.00000000000E+00  0.00000000000E+00 -0.67006655521E+03  0.20145234469E+04  0.18998198677E+04 0.  0.
        4    1    3    3  502    0 -0.30917078839E+03  0.85348489206E+03 -0.63175717111E+03  0.11059574013E+04  0.12699999809E+01 0.  1.
       -4    1    3    3    0  502  0.30917078839E+03 -0.85348489206E+03 -0.38309384098E+02  0.90856604558E+03  0.12699999809E+01 0. -1.
</event>
<event>
 5   0  0.3398807E-06  0.1899936E+04  0.7818609E-02  0.8654888E-01
       -1   -1    0    0    0  501  0.00000000000E+00  0.00000000000E+00  0.69925670552E+03  0.69925670553E+03  0.50400001928E-02 0. -1.
        1   -1    0    0  501    0  0.00000000000E+00  0.00000000000E+00 -0.12905695719E+04  0.12905695720E+04  0.50400001928E-02 0.  1.
    10030    2    1    2    0    0  0.00000000000E+00  0.00000000000E+00 -0.59131286643E+03  0.19898262775E+04  0.18999362380E+04 0.  0.
        1    1    3    3  502    0 -0.39404439694E+03  0.11267070898E+03 -0.11932180568E+04  0.12616398085E+04  0.50400001928E-02 0.  1.
       -1    1    3    3    0  502  0.39404439694E+03 -0.11267070898E+03  0.60190519033E+03  0.72818646898E+03  0.50400001928E-02 0. -1.
</event>
<event>
 5   0  0.6870370E-06  0.1900255E+04  0.7818609E-02  0.8654729E-01
       -2   -1    0    0    0  501  0.00000000000E+00  0.00000000000E+00  0.64163440863E+03  0.64163440863E+03  0.25500000920E-02 0. -1.
        2   -1    0    0  501    0  0.00000000000E+00  0.00000000000E+00 -0.14069424430E+04  0.14069424430E+04  0.25500000920E-02 0.  1.
    10030    2    1    2    0    0  0.00000000000E+00  0.00000000000E+00 -0.76530803438E+03  0.20485768516E+04  0.19002554380E+04 0.  0.
        1    1    3    3  502    0 -0.94089845384E+03  0.74357745471E+02 -0.26493518748E+03  0.98031098553E+03  0.50400001928E-02 0.  1.
       -1    1    3    3    0  502  0.94089845384E+03 -0.74357745471E+02 -0.50037284690E+03  0.10682658661E+04  0.50400001928E-02 0. -1.
</event>
<event>
 5   0  0.3211263E-06  0.1901539E+04  0.7818609E-02  0.8654091E-01
        1   -1    0    0  501    0  0.00000000000E+00  0.00000000000E+00  0.10852280216E+04  0.10852280216E+04  0.50400001928E-02 0.  1.
       -1   -1    0    0    0  501  0.00000000000E+00  0.00000000000E+00 -0.83296998716E+03  0.83296998718E+03  0.50400001928E-02 0. -1.
    10030    2    1    2    0    0  0.00000000000E+00  0.00000000000E+00  0.25225803439E+03  0.19181980087E+04  0.19015387151E+04 0.  0.
        5    1    3    3  502    0 -0.50095236217E+03  0.70295555821E+03  0.52816866145E+03  0.10119703607E+04  0.46999998093E+01 0.  1.
       -5    1    3    3    0  502  0.50095236217E+03 -0.70295555821E+03 -0.27591062705E+03  0.90622764806E+03  0.46999998093E+01 0. -1.
</event>
<event>
 5   0  0.7207648E-06  0.1899834E+04  0.7818609E-02  0.8654939E-01
        2   -1    0    0  501    0  0.00000000000E+00  0.00000000000E+00  0.14695262695E+04  0.14695262695E+04  0.25500000920E-02 0. -1.
       -2   -1    0    0    0  501  0.00000000000E+00  0.00000000000E+00 -0.61403650642E+03  0.61403650642E+03  0.25500000920E-02 0.  1.
    10030    2    1    2    0    0  0.00000000000E+00  0.00000000000E+00  0.85548976307E+03  0.20835627759E+04  0.18998344945E+04 0.  0.
        4    1    3    3  502    0 -0.81059806399E+03 -0.27576745111E+03 -0.23406328948E+02  0.85654327244E+03  0.12699999809E+01 0. -1.
       -4    1    3    3    0  502  0.81059806399E+03  0.27576745111E+03  0.87889609202E+03  0.12270195035E+04  0.12699999809E+01 0.  1.
</event>
<event>
 5   0  0.6870370E-06  0.1900060E+04  0.7818609E-02  0.8654827E-01
        2   -1    0    0  501    0  0.00000000000E+00  0.00000000000E+00  0.14253662331E+04  0.14253662331E+04  0.25500000920E-02 0.  1.
       -2   -1    0    0    0  501  0.00000000000E+00  0.00000000000E+00 -0.63321030900E+03  0.63321030900E+03  0.25500000920E-02 0. -1.
    10030    2    1    2    0    0  0.00000000000E+00  0.00000000000E+00  0.79215592409E+03  0.20585765421E+04  0.19000595705E+04 0.  0.
        1    1    3    3  502    0 -0.19137041175E+03 -0.22516772720E+03 -0.58215163538E+03  0.65285807529E+03  0.50400001928E-02 0. -1.
       -1    1    3    3    0  502  0.19137041175E+03  0.22516772720E+03  0.13743075595E+04  0.14057184668E+04  0.50400001928E-02 0.  1.
</event>
<event>
 5   0  0.6862201E-06  0.1900033E+04  0.7818609E-02  0.8654840E-01
        2   -1    0    0  501    0  0.00000000000E+00  0.00000000000E+00  0.14296249736E+04  0.14296249736E+04  0.25500000920E-02 0. -1.
       -2   -1    0    0    0  501  0.00000000000E+00  0.00000000000E+00 -0.63130610980E+03  0.63130610980E+03  0.25500000920E-02 0.  1.
    10030    2    1    2    0    0  0.00000000000E+00  0.00000000000E+00  0.79831886377E+03  0.20609310834E+04  0.19000326108E+04 0.  0.
        3    1    3    3  502    0  0.46426744666E+03 -0.73321646261E+03 -0.20067445001E+02  0.86807451041E+03  0.10100000352E+00 0.  1.
       -3    1    3    3    0  502 -0.46426744666E+03  0.73321646261E+03  0.81838630877E+03  0.11928565730E+04  0.10100000352E+00 0. -1.
</event>
<event>
 5   0  0.6984466E-06  0.1900387E+04  0.7818609E-02  0.8654664E-01
        2   -1    0    0  501    0  0.00000000000E+00  0.00000000000E+00  0.12856539123E+04  0.12856539123E+04  0.25500000920E-02 0. -1.
       -2   -1    0    0    0  501  0.00000000000E+00  0.00000000000E+00 -0.70226328317E+03  0.70226328318E+03  0.25500000920E-02 0.  1.
    10030    2    1    2    0    0  0.00000000000E+00  0.00000000000E+00  0.58339062914E+03  0.19879171955E+04  0.19003868422E+04 0.  0.
        2    1    3    3  502    0  0.41822656054E+03  0.76304208462E+03  0.69101170468E+03  0.11111452897E+04  0.25500000920E-02 0. -1.
       -2    1    3    3    0  502 -0.41822656054E+03 -0.76304208462E+03 -0.10762107554E+03  0.87677190578E+03  0.25500000920E-02 0.  1.
</event>
<event>
 5   0  0.6870370E-06  0.1900207E+04  0.7818609E-02  0.8654753E-01
       -2   -1    0    0    0  501  0.00000000000E+00  0.00000000000E+00  0.76832963835E+03  0.76832963836E+03  0.25500000920E-02 0.  1.
        2   -1    0    0  501    0  0.00000000000E+00  0.00000000000E+00 -0.11748819640E+04  0.11748819640E+04  0.25500000920E-02 0. -1.
    10030    2    1    2    0    0  0.00000000000E+00  0.00000000000E+00 -0.40655232567E+03  0.19432116024E+04  0.19002069724E+04 0.  0.
        1    1    3    3  502    0  0.13304661021E+03  0.77376665385E+03 -0.75043698664E+03  0.10860809850E+04  0.50400001928E-02 0. -1.
       -1    1    3    3    0  502 -0.13304661021E+03 -0.77376665385E+03  0.34388466098E+03  0.85713061734E+03  0.50400001928E-02 0.  1.
</event>
<event>
 5   0  0.7577180E-06  0.1894021E+04  0.7818609E-02  0.8657838E-01
        2   -1    0    0  501    0  0.00000000000E+00  0.00000000000E+00  0.14882213902E+04  0.14882213902E+04  0.25500000920E-02 0. -1.
       -2   -1    0    0    0  501  0.00000000000E+00  0.00000000000E+00 -0.60261772633E+03  0.60261772634E+03  0.25500000920E-02 0.  1.
    10030    2    1    2    0    0  0.00000000000E+00  0.00000000000E+00  0.88560366389E+03  0.20908391166E+04  0.18940206868E+04 0.  0.
        5    1    3    3  502    0 -0.18398680279E+03 -0.23000626982E+03 -0.55075445188E+03  0.62458512953E+03  0.46999998093E+01 0.  1.
       -5    1    3    3    0  502  0.18398680279E+03  0.23000626982E+03  0.14363581158E+04  0.14662539870E+04  0.46999998093E+01 0. -1.
</event>
<event>
 5   0  0.6984466E-06  0.1899656E+04  0.7818609E-02  0.8655028E-01
        2   -1    0    0  501    0  0.00000000000E+00  0.00000000000E+00  0.86869804929E+03  0.86869804929E+03  0.25500000920E-02 0. -1.
       -2   -1    0    0    0  501  0.00000000000E+00  0.00000000000E+00 -0.10385344190E+04  0.10385344190E+04  0.25500000920E-02 0.  1.
    10030    2    1    2    0    0  0.00000000000E+00  0.00000000000E+00 -0.16983636974E+03  0.19072324683E+04  0.18996555729E+04 0.  0.
        2    1    3    3  502    0 -0.12053829086E+03  0.77946644733E+02  0.85774509824E+03  0.86967339418E+03  0.25500000920E-02 0. -1.
       -2    1    3    3    0  502  0.12053829086E+03 -0.77946644733E+02 -0.10275814680E+04  0.10375590741E+04  0.25500000920E-02 0.  1.
</event>
<event>
 5   0  0.3236653E-06  0.1899566E+04  0.7818609E-02  0.8655073E-01
        1   -1    0    0  501    0  0.00000000000E+00  0.00000000000E+00  0.15935646635E+04  0.15935646635E+04  0.50400001928E-02 0.  1.
       -1   -1    0    0    0  501  0.00000000000E+00  0.00000000000E+00 -0.56608141419E+03  0.56608141421E+03  0.50400001928E-02 0. -1.
    10030    2    1    2    0    0  0.00000000000E+00  0.00000000000E+00  0.10274832494E+04  0.21596460778E+04  0.18995655697E+04 0.  0.
        3    1    3    3  502    0  0.12236412106E+03  0.80878377851E+03  0.10625118651E+04  0.13409085175E+04  0.10100000352E+00 0.  1.
       -3    1    3    3    0  502 -0.12236412106E+03 -0.80878377851E+03 -0.35028615776E+02  0.81873756028E+03  0.10100000352E+00 0. -1.
</event>
<event>
 5   0  0.3398807E-06  0.1899573E+04  0.7818609E-02  0.8655069E-01
       -1   -1    0    0    0  501  0.00000000000E+00  0.00000000000E+00  0.45948190655E+03  0.45948190658E+03  0.50400001928E-02 0.  1.
        1   -1    0    0  501    0  0.00000000000E+00  0.00000000000E+00 -0.19632853325E+04  0.19632853325E+04  0.50400001928E-02 0. -1.
    10030    2    1    2    0    0  0.00000000000E+00  0.00000000000E+00 -0.15038034260E+04  0.24227672391E+04  0.18995726759E+04 0.  0.
        1    1    3    3  502    0  0.24969514466E+03 -0.54259402757E+02 -0.19186232679E+04  0.19355637402E+04  0.50400001928E-02 0. -1.
       -1    1    3    3    0  502 -0.24969514466E+03  0.54259402757E+02  0.41481984196E+03  0.48720349892E+03  0.50400001928E-02 0.  1.
</event>
<event>
 5   0  0.6984466E-06  0.1908317E+04  0.7818609E-02  0.8650727E-01
        2   -1    0    0  501    0  0.00000000000E+00  0.00000000000E+00  0.95460653847E+03  0.95460653848E+03  0.25500000920E-02 0. -1.
       -2   -1    0    0    0  501  0.00000000000E+00  0.00000000000E+00 -0.95371071945E+03  0.95371071945E+03  0.25500000920E-02 0.  1.
    10030    2    1    2    0    0  0.00000000000E+00  0.00000000000E+00  0.89581902576E+00  0.19083172579E+04  0.19083170477E+04 0.  0.
        2    1    3    3  502    0 -0.81559520832E+03 -0.16029811298E+03 -0.46808971770E+03  0.95393868392E+03  0.25500000920E-02 0.  1.
       -2    1    3    3    0  502  0.81559520832E+03  0.16029811298E+03  0.46898553672E+03  0.95437857401E+03  0.25500000920E-02 0. -1.
</event>
<event>
 5   0  0.7577180E-06  0.1901798E+04  0.7818609E-02  0.8653962E-01
        2   -1    0    0  501    0  0.00000000000E+00  0.00000000000E+00  0.77603515392E+03  0.77603515393E+03  0.25500000920E-02 0. -1.
       -2   -1    0    0    0  501  0.00000000000E+00  0.00000000000E+00 -0.11651653160E+04  0.11651653160E+04  0.25500000920E-02 0.  1.
    10030    2    1    2    0    0  0.00000000000E+00  0.00000000000E+00 -0.38913016203E+03  0.19412004699E+04  0.19017983545E+04 0.  0.
        5    1    3    3  502    0 -0.33929564095E+03  0.25303117556E+03  0.67456975591E+03  0.79637475686E+03  0.46999998093E+01 0. -1.
       -5    1    3    3    0  502  0.33929564095E+03 -0.25303117556E+03 -0.10636999179E+04  0.11448257130E+04  0.46999998093E+01 0.  1.
</event>
<event>
 5   0  0.7577180E-06  0.1903157E+04  0.7818609E-02  0.8653287E-01
        2   -1    0    0  501    0  0.00000000000E+00  0.00000000000E+00  0.11428274634E+04  0.11428274634E+04  0.25500000920E-02 0. -1.
       -2   -1    0    0    0  501  0.00000000000E+00  0.00000000000E+00 -0.79233417045E+03  0.79233417045E+03  0.25500000920E-02 0.  1.
    10030    2    1    2    0    0  0.00000000000E+00  0.00000000000E+00  0.35049329293E+03  0.19351616338E+04  0.19031565886E+04 0.  0.
        5    1    3    3  502    0 -0.86858950407E+03 -0.19658237299E+03  0.51612575340E+03  0.10293202802E+04  0.46999998093E+01 0. -1.
       -5    1    3    3    0  502  0.86858950407E+03  0.19658237299E+03 -0.16563246047E+03  0.90584135361E+03  0.46999998093E+01 0.  1.
</event>
<event>
 5   0  0.3379108E-06  0.1900053E+04  0.7818609E-02  0.8654830E-01
       -1   -1    0    0    0  501  0.00000000000E+00  0.00000000000E+00  0.52173438783E+03  0.52173438786E+03  0.50400001928E-02 0. -1.
        1   -1    0    0  501    0  0.00000000000E+00  0.00000000000E+00 -0.17299044700E+04  0.17299044700E+04  0.50400001928E-02 0.  1.
    10030    2    1    2    0    0  0.00000000000E+00  0.00000000000E+00 -0.12081700822E+04  0.22516388579E+04  0.19000533147E+04 0.  0.
        4    1    3    3  502    0  0.15175548190E+03  0.13023734203E+03 -0.17046786510E+04  0.17163689602E+04  0.12699999809E+01 0.  1.
       -4    1    3    3    0  502 -0.15175548190E+03 -0.13023734203E+03  0.49650856881E+03  0.53526989766E+03  0.12699999809E+01 0. -1.
</event>
<event>
 5   0  0.3211263E-06  0.1900205E+04  0.7818609E-02  0.8654755E-01
        1   -1    0    0  501    0  0.00000000000E+00  0.00000000000E+00  0.18222236704E+04  0.18222236704E+04  0.50400001928E-02 0. -1.
       -1   -1    0    0    0  501  0.00000000000E+00  0.00000000000E+00 -0.49538070562E+03  0.49538070565E+03  0.50400001928E-02 0.  1.
    10030    2    1    2    0    0  0.00000000000E+00  0.00000000000E+00  0.13268429648E+04  0.23176043760E+04  0.19002046707E+04 0.  0.
        5    1    3    3  502    0 -0.42944524068E+03  0.35843972772E+03 -0.27323490300E+03  0.62256056361E+03  0.46999998093E+01 0.  1.
       -5    1    3    3    0  502  0.42944524068E+03 -0.35843972772E+03  0.16000778678E+04  0.16950438124E+04  0.46999998093E+01 0. -1.
</event>
<event>
 5   0  0.6870370E-06  0.1899584E+04  0.7818609E-02  0.8655064E-01
       -2   -1    0    0    0  501  0.00000000000E+00  0.00000000000E+00  0.60034441274E+03  0.60034441275E+03  0.25500000920E-02 0. -1.
        2   -1    0    0  501    0  0.00000000000E+00  0.00000000000E+00 -0.15026449553E+04  0.15026449553E+04  0.25500000920E-02 0.  1.
    10030    2    1    2    0    0  0.00000000000E+00  0.00000000000E+00 -0.90230054256E+03  0.21029893680E+04  0.18995836420E+04 0.  0.
        1    1    3    3  502    0 -0.80024816106E+03 -0.38144515847E+03 -0.82854406523E+03  0.12134178160E+04  0.50400001928E-02 0.  1.
       -1    1    3    3    0  502  0.80024816106E+03  0.38144515847E+03 -0.73756477329E+02  0.88957155202E+03  0.50400001928E-02 0. -1.
</event>
<event>
 5   0  0.7207648E-06  0.1900028E+04  0.7818609E-02  0.8654843E-01
        2   -1    0    0  501    0  0.00000000000E+00  0.00000000000E+00  0.11533804959E+04  0.11533804959E+04  0.25500000920E-02 0.  1.
       -2   -1    0    0    0  501  0.00000000000E+00  0.00000000000E+00 -0.78250541313E+03  0.78250541313E+03  0.25500000920E-02 0. -1.
    10030    2    1    2    0    0  0.00000000000E+00  0.00000000000E+00  0.37087508281E+03  0.19358859091E+04  0.19000278750E+04 0.  0.
        4    1    3    3  502    0 -0.46025593316E+03 -0.82733947337E+03  0.26565548221E+03  0.98331102726E+03  0.12699999809E+01 0. -1.
       -4    1    3    3    0  502  0.46025593316E+03  0.82733947337E+03  0.10521960060E+03  0.95257488181E+03  0.12699999809E+01 0.  1.
</event>
<event>
 5   0  0.6984466E-06  0.1899609E+04  0.7818609E-02  0.8655051E-01
       -2   -1    0    0    0  501  0.00000000000E+00  0.00000000000E+00  0.10727996464E+04  0.10727996464E+04  0.25500000920E-02 0. -1.
        2   -1    0    0  501    0  0.00000000000E+00  0.00000000000E+00 -0.84091077681E+03  0.84091077681E+03  0.25500000920E-02 0.  1.
    10030    2    1    2    0    0  0.00000000000E+00  0.00000000000E+00  0.23188886963E+03  0.19137104233E+04  0.18996092062E+04 0.  0.
        2    1    3    3  502    0  0.40959565941E+03  0.84718565357E+03  0.24588503652E+03  0.97260042516E+03  0.25500000920E-02 0.  1.
       -2    1    3    3    0  502 -0.40959565941E+03 -0.84718565357E+03 -0.13996166887E+02  0.94110999810E+03  0.25500000920E-02 0. -1.
</event>
<event>
 5   0  0.6984466E-06  0.1900100E+04  0.7818609E-02  0.8654807E-01
       -2   -1    0    0    0  501  0.00000000000E+00  0.00000000000E+00  0.58885267781E+03  0.58885267782E+03  0.25500000920E-02 0.  1.
        2   -1    0    0  501    0  0.00000000000E+00  0.00000000000E+00 -0.15328024402E+04  0.15328024402E+04  0.25500000920E-02 0. -1.
    10030    2    1    2    0    0  0.00000000000E+00  0.00000000000E+00 -0.94394976239E+03  0.21216551180E+04  0.19000998095E+04 0.  0.
        2    1    3    3  502    0  0.17255341585E+03 -0.91310069029E+03 -0.69267618786E+03  0.11590202126E+04  0.25500000920E-02 0. -1.
       -2    1    3    3    0  502 -0.17255341585E+03  0.91310069029E+03 -0.25127357453E+03  0.96263490545E+03  0.25500000920E-02 0.  1.
</event>
<event>
 5   0  0.3495279E-06  0.1900808E+04  0.7818609E-02  0.8654454E-01
       -1   -1    0    0    0  501  0.00000000000E+00  0.00000000000E+00  0.92811164503E+03  0.92811164504E+03  0.50400001928E-02 0. -1.
        1   -1    0    0  501    0  0.00000000000E+00  0.00000000000E+00 -0.97323157297E+03  0.97323157298E+03  0.50400001928E-02 0.  1.
    10030    2    1    2    0    0  0.00000000000E+00  0.00000000000E+00 -0.45119927939E+02  0.19013432180E+04  0.19008077822E+04 0.  0.
        2    1    3    3  502    0  0.57048421015E+03  0.40958940761E+03 -0.66309324625E+03  0.96587181866E+03  0.25500000920E-02 0.  1.
       -2    1    3    3    0  502 -0.57048421015E+03 -0.40958940761E+03  0.61797331831E+03  0.93547139935E+03  0.25500000920E-02 0. -1.
</event>
<event>
 5   0  0.3236653E-06  0.1900477E+04  0.7818609E-02  0.8654619E-01
       -1   -1    0    0    0  501  0.00000000000E+00  0.00000000000E+00  0.72487535010E+03  0.72487535012E+03  0.50400001928E-02 0.  1.
        1   -1    0    0  501    0  0.00000000000E+00  0.00000000000E+00 -0.12456663086E+04  0.12456663086E+04  0.50400001928E-02 0. -1.
    10030    2    1    2    0    0  0.00000000000E+00  0.00000000000E+00 -0.52079095845E+03  0.19705416587E+04  0.19004765734E+04 0.  0.
        3    1    3    3  502    0  0.53838204882E+03 -0.27970160509E+03  0.49791143623E+03  0.78485924019E+03  0.10100000352E+00 0.  1.
       -3    1    3    3    0  502 -0.53838204882E+03  0.27970160509E+03 -0.10187023947E+04  0.11856824185E+04  0.10100000352E+00 0. -1.
</event>
<event>
 5   0  0.7577180E-06  0.1899710E+04  0.7818609E-02  0.8655001E-01
       -2   -1    0    0    0  501  0.00000000000E+00  0.00000000000E+00  0.45411902162E+03  0.45411902163E+03  0.25500000920E-02 0.  1.
        2   -1    0    0  501    0  0.00000000000E+00  0.00000000000E+00 -0.19867583702E+04  0.19867583702E+04  0.25500000920E-02 0. -1.
    10030    2    1    2    0    0  0.00000000000E+00  0.00000000000E+00 -0.15326393486E+04  0.24408773918E+04  0.18997102593E+04 0.  0.
        5    1    3    3  502    0 -0.40296408968E+03  0.55058157847E+03 -0.16153857971E+04  0.17535716397E+04  0.46999998093E+01 0. -1.
       -5    1    3    3    0  502  0.40296408968E+03 -0.55058157847E+03  0.82746448555E+02  0.68730575209E+03  0.46999998093E+01 0.  1.
</event>
<event>
 5   0  0.6870370E-06  0.1897982E+04  0.7818609E-02  0.8655862E-01
        2   -1    0    0  501    0  0.00000000000E+00  0.00000000000E+00  0.20079783304E+04  0.20079783305E+04  0.25500000920E-02 0. -1.
       -2   -1    0    0    0  501  0.00000000000E+00  0.00000000000E+00 -0.44850276950E+03  0.44850276951E+03  0.25500000920E-02 0.  1.
    10030    2    1    2    0    0  0.00000000000E+00  0.00000000000E+00  0.15594755610E+04  0.24564811000E+04  0.18979819202E+04 0.  0.
        1    1    3    3  502    0 -0.26275153306E+03  0.61113416904E+03  0.16556947615E+04  0.17843341850E+04  0.50400001928E-02 0. -1.
       -1    1    3    3    0  502  0.26275153306E+03 -0.61113416904E+03 -0.96219200504E+02  0.67214691494E+03  0.50400001928E-02 0.  1.
</event>
<event>
 5   0  0.3379108E-06  0.1902541E+04  0.7818609E-02  0.8653593E-01
        1   -1    0    0  501    0  0.00000000000E+00  0.00000000000E+00  0.22674427935E+04  0.22674427935E+04  0.50400001928E-02 0. -1.
       -1   -1    0    0    0  501  0.00000000000E+00  0.00000000000E+00 -0.39909076628E+03  0.39909076631E+03  0.50400001928E-02 0.  1.
    10030    2    1    2    0    0  0.00000000000E+00  0.00000000000E+00  0.18683520272E+04  0.26665335598E+04  0.19025409136E+04 0.  0.
        4    1    3    3  502    0  0.57876455970E+03  0.66954964551E+03  0.14230161212E+04  0.16757809037E+04  0.12699999809E+01 0. -1.
       -4    1    3    3    0  502 -0.57876455970E+03 -0.66954964551E+03  0.44533590603E+03  0.99075265605E+03  0.12699999809E+01 0.  1.
</event>
<event>
 5   0  0.3236653E-06  0.1900690E+04  0.7818609E-02  0.8654513E-01
       -1   -1    0    0    0  501  0.00000000000E+00  0.00000000000E+00  0.60124779072E+03  0.60124779074E+03  0.50400001928E-02 0.  1.
        1   -1    0    0  501    0  0.00000000000E+00  0.00000000000E+00 -0.15021355775E+04  0.15021355775E+04  0.50400001928E-02 0. -1.
    10030    2    1    2    0    0  0.00000000000E+00  0.00000000000E+00 -0.90088778682E+03  0.21033833683E+04  0.19006900825E+04 0.  0.
        3    1    3    3  502    0 -0.73686049001E+03  0.20342257253E+03  0.17440378245E+03  0.78406684300E+03  0.10100000352E+00 0.  1.
       -3    1    3    3    0  502  0.73686049001E+03 -0.20342257253E+03 -0.10752915693E+04  0.13193165253E+04  0.10100000352E+00 0. -1.
</event>
<event>
 5   0  0.7577180E-06  0.1900491E+04  0.7818609E-02  0.8654612E-01
        2   -1    0    0  501    0  0.00000000000E+00  0.00000000000E+00  0.71074234532E+03  0.71074234533E+03  0.25500000920E-02 0.  1.
       -2   -1    0    0    0  501  0.00000000000E+00  0.00000000000E+00 -0.12704558721E+04  0.12704558721E+04  0.25500000920E-02 0. -1.
    10030    2    1    2    0    0  0.00000000000E+00  0.00000000000E+00 -0.55971352682E+03  0.19811982175E+04  0.19004912904E+04 0.  0.
        5    1    3    3  502    0 -0.50788734280E+03  0.78390060913E+03 -0.97812830817E+02  0.93916939784E+03  0.46999998093E+01 0.  1.
       -5    1    3    3    0  502  0.50788734280E+03 -0.78390060913E+03 -0.46190069600E+03  0.10420288196E+04  0.46999998093E+01 0. -1.
</event>
<event>
 5   0  0.2527750E-06  0.1902076E+04  0.7818609E-02  0.8653824E-01
        4   -1    0    0  501    0  0.00000000000E+00  0.00000000000E+00  0.76339079296E+03  0.76339184937E+03  0.12699999809E+01 0. -1.
       -4   -1    0    0    0  501  0.00000000000E+00  0.00000000000E+00 -0.11848077445E+04  0.11848084252E+04  0.12699999809E+01 0.  1.
    10030    2    1    2    0    0  0.00000000000E+00  0.00000000000E+00 -0.42141695158E+03  0.19482002746E+04  0.19020757248E+04 0.  0.
        4    1    3    3  502    0  0.94104729343E+03  0.10402868695E+03 -0.11864315571E+03  0.95418540519E+03  0.12699999809E+01 0.  1.
       -4    1    3    3    0  502 -0.94104729343E+03 -0.10402868695E+03 -0.30277379587E+03  0.99401486938E+03  0.12699999809E+01 0. -1.
</event>
<event>
 5   0  0.6984466E-06  0.1900002E+04  0.7818609E-02  0.8654855E-01
       -2   -1    0    0    0  501  0.00000000000E+00  0.00000000000E+00  0.10109674283E+04  0.10109674283E+04  0.25500000920E-02 0.  1.
        2   -1    0    0  501    0  0.00000000000E+00  0.00000000000E+00 -0.89271095186E+03  0.89271095186E+03  0.25500000920E-02 0. -1.
    10030    2    1    2    0    0  0.00000000000E+00  0.00000000000E+00  0.11825647645E+03  0.19036783802E+04  0.19000017845E+04 0.  0.
        2    1    3    3  502    0  0.33550944285E+03 -0.31881046932E+03  0.89036908141E+03  0.10034758606E+04  0.25500000920E-02 0.  1.
       -2    1    3    3    0  502 -0.33550944285E+03  0.31881046932E+03 -0.77211260496E+03  0.90020251962E+03  0.25500000920E-02 0. -1.
</event>
<event>
 5   0  0.7207648E-06  0.1900171E+04  0.7818609E-02  0.8654771E-01
       -2   -1    0    0    0  501  0.00000000000E+00  0.00000000000E+00  0.49308493260E+03  0.49308493261E+03  0.25500000920E-02 0.  1.
        2   -1    0    0  501    0  0.00000000000E+00  0.00000000000E+00 -0.18306436511E+04  0.18306436511E+04  0.25500000920E-02 0. -1.
    10030    2    1    2    0    0  0.00000000000E+00  0.00000000000E+00 -0.13375587185E+04  0.23237285837E+04  0.19001713621E+04 0.  0.
        4    1    3    3  502    0 -0.10769367884E+03 -0.57707586656E+03 -0.15823200692E+04  0.16877064018E+04  0.12699999809E+01 0. -1.
       -4    1    3    3    0  502  0.10769367884E+03  0.57707586656E+03  0.24476135071E+03  0.63602218195E+03  0.12699999809E+01 0.  1.
</event>
<event>
 5   0  0.3398807E-06  0.1901973E+04  0.7818609E-02  0.8653875E-01
       -1   -1    0    0    0  501  0.00000000000E+00  0.00000000000E+00  0.78954244005E+03  0.78954244007E+03  0.50400001928E-02 0. -1.
        1   -1    0    0  501    0  0.00000000000E+00  0.00000000000E+00 -0.11454422387E+04  0.11454422388E+04  0.50400001928E-02 0.  1.
    10030    2    1    2    0    0  0.00000000000E+00  0.00000000000E+00 -0.35589979870E+03  0.19349846788E+04  0.19019729337E+04 0.  0.
        1    1    3    3  502    0  0.40953451618E+03  0.59208752466E+03  0.45419548401E+03  0.85122247064E+03  0.50400001928E-02 0. -1.
       -1    1    3    3    0  502 -0.40953451618E+03 -0.59208752466E+03 -0.81009528270E+03  0.10837622082E+04  0.50400001928E-02 0.  1.
</event>
<event>
 5   0  0.3398807E-06  0.1900048E+04  0.7818609E-02  0.8654832E-01
       -1   -1    0    0    0  501  0.00000000000E+00  0.00000000000E+00  0.64730589420E+03  0.64730589422E+03  0.50400001928E-02 0.  1.
        1   -1    0    0  501    0  0.00000000000E+00  0.00000000000E+00 -0.13943114915E+04  0.13943114915E+04  0.50400001928E-02 0. -1.
    10030    2    1    2    0    0  0.00000000000E+00  0.00000000000E+00 -0.74700559728E+03  0.20416173857E+04  0.19000484697E+04 0.  0.
        1    1    3    3  502    0  0.15913364536E+03  0.93644523768E+03 -0.39189059602E+03  0.10275365879E+04  0.50400001928E-02 0. -1.
       -1    1    3    3    0  502 -0.15913364536E+03 -0.93644523768E+03 -0.35511500126E+03  0.10140807978E+04  0.50400001928E-02 0.  1.
</event>
<event>
 5   0  0.3236653E-06  0.1899020E+04  0.7818609E-02  0.8655344E-01
        1   -1    0    0  501    0  0.00000000000E+00  0.00000000000E+00  0.20716309725E+04  0.20716309725E+04  0.50400001928E-02 0.  1.
       -1   -1    0    0    0  501  0.00000000000E+00  0.00000000000E+00 -0.43519777824E+03  0.43519777827E+03  0.50400001928E-02 0. -1.
    10030    2    1    2    0    0  0.00000000000E+00  0.00000000000E+00  0.16364331943E+04  0.25068287508E+04  0.18990199542E+04 0.  0.
        3    1    3    3  502    0  0.21402628995E+03 -0.24429844889E+03 -0.35958882793E+03  0.48455455863E+03  0.10100000352E+00 0. -1.
       -3    1    3    3    0  502 -0.21402628995E+03  0.24429844889E+03  0.19960220222E+04  0.20222741922E+04  0.10100000352E+00 0.  1.
</event>
<event>
 5   0  0.6870370E-06  0.1901133E+04  0.7818609E-02  0.8654293E-01
       -2   -1    0    0    0  501  0.00000000000E+00  0.00000000000E+00  0.62755276797E+03  0.62755276798E+03  0.25500000920E-02 0. -1.
        2   -1    0    0  501    0  0.00000000000E+00  0.00000000000E+00 -0.14398417787E+04  0.14398417787E+04  0.25500000920E-02 0.  1.
    10030    2    1    2    0    0  0.00000000000E+00  0.00000000000E+00 -0.81228901073E+03  0.20673945467E+04  0.19011330239E+04 0.  0.
        1    1    3    3  502    0 -0.33570885357E+03 -0.76056627249E+03  0.95046952453E+02  0.83677679964E+03  0.50400001928E-02 0. -1.
       -1    1    3    3    0  502  0.33570885357E+03  0.76056627249E+03 -0.90733596318E+03  0.12306177470E+04  0.50400001928E-02 0.  1.
</event>
<event>
 5   0  0.2527750E-06  0.1900488E+04  0.7818609E-02  0.8654614E-01
       -3   -1    0    0    0  501  0.00000000000E+00  0.00000000000E+00  0.59532091815E+03  0.59532092672E+03  0.10100000352E+00 0. -1.
        3   -1    0    0  501    0  0.00000000000E+00  0.00000000000E+00 -0.15167671425E+04  0.15167671458E+04  0.10100000352E+00 0.  1.
    10030    2    1    2    0    0  0.00000000000E+00  0.00000000000E+00 -0.92144622433E+03  0.21120880726E+04  0.19004875380E+04 0.  0.
        3    1    3    3  502    0 -0.34196577259E+03 -0.51300359715E+03 -0.12643149648E+04  0.14066291696E+04  0.10100000352E+00 0.  1.
       -3    1    3    3    0  502  0.34196577259E+03  0.51300359715E+03  0.34286874051E+03  0.70545890294E+03  0.10100000352E+00 0. -1.
</event>
<event>
 5   0  0.7207648E-06  0.1899668E+04  0.7818609E-02  0.8655022E-01
        2   -1    0    0  501    0  0.00000000000E+00  0.00000000000E+00  0.76676214952E+03  0.76676214952E+03  0.25500000920E-02 0.  1.
       -2   -1    0    0    0  501  0.00000000000E+00  0.00000000000E+00 -0.11766154544E+04  0.11766154544E+04  0.25500000920E-02 0. -1.
    10030    2    1    2    0    0  0.00000000000E+00  0.00000000000E+00 -0.40985330489E+03  0.19433776039E+04  0.18996675446E+04 0.  0.
        4    1    3    3  502    0  0.11893625853E+03 -0.90090184594E+03 -0.48771539353E+03  0.10313282153E+04  0.12699999809E+01 0. -1.
       -4    1    3    3    0  502 -0.11893625853E+03  0.90090184594E+03  0.77862088639E+02  0.91204938867E+03  0.12699999809E+01 0.  1.
</event>
<event>
 5   0  0.3379108E-06  0.1899292E+04  0.7818609E-02  0.8655209E-01
        1   -1    0    0  501    0  0.00000000000E+00  0.00000000000E+00  0.12484482867E+04  0.12484482867E+04  0.50400001928E-02 0. -1.
       -1   -1    0    0    0  501  0.00000000000E+00  0.00000000000E+00 -0.72235858541E+03  0.72235858543E+03  0.50400001928E-02 0.  1.
    10030    2    1    2    0    0  0.00000000000E+00  0.00000000000E+00  0.52608970124E+03  0.19708068721E+04  0.18992918031E+04 0.  0.
        4    1    3    3  502    0  0.58983916286E+03  0.14360598256E+03  0.10208110648E+04  0.11876825162E+04  0.12699999809E+01 0. -1.
       -4    1    3    3    0  502 -0.58983916286E+03 -0.14360598256E+03 -0.49472136361E+03  0.78312435589E+03  0.12699999809E+01 0.  1.
</event>
<event>
 5   0  0.3211263E-06  0.1899887E+04  0.7818609E-02  0.8654913E-01
       -1   -1    0    0    0  501  0.00000000000E+00  0.00000000000E+00  0.62769983467E+03  0.62769983469E+03  0.50400001928E-02 0. -1.
        1   -1    0    0  501    0  0.00000000000E+00  0.00000000000E+00 -0.14376178327E+04  0.14376178327E+04  0.50400001928E-02 0.  1.
    10030    2    1    2    0    0  0.00000000000E+00  0.00000000000E+00 -0.80991799807E+03  0.20653176674E+04  0.18998868134E+04 0.  0.
        5    1    3    3  502    0 -0.13747375723E+03 -0.65287444319E+03  0.33010430068E+03  0.74440245286E+03  0.46999998093E+01 0. -1.
       -5    1    3    3    0  502  0.13747375723E+03  0.65287444319E+03 -0.11400222987E+04  0.13209152146E+04  0.46999998093E+01 0.  1.
</event>
<event>
 5   0  0.6870370E-06  0.1900171E+04  0.7818609E-02  0.8654771E-01
       -2   -1    0    0    0  501  0.00000000000E+00  0.00000000000E+00  0.14195223964E+04  0.14195223964E+04  0.25500000920E-02 0.  1.
        2   -1    0    0  501    0  0.00000000000E+00  0.00000000000E+00 -0.63589197276E+03  0.63589197276E+03  0.25500000920E-02 0. -1.
    10030    2    1    2    0    0  0.00000000000E+00  0.00000000000E+00  0.78363042365E+03  0.20554143692E+04  0.19001714628E+04 0.  0.
        1    1    3    3  502    0  0.17462662672E+02 -0.87834579255E+03  0.50512621004E+00  0.87851951092E+03  0.50400001928E-02 0. -1.
       -1    1    3    3    0  502 -0.17462662672E+02  0.87834579255E+03  0.78312529744E+03  0.11768948583E+04  0.50400001928E-02 0.  1.
</event>
<event>
 5   0  0.3236653E-06  0.1899901E+04  0.7818609E-02  0.8654906E-01
        1   -1    0    0  501    0  0.00000000000E+00  0.00000000000E+00  0.13583526299E+04  0.13583526299E+04  0.50400001928E-02 0. -1.
       -1   -1    0    0    0  501  0.00000000000E+00  0.00000000000E+00 -0.66433846374E+03  0.66433846375E+03  0.50400001928E-02 0.  1.
    10030    2    1    2    0    0  0.00000000000E+00  0.00000000000E+00  0.69401416613E+03  0.20226910936E+04  0.18999009441E+04 0.  0.
        3    1    3    3  502    0 -0.91129699874E+03 -0.59780095654E+02  0.68631318111E+02  0.91583085107E+03  0.10100000352E+00 0.  1.
       -3    1    3    3    0  502  0.91129699874E+03  0.59780095654E+02  0.62538284802E+03  0.11068602426E+04  0.10100000352E+00 0. -1.
</event>
<event>
 5   0  0.6984466E-06  0.1900012E+04  0.7818609E-02  0.8654850E-01
       -2   -1    0    0    0  501  0.00000000000E+00  0.00000000000E+00  0.41885551614E+03  0.41885551615E+03  0.25500000920E-02 0.  1.
        2   -1    0    0  501    0  0.00000000000E+00  0.00000000000E+00 -0.21547079066E+04  0.21547079066E+04  0.25500000920E-02 0. -1.
    10030    2    1    2    0    0  0.00000000000E+00  0.00000000000E+00 -0.17358523905E+04  0.25735634228E+04  0.19000118867E+04 0.  0.
        2    1    3    3  502    0 -0.52157277556E+03 -0.46891553375E+03 -0.17358537125E+04  0.18721933792E+04  0.25500000920E-02 0. -1.
       -2    1    3    3    0  502  0.52157277556E+03  0.46891553375E+03  0.13220032246E-02  0.70137004357E+03  0.25500000920E-02 0.  1.
</event>
<event>
 5   0  0.6984466E-06  0.1901373E+04  0.7818609E-02  0.8654173E-01
       -2   -1    0    0    0  501  0.00000000000E+00  0.00000000000E+00  0.59859744352E+03  0.59859744353E+03  0.25500000920E-02 0. -1.
        2   -1    0    0  501    0  0.00000000000E+00  0.00000000000E+00 -0.15098700495E+04  0.15098700495E+04  0.25500000920E-02 0.  1.
    10030    2    1    2    0    0  0.00000000000E+00  0.00000000000E+00 -0.91127260595E+03  0.21084674930E+04  0.19013725060E+04 0.  0.
        2    1    3    3  502    0 -0.60028387693E+02  0.24580404026E+03  0.56057215337E+03  0.61503184688E+03  0.25500000920E-02 0. -1.
       -2    1    3    3    0  502  0.60028387693E+02 -0.24580404026E+03 -0.14718447593E+04  0.14934356461E+04  0.25500000920E-02 0.  1.
</event>
<event>
 5   0  0.7207648E-06  0.1903416E+04  0.7818609E-02  0.8653158E-01
       -2   -1    0    0    0  501  0.00000000000E+00  0.00000000000E+00  0.12549059583E+04  0.12549059583E+04  0.25500000920E-02 0.  1.
        2   -1    0    0  501    0  0.00000000000E+00  0.00000000000E+00 -0.72176539681E+03  0.72176539682E+03  0.25500000920E-02 0. -1.
    10030    2    1    2    0    0  0.00000000000E+00  0.00000000000E+00  0.53314056151E+03  0.19766713551E+04  0.19034155584E+04 0.  0.
        4    1    3    3  502    0  0.51882831320E+03  0.54906053441E+03  0.86772372949E+03  0.11504765850E+04  0.12699999809E+01 0.  1.
       -4    1    3    3    0  502 -0.51882831320E+03 -0.54906053441E+03 -0.33458316798E+03  0.82619477014E+03  0.12699999809E+01 0. -1.
</event>
<event>
 5   0  0.6862201E-06  0.1898879E+04  0.7818609E-02  0.8655414E-01
        2   -1    0    0  501    0  0.00000000000E+00  0.00000000000E+00  0.99716922790E+03  0.99716922790E+03  0.25500000920E-02 0.  1.
       -2   -1    0    0    0  501  0.00000000000E+00  0.00000000000E+00 -0.90399455399E+03  0.90399455399E+03  0.25500000920E-02 0. -1.
    10030    2    1    2    0    0  0.00000000000E+00  0.00000000000E+00  0.93174673915E+02  0.19011637819E+04  0.18988791972E+04 0.  0.
        3    1    3    3  502    0  0.94817451392E+03 -0.24588899587E+02  0.41568919552E+01  0.94850240526E+03  0.10100000352E+00 0.  1.
       -3    1    3    3    0  502 -0.94817451392E+03  0.24588899587E+02  0.89017781960E+02  0.95266137664E+03  0.10100000352E+00 0. -1.
</event>
<event>
 5   0  0.6870370E-06  0.1899859E+04  0.7818609E-02  0.8654926E-01
        2   -1    0    0  501    0  0.00000000000E+00  0.00000000000E+00  0.18929570466E+04  0.18929570466E+04  0.25500000920E-02 0.  1.
       -2   -1    0    0    0  501  0.00000000000E+00  0.00000000000E+00 -0.47669674306E+03  0.47669674307E+03  0.25500000920E-02 0. -1.
    10030    2    1    2    0    0  0.00000000000E+00  0.00000000000E+00  0.14162603035E+04  0.23696537897E+04  0.18998594252E+04 0.  0.
        1    1    3    3  502    0 -0.79554421020E+02  0.43364118365E+03 -0.34135881175E+03  0.55758355468E+03  0.50400001928E-02 0. -1.
       -1    1    3    3    0  502  0.79554421020E+02 -0.43364118365E+03  0.17576191153E+04  0.18120702350E+04  0.50400001928E-02 0.  1.
</event>
<event>
 5   0  0.7577180E-06  0.1900479E+04  0.7818609E-02  0.8654618E-01
        2   -1    0    0  501    0  0.00000000000E+00  0.00000000000E+00  0.14784034520E+04  0.14784034520E+04  0.25500000920E-02 0. -1.
       -2   -1    0    0    0  501  0.00000000000E+00  0.00000000000E+00 -0.61076334320E+03  0.61076334321E+03  0.25500000920E-02 0.  1.
    10030    2    1    2    0    0  0.00000000000E+00  0.00000000000E+00  0.86764010876E+03  0.20891667952E+04  0.19004785028E+04 0.  0.
        5    1    3    3  502    0 -0.73827059200E+03  0.45707022923E+03  0.95248355517E+01  0.86837173719E+03  0.46999998093E+01 0. -1.
       -5    1    3    3    0  502  0.73827059200E+03 -0.45707022923E+03  0.85811527321E+03  0.12207950580E+04  0.46999998093E+01 0.  1.
</event>
<event>
 5   0  0.3379108E-06  0.1897720E+04  0.7818609E-02  0.8655992E-01
       -1   -1    0    0    0  501  0.00000000000E+00  0.00000000000E+00  0.11869321736E+04  0.11869321736E+04  0.50400001928E-02 0.  1.
        1   -1    0    0  501    0  0.00000000000E+00  0.00000000000E+00 -0.75854004427E+03  0.75854004429E+03  0.50400001928E-02 0. -1.
    10030    2    1    2    0    0  0.00000000000E+00  0.00000000000E+00  0.42839212929E+03  0.19454722179E+04  0.18977202992E+04 0.  0.
        4    1    3    3  502    0 -0.63623895783E+03  0.70344795500E+03  0.24122099195E+03  0.97868698607E+03  0.12699999809E+01 0.  1.
       -4    1    3    3    0  502  0.63623895783E+03 -0.70344795500E+03  0.18717113735E+03  0.96678523179E+03  0.12699999809E+01 0. -1.
</event>
<event>
 5   0  0.3211263E-06  0.1900039E+04  0.7818609E-02  0.8654837E-01
        1   -1    0    0  501    0  0.00000000000E+00  0.00000000000E+00  0.15598118419E+04  0.15598118419E+04  0.50400001928E-02 0.  1.
       -1   -1    0    0    0  501  0.00000000000E+00  0.00000000000E+00 -0.57861925806E+03  0.57861925808E+03  0.50400001928E-02 0. -1.
    10030    2    1    2    0    0  0.00000000000E+00  0.00000000000E+00  0.98119258381E+03  0.21384311000E+04  0.19000391266E+04 0.  0.
        5    1    3    3  502    0  0.82628106213E+03  0.19219015361E+03  0.93520884686E+01  0.84840261688E+03  0.46999998093E+01 0. -1.
       -5    1    3    3    0  502 -0.82628106213E+03 -0.19219015361E+03  0.97184049534E+03  0.12900284831E+04  0.46999998093E+01 0.  1.
</event>
<event>
 5   0  0.7207648E-06  0.1899249E+04  0.7818609E-02  0.8655230E-01
       -2   -1    0    0    0  501  0.00000000000E+00  0.00000000000E+00  0.39778407915E+03  0.39778407916E+03  0.25500000920E-02 0.  1.
        2   -1    0    0  501    0  0.00000000000E+00  0.00000000000E+00 -0.22670258617E+04  0.22670258617E+04  0.25500000920E-02 0. -1.
    10030    2    1    2    0    0  0.00000000000E+00  0.00000000000E+00 -0.18692417825E+04  0.26648099408E+04  0.18992491093E+04 0.  0.
        4    1    3    3  502    0 -0.57594142636E+03 -0.52478963700E+03 -0.17297324122E+03  0.79814412532E+03  0.12699999809E+01 0.  1.
       -4    1    3    3    0  502  0.57594142636E+03  0.52478963700E+03 -0.16962685413E+04  0.18666658155E+04  0.12699999809E+01 0. -1.
</event>
<event>
 5   0  0.6984466E-06  0.1899874E+04  0.7818609E-02  0.8654919E-01
       -2   -1    0    0    0  501  0.00000000000E+00  0.00000000000E+00  0.69053892836E+03  0.69053892836E+03  0.25500000920E-02 0. -1.
        2   -1    0    0  501    0  0.00000000000E+00  0.00000000000E+00 -0.13067772981E+04  0.13067772981E+04  0.25500000920E-02 0.  1.
    10030    2    1    2    0    0  0.00000000000E+00  0.00000000000E+00 -0.61623836974E+03  0.19973162265E+04  0.18998743064E+04 0.  0.
        2    1    3    3  502    0 -0.51896490635E+02 -0.94145908002E+03 -0.42955166620E+03  0.10361240655E+04  0.25500000920E-02 0. -1.
       -2    1    3    3    0  502  0.51896490635E+02  0.94145908002E+03 -0.18668670354E+03  0.96119216101E+03  0.25500000920E-02 0.  1.
</event>
<event>
 5   0  0.3211263E-06  0.1900254E+04  0.7818609E-02  0.8654730E-01
       -1   -1    0    0    0  501  0.00000000000E+00  0.00000000000E+00  0.74239173335E+03  0.74239173336E+03  0.50400001928E-02 0. -1.
        1   -1    0    0  501    0  0.00000000000E+00  0.00000000000E+00 -0.12159906881E+04  0.12159906881E+04  0.50400001928E-02 0.  1.
    10030    2    1    2    0    0  0.00000000000E+00  0.00000000000E+00 -0.47359895475E+03  0.19583824215E+04  0.19002541248E+04 0.  0.
        5    1    3    3  502    0  0.26770560222E+03  0.22145143525E+03 -0.11481650421E+04  0.11995882967E+04  0.46999998093E+01 0.  1.
       -5    1    3    3    0  502 -0.26770560222E+03 -0.22145143525E+03  0.67456608734E+03  0.75879412480E+03  0.46999998093E+01 0. -1.
</event>
<event>
 5   0  0.3379108E-06  0.1898972E+04  0.7818609E-02  0.8655368E-01
        1   -1    0    0  501    0  0.00000000000E+00  0.00000000000E+00  0.66135163440E+03  0.66135163442E+03  0.50400001928E-02 0.  1.
       -1   -1    0    0    0  501  0.00000000000E+00  0.00000000000E+00 -0.13631534725E+04  0.13631534725E+04  0.50400001928E-02 0. -1.
    10030    2    1    2    0    0  0.00000000000E+00  0.00000000000E+00 -0.70180183807E+03  0.20245051069E+04  0.18989721188E+04 0.  0.
        4    1    3    3  502    0 -0.28198896676E+03 -0.26987617331E+03  0.57186349127E+03  0.69237301496E+03  0.12699999809E+01 0.  1.
       -4    1    3    3    0  502  0.28198896676E+03  0.26987617331E+03 -0.12736653293E+04  0.13321320919E+04  0.12699999809E+01 0. -1.
</event>
<event>
 5   0  0.7577180E-06  0.1899253E+04  0.7818609E-02  0.8655228E-01
       -2   -1    0    0    0  501  0.00000000000E+00  0.00000000000E+00  0.45394824073E+03  0.45394824074E+03  0.25500000920E-02 0.  1.
        2   -1    0    0  501    0  0.00000000000E+00  0.00000000000E+00 -0.19865495589E+04  0.19865495589E+04  0.25500000920E-02 0. -1.
    10030    2    1    2    0    0  0.00000000000E+00  0.00000000000E+00 -0.15326013182E+04  0.24404977997E+04  0.18992531979E+04 0.  0.
        5    1    3    3  502    0  0.15288137510E+02 -0.94897886520E+03 -0.72619837000E+03  0.11950651766E+04  0.46999998093E+01 0. -1.
       -5    1    3    3    0  502 -0.15288137510E+02  0.94897886520E+03 -0.80640294820E+03  0.12454326231E+04  0.46999998093E+01 0.  1.
</event>
<event>
 5   0  0.3495279E-06  0.1900134E+04  0.7818609E-02  0.8654790E-01
        1   -1    0    0  501    0  0.00000000000E+00  0.00000000000E+00  0.63064908726E+03  0.63064908728E+03  0.50400001928E-02 0.  1.
       -1   -1    0    0    0  501  0.00000000000E+00  0.00000000000E+00 -0.14312670289E+04  0.14312670289E+04  0.50400001928E-02 0. -1.
    10030    2    1    2    0    0  0.00000000000E+00  0.00000000000E+00 -0.80061794165E+03  0.20619161162E+04  0.19001339378E+04 0.  0.
        2    1    3    3  502    0 -0.34323998776E+03 -0.86884002701E+03 -0.21257441201E+03  0.95806292193E+03  0.25500000920E-02 0.  1.
       -2    1    3    3    0  502  0.34323998776E+03  0.86884002701E+03 -0.58804352964E+03  0.11038531943E+04  0.25500000920E-02 0. -1.
</event>
<event>
 5   0  0.3236653E-06  0.1894585E+04  0.7818609E-02  0.8657556E-01
       -1   -1    0    0    0  501  0.00000000000E+00  0.00000000000E+00  0.12630072039E+04  0.12630072039E+04  0.50400001928E-02 0. -1.
        1   -1    0    0  501    0  0.00000000000E+00  0.00000000000E+00 -0.71049750175E+03  0.71049750177E+03  0.50400001928E-02 0.  1.
    10030    2    1    2    0    0  0.00000000000E+00  0.00000000000E+00  0.55250970218E+03  0.19735047057E+04  0.18945854038E+04 0.  0.
        3    1    3    3  502    0  0.24507676907E+03  0.21267771550E+03  0.12033098341E+04  0.12462941067E+04  0.10100000352E+00 0. -1.
       -3    1    3    3    0  502 -0.24507676907E+03 -0.21267771550E+03 -0.65080013190E+03  0.72721059900E+03  0.10100000352E+00 0.  1.
</event>
<event>
 5   0  0.3398807E-06  0.1900607E+04  0.7818609E-02  0.8654554E-01
       -1   -1    0    0    0  501  0.00000000000E+00  0.00000000000E+00  0.65619885851E+03  0.65619885853E+03  0.50400001928E-02 0.  1.
        1   -1    0    0  501    0  0.00000000000E+00  0.00000000000E+00 -0.13762240904E+04  0.13762240904E+04  0.50400001928E-02 0. -1.
    10030    2    1    2    0    0  0.00000000000E+00  0.00000000000E+00 -0.72002523191E+03  0.20324229490E+04  0.19006069317E+04 0.  0.
        1    1    3    3  502    0  0.47306918307E+03  0.48725943739E+03  0.35081510199E+03  0.76438697471E+03  0.50400001928E-02 0.  1.
       -1    1    3    3    0  502 -0.47306918307E+03 -0.48725943739E+03 -0.10708403339E+04  0.12680359743E+04  0.50400001928E-02 0. -1.
</event>
<event>
 5   0  0.6870370E-06  0.1899998E+04  0.7818609E-02  0.8654857E-01
       -2   -1    0    0    0  501  0.00000000000E+00  0.00000000000E+00  0.51403699273E+03  0.51403699274E+03  0.25500000920E-02 0. -1.
        2   -1    0    0  501    0  0.00000000000E+00  0.00000000000E+00 -0.17557073263E+04  0.17557073263E+04  0.25500000920E-02 0.  1.
    10030    2    1    2    0    0  0.00000000000E+00  0.00000000000E+00 -0.12416703336E+04  0.22697443190E+04  0.18999984359E+04 0.  0.
        1    1    3    3  502    0  0.26011504652E+03  0.13060702412E+03  0.45945908398E+03  0.54389399892E+03  0.50400001928E-02 0. -1.
       -1    1    3    3    0  502 -0.26011504652E+03 -0.13060702412E+03 -0.17011294175E+04  0.17258503201E+04  0.50400001928E-02 0.  1.
</event>
<event>
 5   0  0.2527750E-06  0.1897579E+04  0.7818609E-02  0.8656062E-01
        3   -1    0    0  501    0  0.00000000000E+00  0.00000000000E+00  0.82481295477E+03  0.82481296096E+03  0.10100000352E+00 0. -1.
       -3   -1    0    0    0  501  0.00000000000E+00  0.00000000000E+00 -0.10914009789E+04  0.10914009836E+04  0.10100000352E+00 0.  1.
    10030    2    1    2    0    0  0.00000000000E+00  0.00000000000E+00 -0.26658802412E+03  0.19162139445E+04  0.18975791700E+04 0.  0.
        5    1    3    3  502    0  0.84465950662E+02 -0.73563807524E+03  0.46572752893E+03  0.87476973872E+03  0.46999998093E+01 0.  1.
       -5    1    3    3    0  502 -0.84465950662E+02  0.73563807524E+03 -0.73231555306E+03  0.10414442058E+04  0.46999998093E+01 0. -1.
</event>
<event>
 5   0  0.6862201E-06  0.1898709E+04  0.7818609E-02  0.8655499E-01
        2   -1    0    0  501    0  0.00000000000E+00  0.00000000000E+00  0.86233627691E+03  0.86233627692E+03  0.25500000920E-02 0. -1.
       -2   -1    0    0    0  501  0.00000000000E+00  0.00000000000E+00 -0.10451533871E+04  0.10451533871E+04  0.25500000920E-02 0.  1.
    10030    2    1    2    0    0  0.00000000000E+00  0.00000000000E+00 -0.18281711016E+03  0.19074896640E+04  0.18987086987E+04 0.  0.
        3    1    3    3  502    0 -0.47767531911E+03 -0.67371809481E+03 -0.56176595437E+03  0.99882469906E+03  0.10100000352E+00 0.  1.
       -3    1    3    3    0  502  0.47767531911E+03  0.67371809481E+03  0.37894884421E+03  0.90866496493E+03  0.10100000352E+00 0. -1.
</event>
<event>
 5   0  0.7577180E-06  0.1900287E+04  0.7818609E-02  0.8654713E-01
        2   -1    0    0  501    0  0.00000000000E+00  0.00000000000E+00  0.38398070176E+03  0.38398070177E+03  0.25500000920E-02 0.  1.
       -2   -1    0    0    0  501  0.00000000000E+00  0.00000000000E+00 -0.23510890888E+04  0.23510890888E+04  0.25500000920E-02 0. -1.
    10030    2    1    2    0    0  0.00000000000E+00  0.00000000000E+00 -0.19671083871E+04  0.27350697906E+04  0.19002871764E+04 0.  0.
        5    1    3    3  502    0  0.14290108531E+03  0.93423146584E+03 -0.84296248977E+03  0.12664189674E+04  0.46999998093E+01 0. -1.
       -5    1    3    3    0  502 -0.14290108531E+03 -0.93423146584E+03 -0.11241458973E+04  0.14686508232E+04  0.46999998093E+01 0.  1.
</event>
<event>
 5   0  0.7207648E-06  0.1900127E+04  0.7818609E-02  0.8654793E-01
        2   -1    0    0  501    0  0.00000000000E+00  0.00000000000E+00  0.11206740110E+04  0.11206740110E+04  0.25500000920E-02 0.  1.
       -2   -1    0    0    0  501  0.00000000000E+00  0.00000000000E+00 -0.80542665908E+03  0.80542665908E+03  0.25500000920E-02 0. -1.
    10030    2    1    2    0    0  0.00000000000E+00  0.00000000000E+00  0.31524735189E+03  0.19261006701E+04  0.19001270742E+04 0.  0.
        4    1    3    3  502    0  0.90219930488E+03 -0.21713810401E+01 -0.14418915075E+03  0.91365224496E+03  0.12699999809E+01 0.  1.
       -4    1    3    3    0  502 -0.90219930488E+03  0.21713810401E+01  0.45943650264E+03  0.10124484251E+04  0.12699999809E+01 0. -1.
</event>
<event>
 5   0  0.6870370E-06  0.1900008E+04  0.7818609E-02  0.8654852E-01
       -2   -1    0    0    0  501  0.00000000000E+00  0.00000000000E+00  0.43131060216E+03  0.43131060216E+03  0.25500000920E-02 0.  1.
        2   -1    0    0  501    0  0.00000000000E+00  0.00000000000E+00 -0.20924779658E+04  0.20924779658E+04  0.25500000920E-02 0. -1.
    10030    2    1    2    0    0  0.00000000000E+00  0.00000000000E+00 -0.16611673637E+04  0.25237885680E+04  0.19000083489E+04 0.  0.
        1    1    3    3  502    0  0.93629945408E+03 -0.12948323811E+03 -0.95719379722E+03  0.13452295500E+04  0.50400001928E-02 0.  1.
       -1    1    3    3    0  502 -0.93629945408E+03  0.12948323811E+03 -0.70397356645E+03  0.11785590180E+04  0.50400001928E-02 0. -1.
</event>
<event>
 5   0  0.3495279E-06  0.1900777E+04  0.7818609E-02  0.8654470E-01
       -1   -1    0    0    0  501  0.00000000000E+00  0.00000000000E+00  0.89505344870E+03  0.89505344871E+03  0.50400001928E-02 0.  1.
        1   -1    0    0  501    0  0.00000000000E+00  0.00000000000E+00 -0.10091445051E+04  0.10091445051E+04  0.50400001928E-02 0. -1.
    10030    2    1    2    0    0  0.00000000000E+00  0.00000000000E+00 -0.11409105642E+03  0.19041979538E+04  0.19007769670E+04 0.  0.
        2    1    3    3  502    0 -0.44484683116E+02 -0.42196479826E+03  0.79489969258E+03  0.90105421550E+03  0.25500000920E-02 0.  1.
       -2    1    3    3    0  502  0.44484683116E+02  0.42196479826E+03 -0.90899074900E+03  0.10031437383E+04  0.25500000920E-02 0. -1.
</event>
<event>
 5   0  0.3236653E-06  0.1899699E+04  0.7818609E-02  0.8655006E-01
        1   -1    0    0  501    0  0.00000000000E+00  0.00000000000E+00  0.11847579437E+04  0.11847579438E+04  0.50400001928E-02 0.  1.
       -1   -1    0    0    0  501  0.00000000000E+00  0.00000000000E+00 -0.76151799572E+03  0.76151799574E+03  0.50400001928E-02 0. -1.
    10030    2    1    2    0    0  0.00000000000E+00  0.00000000000E+00  0.42323994802E+03  0.19462759395E+04  0.18996994444E+04 0.  0.
        3    1    3    3  502    0 -0.37976851672E+03 -0.19841503620E+03  0.10801197715E+04  0.11620031772E+04  0.10100000352E+00 0.  1.
       -3    1    3    3    0  502  0.37976851672E+03  0.19841503620E+03 -0.65687982350E+03  0.78427276225E+03  0.10100000352E+00 0. -1.
</event>
<event>
 5   0  0.6862201E-06  0.1899624E+04  0.7818609E-02  0.8655044E-01
       -2   -1    0    0    0  501  0.00000000000E+00  0.00000000000E+00  0.82048543789E+03  0.82048543790E+03  0.25500000920E-02 0.  1.
        2   -1    0    0  501    0  0.00000000000E+00  0.00000000000E+00 -0.10995232696E+04  0.10995232696E+04  0.25500000920E-02 0. -1.
    10030    2    1    2    0    0  0.00000000000E+00  0.00000000000E+00 -0.27903783169E+03  0.19200087075E+04  0.18996239958E+04 0.  0.
        3    1    3    3  502    0  0.29835916144E+03 -0.83974617360E+03  0.19256579249E+03  0.91174197004E+03  0.10100000352E+00 0.  1.
       -3    1    3    3    0  502 -0.29835916144E+03  0.83974617360E+03 -0.47160362418E+03  0.10082667374E+04  0.10100000352E+00 0. -1.
</event>
<event>
 5   0  0.6862201E-06  0.1899878E+04  0.7818609E-02  0.8654917E-01
        2   -1    0    0  501    0  0.00000000000E+00  0.00000000000E+00  0.10346488590E+04  0.10346488590E+04  0.25500000920E-02 0.  1.
       -2   -1    0    0    0  501  0.00000000000E+00  0.00000000000E+00 -0.87216461606E+03  0.87216461607E+03  0.25500000920E-02 0. -1.
    10030    2    1    2    0    0  0.00000000000E+00  0.00000000000E+00  0.16248424290E+03  0.19068134750E+04  0.18998780222E+04 0.  0.
        3    1    3    3  502    0 -0.80973059077E+03 -0.17083561347E+03 -0.38686768741E+03  0.91351795506E+03  0.10100000352E+00 0. -1.
       -3    1    3    3    0  502  0.80973059077E+03  0.17083561347E+03  0.54935193031E+03  0.99329551997E+03  0.10100000352E+00 0.  1.
</event>
<event>
 5   0  0.3379108E-06  0.1900188E+04  0.7818609E-02  0.8654763E-01
        1   -1    0    0  501    0  0.00000000000E+00  0.00000000000E+00  0.63079263535E+03  0.63079263537E+03  0.50400001928E-02 0.  1.
       -1   -1    0    0    0  501  0.00000000000E+00  0.00000000000E+00 -0.14310229671E+04  0.14310229671E+04  0.50400001928E-02 0. -1.
    10030    2    1    2    0    0  0.00000000000E+00  0.00000000000E+00 -0.80023033177E+03  0.20618156025E+04  0.19001881472E+04 0.  0.
        4    1    3    3  502    0  0.67072798956E+03 -0.55154741000E+03 -0.81838600397E+03  0.11932467665E+04  0.12699999809E+01 0. -1.
       -4    1    3    3    0  502 -0.67072798956E+03  0.55154741000E+03  0.18155672203E+02  0.86856883596E+03  0.12699999809E+01 0.  1.
</event>
<event>
 5   0  0.3398807E-06  0.1900246E+04  0.7818609E-02  0.8654734E-01
        1   -1    0    0  501    0  0.00000000000E+00  0.00000000000E+00  0.63268977711E+03  0.63268977713E+03  0.50400001928E-02 0. -1.
       -1   -1    0    0    0  501  0.00000000000E+00  0.00000000000E+00 -0.14268186257E+04  0.14268186257E+04  0.50400001928E-02 0.  1.
    10030    2    1    2    0    0  0.00000000000E+00  0.00000000000E+00 -0.79412884863E+03  0.20595084029E+04  0.19002458350E+04 0.  0.
        1    1    3    3  502    0  0.49808959754E+03  0.31395462109E+03 -0.12052658418E+04  0.13413897647E+04  0.50400001928E-02 0.  1.
       -1    1    3    3    0  502 -0.49808959754E+03 -0.31395462109E+03  0.41113699322E+03  0.71811863818E+03  0.50400001928E-02 0. -1.
</event>
<event>
 5   0  0.7577180E-06  0.1899932E+04  0.7818609E-02  0.8654890E-01
        2   -1    0    0  501    0  0.00000000000E+00  0.00000000000E+00  0.11924614193E+04  0.11924614193E+04  0.25500000920E-02 0.  1.
       -2   -1    0    0    0  501  0.00000000000E+00  0.00000000000E+00 -0.75678384874E+03  0.75678384875E+03  0.25500000920E-02 0. -1.
    10030    2    1    2    0    0  0.00000000000E+00  0.00000000000E+00  0.43567757059E+03  0.19492452681E+04  0.18999321487E+04 0.  0.
        5    1    3    3  502    0 -0.43073196952E+03  0.79498796510E+02  0.10826669069E+04  0.11679211487E+04  0.46999998093E+01 0.  1.
       -5    1    3    3    0  502  0.43073196952E+03 -0.79498796510E+02 -0.64698933633E+03  0.78132411939E+03  0.46999998093E+01 0. -1.
</event>
<event>
 5   0  0.3379108E-06  0.1899744E+04  0.7818609E-02  0.8654984E-01
        1   -1    0    0  501    0  0.00000000000E+00  0.00000000000E+00  0.20707506727E+04  0.20707506727E+04  0.50400001928E-02 0.  1.
       -1   -1    0    0    0  501  0.00000000000E+00  0.00000000000E+00 -0.43571497669E+03  0.43571497672E+03  0.50400001928E-02 0. -1.
    10030    2    1    2    0    0  0.00000000000E+00  0.00000000000E+00  0.16350356960E+04  0.25064656494E+04  0.18997442787E+04 0.  0.
        4    1    3    3  502    0  0.71398161855E+03  0.46009304252E+03  0.13785218451E+04  0.16191909862E+04  0.12699999809E+01 0.  1.
       -4    1    3    3    0  502 -0.71398161855E+03 -0.46009304252E+03  0.25651385088E+03  0.88727466322E+03  0.12699999809E+01 0. -1.
</event>
<event>
 5   0  0.3398807E-06  0.1896280E+04  0.7818609E-02  0.8656710E-01
        1   -1    0    0  501    0  0.00000000000E+00  0.00000000000E+00  0.98715742243E+03  0.98715742245E+03  0.50400001928E-02 0.  1.
       -1   -1    0    0    0  501  0.00000000000E+00  0.00000000000E+00 -0.91066521748E+03  0.91066521749E+03  0.50400001928E-02 0. -1.
    10030    2    1    2    0    0  0.00000000000E+00  0.00000000000E+00  0.76492204955E+02  0.18978226399E+04  0.18962804949E+04 0.  0.
        1    1    3    3  502    0 -0.49706368309E+03  0.16381716453E+03  0.82949741087E+03  0.98080289718E+03  0.50400001928E-02 0.  1.
       -1    1    3    3    0  502  0.49706368309E+03 -0.16381716453E+03 -0.75300520592E+03  0.91701974276E+03  0.50400001928E-02 0. -1.
</event>
<event>
 5   0  0.7207648E-06  0.1902248E+04  0.7818609E-02  0.8653738E-01
       -2   -1    0    0    0  501  0.00000000000E+00  0.00000000000E+00  0.67040776941E+03  0.67040776941E+03  0.25500000920E-02 0. -1.
        2   -1    0    0  501    0  0.00000000000E+00  0.00000000000E+00 -0.13493827477E+04  0.13493827477E+04  0.25500000920E-02 0.  1.
    10030    2    1    2    0    0  0.00000000000E+00  0.00000000000E+00 -0.67897497825E+03  0.20197905171E+04  0.19022478050E+04 0.  0.
        4    1    3    3  502    0  0.43763846319E+03  0.47521052087E+03 -0.10806777254E+04  0.12590545750E+04  0.12699999809E+01 0.  1.
       -4    1    3    3    0  502 -0.43763846319E+03 -0.47521052087E+03  0.40170274719E+03  0.76073594210E+03  0.12699999809E+01 0. -1.
</event>
<event>
 5   0  0.3236653E-06  0.1900345E+04  0.7818609E-02  0.8654685E-01
       -1   -1    0    0    0  501  0.00000000000E+00  0.00000000000E+00  0.11094109351E+04  0.11094109351E+04  0.50400001928E-02 0. -1.
        1   -1    0    0  501    0  0.00000000000E+00  0.00000000000E+00 -0.81379036172E+03  0.81379036174E+03  0.50400001928E-02 0.  1.
    10030    2    1    2    0    0  0.00000000000E+00  0.00000000000E+00  0.29562057333E+03  0.19232012968E+04  0.19003451541E+04 0.  0.
        3    1    3    3  502    0 -0.19463077697E+03  0.44467153960E+03 -0.67884572832E+03  0.83453307336E+03  0.10100000352E+00 0.  1.
       -3    1    3    3    0  502  0.19463077697E+03 -0.44467153960E+03  0.97446630165E+03  0.10886682234E+04  0.10100000352E+00 0. -1.
</event>
<event>
 5   0  0.3398807E-06  0.1900008E+04  0.7818609E-02  0.8654852E-01
        1   -1    0    0  501    0  0.00000000000E+00  0.00000000000E+00  0.11490035797E+04  0.11490035797E+04  0.50400001928E-02 0.  1.
       -1   -1    0    0    0  501  0.00000000000E+00  0.00000000000E+00 -0.78546989177E+03  0.78546989178E+03  0.50400001928E-02 0. -1.
    10030    2    1    2    0    0  0.00000000000E+00  0.00000000000E+00  0.36353368791E+03  0.19344734715E+04  0.19000081236E+04 0.  0.
        1    1    3    3  502    0  0.28843781250E+03  0.90511146962E+03  0.17240365395E+03  0.96547716909E+03  0.50400001928E-02 0.  1.
       -1    1    3    3    0  502 -0.28843781250E+03 -0.90511146962E+03  0.19113003396E+03  0.96899630238E+03  0.50400001928E-02 0. -1.
</event>
<event>
 5   0  0.3398807E-06  0.1899592E+04  0.7818609E-02  0.8655059E-01
       -1   -1    0    0    0  501  0.00000000000E+00  0.00000000000E+00  0.14293318339E+04  0.14293318339E+04  0.50400001928E-02 0.  1.
        1   -1    0    0  501    0  0.00000000000E+00  0.00000000000E+00 -0.63114288738E+03  0.63114288740E+03  0.50400001928E-02 0. -1.
    10030    2    1    2    0    0  0.00000000000E+00  0.00000000000E+00  0.79818894648E+03  0.20604747213E+04  0.18995921885E+04 0.  0.
        1    1    3    3  502    0  0.85958123519E+02  0.72411370270E+03 -0.26104018765E+03  0.77451367518E+03  0.50400001928E-02 0. -1.
       -1    1    3    3    0  502 -0.85958123519E+02 -0.72411370270E+03  0.10592291341E+04  0.12859610461E+04  0.50400001928E-02 0.  1.
</event>
<event>
 5   0  0.3211263E-06  0.1900136E+04  0.7818609E-02  0.8654789E-01
       -1   -1    0    0    0  501  0.00000000000E+00  0.00000000000E+00  0.55643348645E+03  0.55643348647E+03  0.50400001928E-02 0.  1.
        1   -1    0    0  501    0  0.00000000000E+00  0.00000000000E+00 -0.16221686048E+04  0.16221686048E+04  0.50400001928E-02 0. -1.
    10030    2    1    2    0    0  0.00000000000E+00  0.00000000000E+00 -0.10657351183E+04  0.21786020912E+04  0.19001357135E+04 0.  0.
        5    1    3    3  502    0  0.42334072617E+02 -0.40842170097E+03 -0.15151654550E+04  0.15698244824E+04  0.46999998093E+01 0. -1.
       -5    1    3    3    0  502 -0.42334072617E+02  0.40842170097E+03  0.44943033667E+03  0.60877760886E+03  0.46999998093E+01 0.  1.
</event>
<event>
 5   0  0.3211263E-06  0.1899496E+04  0.7818609E-02  0.8655107E-01
       -1   -1    0    0    0  501  0.00000000000E+00  0.00000000000E+00  0.10160704522E+04  0.10160704523E+04  0.50400001928E-02 0.  1.
        1   -1    0    0  501    0  0.00000000000E+00  0.00000000000E+00 -0.88775458315E+03  0.88775458316E+03  0.50400001928E-02 0. -1.
    10030    2    1    2    0    0  0.00000000000E+00  0.00000000000E+00  0.12831586909E+03  0.19038250354E+04  0.18994959340E+04 0.  0.
        5    1    3    3  502    0  0.52659511784E+01 -0.74342995611E+03  0.65650680439E+03  0.99183622846E+03  0.46999998093E+01 0.  1.
       -5    1    3    3    0  502 -0.52659511784E+01  0.74342995611E+03 -0.52819093530E+03  0.91198880696E+03  0.46999998093E+01 0. -1.
</event>
<event>
 5   0  0.3495279E-06  0.1900337E+04  0.7818609E-02  0.8654689E-01
       -1   -1    0    0    0  501  0.00000000000E+00  0.00000000000E+00  0.67553742744E+03  0.67553742746E+03  0.50400001928E-02 0.  1.
        1   -1    0    0  501    0  0.00000000000E+00  0.00000000000E+00 -0.13364472804E+04  0.13364472804E+04  0.50400001928E-02 0. -1.
    10030    2    1    2    0    0  0.00000000000E+00  0.00000000000E+00 -0.66090985299E+03  0.20119847079E+04  0.19003369783E+04 0.  0.
        2    1    3    3  502    0 -0.12864770811E+02 -0.54556308718E+03  0.49307110769E+03  0.73547515367E+03  0.25500000920E-02 0.  1.
       -2    1    3    3    0  502  0.12864770811E+02  0.54556308718E+03 -0.11539809607E+04  0.12765095542E+04  0.25500000920E-02 0. -1.
</event>
<event>
 5   0  0.3495279E-06  0.1901016E+04  0.7818609E-02  0.8654351E-01
       -1   -1    0    0    0  501  0.00000000000E+00  0.00000000000E+00  0.81631058440E+03  0.81631058442E+03  0.50400001928E-02 0.  1.
        1   -1    0    0  501    0  0.00000000000E+00  0.00000000000E+00 -0.11067663809E+04  0.11067663809E+04  0.50400001928E-02 0. -1.
    10030    2    1    2    0    0  0.00000000000E+00  0.00000000000E+00 -0.29045579649E+03  0.19230769653E+04  0.19010156351E+04 0.  0.
        2    1    3    3  502    0  0.11918099235E+03  0.72108488123E+03 -0.75997886105E+03  0.10543886305E+04  0.25500000920E-02 0. -1.
       -2    1    3    3    0  502 -0.11918099235E+03 -0.72108488123E+03  0.46952306456E+03  0.86868833482E+03  0.25500000920E-02 0.  1.
</event>
<event>
 5   0  0.3495279E-06  0.1900037E+04  0.7818609E-02  0.8654838E-01
        1   -1    0    0  501    0  0.00000000000E+00  0.00000000000E+00  0.95530846946E+03  0.95530846947E+03  0.50400001928E-02 0. -1.
       -1   -1    0    0    0  501  0.00000000000E+00  0.00000000000E+00 -0.94475809550E+03  0.94475809552E+03  0.50400001928E-02 0.  1.
    10030    2    1    2    0    0  0.00000000000E+00  0.00000000000E+00  0.10550373953E+02  0.19000665650E+04  0.19000372736E+04 0.  0.
        2    1    3    3  502    0  0.72800189428E+03  0.57211669226E+03  0.21795461052E+03  0.95121421346E+03  0.25500000920E-02 0. -1.
       -2    1    3    3    0  502 -0.72800189428E+03 -0.57211669226E+03 -0.20740423657E+03  0.94885235152E+03  0.25500000920E-02 0.  1.
</event>
<event>
 5   0  0.7577180E-06  0.1891263E+04  0.7818609E-02  0.8659218E-01
       -2   -1    0    0    0  501  0.00000000000E+00  0.00000000000E+00  0.11664025790E+04  0.11664025790E+04  0.25500000920E-02 0.  1.
        2   -1    0    0  501    0  0.00000000000E+00  0.00000000000E+00 -0.76664692090E+03  0.76664692091E+03  0.25500000920E-02 0. -1.
    10030    2    1    2    0    0  0.00000000000E+00  0.00000000000E+00  0.39975565813E+03  0.19330494999E+04  0.18912630127E+04 0.  0.
        5    1    3    3  502    0 -0.40116081523E+03 -0.39912504111E+03  0.97422221016E+03  0.11266595772E+04  0.46999998093E+01 0.  1.
       -5    1    3    3    0  502  0.40116081523E+03  0.39912504111E+03 -0.57446655203E+03  0.80638992275E+03  0.46999998093E+01 0. -1.
</event>
<event>
 5   0  0.3398807E-06  0.1900156E+04  0.7818609E-02  0.8654779E-01
        1   -1    0    0  501    0  0.00000000000E+00  0.00000000000E+00  0.13580289617E+04  0.13580289618E+04  0.50400001928E-02 0.  1.
       -1   -1    0    0    0  501  0.00000000000E+00  0.00000000000E+00 -0.66467525106E+03  0.66467525108E+03  0.50400001928E-02 0. -1.
    10030    2    1    2    0    0  0.00000000000E+00  0.00000000000E+00  0.69335371069E+03  0.20227042128E+04  0.19001560369E+04 0.  0.
        1    1    3    3  502    0 -0.88980923007E+03 -0.13008012198E+03  0.20366655973E+02  0.89949769580E+03  0.50400001928E-02 0. -1.
       -1    1    3    3    0  502  0.88980923007E+03  0.13008012198E+03  0.67298705472E+03  0.11232065170E+04  0.50400001928E-02 0.  1.
</event>
<event>
 5   0  0.2527750E-06  0.1900015E+04  0.7818609E-02  0.8654849E-01
        3   -1    0    0  501    0  0.00000000000E+00  0.00000000000E+00  0.15230665099E+04  0.15230665133E+04  0.10100000352E+00 0.  1.
       -3   -1    0    0    0  501  0.00000000000E+00  0.00000000000E+00 -0.59256408315E+03  0.59256409176E+03  0.10100000352E+00 0. -1.
    10030    2    1    2    0    0  0.00000000000E+00  0.00000000000E+00  0.93050242679E+03  0.21156306051E+04  0.19000152870E+04 0.  0.
        2    1    3    3  502    0 -0.53314230158E+03  0.53638808276E+03 -0.17493890869E+03  0.77624513579E+03  0.25500000920E-02 0. -1.
       -2    1    3    3    0  502  0.53314230158E+03 -0.53638808276E+03  0.11054413355E+04  0.13393854693E+04  0.25500000920E-02 0.  1.
</event>
<event>
 5   0  0.6862201E-06  0.1902407E+04  0.7818609E-02  0.8653659E-01
        2   -1    0    0  501    0  0.00000000000E+00  0.00000000000E+00  0.13662772240E+04  0.13662772240E+04  0.25500000920E-02 0. -1.
       -2   -1    0    0    0  501  0.00000000000E+00  0.00000000000E+00 -0.66222885335E+03  0.66222885335E+03  0.25500000920E-02 0.  1.
    10030    2    1    2    0    0  0.00000000000E+00  0.00000000000E+00  0.70404837068E+03  0.20285060774E+04  0.19024071062E+04 0.  0.
        3    1    3    3  502    0 -0.58804420434E+03 -0.49869913498E+03 -0.24193650882E+03  0.80810277687E+03  0.10100000352E+00 0.  1.
       -3    1    3    3    0  502  0.58804420434E+03  0.49869913498E+03  0.94598487950E+03  0.12204033005E+04  0.10100000352E+00 0. -1.
</event>
<event>
 5   0  0.3379108E-06  0.1904779E+04  0.7818609E-02  0.8652481E-01
       -1   -1    0    0    0  501  0.00000000000E+00  0.00000000000E+00  0.11991271861E+04  0.11991271861E+04  0.50400001928E-02 0. -1.
        1   -1    0    0  501    0  0.00000000000E+00  0.00000000000E+00 -0.75642145891E+03  0.75642145893E+03  0.50400001928E-02 0.  1.
    10030    2    1    2    0    0  0.00000000000E+00  0.00000000000E+00  0.44270572717E+03  0.19555486450E+04  0.19047787646E+04 0.  0.
        4    1    3    3  502    0  0.56770233997E+03  0.18609789652E+03 -0.54012098055E+03  0.80538851521E+03  0.12699999809E+01 0.  1.
       -4    1    3    3    0  502 -0.56770233997E+03 -0.18609789652E+03  0.98282670772E+03  0.11501601298E+04  0.12699999809E+01 0. -1.
</event>
<event>
 5   0  0.7207648E-06  0.1900145E+04  0.7818609E-02  0.8654784E-01
        2   -1    0    0  501    0  0.00000000000E+00  0.00000000000E+00  0.13807029896E+04  0.13807029896E+04  0.25500000920E-02 0. -1.
       -2   -1    0    0    0  501  0.00000000000E+00  0.00000000000E+00 -0.65375219361E+03  0.65375219362E+03  0.25500000920E-02 0.  1.
    10030    2    1    2    0    0  0.00000000000E+00  0.00000000000E+00  0.72695079602E+03  0.20344551832E+04  0.19001448452E+04 0.  0.
        4    1    3    3  502    0 -0.40635636130E+03  0.81217620210E+03  0.66227174404E+03  0.11239933948E+04  0.12699999809E+01 0. -1.
       -4    1    3    3    0  502  0.40635636130E+03 -0.81217620210E+03  0.64679051976E+02  0.91046178848E+03  0.12699999809E+01 0.  1.
</event>
<event>
 5   0  0.6870370E-06  0.1900355E+04  0.7818609E-02  0.8654680E-01
       -2   -1    0    0    0  501  0.00000000000E+00  0.00000000000E+00  0.13029733917E+04  0.13029733917E+04  0.25500000920E-02 0. -1.
        2   -1    0    0  501    0  0.00000000000E+00  0.00000000000E+00 -0.69290535407E+03  0.69290535407E+03  0.25500000920E-02 0.  1.
    10030    2    1    2    0    0  0.00000000000E+00  0.00000000000E+00  0.61006803763E+03  0.19958787458E+04  0.19003549556E+04 0.  0.
        1    1    3    3  502    0 -0.64914324974E+03  0.31748621523E+03  0.95301749409E+03  0.11960045149E+04  0.50400001928E-02 0. -1.
       -1    1    3    3    0  502  0.64914324974E+03 -0.31748621523E+03 -0.34294945646E+03  0.79987423090E+03  0.50400001928E-02 0.  1.
</event>
<event>
 5   0  0.3236653E-06  0.1901537E+04  0.7818609E-02  0.8654092E-01
        1   -1    0    0  501    0  0.00000000000E+00  0.00000000000E+00  0.13798544739E+04  0.13798544739E+04  0.50400001928E-02 0.  1.
       -1   -1    0    0    0  501  0.00000000000E+00  0.00000000000E+00 -0.65511295049E+03  0.65511295051E+03  0.50400001928E-02 0. -1.
    10030    2    1    2    0    0  0.00000000000E+00  0.00000000000E+00  0.72474152338E+03  0.20349674244E+04  0.19015367844E+04 0.  0.
        3    1    3    3  502    0 -0.68881103781E+02 -0.78475056778E+03  0.93206157672E+03  0.12203757016E+04  0.10100000352E+00 0.  1.
       -3    1    3    3    0  502  0.68881103781E+02  0.78475056778E+03 -0.20732005334E+03  0.81459172277E+03  0.10100000352E+00 0. -1.
</event>
<event>
 5   0  0.6862201E-06  0.1899394E+04  0.7818609E-02  0.8655158E-01
       -2   -1    0    0    0  501  0.00000000000E+00  0.00000000000E+00  0.61876822235E+03  0.61876822236E+03  0.25500000920E-02 0.  1.
        2   -1    0    0  501    0  0.00000000000E+00  0.00000000000E+00 -0.14576124678E+04  0.14576124678E+04  0.25500000920E-02 0. -1.
    10030    2    1    2    0    0  0.00000000000E+00  0.00000000000E+00 -0.83884424546E+03  0.20763806902E+04  0.18993938776E+04 0.  0.
        3    1    3    3  502    0 -0.29808926796E+03 -0.47190820312E+03  0.42052892866E+03  0.69885560302E+03  0.10100000352E+00 0.  1.
       -3    1    3    3    0  502  0.29808926796E+03  0.47190820312E+03 -0.12593731741E+04  0.13775250872E+04  0.10100000352E+00 0. -1.
</event>
<event>
 5   0  0.3379108E-06  0.1898266E+04  0.7818609E-02  0.8655720E-01
       -1   -1    0    0    0  501  0.00000000000E+00  0.00000000000E+00  0.98411993122E+03  0.98411993123E+03  0.50400001928E-02 0. -1.
        1   -1    0    0  501    0  0.00000000000E+00  0.00000000000E+00 -0.91538949580E+03  0.91538949581E+03  0.50400001928E-02 0.  1.
    10030    2    1    2    0    0  0.00000000000E+00  0.00000000000E+00  0.68730435419E+02  0.18995094270E+04  0.18982655743E+04 0.  0.
        4    1    3    3  502    0 -0.80611706911E+03  0.40301791140E+03  0.33222327569E+03  0.96053218781E+03  0.12699999809E+01 0. -1.
       -4    1    3    3    0  502  0.80611706911E+03 -0.40301791140E+03 -0.26349284028E+03  0.93897723923E+03  0.12699999809E+01 0.  1.
</event>
<event>
 5   0  0.6984466E-06  0.1899483E+04  0.7818609E-02  0.8655114E-01
       -2   -1    0    0    0  501  0.00000000000E+00  0.00000000000E+00  0.98761509615E+03  0.98761509616E+03  0.25500000920E-02 0.  1.
        2   -1    0    0  501    0  0.00000000000E+00  0.00000000000E+00 -0.91332042478E+03  0.91332042479E+03  0.25500000920E-02 0. -1.
    10030    2    1    2    0    0  0.00000000000E+00  0.00000000000E+00  0.74294671373E+02  0.19009355209E+04  0.18994831288E+04 0.  0.
        2    1    3    3  502    0  0.74791073146E+03  0.42846382792E+02 -0.54708218788E+03  0.92763419248E+03  0.25500000920E-02 0. -1.
       -2    1    3    3    0  502 -0.74791073146E+03 -0.42846382792E+02  0.62137685926E+03  0.97330132846E+03  0.25500000920E-02 0.  1.
</event>
<event>
 5   0  0.3379108E-06  0.1912607E+04  0.7818609E-02  0.8648606E-01
       -1   -1    0    0    0  501  0.00000000000E+00  0.00000000000E+00  0.10400371438E+04  0.10400371438E+04  0.50400001928E-02 0. -1.
        1   -1    0    0  501    0  0.00000000000E+00  0.00000000000E+00 -0.87931150438E+03  0.87931150439E+03  0.50400001928E-02 0.  1.
    10030    2    1    2    0    0  0.00000000000E+00  0.00000000000E+00  0.16072563943E+03  0.19193486482E+04  0.19126072525E+04 0.  0.
        4    1    3    3  502    0 -0.77190752891E+03  0.51897900453E+03  0.30325958028E+03  0.97833962726E+03  0.12699999809E+01 0. -1.
       -4    1    3    3    0  502  0.77190752891E+03 -0.51897900453E+03 -0.14253394085E+03  0.94100902096E+03  0.12699999809E+01 0.  1.
</event>
<event>
 5   0  0.3379108E-06  0.1899516E+04  0.7818609E-02  0.8655097E-01
       -1   -1    0    0    0  501  0.00000000000E+00  0.00000000000E+00  0.24635431077E+04  0.24635431077E+04  0.50400001928E-02 0. -1.
        1   -1    0    0  501    0  0.00000000000E+00  0.00000000000E+00 -0.36615576029E+03  0.36615576033E+03  0.50400001928E-02 0.  1.
    10030    2    1    2    0    0  0.00000000000E+00  0.00000000000E+00  0.20973873474E+04  0.28296988680E+04  0.18995162539E+04 0.  0.
        4    1    3    3  502    0 -0.54168014449E+03  0.75228941824E+03  0.13564594293E+04  0.16429669941E+04  0.12699999809E+01 0.  1.
       -4    1    3    3    0  502  0.54168014449E+03 -0.75228941824E+03  0.74092791815E+03  0.11867318739E+04  0.12699999809E+01 0. -1.
</event>
<event>
 5   0  0.3495279E-06  0.1899949E+04  0.7818609E-02  0.8654882E-01
       -1   -1    0    0    0  501  0.00000000000E+00  0.00000000000E+00  0.77224269324E+03  0.77224269326E+03  0.50400001928E-02 0. -1.
        1   -1    0    0  501    0  0.00000000000E+00  0.00000000000E+00 -0.11686110129E+04  0.11686110129E+04  0.50400001928E-02 0.  1.
    10030    2    1    2    0    0  0.00000000000E+00  0.00000000000E+00 -0.39636831965E+03  0.19408537062E+04  0.18999487530E+04 0.  0.
        2    1    3    3  502    0 -0.28398575601E+03 -0.90555569774E+03 -0.15517928873E+03  0.96164423930E+03  0.25500000920E-02 0.  1.
       -2    1    3    3    0  502  0.28398575601E+03  0.90555569774E+03 -0.24118903091E+03  0.97920946685E+03  0.25500000920E-02 0. -1.
</event>
<event>
 5   0  0.6984466E-06  0.1907182E+04  0.7818609E-02  0.8651290E-01
        2   -1    0    0  501    0  0.00000000000E+00  0.00000000000E+00  0.12671243130E+04  0.12671243130E+04  0.25500000920E-02 0.  1.
       -2   -1    0    0    0  501  0.00000000000E+00  0.00000000000E+00 -0.71763730758E+03  0.71763730759E+03  0.25500000920E-02 0. -1.
    10030    2    1    2    0    0  0.00000000000E+00  0.00000000000E+00  0.54948700537E+03  0.19847616205E+04  0.19071818795E+04 0.  0.
        2    1    3    3  502    0  0.35229664904E+03 -0.27910094742E+03 -0.60049390749E+03  0.75006879732E+03  0.25500000920E-02 0. -1.
       -2    1    3    3    0  502 -0.35229664904E+03  0.27910094742E+03  0.11499809129E+04  0.12346928232E+04  0.25500000920E-02 0.  1.
</event>
<event>
 5   0  0.6870370E-06  0.1896502E+04  0.7818609E-02  0.8656600E-01
       -2   -1    0    0    0  501  0.00000000000E+00  0.00000000000E+00  0.67702793189E+03  0.67702793189E+03  0.25500000920E-02 0.  1.
        2   -1    0    0  501    0  0.00000000000E+00  0.00000000000E+00 -0.13281280410E+04  0.13281280410E+04  0.25500000920E-02 0. -1.
    10030    2    1    2    0    0  0.00000000000E+00  0.00000000000E+00 -0.65110010908E+03  0.20051559729E+04  0.18965018121E+04 0.  0.
        1    1    3    3  502    0  0.20920341236E+02 -0.70371656877E+03  0.34608009136E+03  0.78449098115E+03  0.50400001928E-02 0. -1.
       -1    1    3    3    0  502 -0.20920341236E+02  0.70371656877E+03 -0.99718020043E+03  0.12206649917E+04  0.50400001928E-02 0.  1.
</event>
<event>
 5   0  0.2527750E-06  0.1900071E+04  0.7818609E-02  0.8654821E-01
       -4   -1    0    0    0  501  0.00000000000E+00  0.00000000000E+00  0.10025242505E+04  0.10025250549E+04  0.12699999809E+01 0. -1.
        4   -1    0    0  501    0  0.00000000000E+00  0.00000000000E+00 -0.90029301932E+03  0.90029391509E+03  0.12699999809E+01 0.  1.
    10030    2    1    2    0    0  0.00000000000E+00  0.00000000000E+00  0.10223123116E+03  0.19028189700E+04  0.19000707376E+04 0.  0.
        1    1    3    3  502    0 -0.22431021118E+03 -0.73573526147E+03  0.60954725933E+03  0.98141189477E+03  0.50400001928E-02 0. -1.
       -1    1    3    3    0  502  0.22431021118E+03  0.73573526147E+03 -0.50731602817E+03  0.92140707522E+03  0.50400001928E-02 0.  1.
</event>
<event>
 5   0  0.6870370E-06  0.1899830E+04  0.7818609E-02  0.8654941E-01
        2   -1    0    0  501    0  0.00000000000E+00  0.00000000000E+00  0.15900213538E+04  0.15900213538E+04  0.25500000920E-02 0. -1.
       -2   -1    0    0    0  501  0.00000000000E+00  0.00000000000E+00 -0.56750079010E+03  0.56750079010E+03  0.25500000920E-02 0.  1.
    10030    2    1    2    0    0  0.00000000000E+00  0.00000000000E+00  0.10225205637E+04  0.21575221439E+04  0.18998298603E+04 0.  0.
        1    1    3    3  502    0 -0.13603899449E+02  0.90011367473E+03  0.16689980199E+03  0.91555733707E+03  0.50400001928E-02 0.  1.
       -1    1    3    3    0  502  0.13603899449E+02 -0.90011367473E+03  0.85562076170E+03  0.12419648068E+04  0.50400001928E-02 0. -1.
</event>
<event>
 5   0  0.3398807E-06  0.1900419E+04  0.7818609E-02  0.8654648E-01
        1   -1    0    0  501    0  0.00000000000E+00  0.00000000000E+00  0.93993222467E+03  0.93993222468E+03  0.50400001928E-02 0.  1.
       -1   -1    0    0    0  501  0.00000000000E+00  0.00000000000E+00 -0.96059864434E+03  0.96059864435E+03  0.50400001928E-02 0. -1.
    10030    2    1    2    0    0  0.00000000000E+00  0.00000000000E+00 -0.20666419670E+02  0.19005308690E+04  0.19004185021E+04 0.  0.
        1    1    3    3  502    0  0.16671891812E+03 -0.38377780466E+03  0.84283915860E+03  0.94098801709E+03  0.50400001928E-02 0.  1.
       -1    1    3    3    0  502 -0.16671891812E+03  0.38377780466E+03 -0.86350557827E+03  0.95954285195E+03  0.50400001928E-02 0. -1.
</event>
<event>
 5   0  0.7577180E-06  0.1900050E+04  0.7818609E-02  0.8654832E-01
       -2   -1    0    0    0  501  0.00000000000E+00  0.00000000000E+00  0.65610652680E+03  0.65610652680E+03  0.25500000920E-02 0.  1.
        2   -1    0    0  501    0  0.00000000000E+00  0.00000000000E+00 -0.13756108265E+04  0.13756108265E+04  0.25500000920E-02 0. -1.
    10030    2    1    2    0    0  0.00000000000E+00  0.00000000000E+00 -0.71950429972E+03  0.20317173533E+04  0.19000497274E+04 0.  0.
        5    1    3    3  502    0  0.20612655438E+03 -0.43609288790E+02  0.63079736008E+03  0.66506941440E+03  0.46999998093E+01 0.  1.
       -5    1    3    3    0  502 -0.20612655438E+03  0.43609288790E+02 -0.13503016598E+04  0.13666479389E+04  0.46999998093E+01 0. -1.
</event>
<event>
 5   0  0.2527750E-06  0.1900495E+04  0.7818609E-02  0.8654610E-01
       -3   -1    0    0    0  501  0.00000000000E+00  0.00000000000E+00  0.12251272663E+04  0.12251272705E+04  0.10100000352E+00 0. -1.
        3   -1    0    0  501    0  0.00000000000E+00  0.00000000000E+00 -0.73704230873E+03  0.73704231566E+03  0.10100000352E+00 0.  1.
    10030    2    1    2    0    0  0.00000000000E+00  0.00000000000E+00  0.48808495762E+03  0.19621695862E+04  0.19004953457E+04 0.  0.
        1    1    3    3  502    0 -0.26966154819E+03 -0.83725506369E+03 -0.12714830199E+03  0.88875198057E+03  0.50400001928E-02 0.  1.
       -1    1    3    3    0  502  0.26966154819E+03  0.83725506369E+03  0.61523325960E+03  0.10734176056E+04  0.50400001928E-02 0. -1.
</event>
<event>
 5   0  0.7207648E-06  0.1899705E+04  0.7818609E-02  0.8655003E-01
        2   -1    0    0  501    0  0.00000000000E+00  0.00000000000E+00  0.11871382054E+04  0.11871382054E+04  0.25500000920E-02 0. -1.
       -2   -1    0    0    0  501  0.00000000000E+00  0.00000000000E+00 -0.75999589511E+03  0.75999589511E+03  0.25500000920E-02 0.  1.
    10030    2    1    2    0    0  0.00000000000E+00  0.00000000000E+00  0.42714231031E+03  0.19471341005E+04  0.18997054120E+04 0.  0.
        4    1    3    3  502    0 -0.86897512288E+03 -0.36865124692E+03  0.10511322861E+03  0.94977466262E+03  0.12699999809E+01 0. -1.
       -4    1    3    3    0  502  0.86897512288E+03  0.36865124692E+03  0.32202908170E+03  0.99735943791E+03  0.12699999809E+01 0.  1.
</event>
<event>
 5   0  0.7207648E-06  0.1894043E+04  0.7818609E-02  0.8657827E-01
        2   -1    0    0  501    0  0.00000000000E+00  0.00000000000E+00  0.78502957269E+03  0.78502957269E+03  0.25500000920E-02 0.  1.
       -2   -1    0    0    0  501  0.00000000000E+00  0.00000000000E+00 -0.11424401424E+04  0.11424401424E+04  0.25500000920E-02 0. -1.
    10030    2    1    2    0    0  0.00000000000E+00  0.00000000000E+00 -0.35741056971E+03  0.19274697151E+04  0.18940425516E+04 0.  0.
        4    1    3    3  502    0  0.18824896633E+03  0.49625363506E+03 -0.97685734997E+03  0.11117361372E+04  0.12699999809E+01 0. -1.
       -4    1    3    3    0  502 -0.18824896633E+03 -0.49625363506E+03  0.61944678026E+03  0.81573357790E+03  0.12699999809E+01 0.  1.
</event>
<event>
 5   0  0.3495279E-06  0.1900089E+04  0.7818609E-02  0.8654812E-01
       -1   -1    0    0    0  501  0.00000000000E+00  0.00000000000E+00  0.80796660206E+03  0.80796660208E+03  0.50400001928E-02 0.  1.
        1   -1    0    0  501    0  0.00000000000E+00  0.00000000000E+00 -0.11171067392E+04  0.11171067392E+04  0.50400001928E-02 0. -1.
    10030    2    1    2    0    0  0.00000000000E+00  0.00000000000E+00 -0.30914013717E+03  0.19250733413E+04  0.19000894045E+04 0.  0.
        2    1    3    3  502    0 -0.30520014815E+03  0.21891372047E+03 -0.10386923946E+04  0.11045144807E+04  0.25500000920E-02 0. -1.
       -2    1    3    3    0  502  0.30520014815E+03 -0.21891372047E+03  0.72955225743E+03  0.82055886064E+03  0.25500000920E-02 0.  1.
</event>
<event>
 5   0  0.3236653E-06  0.1900820E+04  0.7818609E-02  0.8654448E-01
       -1   -1    0    0    0  501  0.00000000000E+00  0.00000000000E+00  0.15232759676E+04  0.15232759676E+04  0.50400001928E-02 0. -1.
        1   -1    0    0  501    0  0.00000000000E+00  0.00000000000E+00 -0.59298480838E+03  0.59298480840E+03  0.50400001928E-02 0.  1.
    10030    2    1    2    0    0  0.00000000000E+00  0.00000000000E+00  0.93029115920E+03  0.21162607760E+04  0.19008203574E+04 0.  0.
        3    1    3    3  502    0 -0.79768517580E+03 -0.44363357746E+03  0.17023191690E+03  0.92848872178E+03  0.10100000352E+00 0. -1.
       -3    1    3    3    0  502  0.79768517580E+03  0.44363357746E+03  0.76005924230E+03  0.11877720542E+04  0.10100000352E+00 0.  1.
</event>
<event>
 5   0  0.3211263E-06  0.1899817E+04  0.7818609E-02  0.8654947E-01
       -1   -1    0    0    0  501  0.00000000000E+00  0.00000000000E+00  0.64213673585E+03  0.64213673587E+03  0.50400001928E-02 0.  1.
        1   -1    0    0  501    0  0.00000000000E+00  0.00000000000E+00 -0.14051934935E+04  0.14051934935E+04  0.50400001928E-02 0. -1.
    10030    2    1    2    0    0  0.00000000000E+00  0.00000000000E+00 -0.76305675766E+03  0.20473302294E+04  0.18998172156E+04 0.  0.
        5    1    3    3  502    0 -0.25086106009E+02 -0.41296447574E+02 -0.14038557566E+04  0.14046949080E+04  0.46999998093E+01 0. -1.
       -5    1    3    3    0  502  0.25086106009E+02  0.41296447574E+02  0.64079899891E+03  0.64263532139E+03  0.46999998093E+01 0.  1.
</event>
<event>
 5   0  0.7207648E-06  0.1900297E+04  0.7818609E-02  0.8654709E-01
       -2   -1    0    0    0  501  0.00000000000E+00  0.00000000000E+00  0.66607771872E+03  0.66607771872E+03  0.25500000920E-02 0.  1.
        2   -1    0    0  501    0  0.00000000000E+00  0.00000000000E+00 -0.13553702819E+04  0.13553702819E+04  0.25500000920E-02 0. -1.
    10030    2    1    2    0    0  0.00000000000E+00  0.00000000000E+00 -0.68929256317E+03  0.20214480006E+04  0.19002967614E+04 0.  0.
        4    1    3    3  502    0  0.47769338796E+03  0.14262731019E+03  0.51577660300E+03  0.71732882252E+03  0.12699999809E+01 0.  1.
       -4    1    3    3    0  502 -0.47769338796E+03 -0.14262731019E+03 -0.12050691662E+04  0.13041191781E+04  0.12699999809E+01 0. -1.
</event>
<event>
 5   0  0.7577180E-06  0.1899279E+04  0.7818609E-02  0.8655215E-01
        2   -1    0    0  501    0  0.00000000000E+00  0.00000000000E+00  0.71660045089E+03  0.71660045089E+03  0.25500000920E-02 0. -1.
       -2   -1    0    0    0  501  0.00000000000E+00  0.00000000000E+00 -0.12584635392E+04  0.12584635392E+04  0.25500000920E-02 0.  1.
    10030    2    1    2    0    0  0.00000000000E+00  0.00000000000E+00 -0.54186308833E+03  0.19750639901E+04  0.18992793787E+04 0.  0.
        5    1    3    3  502    0 -0.62479502095E+03  0.33051383480E+03 -0.93041723987E+03  0.11684633257E+04  0.46999998093E+01 0.  1.
       -5    1    3    3    0  502  0.62479502095E+03 -0.33051383480E+03  0.38855415154E+03  0.80660066444E+03  0.46999998093E+01 0. -1.
</event>
<event>
 5   0  0.6870370E-06  0.1900768E+04  0.7818609E-02  0.8654474E-01
        2   -1    0    0  501    0  0.00000000000E+00  0.00000000000E+00  0.57491681172E+03  0.57491681172E+03  0.25500000920E-02 0.  1.
       -2   -1    0    0    0  501  0.00000000000E+00  0.00000000000E+00 -0.15710611162E+04  0.15710611162E+04  0.25500000920E-02 0. -1.
    10030    2    1    2    0    0  0.00000000000E+00  0.00000000000E+00 -0.99614430446E+03  0.21459779279E+04  0.19007676848E+04 0.  0.
        1    1    3    3  502    0  0.15134531029E+03 -0.69074969907E+03 -0.12149588033E+04  0.14057615172E+04  0.50400001928E-02 0. -1.
       -1    1    3    3    0  502 -0.15134531029E+03  0.69074969907E+03  0.21881449880E+03  0.74021641067E+03  0.50400001928E-02 0.  1.
</event>
<event>
 5   0  0.6870370E-06  0.1899664E+04  0.7818609E-02  0.8655024E-01
       -2   -1    0    0    0  501  0.00000000000E+00  0.00000000000E+00  0.70526615779E+03  0.70526615779E+03  0.25500000920E-02 0.  1.
        2   -1    0    0  501    0  0.00000000000E+00  0.00000000000E+00 -0.12792059469E+04  0.12792059469E+04  0.25500000920E-02 0. -1.
    10030    2    1    2    0    0  0.00000000000E+00  0.00000000000E+00 -0.57393978910E+03  0.19844721047E+04  0.18996638262E+04 0.  0.
        1    1    3    3  502    0 -0.61129779673E+03  0.23207738787E+03  0.43272508017E+03  0.78408922023E+03  0.50400001928E-02 0.  1.
       -1    1    3    3    0  502  0.61129779673E+03 -0.23207738787E+03 -0.10066648693E+04  0.12003828845E+04  0.50400001928E-02 0. -1.
</event>
<event>
 5   0  0.3211263E-06  0.1899744E+04  0.7818609E-02  0.8654984E-01
       -1   -1    0    0    0  501  0.00000000000E+00  0.00000000000E+00  0.10564641406E+04  0.10564641406E+04  0.50400001928E-02 0.  1.
        1   -1    0    0  501    0  0.00000000000E+00  0.00000000000E+00 -0.85403477400E+03  0.85403477402E+03  0.50400001928E-02 0. -1.
    10030    2    1    2    0    0  0.00000000000E+00  0.00000000000E+00  0.20242936656E+03  0.19104989146E+04  0.18997443129E+04 0.  0.
        5    1    3    3  502    0 -0.21927004683E+03  0.85267940686E+03  0.45973461979E+03  0.99323689769E+03  0.46999998093E+01 0. -1.
       -5    1    3    3    0  502  0.21927004683E+03 -0.85267940686E+03 -0.25730525323E+03  0.91726201690E+03  0.46999998093E+01 0.  1.
</event>
<event>
 5   0  0.3211263E-06  0.1903912E+04  0.7818609E-02  0.8652911E-01
        1   -1    0    0  501    0  0.00000000000E+00  0.00000000000E+00  0.93230452355E+03  0.93230452357E+03  0.50400001928E-02 0.  1.
       -1   -1    0    0    0  501  0.00000000000E+00  0.00000000000E+00 -0.97202191539E+03  0.97202191541E+03  0.50400001928E-02 0. -1.
    10030    2    1    2    0    0  0.00000000000E+00  0.00000000000E+00 -0.39717391840E+02  0.19043264390E+04  0.19039122130E+04 0.  0.
        5    1    3    3  502    0 -0.61653634219E+02  0.90064215466E+03  0.28226807130E+03  0.94586194311E+03  0.46999998093E+01 0.  1.
       -5    1    3    3    0  502  0.61653634219E+02 -0.90064215466E+03 -0.32198546314E+03  0.95846449586E+03  0.46999998093E+01 0. -1.
</event>
<event>
 5   0  0.7207648E-06  0.1900456E+04  0.7818609E-02  0.8654629E-01
        2   -1    0    0  501    0  0.00000000000E+00  0.00000000000E+00  0.11626426600E+04  0.11626426600E+04  0.25500000920E-02 0. -1.
       -2   -1    0    0    0  501  0.00000000000E+00  0.00000000000E+00 -0.77662154071E+03  0.77662154072E+03  0.25500000920E-02 0.  1.
    10030    2    1    2    0    0  0.00000000000E+00  0.00000000000E+00  0.38602111927E+03  0.19392642007E+04  0.19004560862E+04 0.  0.
        4    1    3    3  502    0 -0.53773247637E+02  0.20200707132E+03 -0.75286649861E+03  0.78135011145E+03  0.12699999809E+01 0.  1.
       -4    1    3    3    0  502  0.53773247637E+02 -0.20200707132E+03  0.11388876179E+04  0.11579140893E+04  0.12699999809E+01 0. -1.
</event>
<event>
 5   0  0.3379108E-06  0.1899758E+04  0.7818609E-02  0.8654977E-01
        1   -1    0    0  501    0  0.00000000000E+00  0.00000000000E+00  0.11595811262E+04  0.11595811262E+04  0.50400001928E-02 0.  1.
       -1   -1    0    0    0  501  0.00000000000E+00  0.00000000000E+00 -0.77810039598E+03  0.77810039599E+03  0.50400001928E-02 0. -1.
    10030    2    1    2    0    0  0.00000000000E+00  0.00000000000E+00  0.38148073026E+03  0.19376815222E+04  0.18997584410E+04 0.  0.
        4    1    3    3  502    0  0.21998700023E+02  0.73649330514E+02  0.11564030097E+04  0.11589554351E+04  0.12699999809E+01 0.  1.
       -4    1    3    3    0  502 -0.21998700023E+02 -0.73649330514E+02 -0.77492227948E+03  0.77872608715E+03  0.12699999809E+01 0. -1.
</event>
<event>
 5   0  0.7207648E-06  0.1899149E+04  0.7818609E-02  0.8655280E-01
        2   -1    0    0  501    0  0.00000000000E+00  0.00000000000E+00  0.83563343949E+03  0.83563343950E+03  0.25500000920E-02 0.  1.
       -2   -1    0    0    0  501  0.00000000000E+00  0.00000000000E+00 -0.10790513643E+04  0.10790513643E+04  0.25500000920E-02 0. -1.
    10030    2    1    2    0    0  0.00000000000E+00  0.00000000000E+00 -0.24341792478E+03  0.19146848038E+04  0.18991486544E+04 0.  0.
        4    1    3    3  502    0 -0.50745233438E+03  0.13636262814E+03  0.67570207140E+03  0.85596585225E+03  0.12699999809E+01 0.  1.
       -4    1    3    3    0  502  0.50745233438E+03 -0.13636262814E+03 -0.91911999618E+03  0.10587189515E+04  0.12699999809E+01 0. -1.
</event>
<event>
 5   0  0.3236653E-06  0.1898424E+04  0.7818609E-02  0.8655641E-01
        1   -1    0    0  501    0  0.00000000000E+00  0.00000000000E+00  0.10141779160E+04  0.10141779160E+04  0.50400001928E-02 0. -1.
       -1   -1    0    0    0  501  0.00000000000E+00  0.00000000000E+00 -0.88840799715E+03  0.88840799716E+03  0.50400001928E-02 0.  1.
    10030    2    1    2    0    0  0.00000000000E+00  0.00000000000E+00  0.12576991886E+03  0.19025859132E+04  0.18984243689E+04 0.  0.
        3    1    3    3  502    0  0.13514706873E+03  0.38231932091E+03  0.92300343259E+03  0.10081508519E+04  0.10100000352E+00 0. -1.
       -3    1    3    3    0  502 -0.13514706873E+03 -0.38231932091E+03 -0.79723351373E+03  0.89443506133E+03  0.10100000352E+00 0.  1.
</event>
<event>
 5   0  0.3379108E-06  0.1900825E+04  0.7818609E-02  0.8654446E-01
        1   -1    0    0  501    0  0.00000000000E+00  0.00000000000E+00  0.92911123681E+03  0.92911123682E+03  0.50400001928E-02 0.  1.
       -1   -1    0    0    0  501  0.00000000000E+00  0.00000000000E+00 -0.97220161911E+03  0.97220161913E+03  0.50400001928E-02 0. -1.
    10030    2    1    2    0    0  0.00000000000E+00  0.00000000000E+00 -0.43090382306E+02  0.19013128559E+04  0.19008245040E+04 0.  0.
        4    1    3    3  502    0 -0.30619415393E+03  0.82254905525E+03  0.34315790077E+03  0.94239098359E+03  0.12699999809E+01 0.  1.
       -4    1    3    3    0  502  0.30619415393E+03 -0.82254905525E+03 -0.38624828308E+03  0.95892187235E+03  0.12699999809E+01 0. -1.
</event>
<event>
 5   0  0.3495279E-06  0.1899863E+04  0.7818609E-02  0.8654924E-01
        1   -1    0    0  501    0  0.00000000000E+00  0.00000000000E+00  0.15487937520E+04  0.15487937520E+04  0.50400001928E-02 0.  1.
       -1   -1    0    0    0  501  0.00000000000E+00  0.00000000000E+00 -0.58262780339E+03  0.58262780341E+03  0.50400001928E-02 0. -1.
    10030    2    1    2    0    0  0.00000000000E+00  0.00000000000E+00  0.96616594857E+03  0.21314215554E+04  0.18998634705E+04 0.  0.
        2    1    3    3  502    0 -0.90753492343E+03  0.13628718817E+03  0.20787545014E+03  0.94096016796E+03  0.25500000920E-02 0. -1.
       -2    1    3    3    0  502  0.90753492343E+03 -0.13628718817E+03  0.75829049843E+03  0.11904613874E+04  0.25500000920E-02 0.  1.
</event>
<event>
 5   0  0.6870370E-06  0.1902161E+04  0.7818609E-02  0.8653781E-01
       -2   -1    0    0    0  501  0.00000000000E+00  0.00000000000E+00  0.31269791740E+03  0.31269791741E+03  0.25500000920E-02 0. -1.
        2   -1    0    0  501    0  0.00000000000E+00  0.00000000000E+00 -0.28927415041E+04  0.28927415041E+04  0.25500000920E-02 0.  1.
    10030    2    1    2    0    0  0.00000000000E+00  0.00000000000E+00 -0.25800435867E+04  0.32054394215E+04  0.19021611330E+04 0.  0.
        1    1    3    3  502    0  0.47750570292E+03 -0.41265183452E+03 -0.24890447862E+04  0.25678078551E+04  0.50400001928E-02 0.  1.
       -1    1    3    3    0  502 -0.47750570292E+03  0.41265183452E+03 -0.90998800539E+02  0.63763156648E+03  0.50400001928E-02 0. -1.
</event>
<event>
 5   0  0.3398807E-06  0.1900531E+04  0.7818609E-02  0.8654592E-01
       -1   -1    0    0    0  501  0.00000000000E+00  0.00000000000E+00  0.14436457780E+04  0.14436457780E+04  0.50400001928E-02 0. -1.
        1   -1    0    0  501    0  0.00000000000E+00  0.00000000000E+00 -0.62550283197E+03  0.62550283199E+03  0.50400001928E-02 0.  1.
    10030    2    1    2    0    0  0.00000000000E+00  0.00000000000E+00  0.81814294600E+03  0.20691486100E+04  0.19005310021E+04 0.  0.
        1    1    3    3  502    0 -0.65266256807E+03 -0.61704884577E+03  0.71239974471E+02  0.90099547158E+03  0.50400001928E-02 0.  1.
       -1    1    3    3    0  502  0.65266256807E+03  0.61704884577E+03  0.74690297153E+03  0.11681531384E+04  0.50400001928E-02 0. -1.
</event>
<event>
 5   0  0.6870370E-06  0.1901497E+04  0.7818609E-02  0.8654112E-01
        2   -1    0    0  501    0  0.00000000000E+00  0.00000000000E+00  0.92971413909E+03  0.92971413910E+03  0.25500000920E-02 0. -1.
       -2   -1    0    0    0  501  0.00000000000E+00  0.00000000000E+00 -0.97225844084E+03  0.97225844085E+03  0.25500000920E-02 0.  1.
    10030    2    1    2    0    0  0.00000000000E+00  0.00000000000E+00 -0.42544301752E+02  0.19019725799E+04  0.19014966940E+04 0.  0.
        1    1    3    3  502    0 -0.58868492283E+03  0.19984824428E+03  0.69823614490E+03  0.93489195803E+03  0.50400001928E-02 0. -1.
       -1    1    3    3    0  502  0.58868492283E+03 -0.19984824428E+03 -0.74078044666E+03  0.96708062192E+03  0.50400001928E-02 0.  1.
</event>
<event>
 5   0  0.6984466E-06  0.1900494E+04  0.7818609E-02  0.8654610E-01
       -2   -1    0    0    0  501  0.00000000000E+00  0.00000000000E+00  0.77746222023E+03  0.77746222023E+03  0.25500000920E-02 0.  1.
        2   -1    0    0  501    0  0.00000000000E+00  0.00000000000E+00 -0.11614319493E+04  0.11614319493E+04  0.25500000920E-02 0. -1.
    10030    2    1    2    0    0  0.00000000000E+00  0.00000000000E+00 -0.38396972911E+03  0.19388941696E+04  0.19004941063E+04 0.  0.
        2    1    3    3  502    0 -0.32858742829E+03 -0.68777215590E+03  0.38690341806E+03  0.85480669825E+03  0.25500000920E-02 0.  1.
       -2    1    3    3    0  502  0.32858742829E+03  0.68777215590E+03 -0.77087314717E+03  0.10840874713E+04  0.25500000920E-02 0. -1.
</event>
<event>
 5   0  0.7207648E-06  0.1900046E+04  0.7818609E-02  0.8654834E-01
        2   -1    0    0  501    0  0.00000000000E+00  0.00000000000E+00  0.82283701395E+03  0.82283701396E+03  0.25500000920E-02 0.  1.
       -2   -1    0    0    0  501  0.00000000000E+00  0.00000000000E+00 -0.10968677027E+04  0.10968677027E+04  0.25500000920E-02 0. -1.
    10030    2    1    2    0    0  0.00000000000E+00  0.00000000000E+00 -0.27403068877E+03  0.19197047167E+04  0.19000456260E+04 0.  0.
        4    1    3    3  502    0  0.32535180057E+03  0.37651168738E+03  0.68063347179E+03  0.84313603925E+03  0.12699999809E+01 0.  1.
       -4    1    3    3    0  502 -0.32535180057E+03 -0.37651168738E+03 -0.95466416056E+03  0.10765686774E+04  0.12699999809E+01 0. -1.
</event>
<event>
 5   0  0.3379108E-06  0.1899538E+04  0.7818609E-02  0.8655086E-01
        1   -1    0    0  501    0  0.00000000000E+00  0.00000000000E+00  0.12508232011E+04  0.12508232011E+04  0.50400001928E-02 0. -1.
       -1   -1    0    0    0  501  0.00000000000E+00  0.00000000000E+00 -0.72117435895E+03  0.72117435897E+03  0.50400001928E-02 0.  1.
    10030    2    1    2    0    0  0.00000000000E+00  0.00000000000E+00  0.52964884210E+03  0.19719975600E+04  0.18995384915E+04 0.  0.
        4    1    3    3  502    0  0.88231376959E+03  0.25967363910E+03  0.51082774129E+03  0.10520715665E+04  0.12699999809E+01 0. -1.
       -4    1    3    3    0  502 -0.88231376959E+03 -0.25967363910E+03  0.18821100808E+02  0.91992599354E+03  0.12699999809E+01 0.  1.
</event>
<event>
 5   0  0.3398807E-06  0.1899609E+04  0.7818609E-02  0.8655051E-01
       -1   -1    0    0    0  501  0.00000000000E+00  0.00000000000E+00  0.73611901922E+03  0.73611901924E+03  0.50400001928E-02 0. -1.
        1   -1    0    0  501    0  0.00000000000E+00  0.00000000000E+00 -0.12255205273E+04  0.12255205273E+04  0.50400001928E-02 0.  1.
    10030    2    1    2    0    0  0.00000000000E+00  0.00000000000E+00 -0.48940150805E+03  0.19616395465E+04  0.18996094005E+04 0.  0.
        1    1    3    3  502    0  0.86420283831E+03  0.39267657429E+03 -0.27875534661E+03  0.98931591568E+03  0.50400001928E-02 0.  1.
       -1    1    3    3    0  502 -0.86420283831E+03 -0.39267657429E+03 -0.21064616144E+03  0.97232363084E+03  0.50400001928E-02 0. -1.
</event>
<event>
 5   0  0.7207648E-06  0.1899362E+04  0.7818609E-02  0.8655174E-01
        2   -1    0    0  501    0  0.00000000000E+00  0.00000000000E+00  0.10547400990E+04  0.10547400990E+04  0.25500000920E-02 0.  1.
       -2   -1    0    0    0  501  0.00000000000E+00  0.00000000000E+00 -0.85508621246E+03  0.85508621246E+03  0.25500000920E-02 0. -1.
    10030    2    1    2    0    0  0.00000000000E+00  0.00000000000E+00  0.19965388657E+03  0.19098263115E+04  0.18993616995E+04 0.  0.
        4    1    3    3  502    0 -0.31679030419E+03 -0.18791067973E+03 -0.78033891900E+03  0.86290031973E+03  0.12699999809E+01 0. -1.
       -4    1    3    3    0  502  0.31679030419E+03  0.18791067973E+03  0.97999280556E+03  0.10469259918E+04  0.12699999809E+01 0.  1.
</event>
<event>
 5   0  0.7577180E-06  0.1900161E+04  0.7818609E-02  0.8654776E-01
        2   -1    0    0  501    0  0.00000000000E+00  0.00000000000E+00  0.22710601995E+04  0.22710601995E+04  0.25500000920E-02 0.  1.
       -2   -1    0    0    0  501  0.00000000000E+00  0.00000000000E+00 -0.39745884872E+03  0.39745884873E+03  0.25500000920E-02 0. -1.
    10030    2    1    2    0    0  0.00000000000E+00  0.00000000000E+00  0.18736013508E+04  0.26685190482E+04  0.19001610166E+04 0.  0.
        5    1    3    3  502    0  0.34235074357E+03  0.34956729734E+03 -0.20689858146E+03  0.53125364940E+03  0.46999998093E+01 0. -1.
       -5    1    3    3    0  502 -0.34235074357E+03 -0.34956729734E+03  0.20804999322E+04  0.21372653988E+04  0.46999998093E+01 0.  1.
</event>
<event>
 5   0  0.3495279E-06  0.1899607E+04  0.7818609E-02  0.8655052E-01
       -1   -1    0    0    0  501  0.00000000000E+00  0.00000000000E+00  0.15040776593E+04  0.15040776593E+04  0.50400001928E-02 0.  1.
        1   -1    0    0  501    0  0.00000000000E+00  0.00000000000E+00 -0.59978762205E+03  0.59978762207E+03  0.50400001928E-02 0. -1.
    10030    2    1    2    0    0  0.00000000000E+00  0.00000000000E+00  0.90429003721E+03  0.21038652813E+04  0.18996074991E+04 0.  0.
        2    1    3    3  502    0  0.71006523583E+02 -0.49753711011E+03  0.13447466797E+04  0.14355935131E+04  0.25500000920E-02 0.  1.
       -2    1    3    3    0  502 -0.71006523583E+02  0.49753711011E+03 -0.44045664247E+03  0.66827176824E+03  0.25500000920E-02 0. -1.
</event>
<event>
 5   0  0.2527750E-06  0.1900073E+04  0.7818609E-02  0.8654820E-01
       -3   -1    0    0    0  501  0.00000000000E+00  0.00000000000E+00  0.22470955426E+04  0.22470955449E+04  0.10100000352E+00 0. -1.
        3   -1    0    0  501    0  0.00000000000E+00  0.00000000000E+00 -0.40166061650E+03  0.40166062920E+03  0.10100000352E+00 0.  1.
    10030    2    1    2    0    0  0.00000000000E+00  0.00000000000E+00  0.18454349262E+04  0.26487561741E+04  0.19000734731E+04 0.  0.
        5    1    3    3  502    0 -0.10463930484E+03 -0.40088120406E+03 -0.26906877382E+03  0.49403969368E+03  0.46999998093E+01 0.  1.
       -5    1    3    3    0  502  0.10463930484E+03  0.40088120406E+03  0.21145037000E+04  0.21547164804E+04  0.46999998093E+01 0. -1.
</event>
<event>
 5   0  0.3236653E-06  0.1900692E+04  0.7818609E-02  0.8654512E-01
       -1   -1    0    0    0  501  0.00000000000E+00  0.00000000000E+00  0.91101567405E+03  0.91101567406E+03  0.50400001928E-02 0. -1.
        1   -1    0    0  501    0  0.00000000000E+00  0.00000000000E+00 -0.99137442306E+03  0.99137442307E+03  0.50400001928E-02 0.  1.
    10030    2    1    2    0    0  0.00000000000E+00  0.00000000000E+00 -0.80358749008E+02  0.19023900971E+04  0.19006921248E+04 0.  0.
        3    1    3    3  502    0  0.35348660505E+03  0.64538581597E+03 -0.64211666225E+03  0.97662144639E+03  0.10100000352E+00 0.  1.
       -3    1    3    3    0  502 -0.35348660505E+03 -0.64538581597E+03  0.56175791324E+03  0.92576865074E+03  0.10100000352E+00 0. -1.
</event>
<event>
 5   0  0.6984466E-06  0.1899744E+04  0.7818609E-02  0.8654984E-01
        2   -1    0    0  501    0  0.00000000000E+00  0.00000000000E+00  0.12488909054E+04  0.12488909054E+04  0.25500000920E-02 0. -1.
       -2   -1    0    0    0  501  0.00000000000E+00  0.00000000000E+00 -0.72244644222E+03  0.72244644223E+03  0.25500000920E-02 0.  1.
    10030    2    1    2    0    0  0.00000000000E+00  0.00000000000E+00  0.52644446320E+03  0.19713373477E+04  0.18997439736E+04 0.  0.
        2    1    3    3  502    0  0.77720204874E+03  0.39868242187E+03 -0.12402522206E+03  0.88225447224E+03  0.25500000920E-02 0. -1.
       -2    1    3    3    0  502 -0.77720204874E+03 -0.39868242187E+03  0.65046968527E+03  0.10890828754E+04  0.25500000920E-02 0.  1.
</event>
<event>
 5   0  0.7207648E-06  0.1900280E+04  0.7818609E-02  0.8654717E-01
       -2   -1    0    0    0  501  0.00000000000E+00  0.00000000000E+00  0.53633311517E+03  0.53633311518E+03  0.25500000920E-02 0. -1.
        2   -1    0    0  501    0  0.00000000000E+00  0.00000000000E+00 -0.16832186871E+04  0.16832186871E+04  0.25500000920E-02 0.  1.
    10030    2    1    2    0    0  0.00000000000E+00  0.00000000000E+00 -0.11468855719E+04  0.22195518023E+04  0.19002798973E+04 0.  0.
        4    1    3    3  502    0  0.82007312435E+03  0.47896326332E+03 -0.60726623898E+03  0.11272531370E+04  0.12699999809E+01 0. -1.
       -4    1    3    3    0  502 -0.82007312435E+03 -0.47896326332E+03 -0.53961933296E+03  0.10922986653E+04  0.12699999809E+01 0.  1.
</event>
<event>
 5   0  0.3398807E-06  0.1898771E+04  0.7818609E-02  0.8655468E-01
       -1   -1    0    0    0  501  0.00000000000E+00  0.00000000000E+00  0.13581662927E+04  0.13581662927E+04  0.50400001928E-02 0. -1.
        1   -1    0    0  501    0  0.00000000000E+00  0.00000000000E+00 -0.66363955091E+03  0.66363955093E+03  0.50400001928E-02 0.  1.
    10030    2    1    2    0    0  0.00000000000E+00  0.00000000000E+00  0.69452674175E+03  0.20218058436E+04  0.18987710431E+04 0.  0.
        1    1    3    3  502    0  0.81058989030E+03  0.48341719866E+00  0.87353243099E+03  0.11916858277E+04  0.50400001928E-02 0. -1.
       -1    1    3    3    0  502 -0.81058989030E+03 -0.48341719866E+00 -0.17900568925E+03  0.83012001588E+03  0.50400001928E-02 0.  1.
</event>
<event>
 5   0  0.3398807E-06  0.1900682E+04  0.7818609E-02  0.8654517E-01
        1   -1    0    0  501    0  0.00000000000E+00  0.00000000000E+00  0.14401368259E+04  0.14401368259E+04  0.50400001928E-02 0. -1.
       -1   -1    0    0    0  501  0.00000000000E+00  0.00000000000E+00 -0.62712659791E+03  0.62712659793E+03  0.50400001928E-02 0.  1.
    10030    2    1    2    0    0  0.00000000000E+00  0.00000000000E+00  0.81301022798E+03  0.20672634238E+04  0.19006820967E+04 0.  0.
        1    1    3    3  502    0 -0.69889454976E+02  0.70289019756E+02  0.14344991639E+04  0.14379196547E+04  0.50400001928E-02 0. -1.
       -1    1    3    3    0  502  0.69889454976E+02 -0.70289019756E+02 -0.62148893592E+03  0.62934376910E+03  0.50400001928E-02 0.  1.
</event>
<event>
 5   0  0.6862201E-06  0.1899972E+04  0.7818609E-02  0.8654870E-01
        2   -1    0    0  501    0  0.00000000000E+00  0.00000000000E+00  0.14061747475E+04  0.14061747475E+04  0.25500000920E-02 0.  1.
       -2   -1    0    0    0  501  0.00000000000E+00  0.00000000000E+00 -0.64179311803E+03  0.64179311804E+03  0.25500000920E-02 0. -1.
    10030    2    1    2    0    0  0.00000000000E+00  0.00000000000E+00  0.76438162945E+03  0.20479678655E+04  0.18999718689E+04 0.  0.
        3    1    3    3  502    0  0.91800116545E+03 -0.22100749126E+03  0.26964087173E+03  0.98197589627E+03  0.10100000352E+00 0. -1.
       -3    1    3    3    0  502 -0.91800116545E+03  0.22100749126E+03  0.49474075772E+03  0.10659919692E+04  0.10100000352E+00 0.  1.
</event>
<event>
 5   0  0.3379108E-06  0.1900432E+04  0.7818609E-02  0.8654641E-01
       -1   -1    0    0    0  501  0.00000000000E+00  0.00000000000E+00  0.83854444791E+03  0.83854444793E+03  0.50400001928E-02 0. -1.
        1   -1    0    0  501    0  0.00000000000E+00  0.00000000000E+00 -0.10767595237E+04  0.10767595237E+04  0.50400001928E-02 0.  1.
    10030    2    1    2    0    0  0.00000000000E+00  0.00000000000E+00 -0.23821507576E+03  0.19153039716E+04  0.19004322880E+04 0.  0.
        4    1    3    3  502    0 -0.62751885304E+03  0.63942872912E+03  0.20000904202E+03  0.91796200375E+03  0.12699999809E+01 0. -1.
       -4    1    3    3    0  502  0.62751885304E+03 -0.63942872912E+03 -0.43822411778E+03  0.99734196786E+03  0.12699999809E+01 0.  1.
</event>
<event>
 5   0  0.3236653E-06  0.1898696E+04  0.7818609E-02  0.8655506E-01
       -1   -1    0    0    0  501  0.00000000000E+00  0.00000000000E+00  0.10028989031E+04  0.10028989031E+04  0.50400001928E-02 0.  1.
        1   -1    0    0  501    0  0.00000000000E+00  0.00000000000E+00 -0.89865685508E+03  0.89865685509E+03  0.50400001928E-02 0. -1.
    10030    2    1    2    0    0  0.00000000000E+00  0.00000000000E+00  0.10424204804E+03  0.19015557582E+04  0.18986963678E+04 0.  0.
        3    1    3    3  502    0 -0.29780525649E+03  0.76775530578E+03  0.52519430982E+03  0.97671144849E+03  0.10100000352E+00 0.  1.
       -3    1    3    3    0  502  0.29780525649E+03 -0.76775530578E+03 -0.42095226178E+03  0.92484430973E+03  0.10100000352E+00 0. -1.
</event>
<event>
 5   0  0.3398807E-06  0.1897970E+04  0.7818609E-02  0.8655867E-01
        1   -1    0    0  501    0  0.00000000000E+00  0.00000000000E+00  0.96175177038E+03  0.96175177039E+03  0.50400001928E-02 0. -1.
       -1   -1    0    0    0  501  0.00000000000E+00  0.00000000000E+00 -0.93638775360E+03  0.93638775362E+03  0.50400001928E-02 0.  1.
    10030    2    1    2    0    0  0.00000000000E+00  0.00000000000E+00  0.25364016776E+02  0.18981395240E+04  0.18979700523E+04 0.  0.
        1    1    3    3  502    0 -0.66690183743E+03 -0.66285995010E+02 -0.65925645989E+03  0.94009093913E+03  0.50400001928E-02 0.  1.
       -1    1    3    3    0  502  0.66690183743E+03  0.66285995010E+02  0.68462047667E+03  0.95804858488E+03  0.50400001928E-02 0. -1.
</event>
<event>
 5   0  0.3236653E-06  0.1899782E+04  0.7818609E-02  0.8654965E-01
       -1   -1    0    0    0  501  0.00000000000E+00  0.00000000000E+00  0.37209436769E+03  0.37209436772E+03  0.50400001928E-02 0.  1.
        1   -1    0    0  501    0  0.00000000000E+00  0.00000000000E+00 -0.24249025133E+04  0.24249025133E+04  0.50400001928E-02 0. -1.
    10030    2    1    2    0    0  0.00000000000E+00  0.00000000000E+00 -0.20528081456E+04  0.27969968810E+04  0.18997816374E+04 0.  0.
        3    1    3    3  502    0 -0.74758801002E+03  0.53781505745E+03 -0.68377329248E+03  0.11470304244E+04  0.10100000352E+00 0.  1.
       -3    1    3    3    0  502  0.74758801002E+03 -0.53781505745E+03 -0.13690348531E+04  0.16499664566E+04  0.10100000352E+00 0. -1.
</event>
<event>
 5   0  0.2527750E-06  0.1899655E+04  0.7818609E-02  0.8655028E-01
       -4   -1    0    0    0  501  0.00000000000E+00  0.00000000000E+00  0.14520697987E+04  0.14520703541E+04  0.12699999809E+01 0. -1.
        4   -1    0    0  501    0  0.00000000000E+00  0.00000000000E+00 -0.62129989512E+03  0.62130119313E+03  0.12699999809E+01 0.  1.
    10030    2    1    2    0    0  0.00000000000E+00  0.00000000000E+00  0.83076990356E+03  0.20733715472E+04  0.18996554793E+04 0.  0.
        2    1    3    3  502    0  0.46438909103E+03 -0.46855953744E+03 -0.33045492979E+03  0.73783855187E+03  0.25500000920E-02 0.  1.
       -2    1    3    3    0  502 -0.46438909103E+03  0.46855953744E+03  0.11612248334E+04  0.13355329953E+04  0.25500000920E-02 0. -1.
</event>
<event>
 5   0  0.3379108E-06  0.1900518E+04  0.7818609E-02  0.8654598E-01
       -1   -1    0    0    0  501  0.00000000000E+00  0.00000000000E+00  0.49434334698E+03  0.49434334701E+03  0.50400001928E-02 0.  1.
        1   -1    0    0  501    0  0.00000000000E+00  0.00000000000E+00 -0.18266507102E+04  0.18266507102E+04  0.50400001928E-02 0. -1.
    10030    2    1    2    0    0  0.00000000000E+00  0.00000000000E+00 -0.13323073632E+04  0.23209940572E+04  0.19005184828E+04 0.  0.
        4    1    3    3  502    0  0.53990480840E+03 -0.11071895223E+03  0.27921358736E+03  0.61783309136E+03  0.12699999809E+01 0.  1.
       -4    1    3    3    0  502 -0.53990480840E+03  0.11071895223E+03 -0.16115209505E+04  0.17031609658E+04  0.12699999809E+01 0. -1.
</event>
<event>
 5   0  0.3398807E-06  0.1900947E+04  0.7818609E-02  0.8654385E-01
        1   -1    0    0  501    0  0.00000000000E+00  0.00000000000E+00  0.81226518257E+03  0.81226518258E+03  0.50400001928E-02 0.  1.
       -1   -1    0    0    0  501  0.00000000000E+00  0.00000000000E+00 -0.11121986820E+04  0.11121986820E+04  0.50400001928E-02 0. -1.
    10030    2    1    2    0    0  0.00000000000E+00  0.00000000000E+00 -0.29993349940E+03  0.19244638646E+04  0.19009474117E+04 0.  0.
        1    1    3    3  502    0  0.54135096276E+03  0.99905511157E+02 -0.93437998704E+03  0.10844851019E+04  0.50400001928E-02 0. -1.
       -1    1    3    3    0  502 -0.54135096276E+03 -0.99905511157E+02  0.63444648763E+03  0.83997876267E+03  0.50400001928E-02 0.  1.
</event>
<event>
 5   0  0.3236653E-06  0.1899145E+04  0.7818609E-02  0.8655282E-01
        1   -1    0    0  501    0  0.00000000000E+00  0.00000000000E+00  0.17711259552E+04  0.17711259552E+04  0.50400001928E-02 0.  1.
       -1   -1    0    0    0  501  0.00000000000E+00  0.00000000000E+00 -0.50910425126E+03  0.50910425128E+03  0.50400001928E-02 0. -1.
    10030    2    1    2    0    0  0.00000000000E+00  0.00000000000E+00  0.12620217039E+04  0.22802302065E+04  0.18991448111E+04 0.  0.
        3    1    3    3  502    0  0.30465571749E+03 -0.73607937271E+03  0.12514866812E+04  0.14835251506E+04  0.10100000352E+00 0.  1.
       -3    1    3    3    0  502 -0.30465571749E+03  0.73607937271E+03  0.10535022733E+02  0.79670505586E+03  0.10100000352E+00 0. -1.
</event>
<event>
 5   0  0.7577180E-06  0.1897130E+04  0.7818609E-02  0.8656286E-01
        2   -1    0    0  501    0  0.00000000000E+00  0.00000000000E+00  0.75814516661E+03  0.75814516661E+03  0.25500000920E-02 0.  1.
       -2   -1    0    0    0  501  0.00000000000E+00  0.00000000000E+00 -0.11868122009E+04  0.11868122009E+04  0.25500000920E-02 0. -1.
    10030    2    1    2    0    0  0.00000000000E+00  0.00000000000E+00 -0.42866703427E+03  0.19449573675E+04  0.18971303949E+04 0.  0.
        5    1    3    3  502    0 -0.25787783497E+03 -0.91219978559E+03 -0.24901559316E+03  0.98012258531E+03  0.46999998093E+01 0. -1.
       -5    1    3    3    0  502  0.25787783497E+03  0.91219978559E+03 -0.17965144110E+03  0.96483478217E+03  0.46999998093E+01 0.  1.
</event>
<event>
 5   0  0.7207648E-06  0.1900533E+04  0.7818609E-02  0.8654591E-01
        2   -1    0    0  501    0  0.00000000000E+00  0.00000000000E+00  0.11391686228E+04  0.11391686229E+04  0.25500000920E-02 0.  1.
       -2   -1    0    0    0  501  0.00000000000E+00  0.00000000000E+00 -0.79268935452E+03  0.79268935452E+03  0.25500000920E-02 0. -1.
    10030    2    1    2    0    0  0.00000000000E+00  0.00000000000E+00  0.34647926833E+03  0.19318579774E+04  0.19005334413E+04 0.  0.
        4    1    3    3  502    0 -0.32598047284E+03  0.80059953162E+03 -0.22795840671E+03  0.89397400789E+03  0.12699999809E+01 0.  1.
       -4    1    3    3    0  502  0.32598047284E+03 -0.80059953162E+03  0.57443767504E+03  0.10378839695E+04  0.12699999809E+01 0. -1.
</event>
<event>
 5   0  0.3211263E-06  0.1900160E+04  0.7818609E-02  0.8654777E-01
        1   -1    0    0  501    0  0.00000000000E+00  0.00000000000E+00  0.11449343310E+04  0.11449343310E+04  0.50400001928E-02 0. -1.
       -1   -1    0    0    0  501  0.00000000000E+00  0.00000000000E+00 -0.78838763632E+03  0.78838763634E+03  0.50400001928E-02 0.  1.
    10030    2    1    2    0    0  0.00000000000E+00  0.00000000000E+00  0.35654669470E+03  0.19333219674E+04  0.19001600680E+04 0.  0.
        5    1    3    3  502    0 -0.86344862509E+03  0.15027482723E+03  0.55142166169E+03  0.10354776631E+04  0.46999998093E+01 0. -1.
       -5    1    3    3    0  502  0.86344862509E+03 -0.15027482723E+03 -0.19487496700E+03  0.89784430423E+03  0.46999998093E+01 0.  1.
</event>
<event>
 5   0  0.7207648E-06  0.1901029E+04  0.7818609E-02  0.8654344E-01
       -2   -1    0    0    0  501  0.00000000000E+00  0.00000000000E+00  0.64686886949E+03  0.64686886949E+03  0.25500000920E-02 0.  1.
        2   -1    0    0  501    0  0.00000000000E+00  0.00000000000E+00 -0.13966941774E+04  0.13966941774E+04  0.25500000920E-02 0. -1.
    10030    2    1    2    0    0  0.00000000000E+00  0.00000000000E+00 -0.74982530796E+03  0.20435630469E+04  0.19010291777E+04 0.  0.
        4    1    3    3  502    0 -0.50829120755E+02  0.22198181870E+02  0.64512688028E+03  0.64750804116E+03  0.12699999809E+01 0.  1.
       -4    1    3    3    0  502  0.50829120755E+02 -0.22198181870E+02 -0.13949521882E+04  0.13960550058E+04  0.12699999809E+01 0. -1.
</event>
<event>
 5   0  0.3236653E-06  0.1901547E+04  0.7818609E-02  0.8654087E-01
       -1   -1    0    0    0  501  0.00000000000E+00  0.00000000000E+00  0.55901687915E+03  0.55901687917E+03  0.50400001928E-02 0.  1.
        1   -1    0    0  501    0  0.00000000000E+00  0.00000000000E+00 -0.16170722017E+04  0.16170722017E+04  0.50400001928E-02 0. -1.
    10030    2    1    2    0    0  0.00000000000E+00  0.00000000000E+00 -0.10580553225E+04  0.21760890808E+04  0.19015474283E+04 0.  0.
        3    1    3    3  502    0  0.21856133410E+03  0.76388820794E+03 -0.11266038431E+04  0.13785972872E+04  0.10100000352E+00 0. -1.
       -3    1    3    3    0  502 -0.21856133410E+03 -0.76388820794E+03  0.68548520542E+02  0.79749179360E+03  0.10100000352E+00 0.  1.
</event>
<event>
 5   0  0.6984466E-06  0.1899892E+04  0.7818609E-02  0.8654910E-01
        2   -1    0    0  501    0  0.00000000000E+00  0.00000000000E+00  0.23336239609E+04  0.23336239609E+04  0.25500000920E-02 0.  1.
       -2   -1    0    0    0  501  0.00000000000E+00  0.00000000000E+00 -0.38669377437E+03  0.38669377438E+03  0.25500000920E-02 0. -1.
    10030    2    1    2    0    0  0.00000000000E+00  0.00000000000E+00  0.19469301865E+04  0.27203177353E+04  0.18998924784E+04 0.  0.
        2    1    3    3  502    0 -0.85714981564E+02  0.35801447538E+02 -0.38017517925E+03  0.39135913000E+03  0.25500000920E-02 0. -1.
       -2    1    3    3    0  502  0.85714981564E+02 -0.35801447538E+02  0.23271053658E+04  0.23289586053E+04  0.25500000920E-02 0.  1.
</event>
<event>
 5   0  0.6870370E-06  0.1898784E+04  0.7818609E-02  0.8655462E-01
        2   -1    0    0  501    0  0.00000000000E+00  0.00000000000E+00  0.13343319488E+04  0.13343319488E+04  0.25500000920E-02 0. -1.
       -2   -1    0    0    0  501  0.00000000000E+00  0.00000000000E+00 -0.67550281159E+03  0.67550281160E+03  0.25500000920E-02 0.  1.
    10030    2    1    2    0    0  0.00000000000E+00  0.00000000000E+00  0.65882913725E+03  0.20098347604E+04  0.18987838034E+04 0.  0.
        1    1    3    3  502    0 -0.83396868013E+02  0.59913723933E+03 -0.44510779143E+03  0.75102690708E+03  0.50400001928E-02 0.  1.
       -1    1    3    3    0  502  0.83396868013E+02 -0.59913723933E+03  0.11039369287E+04  0.12588078534E+04  0.50400001928E-02 0. -1.
</event>
<event>
 5   0  0.3379108E-06  0.1898994E+04  0.7818609E-02  0.8655357E-01
        1   -1    0    0  501    0  0.00000000000E+00  0.00000000000E+00  0.13374063772E+04  0.13374063772E+04  0.50400001928E-02 0.  1.
       -1   -1    0    0    0  501  0.00000000000E+00  0.00000000000E+00 -0.67409935391E+03  0.67409935393E+03  0.50400001928E-02 0. -1.
    10030    2    1    2    0    0  0.00000000000E+00  0.00000000000E+00  0.66330702328E+03  0.20115057311E+04  0.18989942336E+04 0.  0.
        4    1    3    3  502    0  0.73774837331E+03  0.54300445043E+03  0.67018127239E+02  0.91848763616E+03  0.12699999809E+01 0. -1.
       -4    1    3    3    0  502 -0.73774837331E+03 -0.54300445043E+03  0.59628889604E+03  0.10930180950E+04  0.12699999809E+01 0.  1.
</event>
<event>
 5   0  0.6870370E-06  0.1897659E+04  0.7818609E-02  0.8656022E-01
       -2   -1    0    0    0  501  0.00000000000E+00  0.00000000000E+00  0.44757642423E+03  0.44757642423E+03  0.25500000920E-02 0.  1.
        2   -1    0    0  501    0  0.00000000000E+00  0.00000000000E+00 -0.20114500817E+04  0.20114500817E+04  0.25500000920E-02 0. -1.
    10030    2    1    2    0    0  0.00000000000E+00  0.00000000000E+00 -0.15638736575E+04  0.24590265059E+04  0.18976592266E+04 0.  0.
        1    1    3    3  502    0 -0.23176755487E+03  0.42193519576E+03 -0.18414494259E+04  0.19033343104E+04  0.50400001928E-02 0. -1.
       -1    1    3    3    0  502  0.23176755487E+03 -0.42193519576E+03  0.27757576845E+03  0.55569219552E+03  0.50400001928E-02 0.  1.
</event>
<event>
 5   0  0.3495279E-06  0.1897146E+04  0.7818609E-02  0.8656278E-01
        1   -1    0    0  501    0  0.00000000000E+00  0.00000000000E+00  0.18133210148E+04  0.18133210148E+04  0.50400001928E-02 0. -1.
       -1   -1    0    0    0  501  0.00000000000E+00  0.00000000000E+00 -0.49621130797E+03  0.49621130800E+03  0.50400001928E-02 0.  1.
    10030    2    1    2    0    0  0.00000000000E+00  0.00000000000E+00  0.13171097068E+04  0.23095323228E+04  0.18971456376E+04 0.  0.
        2    1    3    3  502    0 -0.53105291382E+02  0.72248308916E+03 -0.86918790473E+02  0.72962789299E+03  0.25500000920E-02 0.  1.
       -2    1    3    3    0  502  0.53105291382E+02 -0.72248308916E+03  0.14040284973E+04  0.15799044298E+04  0.25500000920E-02 0. -1.
</event>
<event>
 5   0  0.7207648E-06  0.1900212E+04  0.7818609E-02  0.8654751E-01
       -2   -1    0    0    0  501  0.00000000000E+00  0.00000000000E+00  0.76680254109E+03  0.76680254109E+03  0.25500000920E-02 0.  1.
        2   -1    0    0  501    0  0.00000000000E+00  0.00000000000E+00 -0.11772279399E+04  0.11772279399E+04  0.25500000920E-02 0. -1.
    10030    2    1    2    0    0  0.00000000000E+00  0.00000000000E+00 -0.41042539884E+03  0.19440304810E+04  0.19002119627E+04 0.  0.
        4    1    3    3  502    0 -0.93699955476E+03 -0.10322882568E+03 -0.32658833027E+03  0.99764016882E+03  0.12699999809E+01 0. -1.
       -4    1    3    3    0  502  0.93699955476E+03  0.10322882568E+03 -0.83837068571E+02  0.94639031221E+03  0.12699999809E+01 0.  1.
</event>
<event>
 5   0  0.6862201E-06  0.1900722E+04  0.7818609E-02  0.8654497E-01
       -2   -1    0    0    0  501  0.00000000000E+00  0.00000000000E+00  0.12516015269E+04  0.12516015269E+04  0.25500000920E-02 0. -1.
        2   -1    0    0  501    0  0.00000000000E+00  0.00000000000E+00 -0.72162408528E+03  0.72162408528E+03  0.25500000920E-02 0.  1.
    10030    2    1    2    0    0  0.00000000000E+00  0.00000000000E+00  0.52997744167E+03  0.19732256122E+04  0.19007217650E+04 0.  0.
        3    1    3    3  502    0  0.83483155319E+03 -0.45309105969E+02 -0.20412111280E+03  0.86061726463E+03  0.10100000352E+00 0.  1.
       -3    1    3    3    0  502 -0.83483155319E+03  0.45309105969E+02  0.73409855447E+03  0.11126083476E+04  0.10100000352E+00 0. -1.
</event>
<event>
 5   0  0.3495279E-06  0.1898478E+04  0.7818609E-02  0.8655614E-01
        1   -1    0    0  501    0  0.00000000000E+00  0.00000000000E+00  0.11784989958E+04  0.11784989958E+04  0.50400001928E-02 0. -1.
       -1   -1    0    0    0  501  0.00000000000E+00  0.00000000000E+00 -0.76457828735E+03  0.76457828736E+03  0.50400001928E-02 0.  1.
    10030    2    1    2    0    0  0.00000000000E+00  0.00000000000E+00  0.41392070846E+03  0.19430772832E+04  0.18984780682E+04 0.  0.
        2    1    3    3  502    0 -0.79191586712E+03  0.49982835065E+03  0.36583462540E+03  0.10053825609E+04  0.25500000920E-02 0. -1.
       -2    1    3    3    0  502  0.79191586712E+03 -0.49982835065E+03  0.48086083056E+02  0.93769472223E+03  0.25500000920E-02 0.  1.
</event>
<event>
 5   0  0.3379108E-06  0.1900451E+04  0.7818609E-02  0.8654632E-01
       -1   -1    0    0    0  501  0.00000000000E+00  0.00000000000E+00  0.10515212979E+04  0.10515212979E+04  0.50400001928E-02 0. -1.
        1   -1    0    0  501    0  0.00000000000E+00  0.00000000000E+00 -0.85868797064E+03  0.85868797066E+03  0.50400001928E-02 0.  1.
    10030    2    1    2    0    0  0.00000000000E+00  0.00000000000E+00  0.19283332722E+03  0.19102092685E+04  0.19004511984E+04 0.  0.
        4    1    3    3  502    0 -0.21218345288E+03 -0.31111370369E+03  0.97331439199E+03  0.10436264048E+04  0.12699999809E+01 0. -1.
       -4    1    3    3    0  502  0.21218345288E+03  0.31111370369E+03 -0.78048106477E+03  0.86658286370E+03  0.12699999809E+01 0.  1.
</event>
<event>
 5   0  0.3236653E-06  0.1899752E+04  0.7818609E-02  0.8654980E-01
       -1   -1    0    0    0  501  0.00000000000E+00  0.00000000000E+00  0.63646517028E+03  0.63646517030E+03  0.50400001928E-02 0. -1.
        1   -1    0    0  501    0  0.00000000000E+00  0.00000000000E+00 -0.14176179864E+04  0.14176179864E+04  0.50400001928E-02 0.  1.
    10030    2    1    2    0    0  0.00000000000E+00  0.00000000000E+00 -0.78115281611E+03  0.20540831567E+04  0.18997520608E+04 0.  0.
        3    1    3    3  502    0 -0.55276834277E+03  0.58262403243E+03  0.15783686187E+03  0.81848401884E+03  0.10100000352E+00 0. -1.
       -3    1    3    3    0  502  0.55276834277E+03 -0.58262403243E+03 -0.93898967797E+03  0.12355991379E+04  0.10100000352E+00 0.  1.
</event>
<event>
 5   0  0.3236653E-06  0.1899800E+04  0.7818609E-02  0.8654956E-01
        1   -1    0    0  501    0  0.00000000000E+00  0.00000000000E+00  0.14987134607E+04  0.14987134607E+04  0.50400001928E-02 0. -1.
       -1   -1    0    0    0  501  0.00000000000E+00  0.00000000000E+00 -0.60205648465E+03  0.60205648468E+03  0.50400001928E-02 0.  1.
    10030    2    1    2    0    0  0.00000000000E+00  0.00000000000E+00  0.89665697608E+03  0.21007699454E+04  0.18998001555E+04 0.  0.
        3    1    3    3  502    0  0.42570425493E+03  0.29129038055E+03 -0.43369404221E+03  0.67391745111E+03  0.10100000352E+00 0.  1.
       -3    1    3    3    0  502 -0.42570425493E+03 -0.29129038055E+03  0.13303510183E+04  0.14268524943E+04  0.10100000352E+00 0. -1.
</event>
<event>
 5   0  0.6870370E-06  0.1898785E+04  0.7818609E-02  0.8655461E-01
       -2   -1    0    0    0  501  0.00000000000E+00  0.00000000000E+00  0.66519780794E+03  0.66519780795E+03  0.25500000920E-02 0. -1.
        2   -1    0    0  501    0  0.00000000000E+00  0.00000000000E+00 -0.13550052267E+04  0.13550052267E+04  0.25500000920E-02 0.  1.
    10030    2    1    2    0    0  0.00000000000E+00  0.00000000000E+00 -0.68980741874E+03  0.20202030346E+04  0.18987854081E+04 0.  0.
        1    1    3    3  502    0  0.23956504017E+03 -0.90884409020E+03 -0.48747835007E+03  0.10587842701E+04  0.50400001928E-02 0. -1.
       -1    1    3    3    0  502 -0.23956504017E+03  0.90884409020E+03 -0.20232906867E+03  0.96141876455E+03  0.50400001928E-02 0.  1.
</event>
<event>
 5   0  0.7577180E-06  0.1900856E+04  0.7818609E-02  0.8654430E-01
       -2   -1    0    0    0  501  0.00000000000E+00  0.00000000000E+00  0.19643242278E+04  0.19643242278E+04  0.25500000920E-02 0.  1.
        2   -1    0    0  501    0  0.00000000000E+00  0.00000000000E+00 -0.45985963248E+03  0.45985963249E+03  0.25500000920E-02 0. -1.
    10030    2    1    2    0    0  0.00000000000E+00  0.00000000000E+00  0.15044645953E+04  0.24241838603E+04  0.19008560361E+04 0.  0.
        5    1    3    3  502    0 -0.16875096796E+03  0.15128386923E+03 -0.42487941434E+03  0.48156858806E+03  0.46999998093E+01 0. -1.
       -5    1    3    3    0  502  0.16875096796E+03 -0.15128386923E+03  0.19293440097E+04  0.19426152722E+04  0.46999998093E+01 0.  1.
</event>
<event>
 5   0  0.6984466E-06  0.1898959E+04  0.7818609E-02  0.8655375E-01
       -2   -1    0    0    0  501  0.00000000000E+00  0.00000000000E+00  0.85702994410E+03  0.85702994411E+03  0.25500000920E-02 0.  1.
        2   -1    0    0  501    0  0.00000000000E+00  0.00000000000E+00 -0.10519013177E+04  0.10519013177E+04  0.25500000920E-02 0. -1.
    10030    2    1    2    0    0  0.00000000000E+00  0.00000000000E+00 -0.19487137361E+03  0.19089312618E+04  0.18989585857E+04 0.  0.
        2    1    3    3  502    0 -0.39144826225E+03  0.38076032772E+03  0.68336777931E+03  0.87475807569E+03  0.25500000920E-02 0.  1.
       -2    1    3    3    0  502  0.39144826225E+03 -0.38076032772E+03 -0.87823915292E+03  0.10341731861E+04  0.25500000920E-02 0. -1.
</event>
<event>
 5   0  0.3398807E-06  0.1900897E+04  0.7818609E-02  0.8654410E-01
       -1   -1    0    0    0  501  0.00000000000E+00  0.00000000000E+00  0.46524566598E+03  0.46524566600E+03  0.50400001928E-02 0. -1.
        1   -1    0    0  501    0  0.00000000000E+00  0.00000000000E+00 -0.19416672187E+04  0.19416672187E+04  0.50400001928E-02 0.  1.
    10030    2    1    2    0    0  0.00000000000E+00  0.00000000000E+00 -0.14764215527E+04  0.24069128847E+04  0.19008969023E+04 0.  0.
        1    1    3    3  502    0 -0.94019894405E+03  0.10773403272E+03 -0.84983450564E+03  0.12719274206E+04  0.50400001928E-02 0. -1.
       -1    1    3    3    0  502  0.94019894405E+03 -0.10773403272E+03 -0.62658704707E+03  0.11349854641E+04  0.50400001928E-02 0.  1.
</event>
<event>
 5   0  0.6984466E-06  0.1897433E+04  0.7818609E-02  0.8656135E-01
        2   -1    0    0  501    0  0.00000000000E+00  0.00000000000E+00  0.15258606199E+04  0.15258606199E+04  0.25500000920E-02 0.  1.
       -2   -1    0    0    0  501  0.00000000000E+00  0.00000000000E+00 -0.58987222087E+03  0.58987222087E+03  0.25500000920E-02 0. -1.
    10030    2    1    2    0    0  0.00000000000E+00  0.00000000000E+00  0.93598839902E+03  0.21157328408E+04  0.18974327842E+04 0.  0.
        2    1    3    3  502    0 -0.78724454010E+03  0.45432102618E+03  0.16487023947E+03  0.92376607246E+03  0.25500000920E-02 0. -1.
       -2    1    3    3    0  502  0.78724454010E+03 -0.45432102618E+03  0.77111815955E+03  0.11919667683E+04  0.25500000920E-02 0.  1.
</event>
<event>
 5   0  0.3398807E-06  0.1901224E+04  0.7818609E-02  0.8654248E-01
        1   -1    0    0  501    0  0.00000000000E+00  0.00000000000E+00  0.13356706543E+04  0.13356706543E+04  0.50400001928E-02 0.  1.
       -1   -1    0    0    0  501  0.00000000000E+00  0.00000000000E+00 -0.67656107923E+03  0.67656107925E+03  0.50400001928E-02 0. -1.
    10030    2    1    2    0    0  0.00000000000E+00  0.00000000000E+00  0.65910957508E+03  0.20122317336E+04  0.19012235843E+04 0.  0.
        1    1    3    3  502    0  0.20455689373E+03  0.90733739699E+03  0.12172746649E+03  0.93804171062E+03  0.50400001928E-02 0. -1.
       -1    1    3    3    0  502 -0.20455689373E+03 -0.90733739699E+03  0.53738210860E+03  0.10741900230E+04  0.50400001928E-02 0.  1.
</event>
<event>
 5   0  0.3211263E-06  0.1898331E+04  0.7818609E-02  0.8655688E-01
       -1   -1    0    0    0  501  0.00000000000E+00  0.00000000000E+00  0.79360671841E+03  0.79360671843E+03  0.50400001928E-02 0.  1.
        1   -1    0    0  501    0  0.00000000000E+00  0.00000000000E+00 -0.11352156685E+04  0.11352156685E+04  0.50400001928E-02 0. -1.
    10030    2    1    2    0    0  0.00000000000E+00  0.00000000000E+00 -0.34160895010E+03  0.19288223869E+04  0.18983306155E+04 0.  0.
        5    1    3    3  502    0 -0.43763180209E+03 -0.19743325116E+03  0.66112122593E+03  0.81707089548E+03  0.46999998093E+01 0.  1.
       -5    1    3    3    0  502  0.43763180209E+03  0.19743325116E+03 -0.10027301760E+04  0.11117514915E+04  0.46999998093E+01 0. -1.
</event>
<event>
 5   0  0.7207648E-06  0.1899073E+04  0.7818609E-02  0.8655318E-01
        2   -1    0    0  501    0  0.00000000000E+00  0.00000000000E+00  0.52081272096E+03  0.52081272097E+03  0.25500000920E-02 0.  1.
       -2   -1    0    0    0  501  0.00000000000E+00  0.00000000000E+00 -0.17311787637E+04  0.17311787637E+04  0.25500000920E-02 0. -1.
    10030    2    1    2    0    0  0.00000000000E+00  0.00000000000E+00 -0.12103660428E+04  0.22519914847E+04  0.18990733766E+04 0.  0.
        4    1    3    3  502    0  0.15743341375E+03  0.54346932486E+03 -0.15094365136E+04  0.16120001205E+04  0.12699999809E+01 0. -1.
       -4    1    3    3    0  502 -0.15743341375E+03 -0.54346932486E+03  0.29907047087E+03  0.63999136422E+03  0.12699999809E+01 0.  1.
</event>
<event>
 5   0  0.3236653E-06  0.1900346E+04  0.7818609E-02  0.8654684E-01
       -1   -1    0    0    0  501  0.00000000000E+00  0.00000000000E+00  0.65642988909E+03  0.65642988911E+03  0.50400001928E-02 0. -1.
        1   -1    0    0  501    0  0.00000000000E+00  0.00000000000E+00 -0.13753618994E+04  0.13753618994E+04  0.50400001928E-02 0.  1.
    10030    2    1    2    0    0  0.00000000000E+00  0.00000000000E+00 -0.71893201030E+03  0.20317917885E+04  0.19003459255E+04 0.  0.
        3    1    3    3  502    0 -0.88791758413E+03 -0.71912491482E+02 -0.71287398565E+03  0.11409462618E+04  0.10100000352E+00 0. -1.
       -3    1    3    3    0  502  0.88791758413E+03  0.71912491482E+02 -0.60580246565E+01  0.89084552674E+03  0.10100000352E+00 0.  1.
</event>
<event>
 5   0  0.2527750E-06  0.1899548E+04  0.7818609E-02  0.8655081E-01
       -3   -1    0    0    0  501  0.00000000000E+00  0.00000000000E+00  0.81020728864E+03  0.81020729493E+03  0.10100000352E+00 0.  1.
        3   -1    0    0  501    0  0.00000000000E+00  0.00000000000E+00 -0.11133826483E+04  0.11133826529E+04  0.10100000352E+00 0. -1.
    10030    2    1    2    0    0  0.00000000000E+00  0.00000000000E+00 -0.30317535970E+03  0.19235899478E+04  0.18995481012E+04 0.  0.
        2    1    3    3  502    0  0.82656144962E+03  0.22866912005E+03  0.26171686295E+03  0.89665439988E+03  0.25500000920E-02 0.  1.
       -2    1    3    3    0  502 -0.82656144962E+03 -0.22866912005E+03 -0.56489222265E+03  0.10269355480E+04  0.25500000920E-02 0. -1.
</event>
<event>
 5   0  0.3398807E-06  0.1896625E+04  0.7818609E-02  0.8656538E-01
       -1   -1    0    0    0  501  0.00000000000E+00  0.00000000000E+00  0.82686501763E+03  0.82686501765E+03  0.50400001928E-02 0.  1.
        1   -1    0    0  501    0  0.00000000000E+00  0.00000000000E+00 -0.10875972948E+04  0.10875972948E+04  0.50400001928E-02 0. -1.
    10030    2    1    2    0    0  0.00000000000E+00  0.00000000000E+00 -0.26073227715E+03  0.19144623124E+04  0.18966245346E+04 0.  0.
        1    1    3    3  502    0 -0.82404630201E+03 -0.38142795417E+03  0.14562181344E+03  0.91964411848E+03  0.50400001928E-02 0. -1.
       -1    1    3    3    0  502  0.82404630201E+03  0.38142795417E+03 -0.40635409059E+03  0.99481819397E+03  0.50400001928E-02 0.  1.
</event>
<event>
 5   0  0.3495279E-06  0.1900637E+04  0.7818609E-02  0.8654539E-01
        1   -1    0    0  501    0  0.00000000000E+00  0.00000000000E+00  0.70512076813E+03  0.70512076814E+03  0.50400001928E-02 0. -1.
       -1   -1    0    0    0  501  0.00000000000E+00  0.00000000000E+00 -0.12807815681E+04  0.12807815681E+04  0.50400001928E-02 0.  1.
    10030    2    1    2    0    0  0.00000000000E+00  0.00000000000E+00 -0.57566079995E+03  0.19859023362E+04  0.19006374542E+04 0.  0.
        2    1    3    3  502    0  0.49182719884E+03  0.63185011208E+03  0.24696823452E+03  0.83792712482E+03  0.25500000920E-02 0. -1.
       -2    1    3    3    0  502 -0.49182719884E+03 -0.63185011208E+03 -0.82262903446E+03  0.11479752114E+04  0.25500000920E-02 0.  1.
</event>
<event>
 5   0  0.3379108E-06  0.1900080E+04  0.7818609E-02  0.8654817E-01
       -1   -1    0    0    0  501  0.00000000000E+00  0.00000000000E+00  0.69430181172E+03  0.69430181174E+03  0.50400001928E-02 0.  1.
        1   -1    0    0  501    0  0.00000000000E+00  0.00000000000E+00 -0.12999760800E+04  0.12999760801E+04  0.50400001928E-02 0. -1.
    10030    2    1    2    0    0  0.00000000000E+00  0.00000000000E+00 -0.60567426832E+03  0.19942778918E+04  0.19000797326E+04 0.  0.
        4    1    3    3  502    0 -0.65166739466E+03  0.56692016716E+03 -0.71805719337E+03  0.11232437915E+04  0.12699999809E+01 0. -1.
       -4    1    3    3    0  502  0.65166739466E+03 -0.56692016716E+03  0.11238292505E+03  0.87103410033E+03  0.12699999809E+01 0.  1.
</event>
<event>
 5   0  0.3211263E-06  0.1900090E+04  0.7818609E-02  0.8654812E-01
        1   -1    0    0  501    0  0.00000000000E+00  0.00000000000E+00  0.14087493972E+04  0.14087493972E+04  0.50400001928E-02 0. -1.
       -1   -1    0    0    0  501  0.00000000000E+00  0.00000000000E+00 -0.64069986793E+03  0.64069986795E+03  0.50400001928E-02 0.  1.
    10030    2    1    2    0    0  0.00000000000E+00  0.00000000000E+00  0.76804952925E+03  0.20494492651E+04  0.19000900534E+04 0.  0.
        5    1    3    3  502    0  0.21412945889E+03  0.90230726898E+03  0.60652541940E+03  0.11081087524E+04  0.46999998093E+01 0. -1.
       -5    1    3    3    0  502 -0.21412945889E+03 -0.90230726898E+03  0.16152410986E+03  0.94134051272E+03  0.46999998093E+01 0.  1.
</event>
<event>
 5   0  0.6870370E-06  0.1899866E+04  0.7818609E-02  0.8654923E-01
       -2   -1    0    0    0  501  0.00000000000E+00  0.00000000000E+00  0.55378501714E+03  0.55378501714E+03  0.25500000920E-02 0. -1.
        2   -1    0    0  501    0  0.00000000000E+00  0.00000000000E+00 -0.16294637335E+04  0.16294637335E+04  0.25500000920E-02 0.  1.
    10030    2    1    2    0    0  0.00000000000E+00  0.00000000000E+00 -0.10756787164E+04  0.21832487507E+04  0.18998658917E+04 0.  0.
        1    1    3    3  502    0 -0.88741593739E+02  0.15411102488E+03 -0.16101641538E+04  0.16199549008E+04  0.50400001928E-02 0.  1.
       -1    1    3    3    0  502  0.88741593739E+02 -0.15411102488E+03  0.53448543742E+03  0.56329384986E+03  0.50400001928E-02 0. -1.
</event>
<event>
 5   0  0.3495279E-06  0.1901018E+04  0.7818609E-02  0.8654350E-01
       -1   -1    0    0    0  501  0.00000000000E+00  0.00000000000E+00  0.60815218452E+03  0.60815218454E+03  0.50400001928E-02 0.  1.
        1   -1    0    0  501    0  0.00000000000E+00  0.00000000000E+00 -0.14855935544E+04  0.14855935544E+04  0.50400001928E-02 0. -1.
    10030    2    1    2    0    0  0.00000000000E+00  0.00000000000E+00 -0.87744136987E+03  0.20937457389E+04  0.19010175859E+04 0.  0.
        2    1    3    3  502    0  0.29146183454E+03  0.39471556675E+03 -0.13353268608E+04  0.14226201900E+04  0.25500000920E-02 0. -1.
       -2    1    3    3    0  502 -0.29146183454E+03 -0.39471556675E+03  0.45788549097E+03  0.67112554897E+03  0.25500000920E-02 0.  1.
</event>
<event>
 5   0  0.6862201E-06  0.1898016E+04  0.7818609E-02  0.8655844E-01
        2   -1    0    0  501    0  0.00000000000E+00  0.00000000000E+00  0.18337471092E+04  0.18337471092E+04  0.25500000920E-02 0. -1.
       -2   -1    0    0    0  501  0.00000000000E+00  0.00000000000E+00 -0.49113449723E+03  0.49113449724E+03  0.25500000920E-02 0.  1.
    10030    2    1    2    0    0  0.00000000000E+00  0.00000000000E+00  0.13426126119E+04  0.23248816064E+04  0.18980162955E+04 0.  0.
        3    1    3    3  502    0  0.60007975136E+03  0.36347728967E+03 -0.11148579260E+03  0.71038056015E+03  0.10100000352E+00 0.  1.
       -3    1    3    3    0  502 -0.60007975136E+03 -0.36347728967E+03  0.14540984045E+04  0.16145010462E+04  0.10100000352E+00 0. -1.
</event>
<event>
 5   0  0.3379108E-06  0.1899963E+04  0.7818609E-02  0.8654875E-01
        1   -1    0    0  501    0  0.00000000000E+00  0.00000000000E+00  0.59755784157E+03  0.59755784159E+03  0.50400001928E-02 0.  1.
       -1   -1    0    0    0  501  0.00000000000E+00  0.00000000000E+00 -0.15102559306E+04  0.15102559306E+04  0.50400001928E-02 0. -1.
    10030    2    1    2    0    0  0.00000000000E+00  0.00000000000E+00 -0.91269808904E+03  0.21078137722E+04  0.18999634461E+04 0.  0.
        4    1    3    3  502    0  0.32778184784E+03  0.13342993858E+03  0.52169574795E+03  0.63040665813E+03  0.12699999809E+01 0.  1.
       -4    1    3    3    0  502 -0.32778184784E+03 -0.13342993858E+03 -0.14343938370E+04  0.14774071141E+04  0.12699999809E+01 0. -1.
</event>
<event>
 5   0  0.6870370E-06  0.1901143E+04  0.7818609E-02  0.8654288E-01
       -2   -1    0    0    0  501  0.00000000000E+00  0.00000000000E+00  0.91433218968E+03  0.91433218968E+03  0.25500000920E-02 0. -1.
        2   -1    0    0  501    0  0.00000000000E+00  0.00000000000E+00 -0.98824723028E+03  0.98824723029E+03  0.25500000920E-02 0.  1.
    10030    2    1    2    0    0  0.00000000000E+00  0.00000000000E+00 -0.73915040606E+02  0.19025794200E+04  0.19011430814E+04 0.  0.
        1    1    3    3  502    0 -0.23322055263E+03  0.91082085603E+03  0.10314752255E+03  0.94584664158E+03  0.50400001928E-02 0.  1.
       -1    1    3    3    0  502  0.23322055263E+03 -0.91082085603E+03 -0.17706256316E+03  0.95673277839E+03  0.50400001928E-02 0. -1.
</event>
<event>
 5   0  0.3236653E-06  0.1899936E+04  0.7818609E-02  0.8654888E-01
        1   -1    0    0  501    0  0.00000000000E+00  0.00000000000E+00  0.78124934395E+03  0.78124934397E+03  0.50400001928E-02 0.  1.
       -1   -1    0    0    0  501  0.00000000000E+00  0.00000000000E+00 -0.11551234720E+04  0.11551234720E+04  0.50400001928E-02 0. -1.
    10030    2    1    2    0    0  0.00000000000E+00  0.00000000000E+00 -0.37387412801E+03  0.19363728159E+04  0.18999362670E+04 0.  0.
        3    1    3    3  502    0 -0.43550707840E+03 -0.76082528046E+03  0.18602898054E+03  0.89617426571E+03  0.10100000352E+00 0.  1.
       -3    1    3    3    0  502  0.43550707840E+03  0.76082528046E+03 -0.55990310856E+03  0.10401985502E+04  0.10100000352E+00 0. -1.
</event>
<event>
 5   0  0.7207648E-06  0.1899898E+04  0.7818609E-02  0.8654907E-01
       -2   -1    0    0    0  501  0.00000000000E+00  0.00000000000E+00  0.79203551227E+03  0.79203551228E+03  0.25500000920E-02 0.  1.
        2   -1    0    0  501    0  0.00000000000E+00  0.00000000000E+00 -0.11393464297E+04  0.11393464297E+04  0.25500000920E-02 0. -1.
    10030    2    1    2    0    0  0.00000000000E+00  0.00000000000E+00 -0.34731091738E+03  0.19313819419E+04  0.18998977163E+04 0.  0.
        4    1    3    3  502    0  0.17002526184E+03  0.30559964304E+03 -0.10715255376E+04  0.11271505321E+04  0.12699999809E+01 0. -1.
       -4    1    3    3    0  502 -0.17002526184E+03 -0.30559964304E+03  0.72421462021E+03  0.80423140980E+03  0.12699999809E+01 0.  1.
</event>
<event>
 5   0  0.2527750E-06  0.1899803E+04  0.7818609E-02  0.8654954E-01
        3   -1    0    0  501    0  0.00000000000E+00  0.00000000000E+00  0.13185533844E+04  0.13185533882E+04  0.10100000352E+00 0.  1.
       -3   -1    0    0    0  501  0.00000000000E+00  0.00000000000E+00 -0.68432027869E+03  0.68432028614E+03  0.10100000352E+00 0. -1.
    10030    2    1    2    0    0  0.00000000000E+00  0.00000000000E+00  0.63423310567E+03  0.20028736744E+04  0.18998029696E+04 0.  0.
        5    1    3    3  502    0  0.27744498553E+03 -0.61847839756E+03  0.10186502770E+04  0.12235856019E+04  0.46999998093E+01 0.  1.
       -5    1    3    3    0  502 -0.27744498553E+03  0.61847839756E+03 -0.38441717138E+03  0.77928807247E+03  0.46999998093E+01 0. -1.
</event>
<event>
 5   0  0.7207648E-06  0.1899273E+04  0.7818609E-02  0.8655218E-01
        2   -1    0    0  501    0  0.00000000000E+00  0.00000000000E+00  0.21165772423E+04  0.21165772423E+04  0.25500000920E-02 0. -1.
       -2   -1    0    0    0  501  0.00000000000E+00  0.00000000000E+00 -0.42606972670E+03  0.42606972671E+03  0.25500000920E-02 0.  1.
    10030    2    1    2    0    0  0.00000000000E+00  0.00000000000E+00  0.16905075156E+04  0.25426469690E+04  0.18992730053E+04 0.  0.
        4    1    3    3  502    0  0.68896261326E+03 -0.23286955014E+03  0.16627782644E+04  0.18148638735E+04  0.12699999809E+01 0. -1.
       -4    1    3    3    0  502 -0.68896261326E+03  0.23286955014E+03  0.27729251198E+02  0.72778309552E+03  0.12699999809E+01 0.  1.
</event>
<event>
 5   0  0.7577180E-06  0.1900593E+04  0.7818609E-02  0.8654561E-01
        2   -1    0    0  501    0  0.00000000000E+00  0.00000000000E+00  0.20626605426E+04  0.20626605426E+04  0.25500000920E-02 0.  1.
       -2   -1    0    0    0  501  0.00000000000E+00  0.00000000000E+00 -0.43781482504E+03  0.43781482505E+03  0.25500000920E-02 0. -1.
    10030    2    1    2    0    0  0.00000000000E+00  0.00000000000E+00  0.16248457176E+04  0.25004753677E+04  0.19005929228E+04 0.  0.
        5    1    3    3  502    0 -0.74790191157E+01  0.88314347925E+03  0.12739123458E+04  0.15501203487E+04  0.46999998093E+01 0.  1.
       -5    1    3    3    0  502  0.74790191157E+01 -0.88314347925E+03  0.35093337181E+03  0.95035501899E+03  0.46999998093E+01 0. -1.
</event>
<event>
 5   0  0.6984466E-06  0.1900348E+04  0.7818609E-02  0.8654683E-01
       -2   -1    0    0    0  501  0.00000000000E+00  0.00000000000E+00  0.52829417918E+03  0.52829417919E+03  0.25500000920E-02 0.  1.
        2   -1    0    0  501    0  0.00000000000E+00  0.00000000000E+00 -0.17089537550E+04  0.17089537550E+04  0.25500000920E-02 0. -1.
    10030    2    1    2    0    0  0.00000000000E+00  0.00000000000E+00 -0.11806595758E+04  0.22372479342E+04  0.19003476748E+04 0.  0.
        2    1    3    3  502    0  0.79983505472E+03 -0.19648572049E+02 -0.11937471706E+04  0.14370645388E+04  0.25500000920E-02 0. -1.
       -2    1    3    3    0  502 -0.79983505472E+03  0.19648572049E+02  0.13087594850E+02  0.80018339541E+03  0.25500000920E-02 0.  1.
</event>
<event>
 5   0  0.6862201E-06  0.1899645E+04  0.7818609E-02  0.8655033E-01
        2   -1    0    0  501    0  0.00000000000E+00  0.00000000000E+00  0.86526019803E+03  0.86526019803E+03  0.25500000920E-02 0. -1.
       -2   -1    0    0    0  501  0.00000000000E+00  0.00000000000E+00 -0.10426489209E+04  0.10426489209E+04  0.25500000920E-02 0.  1.
    10030    2    1    2    0    0  0.00000000000E+00  0.00000000000E+00 -0.17738872287E+03  0.19079091189E+04  0.18996448213E+04 0.  0.
        3    1    3    3  502    0  0.37274360779E+03 -0.74693639593E+03  0.36638925392E+03  0.91164295221E+03  0.10100000352E+00 0. -1.
       -3    1    3    3    0  502 -0.37274360779E+03  0.74693639593E+03 -0.54377797680E+03  0.99626616673E+03  0.10100000352E+00 0.  1.
</event>
<event>
 5   0  0.6862201E-06  0.1898262E+04  0.7818609E-02  0.8655722E-01
       -2   -1    0    0    0  501  0.00000000000E+00  0.00000000000E+00  0.69336882401E+03  0.69336882402E+03  0.25500000920E-02 0.  1.
        2   -1    0    0  501    0  0.00000000000E+00  0.00000000000E+00 -0.12992352665E+04  0.12992352665E+04  0.25500000920E-02 0. -1.
    10030    2    1    2    0    0  0.00000000000E+00  0.00000000000E+00 -0.60586644247E+03  0.19926040905E+04  0.18982615508E+04 0.  0.
        3    1    3    3  502    0  0.40158480507E+03 -0.12503924792E+03 -0.11960689594E+04  0.12678667654E+04  0.10100000352E+00 0. -1.
       -3    1    3    3    0  502 -0.40158480507E+03  0.12503924792E+03  0.59020251689E+03  0.72473732505E+03  0.10100000352E+00 0.  1.
</event>
<event>
 5   0  0.6984466E-06  0.1902679E+04  0.7818609E-02  0.8653524E-01
       -2   -1    0    0    0  501  0.00000000000E+00  0.00000000000E+00  0.82623034657E+03  0.82623034658E+03  0.25500000920E-02 0.  1.
        2   -1    0    0  501    0  0.00000000000E+00  0.00000000000E+00 -0.10953923547E+04  0.10953923547E+04  0.25500000920E-02 0. -1.
    10030    2    1    2    0    0  0.00000000000E+00  0.00000000000E+00 -0.26916200813E+03  0.19216227013E+04  0.19026785381E+04 0.  0.
        2    1    3    3  502    0 -0.82394949388E+03  0.56839730387E+02 -0.61142906969E+03  0.10276035377E+04  0.25500000920E-02 0. -1.
       -2    1    3    3    0  502  0.82394949388E+03 -0.56839730387E+02  0.34226706156E+03  0.89401916358E+03  0.25500000920E-02 0.  1.
</event>
<event>
 5   0  0.2527750E-06  0.1899155E+04  0.7818609E-02  0.8655277E-01
       -3   -1    0    0    0  501  0.00000000000E+00  0.00000000000E+00  0.83496209704E+03  0.83496210315E+03  0.10100000352E+00 0.  1.
        3   -1    0    0  501    0  0.00000000000E+00  0.00000000000E+00 -0.10799259361E+04  0.10799259408E+04  0.10100000352E+00 0. -1.
    10030    2    1    2    0    0  0.00000000000E+00  0.00000000000E+00 -0.24496383908E+03  0.19148880440E+04  0.18991547958E+04 0.  0.
        1    1    3    3  502    0  0.40974696263E+03  0.79438279617E+03 -0.44570056904E+03  0.99879206921E+03  0.50400001928E-02 0. -1.
       -1    1    3    3    0  502 -0.40974696263E+03 -0.79438279617E+03  0.20073672996E+03  0.91609597479E+03  0.50400001928E-02 0.  1.
</event>
<event>
 5   0  0.2527750E-06  0.1900514E+04  0.7818609E-02  0.8654601E-01
       -4   -1    0    0    0  501  0.00000000000E+00  0.00000000000E+00  0.10330089868E+04  0.10330097675E+04  0.12699999809E+01 0. -1.
        4   -1    0    0  501    0  0.00000000000E+00  0.00000000000E+00 -0.87413218680E+03  0.87413310937E+03  0.12699999809E+01 0.  1.
    10030    2    1    2    0    0  0.00000000000E+00  0.00000000000E+00  0.15887680003E+03  0.19071428769E+04  0.19005136451E+04 0.  0.
        1    1    3    3  502    0 -0.36096631324E+03 -0.32083350099E+03  0.90067999583E+03  0.10219859439E+04  0.50400001928E-02 0. -1.
       -1    1    3    3    0  502  0.36096631324E+03  0.32083350099E+03 -0.74180319580E+03  0.88515693297E+03  0.50400001928E-02 0.  1.
</event>
<event>
 5   0  0.6862201E-06  0.1899336E+04  0.7818609E-02  0.8655187E-01
        2   -1    0    0  501    0  0.00000000000E+00  0.00000000000E+00  0.14723381692E+04  0.14723381692E+04  0.25500000920E-02 0. -1.
       -2   -1    0    0    0  501  0.00000000000E+00  0.00000000000E+00 -0.61254225613E+03  0.61254225613E+03  0.25500000920E-02 0.  1.
    10030    2    1    2    0    0  0.00000000000E+00  0.00000000000E+00  0.85979591307E+03  0.20848804253E+04  0.18993360355E+04 0.  0.
        3    1    3    3  502    0 -0.32994680555E+03 -0.30789291802E+03 -0.48731726509E+03  0.66418451542E+03  0.10100000352E+00 0.  1.
       -3    1    3    3    0  502  0.32994680555E+03  0.30789291802E+03  0.13471131782E+04  0.14206959099E+04  0.10100000352E+00 0. -1.
</event>
<event>
 5   0  0.3398807E-06  0.1899772E+04  0.7818609E-02  0.8654970E-01
        1   -1    0    0  501    0  0.00000000000E+00  0.00000000000E+00  0.93452328098E+03  0.93452328099E+03  0.50400001928E-02 0. -1.
       -1   -1    0    0    0  501  0.00000000000E+00  0.00000000000E+00 -0.96550149193E+03  0.96550149195E+03  0.50400001928E-02 0.  1.
    10030    2    1    2    0    0  0.00000000000E+00  0.00000000000E+00 -0.30978210955E+02  0.19000247729E+04  0.18997722201E+04 0.  0.
        1    1    3    3  502    0  0.62602192794E+03  0.60694324205E+03  0.36138995437E+03  0.94386770921E+03  0.50400001928E-02 0. -1.
       -1    1    3    3    0  502 -0.62602192794E+03 -0.60694324205E+03 -0.39236816533E+03  0.95615706373E+03  0.50400001928E-02 0.  1.
</event>
<event>
 5   0  0.6870370E-06  0.1899959E+04  0.7818609E-02  0.8654877E-01
        2   -1    0    0  501    0  0.00000000000E+00  0.00000000000E+00  0.12128471333E+04  0.12128471334E+04  0.25500000920E-02 0. -1.
       -2   -1    0    0    0  501  0.00000000000E+00  0.00000000000E+00 -0.74408446819E+03  0.74408446819E+03  0.25500000920E-02 0.  1.
    10030    2    1    2    0    0  0.00000000000E+00  0.00000000000E+00  0.46876266516E+03  0.19569316015E+04  0.18999586461E+04 0.  0.
        1    1    3    3  502    0 -0.80736565808E+03  0.13007537889E+02 -0.28107743885E+03  0.85499299912E+03  0.50400001928E-02 0.  1.
       -1    1    3    3    0  502  0.80736565808E+03 -0.13007537889E+02  0.74984010401E+03  0.11019386024E+04  0.50400001928E-02 0. -1.
</event>
<event>
 5   0  0.6984466E-06  0.1899580E+04  0.7818609E-02  0.8655065E-01
       -2   -1    0    0    0  501  0.00000000000E+00  0.00000000000E+00  0.48134842927E+03  0.48134842927E+03  0.25500000920E-02 0.  1.
        2   -1    0    0  501    0  0.00000000000E+00  0.00000000000E+00 -0.18741131215E+04  0.18741131215E+04  0.25500000920E-02 0. -1.
    10030    2    1    2    0    0  0.00000000000E+00  0.00000000000E+00 -0.13927646922E+04  0.23554615508E+04  0.18995803824E+04 0.  0.
        2    1    3    3  502    0  0.88908712377E+03  0.19789083394E+03 -0.10301787299E+04  0.13751017822E+04  0.25500000920E-02 0. -1.
       -2    1    3    3    0  502 -0.88908712377E+03 -0.19789083394E+03 -0.36258596234E+03  0.98035976860E+03  0.25500000920E-02 0.  1.
</event>
<event>
 5   0  0.3495279E-06  0.1900416E+04  0.7818609E-02  0.8654649E-01
       -1   -1    0    0    0  501  0.00000000000E+00  0.00000000000E+00  0.10350910325E+04  0.10350910325E+04  0.50400001928E-02 0.  1.
        1   -1    0    0  501    0  0.00000000000E+00  0.00000000000E+00 -0.87228600434E+03  0.87228600435E+03  0.50400001928E-02 0. -1.
    10030    2    1    2    0    0  0.00000000000E+00  0.00000000000E+00  0.16280502816E+03  0.19073770369E+04  0.19004161869E+04 0.  0.
        2    1    3    3  502    0 -0.76194492663E+03  0.23428874398E+03 -0.43764171571E+03  0.90938526385E+03  0.25500000920E-02 0. -1.
       -2    1    3    3    0  502  0.76194492663E+03 -0.23428874398E+03  0.60044674387E+03  0.99799177301E+03  0.25500000920E-02 0.  1.
</event>
<event>
 5   0  0.7577180E-06  0.1899729E+04  0.7818609E-02  0.8654991E-01
        2   -1    0    0  501    0  0.00000000000E+00  0.00000000000E+00  0.23152636511E+04  0.23152636511E+04  0.25500000920E-02 0.  1.
       -2   -1    0    0    0  501  0.00000000000E+00  0.00000000000E+00 -0.38969337630E+03  0.38969337631E+03  0.25500000920E-02 0. -1.
    10030    2    1    2    0    0  0.00000000000E+00  0.00000000000E+00  0.19255702748E+04  0.27049570274E+04  0.18997293589E+04 0.  0.
        5    1    3    3  502    0  0.77776676166E+03 -0.24321904323E+03  0.16576312343E+04  0.18471166821E+04  0.46999998093E+01 0.  1.
       -5    1    3    3    0  502 -0.77776676166E+03  0.24321904323E+03  0.26793904050E+03  0.85784034526E+03  0.46999998093E+01 0. -1.
</event>
<event>
 5   0  0.3236653E-06  0.1899660E+04  0.7818609E-02  0.8655026E-01
        1   -1    0    0  501    0  0.00000000000E+00  0.00000000000E+00  0.13958273280E+04  0.13958273280E+04  0.50400001928E-02 0.  1.
       -1   -1    0    0    0  501  0.00000000000E+00  0.00000000000E+00 -0.64633855660E+03  0.64633855662E+03  0.50400001928E-02 0. -1.
    10030    2    1    2    0    0  0.00000000000E+00  0.00000000000E+00  0.74948877137E+03  0.20421658846E+04  0.18996599911E+04 0.  0.
        3    1    3    3  502    0 -0.57313128952E+03 -0.35502899086E+03 -0.34451474113E+03  0.75710995003E+03  0.10100000352E+00 0. -1.
       -3    1    3    3    0  502  0.57313128952E+03  0.35502899086E+03  0.10940035125E+04  0.12850559346E+04  0.10100000352E+00 0.  1.
</event>
<event>
 5   0  0.3236653E-06  0.1899360E+04  0.7818609E-02  0.8655175E-01
       -1   -1    0    0    0  501  0.00000000000E+00  0.00000000000E+00  0.95105352936E+03  0.95105352938E+03  0.50400001928E-02 0. -1.
        1   -1    0    0  501    0  0.00000000000E+00  0.00000000000E+00 -0.94830837309E+03  0.94830837310E+03  0.50400001928E-02 0.  1.
    10030    2    1    2    0    0  0.00000000000E+00  0.00000000000E+00  0.27451562734E+01  0.18993619025E+04  0.18993599187E+04 0.  0.
        3    1    3    3  502    0  0.29144849092E+03  0.11855450847E+03 -0.89467222979E+03  0.94838589366E+03  0.10100000352E+00 0.  1.
       -3    1    3    3    0  502 -0.29144849092E+03 -0.11855450847E+03  0.89741738607E+03  0.95097600882E+03  0.10100000352E+00 0. -1.
</event>
<event>
 5   0  0.3379108E-06  0.1900311E+04  0.7818609E-02  0.8654702E-01
        1   -1    0    0  501    0  0.00000000000E+00  0.00000000000E+00  0.12246649371E+04  0.12246649371E+04  0.50400001928E-02 0.  1.
       -1   -1    0    0    0  501  0.00000000000E+00  0.00000000000E+00 -0.73717737715E+03  0.73717737717E+03  0.50400001928E-02 0. -1.
    10030    2    1    2    0    0  0.00000000000E+00  0.00000000000E+00  0.48748755991E+03  0.19618423142E+04  0.19003108022E+04 0.  0.
        4    1    3    3  502    0  0.82253692425E+03 -0.62557176211E+02 -0.24302438217E+03  0.85996677569E+03  0.12699999809E+01 0. -1.
       -4    1    3    3    0  502 -0.82253692425E+03  0.62557176211E+02  0.73051194209E+03  0.11018755386E+04  0.12699999809E+01 0.  1.
</event>
<event>
 5   0  0.7207648E-06  0.1899618E+04  0.7818609E-02  0.8655047E-01
        2   -1    0    0  501    0  0.00000000000E+00  0.00000000000E+00  0.98911177336E+03  0.98911177336E+03  0.25500000920E-02 0. -1.
       -2   -1    0    0    0  501  0.00000000000E+00  0.00000000000E+00 -0.91206747803E+03  0.91206747803E+03  0.25500000920E-02 0.  1.
    10030    2    1    2    0    0  0.00000000000E+00  0.00000000000E+00  0.77044295331E+02  0.19011792514E+04  0.18996175201E+04 0.  0.
        4    1    3    3  502    0 -0.86527744975E+03 -0.37791014690E+03  0.14163074453E+03  0.95476804769E+03  0.12699999809E+01 0. -1.
       -4    1    3    3    0  502  0.86527744975E+03  0.37791014690E+03 -0.64586449199E+02  0.94641120371E+03  0.12699999809E+01 0.  1.
</event>
<event>
 5   0  0.6984466E-06  0.1900016E+04  0.7818609E-02  0.8654848E-01
       -2   -1    0    0    0  501  0.00000000000E+00  0.00000000000E+00  0.41214976871E+03  0.41214976872E+03  0.25500000920E-02 0. -1.
        2   -1    0    0  501    0  0.00000000000E+00  0.00000000000E+00 -0.21897746826E+04  0.21897746826E+04  0.25500000920E-02 0.  1.
    10030    2    1    2    0    0  0.00000000000E+00  0.00000000000E+00 -0.17776249138E+04  0.26019244513E+04  0.19000159251E+04 0.  0.
        2    1    3    3  502    0 -0.62132821232E+03  0.57477656466E+03 -0.14795691130E+04  0.17045649318E+04  0.25500000920E-02 0.  1.
       -2    1    3    3    0  502  0.62132821232E+03 -0.57477656466E+03 -0.29805580087E+03  0.89735951945E+03  0.25500000920E-02 0. -1.
</event>
<event>
 5   0  0.7207648E-06  0.1899936E+04  0.7818609E-02  0.8654888E-01
       -2   -1    0    0    0  501  0.00000000000E+00  0.00000000000E+00  0.13125252219E+04  0.13125252219E+04  0.25500000920E-02 0.  1.
        2   -1    0    0  501    0  0.00000000000E+00  0.00000000000E+00 -0.68755973701E+03  0.68755973701E+03  0.25500000920E-02 0. -1.
    10030    2    1    2    0    0  0.00000000000E+00  0.00000000000E+00  0.62496548493E+03  0.20000849590E+04  0.18999363110E+04 0.  0.
        4    1    3    3  502    0  0.59730274086E+01 -0.91561566669E+03  0.57890438504E+03  0.10832911086E+04  0.12699999809E+01 0.  1.
       -4    1    3    3    0  502 -0.59730274086E+01  0.91561566669E+03  0.46061099890E+02  0.91679385031E+03  0.12699999809E+01 0. -1.
</event>
<event>
 5   0  0.6870370E-06  0.1900230E+04  0.7818609E-02  0.8654742E-01
        2   -1    0    0  501    0  0.00000000000E+00  0.00000000000E+00  0.76119122681E+03  0.76119122682E+03  0.25500000920E-02 0.  1.
       -2   -1    0    0    0  501  0.00000000000E+00  0.00000000000E+00 -0.11859292163E+04  0.11859292163E+04  0.25500000920E-02 0. -1.
    10030    2    1    2    0    0  0.00000000000E+00  0.00000000000E+00 -0.42473798948E+03  0.19471204431E+04  0.19002304229E+04 0.  0.
        1    1    3    3  502    0  0.35475804501E+03  0.52045885577E+03 -0.94125020433E+03  0.11325557992E+04  0.50400001928E-02 0. -1.
       -1    1    3    3    0  502 -0.35475804501E+03 -0.52045885577E+03  0.51651221485E+03  0.81456464394E+03  0.50400001928E-02 0.  1.
</event>
<event>
 5   0  0.6862201E-06  0.1899772E+04  0.7818609E-02  0.8654970E-01
        2   -1    0    0  501    0  0.00000000000E+00  0.00000000000E+00  0.68695821510E+03  0.68695821511E+03  0.25500000920E-02 0.  1.
       -2   -1    0    0    0  501  0.00000000000E+00  0.00000000000E+00 -0.13134479619E+04  0.13134479619E+04  0.25500000920E-02 0. -1.
    10030    2    1    2    0    0  0.00000000000E+00  0.00000000000E+00 -0.62648974675E+03  0.20004061770E+04  0.18997724785E+04 0.  0.
        3    1    3    3  502    0  0.46710275489E+02 -0.73021201139E+03  0.32455726090E+03  0.80045540615E+03  0.10100000352E+00 0.  1.
       -3    1    3    3    0  502 -0.46710275489E+02  0.73021201139E+03 -0.95104700765E+03  0.11999507708E+04  0.10100000352E+00 0. -1.
</event>
<event>
 5   0  0.3398807E-06  0.1908155E+04  0.7818609E-02  0.8650808E-01
       -1   -1    0    0    0  501  0.00000000000E+00  0.00000000000E+00  0.91375408957E+03  0.91375408958E+03  0.50400001928E-02 0.  1.
        1   -1    0    0  501    0  0.00000000000E+00  0.00000000000E+00 -0.99618060305E+03  0.99618060306E+03  0.50400001928E-02 0. -1.
    10030    2    1    2    0    0  0.00000000000E+00  0.00000000000E+00 -0.82426513481E+02  0.19099346926E+04  0.19081552348E+04 0.  0.
        1    1    3    3  502    0 -0.48514921042E+03 -0.45582204637E+03  0.64288632833E+03  0.92544385325E+03  0.50400001928E-02 0.  1.
       -1    1    3    3    0  502  0.48514921042E+03  0.45582204637E+03 -0.72531284181E+03  0.98449083940E+03  0.50400001928E-02 0. -1.
</event>
<event>
 5   0  0.6984466E-06  0.1901851E+04  0.7818609E-02  0.8653935E-01
       -2   -1    0    0    0  501  0.00000000000E+00  0.00000000000E+00  0.33128863565E+03  0.33128863566E+03  0.25500000920E-02 0.  1.
        2   -1    0    0  501    0  0.00000000000E+00  0.00000000000E+00 -0.27295220511E+04  0.27295220511E+04  0.25500000920E-02 0. -1.
    10030    2    1    2    0    0  0.00000000000E+00  0.00000000000E+00 -0.23982334154E+04  0.30608106867E+04  0.19018513468E+04 0.  0.
        2    1    3    3  502    0 -0.52442501422E+03 -0.46599395595E+03 -0.22322460890E+04  0.23398919985E+04  0.25500000920E-02 0. -1.
       -2    1    3    3    0  502  0.52442501422E+03  0.46599395595E+03 -0.16598732637E+03  0.72091868824E+03  0.25500000920E-02 0.  1.
</event>
<event>
 5   0  0.3379108E-06  0.1900226E+04  0.7818609E-02  0.8654744E-01
       -1   -1    0    0    0  501  0.00000000000E+00  0.00000000000E+00  0.59554315173E+03  0.59554315176E+03  0.50400001928E-02 0.  1.
        1   -1    0    0  501    0  0.00000000000E+00  0.00000000000E+00 -0.15157832106E+04  0.15157832106E+04  0.50400001928E-02 0. -1.
    10030    2    1    2    0    0  0.00000000000E+00  0.00000000000E+00 -0.92024005888E+03  0.21113263624E+04  0.19002255767E+04 0.  0.
        4    1    3    3  502    0 -0.73955726808E+03 -0.59195640752E+03 -0.37880994607E+03  0.10202234703E+04  0.12699999809E+01 0.  1.
       -4    1    3    3    0  502  0.73955726808E+03  0.59195640752E+03 -0.54143011281E+03  0.10911028921E+04  0.12699999809E+01 0. -1.
</event>
<event>
 5   0  0.7207648E-06  0.1900368E+04  0.7818609E-02  0.8654673E-01
       -2   -1    0    0    0  501  0.00000000000E+00  0.00000000000E+00  0.61494418201E+03  0.61494418201E+03  0.25500000920E-02 0.  1.
        2   -1    0    0  501    0  0.00000000000E+00  0.00000000000E+00 -0.14681813845E+04  0.14681813845E+04  0.25500000920E-02 0. -1.
    10030    2    1    2    0    0  0.00000000000E+00  0.00000000000E+00 -0.85323720250E+03  0.20831255665E+04  0.19003679649E+04 0.  0.
        4    1    3    3  502    0  0.24619337835E+03 -0.75147243997E+03 -0.10040887922E+04  0.12780915159E+04  0.12699999809E+01 0. -1.
       -4    1    3    3    0  502 -0.24619337835E+03  0.75147243997E+03  0.15085158971E+03  0.80503405058E+03  0.12699999809E+01 0.  1.
</event>
<event>
 5   0  0.7207648E-06  0.1900347E+04  0.7818609E-02  0.8654684E-01
       -2   -1    0    0    0  501  0.00000000000E+00  0.00000000000E+00  0.37670322796E+03  0.37670322797E+03  0.25500000920E-02 0.  1.
        2   -1    0    0  501    0  0.00000000000E+00  0.00000000000E+00 -0.23966602732E+04  0.23966602732E+04  0.25500000920E-02 0. -1.
    10030    2    1    2    0    0  0.00000000000E+00  0.00000000000E+00 -0.20199570452E+04  0.27733635012E+04  0.19003469802E+04 0.  0.
        4    1    3    3  502    0  0.76583203204E+03 -0.48738877782E+03 -0.60035387014E+03  0.10883349229E+04  0.12699999809E+01 0.  1.
       -4    1    3    3    0  502 -0.76583203204E+03  0.48738877782E+03 -0.14196031751E+04  0.16850285783E+04  0.12699999809E+01 0. -1.
</event>
<event>
 5   0  0.3398807E-06  0.1900262E+04  0.7818609E-02  0.8654726E-01
       -1   -1    0    0    0  501  0.00000000000E+00  0.00000000000E+00  0.52254332915E+03  0.52254332917E+03  0.50400001928E-02 0. -1.
        1   -1    0    0  501    0  0.00000000000E+00  0.00000000000E+00 -0.17276065293E+04  0.17276065293E+04  0.50400001928E-02 0.  1.
    10030    2    1    2    0    0  0.00000000000E+00  0.00000000000E+00 -0.12050632001E+04  0.22501498585E+04  0.19002623685E+04 0.  0.
        1    1    3    3  502    0 -0.23302986665E+00  0.94392199467E+03 -0.47411817897E+03  0.10563033816E+04  0.50400001928E-02 0.  1.
       -1    1    3    3    0  502  0.23302986665E+00 -0.94392199467E+03 -0.73094502116E+03  0.11938464769E+04  0.50400001928E-02 0. -1.
</event>
<event>
 5   0  0.3236653E-06  0.1898883E+04  0.7818609E-02  0.8655413E-01
       -1   -1    0    0    0  501  0.00000000000E+00  0.00000000000E+00  0.59375071609E+03  0.59375071612E+03  0.50400001928E-02 0.  1.
        1   -1    0    0  501    0  0.00000000000E+00  0.00000000000E+00 -0.15182115485E+04  0.15182115485E+04  0.50400001928E-02 0. -1.
    10030    2    1    2    0    0  0.00000000000E+00  0.00000000000E+00 -0.92446083245E+03  0.21119622647E+04  0.18988830340E+04 0.  0.
        3    1    3    3  502    0 -0.63750230925E+03  0.25398056482E+03 -0.11920013368E+04  0.13754208515E+04  0.10100000352E+00 0. -1.
       -3    1    3    3    0  502  0.63750230925E+03 -0.25398056482E+03  0.26754050437E+03  0.73654141315E+03  0.10100000352E+00 0.  1.
</event>
<event>
 5   0  0.6862201E-06  0.1899868E+04  0.7818609E-02  0.8654922E-01
       -2   -1    0    0    0  501  0.00000000000E+00  0.00000000000E+00  0.82744423544E+03  0.82744423545E+03  0.25500000920E-02 0. -1.
        2   -1    0    0  501    0  0.00000000000E+00  0.00000000000E+00 -0.10905568959E+04  0.10905568959E+04  0.25500000920E-02 0.  1.
    10030    2    1    2    0    0  0.00000000000E+00  0.00000000000E+00 -0.26311266048E+03  0.19180011314E+04  0.18998684343E+04 0.  0.
        3    1    3    3  502    0  0.55845481814E+01 -0.31977712718E+03  0.77145620344E+03  0.83512471061E+03  0.10100000352E+00 0. -1.
       -3    1    3    3    0  502 -0.55845481814E+01  0.31977712718E+03 -0.10345688639E+04  0.10828764208E+04  0.10100000352E+00 0.  1.
</event>
<event>
 5   0  0.3211263E-06  0.1900287E+04  0.7818609E-02  0.8654713E-01
       -1   -1    0    0    0  501  0.00000000000E+00  0.00000000000E+00  0.98645277005E+03  0.98645277006E+03  0.50400001928E-02 0. -1.
        1   -1    0    0  501    0  0.00000000000E+00  0.00000000000E+00 -0.91517092506E+03  0.91517092507E+03  0.50400001928E-02 0.  1.
    10030    2    1    2    0    0  0.00000000000E+00  0.00000000000E+00  0.71281844994E+02  0.19016236951E+04  0.19002872353E+04 0.  0.
        5    1    3    3  502    0 -0.40074038955E+03 -0.29325961413E+03 -0.77496379576E+03  0.92042655103E+03  0.46999998093E+01 0.  1.
       -5    1    3    3    0  502  0.40074038955E+03  0.29325961413E+03  0.84624564076E+03  0.98119714410E+03  0.46999998093E+01 0. -1.
</event>
<event>
 5   0  0.3379108E-06  0.1900549E+04  0.7818609E-02  0.8654583E-01
        1   -1    0    0  501    0  0.00000000000E+00  0.00000000000E+00  0.61230367464E+03  0.61230367466E+03  0.50400001928E-02 0.  1.
       -1   -1    0    0    0  501  0.00000000000E+00  0.00000000000E+00 -0.14747939181E+04  0.14747939181E+04  0.50400001928E-02 0. -1.
    10030    2    1    2    0    0  0.00000000000E+00  0.00000000000E+00 -0.86249024343E+03  0.20870975927E+04  0.19005491158E+04 0.  0.
        4    1    3    3  502    0  0.18480970289E+03  0.23470886875E+03 -0.14218864222E+04  0.14529299673E+04  0.12699999809E+01 0. -1.
       -4    1    3    3    0  502 -0.18480970289E+03 -0.23470886875E+03  0.55939617880E+03  0.63416762541E+03  0.12699999809E+01 0.  1.
</event>
<event>
 5   0  0.7207648E-06  0.1891771E+04  0.7818609E-02  0.8658963E-01
        2   -1    0    0  501    0  0.00000000000E+00  0.00000000000E+00  0.99297902984E+03  0.99297902984E+03  0.25500000920E-02 0.  1.
       -2   -1    0    0    0  501  0.00000000000E+00  0.00000000000E+00 -0.90102551725E+03  0.90102551725E+03  0.25500000920E-02 0. -1.
    10030    2    1    2    0    0  0.00000000000E+00  0.00000000000E+00  0.91953512595E+02  0.18940045471E+04  0.18917710686E+04 0.  0.
        4    1    3    3  502    0 -0.91836535368E+03  0.72815822338E+02  0.26070786256E+03  0.95742742248E+03  0.12699999809E+01 0. -1.
       -4    1    3    3    0  502  0.91836535368E+03 -0.72815822338E+02 -0.16875434996E+03  0.93657712461E+03  0.12699999809E+01 0.  1.
</event>
<event>
 5   0  0.6870370E-06  0.1900624E+04  0.7818609E-02  0.8654546E-01
        2   -1    0    0  501    0  0.00000000000E+00  0.00000000000E+00  0.66362017408E+03  0.66362017408E+03  0.25500000920E-02 0. -1.
       -2   -1    0    0    0  501  0.00000000000E+00  0.00000000000E+00 -0.13608576597E+04  0.13608576597E+04  0.25500000920E-02 0.  1.
    10030    2    1    2    0    0  0.00000000000E+00  0.00000000000E+00 -0.69723748561E+03  0.20244778338E+04  0.19006236840E+04 0.  0.
        1    1    3    3  502    0 -0.53219671699E+03 -0.72307194309E+03 -0.68040732573E+03  0.11265081045E+04  0.50400001928E-02 0.  1.
       -1    1    3    3    0  502  0.53219671699E+03  0.72307194309E+03 -0.16830159884E+02  0.89796972932E+03  0.50400001928E-02 0. -1.
</event>
<event>
 5   0  0.3495279E-06  0.1897430E+04  0.7818609E-02  0.8656137E-01
        1   -1    0    0  501    0  0.00000000000E+00  0.00000000000E+00  0.12030425370E+04  0.12030425371E+04  0.50400001928E-02 0. -1.
       -1   -1    0    0    0  501  0.00000000000E+00  0.00000000000E+00 -0.74815349384E+03  0.74815349385E+03  0.50400001928E-02 0.  1.
    10030    2    1    2    0    0  0.00000000000E+00  0.00000000000E+00  0.45488904321E+03  0.19511960309E+04  0.18974303438E+04 0.  0.
        2    1    3    3  502    0  0.73486780517E+03  0.44286976523E+03  0.64375701869E+03  0.10726543801E+04  0.25500000920E-02 0. -1.
       -2    1    3    3    0  502 -0.73486780517E+03 -0.44286976523E+03 -0.18886797548E+03  0.87854165081E+03  0.25500000920E-02 0.  1.
</event>
<event>
 5   0  0.6984466E-06  0.1900433E+04  0.7818609E-02  0.8654641E-01
        2   -1    0    0  501    0  0.00000000000E+00  0.00000000000E+00  0.65608011493E+03  0.65608011493E+03  0.25500000920E-02 0.  1.
       -2   -1    0    0    0  501  0.00000000000E+00  0.00000000000E+00 -0.13762210484E+04  0.13762210484E+04  0.25500000920E-02 0. -1.
    10030    2    1    2    0    0  0.00000000000E+00  0.00000000000E+00 -0.72014093351E+03  0.20323011634E+04  0.19004328598E+04 0.  0.
        2    1    3    3  502    0 -0.30641004202E+03  0.60135300621E+03 -0.10753616951E+04  0.12696122744E+04  0.25500000920E-02 0. -1.
       -2    1    3    3    0  502  0.30641004202E+03 -0.60135300621E+03  0.35522076160E+03  0.76268888900E+03  0.25500000920E-02 0.  1.
</event>
<event>
 5   0  0.6870370E-06  0.1899952E+04  0.7818609E-02  0.8654880E-01
       -2   -1    0    0    0  501  0.00000000000E+00  0.00000000000E+00  0.99561544929E+03  0.99561544929E+03  0.25500000920E-02 0. -1.
        2   -1    0    0  501    0  0.00000000000E+00  0.00000000000E+00 -0.90642909633E+03  0.90642909633E+03  0.25500000920E-02 0.  1.
    10030    2    1    2    0    0  0.00000000000E+00  0.00000000000E+00  0.89186352960E+02  0.19020445456E+04  0.18999524331E+04 0.  0.
        1    1    3    3  502    0  0.92713589455E+03  0.37164927473E+02  0.24851483247E+03  0.96058410396E+03  0.50400001928E-02 0.  1.
       -1    1    3    3    0  502 -0.92713589455E+03 -0.37164927473E+02 -0.15932847951E+03  0.94146044166E+03  0.50400001928E-02 0. -1.
</event>
<event>
 5   0  0.6862201E-06  0.1896049E+04  0.7818609E-02  0.8656826E-01
        2   -1    0    0  501    0  0.00000000000E+00  0.00000000000E+00  0.19564492263E+04  0.19564492263E+04  0.25500000920E-02 0.  1.
       -2   -1    0    0    0  501  0.00000000000E+00  0.00000000000E+00 -0.45937829614E+03  0.45937829615E+03  0.25500000920E-02 0. -1.
    10030    2    1    2    0    0  0.00000000000E+00  0.00000000000E+00  0.14970709302E+04  0.24158275225E+04  0.18960488518E+04 0.  0.
        3    1    3    3  502    0  0.22327479188E+03  0.46956799633E+03  0.17585696385E+04  0.18338246698E+04  0.10100000352E+00 0.  1.
       -3    1    3    3    0  502 -0.22327479188E+03 -0.46956799633E+03 -0.26149870832E+03  0.58200285267E+03  0.10100000352E+00 0. -1.
</event>
<event>
 5   0  0.6984466E-06  0.1901233E+04  0.7818609E-02  0.8654243E-01
       -2   -1    0    0    0  501  0.00000000000E+00  0.00000000000E+00  0.15805006929E+04  0.15805006929E+04  0.25500000920E-02 0. -1.
        2   -1    0    0  501    0  0.00000000000E+00  0.00000000000E+00 -0.57176300942E+03  0.57176300942E+03  0.25500000920E-02 0.  1.
    10030    2    1    2    0    0  0.00000000000E+00  0.00000000000E+00  0.10087376835E+04  0.21522637023E+04  0.19012331078E+04 0.  0.
        2    1    3    3  502    0  0.65748132862E+03  0.16727811776E+03 -0.24944126624E+03  0.72283097019E+03  0.25500000920E-02 0.  1.
       -2    1    3    3    0  502 -0.65748132862E+03 -0.16727811776E+03  0.12581789497E+04  0.14294327321E+04  0.25500000920E-02 0. -1.
</event>
<event>
 5   0  0.3211263E-06  0.1900498E+04  0.7818609E-02  0.8654608E-01
        1   -1    0    0  501    0  0.00000000000E+00  0.00000000000E+00  0.18349944537E+04  0.18349944537E+04  0.50400001928E-02 0.  1.
       -1   -1    0    0    0  501  0.00000000000E+00  0.00000000000E+00 -0.49208518507E+03  0.49208518509E+03  0.50400001928E-02 0. -1.
    10030    2    1    2    0    0  0.00000000000E+00  0.00000000000E+00  0.13429092686E+04  0.23270796388E+04  0.19004984455E+04 0.  0.
        5    1    3    3  502    0  0.27175674685E+03  0.53998298799E+03 -0.22626410230E+03  0.64548500429E+03  0.46999998093E+01 0. -1.
       -5    1    3    3    0  502 -0.27175674685E+03 -0.53998298799E+03  0.15691733709E+04  0.16815946345E+04  0.46999998093E+01 0.  1.
</event>
<event>
 5   0  0.7207648E-06  0.1900473E+04  0.7818609E-02  0.8654621E-01
        2   -1    0    0  501    0  0.00000000000E+00  0.00000000000E+00  0.28013304816E+04  0.28013304816E+04  0.25500000920E-02 0. -1.
       -2   -1    0    0    0  501  0.00000000000E+00  0.00000000000E+00 -0.32232875082E+03  0.32232875083E+03  0.25500000920E-02 0.  1.
    10030    2    1    2    0    0  0.00000000000E+00  0.00000000000E+00  0.24790017307E+04  0.31236592324E+04  0.19004729462E+04 0.  0.
        4    1    3    3  502    0 -0.15117328769E+03 -0.10515863743E+03  0.27717198944E+04  0.27778308962E+04  0.12699999809E+01 0. -1.
       -4    1    3    3    0  502  0.15117328769E+03  0.10515863743E+03 -0.29271816361E+03  0.34582833624E+03  0.12699999809E+01 0.  1.
</event>
<event>
 5   0  0.3236653E-06  0.1899868E+04  0.7818609E-02  0.8654922E-01
        1   -1    0    0  501    0  0.00000000000E+00  0.00000000000E+00  0.11643950583E+04  0.11643950583E+04  0.50400001928E-02 0.  1.
       -1   -1    0    0    0  501  0.00000000000E+00  0.00000000000E+00 -0.77497305813E+03  0.77497305815E+03  0.50400001928E-02 0. -1.
    10030    2    1    2    0    0  0.00000000000E+00  0.00000000000E+00  0.38942200020E+03  0.19393681165E+04  0.18998682052E+04 0.  0.
        3    1    3    3  502    0  0.61580907906E+03 -0.44588211241E+03  0.77606292446E+03  0.10864185901E+04  0.10100000352E+00 0.  1.
       -3    1    3    3    0  502 -0.61580907906E+03  0.44588211241E+03 -0.38664092426E+03  0.85294952637E+03  0.10100000352E+00 0. -1.
</event>
<event>
 5   0  0.3236653E-06  0.1900136E+04  0.7818609E-02  0.8654789E-01
        1   -1    0    0  501    0  0.00000000000E+00  0.00000000000E+00  0.20680729544E+04  0.20680729544E+04  0.50400001928E-02 0.  1.
       -1   -1    0    0    0  501  0.00000000000E+00  0.00000000000E+00 -0.43645887106E+03  0.43645887109E+03  0.50400001928E-02 0. -1.
    10030    2    1    2    0    0  0.00000000000E+00  0.00000000000E+00  0.16316140833E+04  0.25045318255E+04  0.19001355604E+04 0.  0.
        3    1    3    3  502    0 -0.39112608297E+03 -0.71847449221E+03  0.14526508419E+04  0.16671471703E+04  0.10100000352E+00 0. -1.
       -3    1    3    3    0  502  0.39112608297E+03  0.71847449221E+03  0.17896324140E+03  0.83738465517E+03  0.10100000352E+00 0.  1.
</event>
<event>
 5   0  0.6862201E-06  0.1900010E+04  0.7818609E-02  0.8654851E-01
        2   -1    0    0  501    0  0.00000000000E+00  0.00000000000E+00  0.90976255139E+03  0.90976255139E+03  0.25500000920E-02 0. -1.
       -2   -1    0    0    0  501  0.00000000000E+00  0.00000000000E+00 -0.99202770190E+03  0.99202770191E+03  0.25500000920E-02 0.  1.
    10030    2    1    2    0    0  0.00000000000E+00  0.00000000000E+00 -0.82265150513E+02  0.19017902533E+04  0.19000101612E+04 0.  0.
        3    1    3    3  502    0 -0.78962241020E+03 -0.13357981816E+03  0.47038684029E+03  0.92876849011E+03  0.10100000352E+00 0. -1.
       -3    1    3    3    0  502  0.78962241020E+03  0.13357981816E+03 -0.55265199080E+03  0.97302176319E+03  0.10100000352E+00 0.  1.
</event>
<event>
 5   0  0.2527750E-06  0.1900593E+04  0.7818609E-02  0.8654561E-01
       -3   -1    0    0    0  501  0.00000000000E+00  0.00000000000E+00  0.69521999661E+03  0.69522000394E+03  0.10100000352E+00 0. -1.
        3   -1    0    0  501    0  0.00000000000E+00  0.00000000000E+00 -0.12989602158E+04  0.12989602197E+04  0.10100000352E+00 0.  1.
    10030    2    1    2    0    0  0.00000000000E+00  0.00000000000E+00 -0.60374021920E+03  0.19941802237E+04  0.19005926739E+04 0.  0.
        2    1    3    3  502    0  0.53567011707E+03 -0.46832348347E+03  0.35906340668E+03  0.79699177506E+03  0.25500000920E-02 0. -1.
       -2    1    3    3    0  502 -0.53567011707E+03  0.46832348347E+03 -0.96280362588E+03  0.11971884486E+04  0.25500000920E-02 0.  1.
</event>
<event>
 5   0  0.3236653E-06  0.1899880E+04  0.7818609E-02  0.8654916E-01
       -1   -1    0    0    0  501  0.00000000000E+00  0.00000000000E+00  0.68613486486E+03  0.68613486488E+03  0.50400001928E-02 0.  1.
        1   -1    0    0  501    0  0.00000000000E+00  0.00000000000E+00 -0.13151733095E+04  0.13151733096E+04  0.50400001928E-02 0. -1.
    10030    2    1    2    0    0  0.00000000000E+00  0.00000000000E+00 -0.62903844468E+03  0.20013081744E+04  0.18998802710E+04 0.  0.
        3    1    3    3  502    0 -0.58513424532E+03 -0.44730267572E+03  0.31744636563E+03  0.80201868682E+03  0.10100000352E+00 0.  1.
       -3    1    3    3    0  502  0.58513424532E+03  0.44730267572E+03 -0.94648481031E+03  0.11992894876E+04  0.10100000352E+00 0. -1.
</event>
<event>
 5   0  0.3379108E-06  0.1899332E+04  0.7818609E-02  0.8655189E-01
        1   -1    0    0  501    0  0.00000000000E+00  0.00000000000E+00  0.11955476904E+04  0.11955476904E+04  0.50400001928E-02 0. -1.
       -1   -1    0    0    0  501  0.00000000000E+00  0.00000000000E+00 -0.75435340712E+03  0.75435340713E+03  0.50400001928E-02 0.  1.
    10030    2    1    2    0    0  0.00000000000E+00  0.00000000000E+00  0.44119428324E+03  0.19499010975E+04  0.18993319600E+04 0.  0.
        4    1    3    3  502    0 -0.29496911717E+03 -0.32880980919E+03 -0.64246468729E+03  0.77966990324E+03  0.12699999809E+01 0.  1.
       -4    1    3    3    0  502  0.29496911717E+03  0.32880980919E+03  0.10836589705E+04  0.11702311943E+04  0.12699999809E+01 0. -1.
</event>
<event>
 5   0  0.3211263E-06  0.1903611E+04  0.7818609E-02  0.8653061E-01
        1   -1    0    0  501    0  0.00000000000E+00  0.00000000000E+00  0.14865597372E+04  0.14865597372E+04  0.50400001928E-02 0.  1.
       -1   -1    0    0    0  501  0.00000000000E+00  0.00000000000E+00 -0.60941612377E+03  0.60941612379E+03  0.50400001928E-02 0. -1.
    10030    2    1    2    0    0  0.00000000000E+00  0.00000000000E+00  0.87714361344E+03  0.20959758610E+04  0.19036107510E+04 0.  0.
        5    1    3    3  502    0  0.59568111809E+03  0.62988806582E+03  0.60438460734E+01  0.86697957761E+03  0.46999998093E+01 0. -1.
       -5    1    3    3    0  502 -0.59568111809E+03 -0.62988806582E+03  0.87109976737E+03  0.12289962834E+04  0.46999998093E+01 0.  1.
</event>
<event>
 5   0  0.3379108E-06  0.1898907E+04  0.7818609E-02  0.8655401E-01
        1   -1    0    0  501    0  0.00000000000E+00  0.00000000000E+00  0.87917151251E+03  0.87917151252E+03  0.50400001928E-02 0. -1.
       -1   -1    0    0    0  501  0.00000000000E+00  0.00000000000E+00 -0.10253535700E+04  0.10253535700E+04  0.50400001928E-02 0.  1.
    10030    2    1    2    0    0  0.00000000000E+00  0.00000000000E+00 -0.14618205750E+03  0.19045250825E+04  0.18989066844E+04 0.  0.
        4    1    3    3  502    0 -0.73645518600E+03  0.54545519732E+03 -0.32196311880E+03  0.97136474923E+03  0.12699999809E+01 0.  1.
       -4    1    3    3    0  502  0.73645518600E+03 -0.54545519732E+03  0.17578106130E+03  0.93316033332E+03  0.12699999809E+01 0. -1.
</event>
<event>
 5   0  0.6862201E-06  0.1899910E+04  0.7818609E-02  0.8654901E-01
       -2   -1    0    0    0  501  0.00000000000E+00  0.00000000000E+00  0.18303082879E+04  0.18303082879E+04  0.25500000920E-02 0.  1.
        2   -1    0    0  501    0  0.00000000000E+00  0.00000000000E+00 -0.49303955801E+03  0.49303955801E+03  0.25500000920E-02 0. -1.
    10030    2    1    2    0    0  0.00000000000E+00  0.00000000000E+00  0.13372687299E+04  0.23233478459E+04  0.18999098813E+04 0.  0.
        3    1    3    3  502    0 -0.15042686365E+03  0.41179028320E+03 -0.36193238062E+03  0.56850201142E+03  0.10100000352E+00 0. -1.
       -3    1    3    3    0  502  0.15042686365E+03 -0.41179028320E+03  0.16992011105E+04  0.17548458345E+04  0.10100000352E+00 0.  1.
</event>
<event>
 5   0  0.3398807E-06  0.1899937E+04  0.7818609E-02  0.8654888E-01
       -1   -1    0    0    0  501  0.00000000000E+00  0.00000000000E+00  0.11551869190E+04  0.11551869191E+04  0.50400001928E-02 0.  1.
        1   -1    0    0  501    0  0.00000000000E+00  0.00000000000E+00 -0.78120734299E+03  0.78120734301E+03  0.50400001928E-02 0. -1.
    10030    2    1    2    0    0  0.00000000000E+00  0.00000000000E+00  0.37397957605E+03  0.19363942621E+04  0.18999373713E+04 0.  0.
        1    1    3    3  502    0  0.23682749105E+03  0.12280461421E+03  0.11162260485E+04  0.11476623306E+04  0.50400001928E-02 0.  1.
       -1    1    3    3    0  502 -0.23682749105E+03 -0.12280461421E+03 -0.74224647244E+03  0.78873193143E+03  0.50400001928E-02 0. -1.
</event>
<event>
 5   0  0.6862201E-06  0.1899747E+04  0.7818609E-02  0.8654982E-01
        2   -1    0    0  501    0  0.00000000000E+00  0.00000000000E+00  0.10861679003E+04  0.10861679003E+04  0.25500000920E-02 0.  1.
       -2   -1    0    0    0  501  0.00000000000E+00  0.00000000000E+00 -0.83068146692E+03  0.83068146692E+03  0.25500000920E-02 0. -1.
    10030    2    1    2    0    0  0.00000000000E+00  0.00000000000E+00  0.25548643336E+03  0.19168493672E+04  0.18997468723E+04 0.  0.
        3    1    3    3  502    0 -0.12887528692E+03 -0.83973291705E+02  0.10735178133E+04  0.10844818389E+04  0.10100000352E+00 0.  1.
       -3    1    3    3    0  502  0.12887528692E+03  0.83973291705E+02 -0.81803137996E+03  0.83236752825E+03  0.10100000352E+00 0. -1.
</event>
<event>
 5   0  0.7207648E-06  0.1901589E+04  0.7818609E-02  0.8654066E-01
        2   -1    0    0  501    0  0.00000000000E+00  0.00000000000E+00  0.11560581131E+04  0.11560581131E+04  0.25500000920E-02 0. -1.
       -2   -1    0    0    0  501  0.00000000000E+00  0.00000000000E+00 -0.78197619234E+03  0.78197619234E+03  0.25500000920E-02 0.  1.
    10030    2    1    2    0    0  0.00000000000E+00  0.00000000000E+00  0.37408192077E+03  0.19380343054E+04  0.19015887267E+04 0.  0.
        4    1    3    3  502    0 -0.33877591495E+03  0.10443018575E+02  0.10923965336E+04  0.11437700716E+04  0.12699999809E+01 0. -1.
       -4    1    3    3    0  502  0.33877591495E+03 -0.10443018575E+02 -0.71831461285E+03  0.79426423382E+03  0.12699999809E+01 0.  1.
</event>
<event>
 5   0  0.3379108E-06  0.1898894E+04  0.7818609E-02  0.8655407E-01
        1   -1    0    0  501    0  0.00000000000E+00  0.00000000000E+00  0.13171549052E+04  0.13171549052E+04  0.50400001928E-02 0. -1.
       -1   -1    0    0    0  501  0.00000000000E+00  0.00000000000E+00 -0.68439178848E+03  0.68439178850E+03  0.50400001928E-02 0.  1.
    10030    2    1    2    0    0  0.00000000000E+00  0.00000000000E+00  0.63276311668E+03  0.20015466937E+04  0.18988944165E+04 0.  0.
        4    1    3    3  502    0 -0.87415904679E+03 -0.15706658616E+03  0.67011915817E+03  0.11126029169E+04  0.12699999809E+01 0. -1.
       -4    1    3    3    0  502  0.87415904679E+03  0.15706658616E+03 -0.37356041487E+02  0.88894377680E+03  0.12699999809E+01 0.  1.
</event>
<event>
 5   0  0.3398807E-06  0.1899052E+04  0.7818609E-02  0.8655328E-01
        1   -1    0    0  501    0  0.00000000000E+00  0.00000000000E+00  0.12155023297E+04  0.12155023298E+04  0.50400001928E-02 0. -1.
       -1   -1    0    0    0  501  0.00000000000E+00  0.00000000000E+00 -0.74175071065E+03  0.74175071067E+03  0.50400001928E-02 0.  1.
    10030    2    1    2    0    0  0.00000000000E+00  0.00000000000E+00  0.47375161909E+03  0.19572530404E+04  0.18990520971E+04 0.  0.
        1    1    3    3  502    0  0.76327107504E+03 -0.23878773685E+03 -0.29066806880E+03  0.85093492319E+03  0.50400001928E-02 0.  1.
       -1    1    3    3    0  502 -0.76327107504E+03  0.23878773685E+03  0.76441968789E+03  0.11063181172E+04  0.50400001928E-02 0. -1.
</event>
<event>
 5   0  0.6984466E-06  0.1897669E+04  0.7818609E-02  0.8656018E-01
       -2   -1    0    0    0  501  0.00000000000E+00  0.00000000000E+00  0.96531205267E+03  0.96531205267E+03  0.25500000920E-02 0.  1.
        2   -1    0    0  501    0  0.00000000000E+00  0.00000000000E+00 -0.93263815751E+03  0.93263815751E+03  0.25500000920E-02 0. -1.
    10030    2    1    2    0    0  0.00000000000E+00  0.00000000000E+00  0.32673895161E+02  0.18979502102E+04  0.18976689429E+04 0.  0.
        2    1    3    3  502    0 -0.51772540318E+03  0.64206794646E+03  0.48544379306E+03  0.95705094807E+03  0.25500000920E-02 0.  1.
       -2    1    3    3    0  502  0.51772540318E+03 -0.64206794646E+03 -0.45276989790E+03  0.94089926211E+03  0.25500000920E-02 0. -1.
</event>
<event>
 5   0  0.6862201E-06  0.1899881E+04  0.7818609E-02  0.8654916E-01
       -2   -1    0    0    0  501  0.00000000000E+00  0.00000000000E+00  0.63026616843E+03  0.63026616844E+03  0.25500000920E-02 0. -1.
        2   -1    0    0  501    0  0.00000000000E+00  0.00000000000E+00 -0.14317551833E+04  0.14317551833E+04  0.25500000920E-02 0.  1.
    10030    2    1    2    0    0  0.00000000000E+00  0.00000000000E+00 -0.80148901483E+03  0.20620213517E+04  0.18998808947E+04 0.  0.
        3    1    3    3  502    0  0.80471298631E+03  0.50071574787E+03 -0.47030465165E+03  0.10580480736E+04  0.10100000352E+00 0.  1.
       -3    1    3    3    0  502 -0.80471298631E+03 -0.50071574787E+03 -0.33118436318E+03  0.10039732781E+04  0.10100000352E+00 0. -1.
</event>
<event>
 5   0  0.3379108E-06  0.1898315E+04  0.7818609E-02  0.8655696E-01
        1   -1    0    0  501    0  0.00000000000E+00  0.00000000000E+00  0.90222079687E+03  0.90222079689E+03  0.50400001928E-02 0.  1.
       -1   -1    0    0    0  501  0.00000000000E+00  0.00000000000E+00 -0.99853565751E+03  0.99853565752E+03  0.50400001928E-02 0. -1.
    10030    2    1    2    0    0  0.00000000000E+00  0.00000000000E+00 -0.96314860632E+02  0.19007564544E+04  0.18983146595E+04 0.  0.
        4    1    3    3  502    0 -0.26124997103E+03 -0.17444747090E+03 -0.94497382993E+03  0.99582158021E+03  0.12699999809E+01 0. -1.
       -4    1    3    3    0  502  0.26124997103E+03  0.17444747090E+03  0.84865896930E+03  0.90493487419E+03  0.12699999809E+01 0.  1.
</event>
<event>
 5   0  0.3495279E-06  0.1899975E+04  0.7818609E-02  0.8654869E-01
        1   -1    0    0  501    0  0.00000000000E+00  0.00000000000E+00  0.18402276794E+04  0.18402276794E+04  0.50400001928E-02 0.  1.
       -1   -1    0    0    0  501  0.00000000000E+00  0.00000000000E+00 -0.49041561017E+03  0.49041561020E+03  0.50400001928E-02 0. -1.
    10030    2    1    2    0    0  0.00000000000E+00  0.00000000000E+00  0.13498120692E+04  0.23306432896E+04  0.18999751370E+04 0.  0.
        2    1    3    3  502    0 -0.40325216756E+03 -0.85859174844E+03  0.61135220458E+03  0.11285138985E+04  0.25500000920E-02 0. -1.
       -2    1    3    3    0  502  0.40325216756E+03  0.85859174844E+03  0.73845986460E+03  0.12021293910E+04  0.25500000920E-02 0.  1.
</event>
<event>
 5   0  0.3398807E-06  0.1900274E+04  0.7818609E-02  0.8654720E-01
       -1   -1    0    0    0  501  0.00000000000E+00  0.00000000000E+00  0.42749961635E+03  0.42749961638E+03  0.50400001928E-02 0. -1.
        1   -1    0    0  501    0  0.00000000000E+00  0.00000000000E+00 -0.21117215625E+04  0.21117215625E+04  0.50400001928E-02 0.  1.
    10030    2    1    2    0    0  0.00000000000E+00  0.00000000000E+00 -0.16842219461E+04  0.25392211789E+04  0.19002738306E+04 0.  0.
        1    1    3    3  502    0 -0.38231286696E+03 -0.83522693583E+03 -0.51755876533E+03  0.10543406651E+04  0.50400001928E-02 0.  1.
       -1    1    3    3    0  502  0.38231286696E+03  0.83522693583E+03 -0.11666631808E+04  0.14848805137E+04  0.50400001928E-02 0. -1.
</event>
<event>
 5   0  0.6984466E-06  0.1901619E+04  0.7818609E-02  0.8654051E-01
        2   -1    0    0  501    0  0.00000000000E+00  0.00000000000E+00  0.12858588112E+04  0.12858588112E+04  0.25500000920E-02 0.  1.
       -2   -1    0    0    0  501  0.00000000000E+00  0.00000000000E+00 -0.70306241303E+03  0.70306241303E+03  0.25500000920E-02 0. -1.
    10030    2    1    2    0    0  0.00000000000E+00  0.00000000000E+00  0.58279639821E+03  0.19889212243E+04  0.19016193085E+04 0.  0.
        2    1    3    3  502    0  0.95078241003E+03 -0.48796562301E+01  0.28586412558E+03  0.99283901040E+03  0.25500000920E-02 0. -1.
       -2    1    3    3    0  502 -0.95078241003E+03  0.48796562301E+01  0.29693227264E+03  0.99608221388E+03  0.25500000920E-02 0.  1.
</event>
<event>
 5   0  0.3211263E-06  0.1902072E+04  0.7818609E-02  0.8653826E-01
        1   -1    0    0  501    0  0.00000000000E+00  0.00000000000E+00  0.73592965324E+03  0.73592965326E+03  0.50400001928E-02 0. -1.
       -1   -1    0    0    0  501  0.00000000000E+00  0.00000000000E+00 -0.12290159043E+04  0.12290159043E+04  0.50400001928E-02 0.  1.
    10030    2    1    2    0    0  0.00000000000E+00  0.00000000000E+00 -0.49308625109E+03  0.19649455576E+04  0.19020717634E+04 0.  0.
        5    1    3    3  502    0 -0.89911001094E+03 -0.62969580832E+02  0.66939715644E+02  0.90380694587E+03  0.46999998093E+01 0. -1.
       -5    1    3    3    0  502  0.89911001094E+03  0.62969580832E+02 -0.56002596673E+03  0.10611386117E+04  0.46999998093E+01 0.  1.
</event>
<event>
 5   0  0.3236653E-06  0.1896522E+04  0.7818609E-02  0.8656590E-01
        1   -1    0    0  501    0  0.00000000000E+00  0.00000000000E+00  0.83575186339E+03  0.83575186341E+03  0.50400001928E-02 0.  1.
       -1   -1    0    0    0  501  0.00000000000E+00  0.00000000000E+00 -0.10759160809E+04  0.10759160810E+04  0.50400001928E-02 0. -1.
    10030    2    1    2    0    0  0.00000000000E+00  0.00000000000E+00 -0.24016421755E+03  0.19116679444E+04  0.18965219424E+04 0.  0.
        3    1    3    3  502    0  0.17727221542E+03 -0.83452953039E+03  0.29714855223E+03  0.90341698442E+03  0.10100000352E+00 0.  1.
       -3    1    3    3    0  502 -0.17727221542E+03  0.83452953039E+03 -0.53731276978E+03  0.10082509599E+04  0.10100000352E+00 0. -1.
</event>
<event>
 5   0  0.6862201E-06  0.1900479E+04  0.7818609E-02  0.8654618E-01
       -2   -1    0    0    0  501  0.00000000000E+00  0.00000000000E+00  0.78786355081E+03  0.78786355082E+03  0.25500000920E-02 0. -1.
        2   -1    0    0  501    0  0.00000000000E+00  0.00000000000E+00 -0.11460811419E+04  0.11460811419E+04  0.25500000920E-02 0.  1.
    10030    2    1    2    0    0  0.00000000000E+00  0.00000000000E+00 -0.35821759111E+03  0.19339446927E+04  0.19004794742E+04 0.  0.
        3    1    3    3  502    0 -0.12730845234E+03  0.25261649925E+03 -0.11022393125E+04  0.11379604782E+04  0.10100000352E+00 0.  1.
       -3    1    3    3    0  502  0.12730845234E+03 -0.25261649925E+03  0.74402172138E+03  0.79598421455E+03  0.10100000352E+00 0. -1.
</event>
<event>
 5   0  0.6862201E-06  0.1899881E+04  0.7818609E-02  0.8654915E-01
       -2   -1    0    0    0  501  0.00000000000E+00  0.00000000000E+00  0.44405338759E+03  0.44405338760E+03  0.25500000920E-02 0. -1.
        2   -1    0    0  501    0  0.00000000000E+00  0.00000000000E+00 -0.20321594106E+04  0.20321594106E+04  0.25500000920E-02 0.  1.
    10030    2    1    2    0    0  0.00000000000E+00  0.00000000000E+00 -0.15881060230E+04  0.24762127982E+04  0.18998813336E+04 0.  0.
        3    1    3    3  502    0 -0.20043769162E+03  0.23621357987E+03  0.37636453405E+03  0.48746527695E+03  0.10100000352E+00 0. -1.
       -3    1    3    3    0  502  0.20043769162E+03 -0.23621357987E+03 -0.19644705571E+04  0.19887475213E+04  0.10100000352E+00 0.  1.
</event>
<event>
 5   0  0.3398807E-06  0.1900470E+04  0.7818609E-02  0.8654623E-01
       -1   -1    0    0    0  501  0.00000000000E+00  0.00000000000E+00  0.61371564143E+03  0.61371564145E+03  0.50400001928E-02 0. -1.
        1   -1    0    0  501    0  0.00000000000E+00  0.00000000000E+00 -0.14712778382E+04  0.14712778383E+04  0.50400001928E-02 0.  1.
    10030    2    1    2    0    0  0.00000000000E+00  0.00000000000E+00 -0.85756219682E+03  0.20849934797E+04  0.19004696496E+04 0.  0.
        1    1    3    3  502    0  0.40869891542E+03  0.36617129500E+03  0.42231907634E+03  0.69243745062E+03  0.50400001928E-02 0. -1.
       -1    1    3    3    0  502 -0.40869891542E+03 -0.36617129500E+03 -0.12798812732E+04  0.13925560291E+04  0.50400001928E-02 0.  1.
</event>
<event>
 5   0  0.6870370E-06  0.1898014E+04  0.7818609E-02  0.8655846E-01
        2   -1    0    0  501    0  0.00000000000E+00  0.00000000000E+00  0.19321783516E+04  0.19321783516E+04  0.25500000920E-02 0.  1.
       -2   -1    0    0    0  501  0.00000000000E+00  0.00000000000E+00 -0.46611334814E+03  0.46611334815E+03  0.25500000920E-02 0. -1.
    10030    2    1    2    0    0  0.00000000000E+00  0.00000000000E+00  0.14660650034E+04  0.23982916997E+04  0.18980138257E+04 0.  0.
        1    1    3    3  502    0 -0.63882145727E+03 -0.32999687743E+03  0.15156600604E+04  0.16775625807E+04  0.50400001928E-02 0.  1.
       -1    1    3    3    0  502  0.63882145727E+03  0.32999687743E+03 -0.49595056937E+02  0.72072911907E+03  0.50400001928E-02 0. -1.
</event>
<event>
 5   0  0.3495279E-06  0.1900584E+04  0.7818609E-02  0.8654566E-01
        1   -1    0    0  501    0  0.00000000000E+00  0.00000000000E+00  0.92090497984E+03  0.92090497986E+03  0.50400001928E-02 0. -1.
       -1   -1    0    0    0  501  0.00000000000E+00  0.00000000000E+00 -0.98061685321E+03  0.98061685322E+03  0.50400001928E-02 0.  1.
    10030    2    1    2    0    0  0.00000000000E+00  0.00000000000E+00 -0.59711873365E+02  0.19015218331E+04  0.19005840612E+04 0.  0.
        2    1    3    3  502    0  0.79972960382E+03  0.22269581806E+03  0.43285909974E+03  0.93623066967E+03  0.25500000920E-02 0. -1.
       -2    1    3    3    0  502 -0.79972960382E+03 -0.22269581806E+03 -0.49257097311E+03  0.96529116341E+03  0.25500000920E-02 0.  1.
</event>
<event>
 5   0  0.3398807E-06  0.1900401E+04  0.7818609E-02  0.8654657E-01
       -1   -1    0    0    0  501  0.00000000000E+00  0.00000000000E+00  0.97873344975E+03  0.97873344977E+03  0.50400001928E-02 0.  1.
        1   -1    0    0  501    0  0.00000000000E+00  0.00000000000E+00 -0.92249953518E+03  0.92249953519E+03  0.50400001928E-02 0. -1.
    10030    2    1    2    0    0  0.00000000000E+00  0.00000000000E+00  0.56233914574E+02  0.19012329850E+04  0.19004011708E+04 0.  0.
        1    1    3    3  502    0  0.10266265988E+03  0.49407952120E+03 -0.77736087939E+03  0.92679238874E+03  0.50400001928E-02 0. -1.
       -1    1    3    3    0  502 -0.10266265988E+03 -0.49407952120E+03  0.83359479396E+03  0.97444059621E+03  0.50400001928E-02 0.  1.
</event>
<event>
 5   0  0.2527750E-06  0.1900028E+04  0.7818609E-02  0.8654842E-01
       -4   -1    0    0    0  501  0.00000000000E+00  0.00000000000E+00  0.17353508325E+04  0.17353512973E+04  0.12699999809E+01 0. -1.
        4   -1    0    0  501    0  0.00000000000E+00  0.00000000000E+00 -0.52008178959E+03  0.52008334021E+03  0.12699999809E+01 0.  1.
    10030    2    1    2    0    0  0.00000000000E+00  0.00000000000E+00  0.12152690430E+04  0.22554346375E+04  0.19000280411E+04 0.  0.
        5    1    3    3  502    0 -0.15153369012E+03  0.92094099811E+03  0.81801362490E+03  0.12410733910E+04  0.46999998093E+01 0. -1.
       -5    1    3    3    0  502  0.15153369012E+03 -0.92094099811E+03  0.39725541805E+03  0.10143612465E+04  0.46999998093E+01 0.  1.
</event>
<event>
 5   0  0.6870370E-06  0.1904389E+04  0.7818609E-02  0.8652675E-01
       -2   -1    0    0    0  501  0.00000000000E+00  0.00000000000E+00  0.63498022010E+03  0.63498022010E+03  0.25500000920E-02 0. -1.
        2   -1    0    0  501    0  0.00000000000E+00  0.00000000000E+00 -0.14278788660E+04  0.14278788660E+04  0.25500000920E-02 0.  1.
    10030    2    1    2    0    0  0.00000000000E+00  0.00000000000E+00 -0.79289864585E+03  0.20628590861E+04  0.19043894944E+04 0.  0.
        1    1    3    3  502    0  0.48891678051E+02 -0.66738688187E+03  0.33732577148E+03  0.74938929963E+03  0.50400001928E-02 0. -1.
       -1    1    3    3    0  502 -0.48891678051E+02  0.66738688187E+03 -0.11302244173E+04  0.13134697864E+04  0.50400001928E-02 0.  1.
</event>
<event>
 5   0  0.3379108E-06  0.1900423E+04  0.7818609E-02  0.8654646E-01
        1   -1    0    0  501    0  0.00000000000E+00  0.00000000000E+00  0.54286218452E+03  0.54286218454E+03  0.50400001928E-02 0. -1.
       -1   -1    0    0    0  501  0.00000000000E+00  0.00000000000E+00 -0.16632247134E+04  0.16632247134E+04  0.50400001928E-02 0.  1.
    10030    2    1    2    0    0  0.00000000000E+00  0.00000000000E+00 -0.11203625289E+04  0.22060868979E+04  0.19004229017E+04 0.  0.
        4    1    3    3  502    0  0.93856632747E+01 -0.31662799948E+03  0.47976474460E+03  0.57490625652E+03  0.12699999809E+01 0. -1.
       -4    1    3    3    0  502 -0.93856632747E+01  0.31662799948E+03 -0.16001272735E+04  0.16311806414E+04  0.12699999809E+01 0.  1.
</event>
<event>
 5   0  0.3495279E-06  0.1900139E+04  0.7818609E-02  0.8654787E-01
        1   -1    0    0  501    0  0.00000000000E+00  0.00000000000E+00  0.26166391470E+04  0.26166391470E+04  0.50400001928E-02 0.  1.
       -1   -1    0    0    0  501  0.00000000000E+00  0.00000000000E+00 -0.34495856390E+03  0.34495856393E+03  0.50400001928E-02 0. -1.
    10030    2    1    2    0    0  0.00000000000E+00  0.00000000000E+00  0.22716805831E+04  0.29615977109E+04  0.19001390291E+04 0.  0.
        2    1    3    3  502    0  0.20718076050E+02 -0.67287103647E+03  0.90927299023E+02  0.67930291043E+03  0.25500000920E-02 0. -1.
       -2    1    3    3    0  502 -0.20718076050E+02  0.67287103647E+03  0.21807532841E+04  0.22822948005E+04  0.25500000920E-02 0.  1.
</event>
<event>
 5   0  0.6984466E-06  0.1900173E+04  0.7818609E-02  0.8654770E-01
        2   -1    0    0  501    0  0.00000000000E+00  0.00000000000E+00  0.95770165839E+03  0.95770165840E+03  0.25500000920E-02 0.  1.
       -2   -1    0    0    0  501  0.00000000000E+00  0.00000000000E+00 -0.94253168140E+03  0.94253168141E+03  0.25500000920E-02 0. -1.
    10030    2    1    2    0    0  0.00000000000E+00  0.00000000000E+00  0.15169976989E+02  0.19002333398E+04  0.19001727862E+04 0.  0.
        2    1    3    3  502    0 -0.94201078025E+03 -0.10394460800E+03  0.74485272306E+02  0.95065074945E+03  0.25500000920E-02 0.  1.
       -2    1    3    3    0  502  0.94201078025E+03  0.10394460800E+03 -0.59315295317E+02  0.94958259035E+03  0.25500000920E-02 0. -1.
</event>
<event>
 5   0  0.3236653E-06  0.1899807E+04  0.7818609E-02  0.8654952E-01
       -1   -1    0    0    0  501  0.00000000000E+00  0.00000000000E+00  0.52838784687E+03  0.52838784689E+03  0.50400001928E-02 0. -1.
        1   -1    0    0  501    0  0.00000000000E+00  0.00000000000E+00 -0.17076792155E+04  0.17076792155E+04  0.50400001928E-02 0.  1.
    10030    2    1    2    0    0  0.00000000000E+00  0.00000000000E+00 -0.11792913686E+04  0.22360670624E+04  0.18998072996E+04 0.  0.
        3    1    3    3  502    0 -0.44670809965E+03 -0.44776070838E+03  0.24451141450E+03  0.67810295700E+03  0.10100000352E+00 0. -1.
       -3    1    3    3    0  502  0.44670809965E+03  0.44776070838E+03 -0.14238027831E+04  0.15579641054E+04  0.10100000352E+00 0.  1.
</event>
<event>
 5   0  0.7577180E-06  0.1900401E+04  0.7818609E-02  0.8654657E-01
       -2   -1    0    0    0  501  0.00000000000E+00  0.00000000000E+00  0.82936463929E+03  0.82936463930E+03  0.25500000920E-02 0. -1.
        2   -1    0    0  501    0  0.00000000000E+00  0.00000000000E+00 -0.10886421146E+04  0.10886421146E+04  0.25500000920E-02 0.  1.
    10030    2    1    2    0    0  0.00000000000E+00  0.00000000000E+00 -0.25927747529E+03  0.19180067539E+04  0.19004012994E+04 0.  0.
        5    1    3    3  502    0  0.44845143733E+03  0.36736166701E+03  0.63019428272E+03  0.85628862541E+03  0.46999998093E+01 0. -1.
       -5    1    3    3    0  502 -0.44845143733E+03 -0.36736166701E+03 -0.88947175802E+03  0.10617181285E+04  0.46999998093E+01 0.  1.
</event>
<event>
 5   0  0.3236653E-06  0.1901823E+04  0.7818609E-02  0.8653949E-01
       -1   -1    0    0    0  501  0.00000000000E+00  0.00000000000E+00  0.63344283959E+03  0.63344283961E+03  0.50400001928E-02 0. -1.
        1   -1    0    0  501    0  0.00000000000E+00  0.00000000000E+00 -0.14274896843E+04  0.14274896843E+04  0.50400001928E-02 0.  1.
    10030    2    1    2    0    0  0.00000000000E+00  0.00000000000E+00 -0.79404684466E+03  0.20609325239E+04  0.19018234609E+04 0.  0.
        3    1    3    3  502    0  0.42293693688E+03 -0.25301734453E+03  0.48424023957E+03  0.69092839646E+03  0.10100000352E+00 0. -1.
       -3    1    3    3    0  502 -0.42293693688E+03  0.25301734453E+03 -0.12782870842E+04  0.13700041274E+04  0.10100000352E+00 0.  1.
</event>
<event>
 5   0  0.6984466E-06  0.1899928E+04  0.7818609E-02  0.8654892E-01
        2   -1    0    0  501    0  0.00000000000E+00  0.00000000000E+00  0.10548234512E+04  0.10548234512E+04  0.25500000920E-02 0.  1.
       -2   -1    0    0    0  501  0.00000000000E+00  0.00000000000E+00 -0.85552848273E+03  0.85552848274E+03  0.25500000920E-02 0. -1.
    10030    2    1    2    0    0  0.00000000000E+00  0.00000000000E+00  0.19929496849E+03  0.19103519340E+04  0.18999279005E+04 0.  0.
        2    1    3    3  502    0 -0.16365669068E+03 -0.55640552977E+03 -0.65685060140E+03  0.87625529301E+03  0.25500000920E-02 0. -1.
       -2    1    3    3    0  502  0.16365669068E+03  0.55640552977E+03  0.85614556989E+03  0.10340966409E+04  0.25500000920E-02 0.  1.
</event>
<event>
 5   0  0.6984466E-06  0.1899101E+04  0.7818609E-02  0.8655304E-01
        2   -1    0    0  501    0  0.00000000000E+00  0.00000000000E+00  0.18278695191E+04  0.18278695191E+04  0.25500000920E-02 0.  1.
       -2   -1    0    0    0  501  0.00000000000E+00  0.00000000000E+00 -0.49327684884E+03  0.49327684885E+03  0.25500000920E-02 0. -1.
    10030    2    1    2    0    0  0.00000000000E+00  0.00000000000E+00  0.13345926703E+04  0.23211463680E+04  0.18991005413E+04 0.  0.
        2    1    3    3  502    0 -0.46849116438E+03 -0.31024938812E+02  0.16760651173E+04  0.17405863366E+04  0.25500000920E-02 0.  1.
       -2    1    3    3    0  502  0.46849116438E+03  0.31024938812E+02 -0.34147244699E+03  0.58056003134E+03  0.25500000920E-02 0. -1.
</event>
<event>
 5   0  0.3398807E-06  0.1899841E+04  0.7818609E-02  0.8654936E-01
        1   -1    0    0  501    0  0.00000000000E+00  0.00000000000E+00  0.88059584387E+03  0.88059584388E+03  0.50400001928E-02 0.  1.
       -1   -1    0    0    0  501  0.00000000000E+00  0.00000000000E+00 -0.10247025991E+04  0.10247025991E+04  0.50400001928E-02 0. -1.
    10030    2    1    2    0    0  0.00000000000E+00  0.00000000000E+00 -0.14410675525E+03  0.19052984430E+04  0.18998408881E+04 0.  0.
        1    1    3    3  502    0 -0.47546322029E+03  0.72020262459E+03 -0.47017203357E+03  0.98276082314E+03  0.50400001928E-02 0. -1.
       -1    1    3    3    0  502  0.47546322029E+03 -0.72020262459E+03  0.32606527832E+03  0.92253761987E+03  0.50400001928E-02 0.  1.
</event>
<event>
 5   0  0.6862201E-06  0.1898694E+04  0.7818609E-02  0.8655507E-01
       -2   -1    0    0    0  501  0.00000000000E+00  0.00000000000E+00  0.11264356879E+04  0.11264356879E+04  0.25500000920E-02 0.  1.
        2   -1    0    0  501    0  0.00000000000E+00  0.00000000000E+00 -0.80009894541E+03  0.80009894541E+03  0.25500000920E-02 0. -1.
    10030    2    1    2    0    0  0.00000000000E+00  0.00000000000E+00  0.32633674249E+03  0.19265346333E+04  0.18986942945E+04 0.  0.
        3    1    3    3  502    0 -0.35825276064E+03  0.27379417750E+03  0.10108532989E+04  0.11068571246E+04  0.10100000352E+00 0.  1.
       -3    1    3    3    0  502  0.35825276064E+03 -0.27379417750E+03 -0.68451655641E+03  0.81967750874E+03  0.10100000352E+00 0. -1.
</event>
<event>
 5   0  0.6984466E-06  0.1900803E+04  0.7818609E-02  0.8654457E-01
        2   -1    0    0  501    0  0.00000000000E+00  0.00000000000E+00  0.62851944976E+03  0.62851944976E+03  0.25500000920E-02 0. -1.
       -2   -1    0    0    0  501  0.00000000000E+00  0.00000000000E+00 -0.14371288646E+04  0.14371288646E+04  0.25500000920E-02 0.  1.
    10030    2    1    2    0    0  0.00000000000E+00  0.00000000000E+00 -0.80860941484E+03  0.20656483144E+04  0.19008034546E+04 0.  0.
        2    1    3    3  502    0 -0.34994117498E+03 -0.17949231531E+03 -0.13445482238E+04  0.14008876626E+04  0.25500000920E-02 0.  1.
       -2    1    3    3    0  502  0.34994117498E+03  0.17949231531E+03  0.53593880893E+03  0.66476065176E+03  0.25500000920E-02 0. -1.
</event>
<event>
 5   0  0.3236653E-06  0.1904082E+04  0.7818609E-02  0.8652827E-01
       -1   -1    0    0    0  501  0.00000000000E+00  0.00000000000E+00  0.64781329063E+03  0.64781329065E+03  0.50400001928E-02 0.  1.
        1   -1    0    0  501    0  0.00000000000E+00  0.00000000000E+00 -0.13991402020E+04  0.13991402020E+04  0.50400001928E-02 0. -1.
    10030    2    1    2    0    0  0.00000000000E+00  0.00000000000E+00 -0.75132691136E+03  0.20469534926E+04  0.19040815301E+04 0.  0.
        3    1    3    3  502    0 -0.77014963439E+03  0.59607237080E+02  0.22259896505E+03  0.80388667827E+03  0.10100000352E+00 0.  1.
       -3    1    3    3    0  502  0.77014963439E+03 -0.59607237080E+02 -0.97392587641E+03  0.12430668144E+04  0.10100000352E+00 0. -1.
</event>
<event>
 5   0  0.3236653E-06  0.1905442E+04  0.7818609E-02  0.8652152E-01
        1   -1    0    0  501    0  0.00000000000E+00  0.00000000000E+00  0.75131770723E+03  0.75131770725E+03  0.50400001928E-02 0.  1.
       -1   -1    0    0    0  501  0.00000000000E+00  0.00000000000E+00 -0.12081133530E+04  0.12081133530E+04  0.50400001928E-02 0. -1.
    10030    2    1    2    0    0  0.00000000000E+00  0.00000000000E+00 -0.45679564576E+03  0.19594310602E+04  0.19054416333E+04 0.  0.
        3    1    3    3  502    0  0.24251451056E+03  0.77912635844E+03  0.27729365075E+03  0.86182535887E+03  0.10100000352E+00 0.  1.
       -3    1    3    3    0  502 -0.24251451056E+03 -0.77912635844E+03 -0.73408929650E+03  0.10976057014E+04  0.10100000352E+00 0. -1.
</event>
<event>
 5   0  0.3379108E-06  0.1899079E+04  0.7818609E-02  0.8655315E-01
        1   -1    0    0  501    0  0.00000000000E+00  0.00000000000E+00  0.19059636971E+04  0.19059636971E+04  0.50400001928E-02 0. -1.
       -1   -1    0    0    0  501  0.00000000000E+00  0.00000000000E+00 -0.47305454463E+03  0.47305454466E+03  0.50400001928E-02 0.  1.
    10030    2    1    2    0    0  0.00000000000E+00  0.00000000000E+00  0.14329091525E+04  0.23790182418E+04  0.18990785017E+04 0.  0.
        4    1    3    3  502    0 -0.24862115391E+03 -0.62621457989E+03 -0.12171503162E+03  0.68467024184E+03  0.12699999809E+01 0.  1.
       -4    1    3    3    0  502  0.24862115391E+03  0.62621457989E+03  0.15546241841E+04  0.16943479999E+04  0.12699999809E+01 0. -1.
</event>
<event>
 5   0  0.6862201E-06  0.1900506E+04  0.7818609E-02  0.8654605E-01
       -2   -1    0    0    0  501  0.00000000000E+00  0.00000000000E+00  0.99752753161E+03  0.99752753161E+03  0.25500000920E-02 0. -1.
        2   -1    0    0  501    0  0.00000000000E+00  0.00000000000E+00 -0.90521864924E+03  0.90521864924E+03  0.25500000920E-02 0.  1.
    10030    2    1    2    0    0  0.00000000000E+00  0.00000000000E+00  0.92308882365E+02  0.19027461809E+04  0.19005057482E+04 0.  0.
        3    1    3    3  502    0 -0.81603990999E+03  0.18414999138E+03  0.49740538006E+03  0.97326485416E+03  0.10100000352E+00 0. -1.
       -3    1    3    3    0  502  0.81603990999E+03 -0.18414999138E+03 -0.40509649770E+03  0.92948132669E+03  0.10100000352E+00 0.  1.
</event>
<event>
 5   0  0.6984466E-06  0.1903741E+04  0.7818609E-02  0.8652997E-01
       -2   -1    0    0    0  501  0.00000000000E+00  0.00000000000E+00  0.77120935753E+03  0.77120935754E+03  0.25500000920E-02 0. -1.
        2   -1    0    0  501    0  0.00000000000E+00  0.00000000000E+00 -0.11748527160E+04  0.11748527160E+04  0.25500000920E-02 0.  1.
    10030    2    1    2    0    0  0.00000000000E+00  0.00000000000E+00 -0.40364335848E+03  0.19460620735E+04  0.19037409575E+04 0.  0.
        2    1    3    3  502    0  0.63254040649E+03  0.15850825844E+03 -0.91065224108E+03  0.11200534532E+04  0.25500000920E-02 0.  1.
       -2    1    3    3    0  502 -0.63254040649E+03 -0.15850825844E+03  0.50700888260E+03  0.82600862035E+03  0.25500000920E-02 0. -1.
</event>
<event>
 5   0  0.7207648E-06  0.1900919E+04  0.7818609E-02  0.8654399E-01
       -2   -1    0    0    0  501  0.00000000000E+00  0.00000000000E+00  0.76384625928E+03  0.76384625928E+03  0.25500000920E-02 0. -1.
        2   -1    0    0  501    0  0.00000000000E+00  0.00000000000E+00 -0.11826634920E+04  0.11826634920E+04  0.25500000920E-02 0.  1.
    10030    2    1    2    0    0  0.00000000000E+00  0.00000000000E+00 -0.41881723276E+03  0.19465097513E+04  0.19009188140E+04 0.  0.
        4    1    3    3  502    0 -0.88271154646E+02  0.35778391509E+03  0.68771462593E+03  0.78022698380E+03  0.12699999809E+01 0. -1.
       -4    1    3    3    0  502  0.88271154646E+02 -0.35778391509E+03 -0.11065318587E+04  0.11662827675E+04  0.12699999809E+01 0.  1.
</event>
<event>
 5   0  0.3495279E-06  0.1899714E+04  0.7818609E-02  0.8654999E-01
       -1   -1    0    0    0  501  0.00000000000E+00  0.00000000000E+00  0.60499039675E+03  0.60499039677E+03  0.50400001928E-02 0. -1.
        1   -1    0    0  501    0  0.00000000000E+00  0.00000000000E+00 -0.14913094753E+04  0.14913094753E+04  0.50400001928E-02 0.  1.
    10030    2    1    2    0    0  0.00000000000E+00  0.00000000000E+00 -0.88631907851E+03  0.20962998720E+04  0.18997135691E+04 0.  0.
        2    1    3    3  502    0  0.16205977504E+03  0.18203817400E+03  0.56989869557E+03  0.61982722649E+03  0.25500000920E-02 0. -1.
       -2    1    3    3    0  502 -0.16205977504E+03 -0.18203817400E+03 -0.14562177741E+04  0.14764726455E+04  0.25500000920E-02 0.  1.
</event>
<event>
 5   0  0.2527750E-06  0.1899774E+04  0.7818609E-02  0.8654969E-01
       -3   -1    0    0    0  501  0.00000000000E+00  0.00000000000E+00  0.11439612805E+04  0.11439612849E+04  0.10100000352E+00 0. -1.
        3   -1    0    0  501    0  0.00000000000E+00  0.00000000000E+00 -0.78873781219E+03  0.78873781865E+03  0.10100000352E+00 0.  1.
    10030    2    1    2    0    0  0.00000000000E+00  0.00000000000E+00  0.35522346829E+03  0.19326991036E+04  0.18997742267E+04 0.  0.
        4    1    3    3  502    0  0.53095120874E+03  0.32051731768E+03 -0.55433181087E+03  0.83182083795E+03  0.12699999809E+01 0.  1.
       -4    1    3    3    0  502 -0.53095120874E+03 -0.32051731768E+03  0.90955527916E+03  0.11008782656E+04  0.12699999809E+01 0. -1.
</event>
<event>
 5   0  0.6870370E-06  0.1899673E+04  0.7818609E-02  0.8655019E-01
       -2   -1    0    0    0  501  0.00000000000E+00  0.00000000000E+00  0.11223319293E+04  0.11223319293E+04  0.25500000920E-02 0.  1.
        2   -1    0    0  501    0  0.00000000000E+00  0.00000000000E+00 -0.80385264168E+03  0.80385264169E+03  0.25500000920E-02 0. -1.
    10030    2    1    2    0    0  0.00000000000E+00  0.00000000000E+00  0.31847928763E+03  0.19261845710E+04  0.18996731153E+04 0.  0.
        1    1    3    3  502    0 -0.40240398877E+03  0.12736616783E+03 -0.70353985286E+03  0.82043856289E+03  0.50400001928E-02 0. -1.
       -1    1    3    3    0  502  0.40240398877E+03 -0.12736616783E+03  0.10220191405E+04  0.11057460081E+04  0.50400001928E-02 0.  1.
</event>
<event>
 5   0  0.6984466E-06  0.1900628E+04  0.7818609E-02  0.8654544E-01
       -2   -1    0    0    0  501  0.00000000000E+00  0.00000000000E+00  0.79953508644E+03  0.79953508644E+03  0.25500000920E-02 0. -1.
        2   -1    0    0  501    0  0.00000000000E+00  0.00000000000E+00 -0.11295273116E+04  0.11295273116E+04  0.25500000920E-02 0.  1.
    10030    2    1    2    0    0  0.00000000000E+00  0.00000000000E+00 -0.32999222516E+03  0.19290623980E+04  0.19006280191E+04 0.  0.
        2    1    3    3  502    0  0.23123926632E+02 -0.60331339567E+03 -0.90985194399E+03  0.10919488676E+04  0.25500000920E-02 0.  1.
       -2    1    3    3    0  502 -0.23123926632E+02  0.60331339567E+03  0.57985971884E+03  0.83711353048E+03  0.25500000920E-02 0. -1.
</event>
<event>
 5   0  0.3398807E-06  0.1901798E+04  0.7818609E-02  0.8653962E-01
       -1   -1    0    0    0  501  0.00000000000E+00  0.00000000000E+00  0.89647622913E+03  0.89647622915E+03  0.50400001928E-02 0. -1.
        1   -1    0    0  501    0  0.00000000000E+00  0.00000000000E+00 -0.10086251789E+04  0.10086251789E+04  0.50400001928E-02 0.  1.
    10030    2    1    2    0    0  0.00000000000E+00  0.00000000000E+00 -0.11214894974E+03  0.19051014080E+04  0.19017975676E+04 0.  0.
        1    1    3    3  502    0  0.36588102566E+03  0.85307627526E+03 -0.26283177662E+03  0.96472203208E+03  0.50400001928E-02 0. -1.
       -1    1    3    3    0  502 -0.36588102566E+03 -0.85307627526E+03  0.15068282688E+03  0.94037937595E+03  0.50400001928E-02 0.  1.
</event>
<event>
 5   0  0.3236653E-06  0.1903293E+04  0.7818609E-02  0.8653219E-01
       -1   -1    0    0    0  501  0.00000000000E+00  0.00000000000E+00  0.11042800018E+04  0.11042800018E+04  0.50400001928E-02 0. -1.
        1   -1    0    0  501    0  0.00000000000E+00  0.00000000000E+00 -0.82011027193E+03  0.82011027195E+03  0.50400001928E-02 0.  1.
    10030    2    1    2    0    0  0.00000000000E+00  0.00000000000E+00  0.28416972985E+03  0.19243902737E+04  0.19032933274E+04 0.  0.
        3    1    3    3  502    0 -0.27072494201E+03 -0.13132289063E+01 -0.78035315840E+03  0.82598110198E+03  0.10100000352E+00 0.  1.
       -3    1    3    3    0  502  0.27072494201E+03  0.13132289063E+01  0.10645228882E+04  0.10984091718E+04  0.10100000352E+00 0. -1.
</event>
<event>
 5   0  0.3379108E-06  0.1899988E+04  0.7818609E-02  0.8654863E-01
       -1   -1    0    0    0  501  0.00000000000E+00  0.00000000000E+00  0.60724428335E+03  0.60724428337E+03  0.50400001928E-02 0. -1.
        1   -1    0    0  501    0  0.00000000000E+00  0.00000000000E+00 -0.14862028514E+04  0.14862028514E+04  0.50400001928E-02 0.  1.
    10030    2    1    2    0    0  0.00000000000E+00  0.00000000000E+00 -0.87895856807E+03  0.20934471348E+04  0.18999875636E+04 0.  0.
        4    1    3    3  502    0  0.74282391165E+03  0.22128900689E+03  0.16575115625E+03  0.79261040051E+03  0.12699999809E+01 0. -1.
       -4    1    3    3    0  502 -0.74282391165E+03 -0.22128900689E+03 -0.10447097243E+04  0.13008367343E+04  0.12699999809E+01 0.  1.
</event>
<event>
 5   0  0.2527750E-06  0.1900746E+04  0.7818609E-02  0.8654485E-01
        3   -1    0    0  501    0  0.00000000000E+00  0.00000000000E+00  0.10980505837E+04  0.10980505883E+04  0.10100000352E+00 0. -1.
       -3   -1    0    0    0  501  0.00000000000E+00  0.00000000000E+00 -0.82255696225E+03  0.82255696845E+03  0.10100000352E+00 0.  1.
    10030    2    1    2    0    0  0.00000000000E+00  0.00000000000E+00  0.27549362145E+03  0.19206075568E+04  0.19007463407E+04 0.  0.
        5    1    3    3  502    0  0.39573131211E+03  0.51576570013E+03  0.83822173395E+03  0.10607805117E+04  0.46999998093E+01 0. -1.
       -5    1    3    3    0  502 -0.39573131211E+03 -0.51576570013E+03 -0.56272811250E+03  0.85982704505E+03  0.46999998093E+01 0.  1.
</event>
<event>
 5   0  0.3236653E-06  0.1899301E+04  0.7818609E-02  0.8655205E-01
       -1   -1    0    0    0  501  0.00000000000E+00  0.00000000000E+00  0.15392391567E+04  0.15392391567E+04  0.50400001928E-02 0.  1.
        1   -1    0    0  501    0  0.00000000000E+00  0.00000000000E+00 -0.58589716505E+03  0.58589716507E+03  0.50400001928E-02 0. -1.
    10030    2    1    2    0    0  0.00000000000E+00  0.00000000000E+00  0.95334199164E+03  0.21251363218E+04  0.18993007748E+04 0.  0.
        3    1    3    3  502    0  0.55534081826E+03 -0.16932701098E+03 -0.36419214586E+03  0.68535464570E+03  0.10100000352E+00 0. -1.
       -3    1    3    3    0  502 -0.55534081826E+03  0.16932701098E+03  0.13175341375E+04  0.14397816761E+04  0.10100000352E+00 0.  1.
</event>
<event>
 5   0  0.6862201E-06  0.1902194E+04  0.7818609E-02  0.8653765E-01
       -2   -1    0    0    0  501  0.00000000000E+00  0.00000000000E+00  0.77142387018E+03  0.77142387019E+03  0.25500000920E-02 0.  1.
        2   -1    0    0  501    0  0.00000000000E+00  0.00000000000E+00 -0.11726182444E+04  0.11726182444E+04  0.25500000920E-02 0. -1.
    10030    2    1    2    0    0  0.00000000000E+00  0.00000000000E+00 -0.40119437417E+03  0.19440421145E+04  0.19021942112E+04 0.  0.
        3    1    3    3  502    0  0.57698871387E+03  0.38664063691E+03  0.46345007585E+03  0.83498080280E+03  0.10100000352E+00 0.  1.
       -3    1    3    3    0  502 -0.57698871387E+03 -0.38664063691E+03 -0.86464445002E+03  0.11090613117E+04  0.10100000352E+00 0. -1.
</event>
<event>
 5   0  0.3495279E-06  0.1900343E+04  0.7818609E-02  0.8654685E-01
        1   -1    0    0  501    0  0.00000000000E+00  0.00000000000E+00  0.20718953949E+04  0.20718953949E+04  0.50400001928E-02 0.  1.
       -1   -1    0    0    0  501  0.00000000000E+00  0.00000000000E+00 -0.43574897880E+03  0.43574897883E+03  0.50400001928E-02 0. -1.
    10030    2    1    2    0    0  0.00000000000E+00  0.00000000000E+00  0.16361464161E+04  0.25076443738E+04  0.19003434453E+04 0.  0.
        2    1    3    3  502    0 -0.36508317464E+03 -0.72063711406E+02 -0.33559053827E+03  0.50109870514E+03  0.25500000920E-02 0. -1.
       -2    1    3    3    0  502  0.36508317464E+03  0.72063711406E+02  0.19717369544E+04  0.20065456686E+04  0.25500000920E-02 0.  1.
</event>
<event>
 5   0  0.6870370E-06  0.1899547E+04  0.7818609E-02  0.8655082E-01
        2   -1    0    0  501    0  0.00000000000E+00  0.00000000000E+00  0.16518030921E+04  0.16518030921E+04  0.25500000920E-02 0.  1.
       -2   -1    0    0    0  501  0.00000000000E+00  0.00000000000E+00 -0.54611224225E+03  0.54611224226E+03  0.25500000920E-02 0. -1.
    10030    2    1    2    0    0  0.00000000000E+00  0.00000000000E+00  0.11056908499E+04  0.21979153344E+04  0.18995471991E+04 0.  0.
        1    1    3    3  502    0  0.80929036518E+03  0.10584864488E+03  0.11148485135E+04  0.13816808744E+04  0.50400001928E-02 0.  1.
       -1    1    3    3    0  502 -0.80929036518E+03 -0.10584864488E+03 -0.91576635690E+01  0.81623445996E+03  0.50400001928E-02 0. -1.
</event>
<event>
 5   0  0.3495279E-06  0.1886782E+04  0.7818609E-02  0.8661464E-01
        1   -1    0    0  501    0  0.00000000000E+00  0.00000000000E+00  0.10964525618E+04  0.10964525618E+04  0.50400001928E-02 0.  1.
       -1   -1    0    0    0  501  0.00000000000E+00  0.00000000000E+00 -0.81169651179E+03  0.81169651180E+03  0.50400001928E-02 0. -1.
    10030    2    1    2    0    0  0.00000000000E+00  0.00000000000E+00  0.28475605001E+03  0.19081490736E+04  0.18867821494E+04 0.  0.
        2    1    3    3  502    0  0.11133293760E+03 -0.94051646320E+02  0.10849986697E+04  0.10947432797E+04  0.25500000920E-02 0.  1.
       -2    1    3    3    0  502 -0.11133293760E+03  0.94051646320E+02 -0.80024261970E+03  0.81340579391E+03  0.25500000920E-02 0. -1.
</event>
<event>
 5   0  0.3236653E-06  0.1899545E+04  0.7818609E-02  0.8655083E-01
       -1   -1    0    0    0  501  0.00000000000E+00  0.00000000000E+00  0.11728345905E+04  0.11728345906E+04  0.50400001928E-02 0.  1.
        1   -1    0    0  501    0  0.00000000000E+00  0.00000000000E+00 -0.76913442936E+03  0.76913442938E+03  0.50400001928E-02 0. -1.
    10030    2    1    2    0    0  0.00000000000E+00  0.00000000000E+00  0.40370016119E+03  0.19419690199E+04  0.18995446439E+04 0.  0.
        3    1    3    3  502    0 -0.31432936695E+03  0.79445305587E+03  0.62597558264E+03  0.10591525146E+04  0.10100000352E+00 0.  1.
       -3    1    3    3    0  502  0.31432936695E+03 -0.79445305587E+03 -0.22227542146E+03  0.88281650534E+03  0.10100000352E+00 0. -1.
</event>
<event>
 5   0  0.6870370E-06  0.1899598E+04  0.7818609E-02  0.8655056E-01
        2   -1    0    0  501    0  0.00000000000E+00  0.00000000000E+00  0.15607648304E+04  0.15607648304E+04  0.25500000920E-02 0. -1.
       -2   -1    0    0    0  501  0.00000000000E+00  0.00000000000E+00 -0.57799749216E+03  0.57799749216E+03  0.25500000920E-02 0.  1.
    10030    2    1    2    0    0  0.00000000000E+00  0.00000000000E+00  0.98276733820E+03  0.21387623225E+04  0.18995980183E+04 0.  0.
        1    1    3    3  502    0  0.72125591096E+02 -0.43935138388E+03  0.14359927355E+04  0.15034316998E+04  0.50400001928E-02 0. -1.
       -1    1    3    3    0  502 -0.72125591096E+02  0.43935138388E+03 -0.45322539731E+03  0.63533062275E+03  0.50400001928E-02 0.  1.
</event>
<event>
 5   0  0.3379108E-06  0.1897634E+04  0.7818609E-02  0.8656035E-01
       -1   -1    0    0    0  501  0.00000000000E+00  0.00000000000E+00  0.66735145416E+03  0.66735145417E+03  0.50400001928E-02 0. -1.
        1   -1    0    0  501    0  0.00000000000E+00  0.00000000000E+00 -0.13489950315E+04  0.13489950315E+04  0.50400001928E-02 0.  1.
    10030    2    1    2    0    0  0.00000000000E+00  0.00000000000E+00 -0.68164357730E+03  0.20163464856E+04  0.18976341016E+04 0.  0.
        4    1    3    3  502    0  0.67957098141E+02 -0.62926409313E+03 -0.10919088657E+04  0.12620848030E+04  0.12699999809E+01 0.  1.
       -4    1    3    3    0  502 -0.67957098141E+02  0.62926409313E+03  0.41026528841E+03  0.75426168262E+03  0.12699999809E+01 0. -1.
</event>
<event>
 5   0  0.6984466E-06  0.1900110E+04  0.7818609E-02  0.8654802E-01
       -2   -1    0    0    0  501  0.00000000000E+00  0.00000000000E+00  0.41090518504E+03  0.41090518505E+03  0.25500000920E-02 0. -1.
        2   -1    0    0  501    0  0.00000000000E+00  0.00000000000E+00 -0.21966247017E+04  0.21966247017E+04  0.25500000920E-02 0.  1.
    10030    2    1    2    0    0  0.00000000000E+00  0.00000000000E+00 -0.17857195167E+04  0.26075298868E+04  0.19001099753E+04 0.  0.
        2    1    3    3  502    0 -0.57815542830E+02 -0.23283533814E+03 -0.21543725071E+04  0.21676890531E+04  0.25500000920E-02 0.  1.
       -2    1    3    3    0  502  0.57815542830E+02  0.23283533814E+03  0.36865299036E+03  0.43984083370E+03  0.25500000920E-02 0. -1.
</event>
<event>
 5   0  0.3211263E-06  0.1901485E+04  0.7818609E-02  0.8654118E-01
       -1   -1    0    0    0  501  0.00000000000E+00  0.00000000000E+00  0.18211913677E+04  0.18211913677E+04  0.50400001928E-02 0. -1.
        1   -1    0    0  501    0  0.00000000000E+00  0.00000000000E+00 -0.49632963769E+03  0.49632963772E+03  0.50400001928E-02 0.  1.
    10030    2    1    2    0    0  0.00000000000E+00  0.00000000000E+00  0.13248617300E+04  0.23175210054E+04  0.19014849479E+04 0.  0.
        5    1    3    3  502    0  0.68431590035E+03  0.65886899383E+03  0.61534434722E+03  0.11318424617E+04  0.46999998093E+01 0.  1.
       -5    1    3    3    0  502 -0.68431590035E+03 -0.65886899383E+03  0.70951738279E+03  0.11856785437E+04  0.46999998093E+01 0. -1.
</event>
<event>
 5   0  0.6862201E-06  0.1899993E+04  0.7818609E-02  0.8654860E-01
       -2   -1    0    0    0  501  0.00000000000E+00  0.00000000000E+00  0.10456960534E+04  0.10456960534E+04  0.25500000920E-02 0. -1.
        2   -1    0    0  501    0  0.00000000000E+00  0.00000000000E+00 -0.86305541276E+03  0.86305541276E+03  0.25500000920E-02 0.  1.
    10030    2    1    2    0    0  0.00000000000E+00  0.00000000000E+00  0.18264064063E+03  0.19087514662E+04  0.18999933042E+04 0.  0.
        3    1    3    3  502    0  0.12303538587E+03  0.91414417711E+03  0.31973669648E+03  0.97623196424E+03  0.10100000352E+00 0. -1.
       -3    1    3    3    0  502 -0.12303538587E+03 -0.91414417711E+03 -0.13709605585E+03  0.93251950192E+03  0.10100000352E+00 0.  1.
</event>
<event>
 5   0  0.3495279E-06  0.1900366E+04  0.7818609E-02  0.8654674E-01
        1   -1    0    0  501    0  0.00000000000E+00  0.00000000000E+00  0.11059378657E+04  0.11059378657E+04  0.50400001928E-02 0.  1.
       -1   -1    0    0    0  501  0.00000000000E+00  0.00000000000E+00 -0.81636348761E+03  0.81636348762E+03  0.50400001928E-02 0. -1.
    10030    2    1    2    0    0  0.00000000000E+00  0.00000000000E+00  0.28957437810E+03  0.19223013533E+04  0.19003655366E+04 0.  0.
        2    1    3    3  502    0  0.29963325256E+03 -0.83614760939E+03 -0.19663572707E+03  0.90971892356E+03  0.25500000920E-02 0. -1.
       -2    1    3    3    0  502 -0.29963325256E+03  0.83614760939E+03  0.48621010517E+03  0.10125824298E+04  0.25500000920E-02 0.  1.
</event>
<event>
 5   0  0.6984466E-06  0.1898297E+04  0.7818609E-02  0.8655705E-01
        2   -1    0    0  501    0  0.00000000000E+00  0.00000000000E+00  0.16895988184E+04  0.16895988185E+04  0.25500000920E-02 0. -1.
       -2   -1    0    0    0  501  0.00000000000E+00  0.00000000000E+00 -0.53319322039E+03  0.53319322040E+03  0.25500000920E-02 0.  1.
    10030    2    1    2    0    0  0.00000000000E+00  0.00000000000E+00  0.11564055981E+04  0.22227920389E+04  0.18982967473E+04 0.  0.
        2    1    3    3  502    0 -0.88044902691E+03  0.34672593193E+03  0.49157478921E+03  0.10663278737E+04  0.25500000920E-02 0.  1.
       -2    1    3    3    0  502  0.88044902691E+03 -0.34672593193E+03  0.66483080885E+03  0.11564641651E+04  0.25500000920E-02 0. -1.
</event>
<event>
 5   0  0.6870370E-06  0.1899979E+04  0.7818609E-02  0.8654867E-01
        2   -1    0    0  501    0  0.00000000000E+00  0.00000000000E+00  0.12152104597E+04  0.12152104597E+04  0.25500000920E-02 0. -1.
       -2   -1    0    0    0  501  0.00000000000E+00  0.00000000000E+00 -0.74265336393E+03  0.74265336394E+03  0.25500000920E-02 0.  1.
    10030    2    1    2    0    0  0.00000000000E+00  0.00000000000E+00  0.47255709574E+03  0.19578638236E+04  0.18999790902E+04 0.  0.
        1    1    3    3  502    0 -0.43712704645E+03  0.77392337315E+03  0.58181930499E+03  0.10623328791E+04  0.50400001928E-02 0. -1.
       -1    1    3    3    0  502  0.43712704645E+03 -0.77392337315E+03 -0.10926220925E+03  0.89553094455E+03  0.50400001928E-02 0.  1.
</event>
<event>
 5   0  0.3236653E-06  0.1900236E+04  0.7818609E-02  0.8654739E-01
       -1   -1    0    0    0  501  0.00000000000E+00  0.00000000000E+00  0.33916049254E+03  0.33916049258E+03  0.50400001928E-02 0. -1.
        1   -1    0    0  501    0  0.00000000000E+00  0.00000000000E+00 -0.26616439250E+04  0.26616439250E+04  0.50400001928E-02 0.  1.
    10030    2    1    2    0    0  0.00000000000E+00  0.00000000000E+00 -0.23224834325E+04  0.30008044176E+04  0.19002362639E+04 0.  0.
        3    1    3    3  502    0 -0.35808768876E+03  0.70249592696E+03 -0.32413459981E+03  0.85252012834E+03  0.10100000352E+00 0. -1.
       -3    1    3    3    0  502  0.35808768876E+03 -0.70249592696E+03 -0.19983488327E+04  0.21482842893E+04  0.10100000352E+00 0.  1.
</event>
<event>
 5   0  0.3379108E-06  0.1898259E+04  0.7818609E-02  0.8655724E-01
       -1   -1    0    0    0  501  0.00000000000E+00  0.00000000000E+00  0.39377518583E+03  0.39377518586E+03  0.50400001928E-02 0.  1.
        1   -1    0    0  501    0  0.00000000000E+00  0.00000000000E+00 -0.22877178334E+04  0.22877178334E+04  0.50400001928E-02 0. -1.
    10030    2    1    2    0    0  0.00000000000E+00  0.00000000000E+00 -0.18939426476E+04  0.26814930192E+04  0.18982586916E+04 0.  0.
        4    1    3    3  502    0  0.92318860857E+03 -0.34854039116E+01 -0.12582437849E+04  0.15605987281E+04  0.12699999809E+01 0.  1.
       -4    1    3    3    0  502 -0.92318860857E+03  0.34854039116E+01 -0.63569886267E+03  0.11208942912E+04  0.12699999809E+01 0. -1.
</event>
<event>
 5   0  0.6984466E-06  0.1901691E+04  0.7818609E-02  0.8654015E-01
        2   -1    0    0  501    0  0.00000000000E+00  0.00000000000E+00  0.21004194148E+04  0.21004194148E+04  0.25500000920E-02 0. -1.
       -2   -1    0    0    0  501  0.00000000000E+00  0.00000000000E+00 -0.43044132069E+03  0.43044132070E+03  0.25500000920E-02 0.  1.
    10030    2    1    2    0    0  0.00000000000E+00  0.00000000000E+00  0.16699780941E+04  0.25308607355E+04  0.19016911494E+04 0.  0.
        2    1    3    3  502    0  0.11135381907E+03  0.93339750558E+03  0.10254292212E+04  0.13910915370E+04  0.25500000920E-02 0. -1.
       -2    1    3    3    0  502 -0.11135381907E+03 -0.93339750558E+03  0.64454887291E+03  0.11397691986E+04  0.25500000920E-02 0.  1.
</event>
<event>
 5   0  0.7207648E-06  0.1893390E+04  0.7818609E-02  0.8658154E-01
        2   -1    0    0  501    0  0.00000000000E+00  0.00000000000E+00  0.14581994444E+04  0.14581994444E+04  0.25500000920E-02 0. -1.
       -2   -1    0    0    0  501  0.00000000000E+00  0.00000000000E+00 -0.61461490416E+03  0.61461490416E+03  0.25500000920E-02 0.  1.
    10030    2    1    2    0    0  0.00000000000E+00  0.00000000000E+00  0.84358454020E+03  0.20728143485E+04  0.18933896712E+04 0.  0.
        4    1    3    3  502    0 -0.57982488392E+03 -0.71351963363E+03  0.17474812902E+03  0.93586627521E+03  0.12699999809E+01 0.  1.
       -4    1    3    3    0  502  0.57982488392E+03  0.71351963363E+03  0.66883641118E+03  0.11369480733E+04  0.12699999809E+01 0. -1.
</event>
<event>
 5   0  0.6862201E-06  0.1899844E+04  0.7818609E-02  0.8654934E-01
        2   -1    0    0  501    0  0.00000000000E+00  0.00000000000E+00  0.14836950868E+04  0.14836950868E+04  0.25500000920E-02 0. -1.
       -2   -1    0    0    0  501  0.00000000000E+00  0.00000000000E+00 -0.60817888575E+03  0.60817888575E+03  0.25500000920E-02 0.  1.
    10030    2    1    2    0    0  0.00000000000E+00  0.00000000000E+00  0.87551620101E+03  0.20918739725E+04  0.18998442301E+04 0.  0.
        3    1    3    3  502    0 -0.27203620114E+03 -0.45518930668E+03  0.13055510588E+04  0.14091361101E+04  0.10100000352E+00 0. -1.
       -3    1    3    3    0  502  0.27203620114E+03  0.45518930668E+03 -0.43003485775E+03  0.68273786238E+03  0.10100000352E+00 0.  1.
</event>
<event>
 5   0  0.7577180E-06  0.1900605E+04  0.7818609E-02  0.8654555E-01
        2   -1    0    0  501    0  0.00000000000E+00  0.00000000000E+00  0.74974255950E+03  0.74974255950E+03  0.25500000920E-02 0.  1.
       -2   -1    0    0    0  501  0.00000000000E+00  0.00000000000E+00 -0.12045127775E+04  0.12045127775E+04  0.25500000920E-02 0. -1.
    10030    2    1    2    0    0  0.00000000000E+00  0.00000000000E+00 -0.45477021801E+03  0.19542553370E+04  0.19006046330E+04 0.  0.
        5    1    3    3  502    0 -0.63674894620E+03 -0.64806474704E+03 -0.51384452223E+03  0.10437889729E+04  0.46999998093E+01 0.  1.
       -5    1    3    3    0  502  0.63674894620E+03  0.64806474704E+03  0.59074304221E+02  0.91046636416E+03  0.46999998093E+01 0. -1.
</event>
<event>
 5   0  0.3379108E-06  0.1899594E+04  0.7818609E-02  0.8655058E-01
        1   -1    0    0  501    0  0.00000000000E+00  0.00000000000E+00  0.98212352719E+03  0.98212352720E+03  0.50400001928E-02 0. -1.
       -1   -1    0    0    0  501  0.00000000000E+00  0.00000000000E+00 -0.91853464047E+03  0.91853464049E+03  0.50400001928E-02 0.  1.
    10030    2    1    2    0    0  0.00000000000E+00  0.00000000000E+00  0.63588886715E+02  0.19006581677E+04  0.18995941472E+04 0.  0.
        4    1    3    3  502    0 -0.31684594604E+03 -0.88144214988E+03  0.18930323741E+03  0.95559873676E+03  0.12699999809E+01 0. -1.
       -4    1    3    3    0  502  0.31684594604E+03  0.88144214988E+03 -0.12571435069E+03  0.94505943093E+03  0.12699999809E+01 0.  1.
</event>
<event>
 5   0  0.3211263E-06  0.1900070E+04  0.7818609E-02  0.8654821E-01
       -1   -1    0    0    0  501  0.00000000000E+00  0.00000000000E+00  0.71344958544E+03  0.71344958545E+03  0.50400001928E-02 0.  1.
        1   -1    0    0  501    0  0.00000000000E+00  0.00000000000E+00 -0.12650743843E+04  0.12650743843E+04  0.50400001928E-02 0. -1.
    10030    2    1    2    0    0  0.00000000000E+00  0.00000000000E+00 -0.55162479888E+03  0.19785239698E+04  0.19000703093E+04 0.  0.
        5    1    3    3  502    0  0.58930469212E+03 -0.26408827524E+03 -0.10013770762E+04  0.11915539333E+04  0.46999998093E+01 0. -1.
       -5    1    3    3    0  502 -0.58930469212E+03  0.26408827524E+03  0.44975227735E+03  0.78697003644E+03  0.46999998093E+01 0.  1.
</event>
<event>
 5   0  0.3398807E-06  0.1900375E+04  0.7818609E-02  0.8654670E-01
        1   -1    0    0  501    0  0.00000000000E+00  0.00000000000E+00  0.91716959859E+03  0.91716959861E+03  0.50400001928E-02 0.  1.
       -1   -1    0    0    0  501  0.00000000000E+00  0.00000000000E+00 -0.98439380829E+03  0.98439380830E+03  0.50400001928E-02 0. -1.
    10030    2    1    2    0    0  0.00000000000E+00  0.00000000000E+00 -0.67224209691E+02  0.19015634069E+04  0.19003747778E+04 0.  0.
        1    1    3    3  502    0  0.87185121947E+03 -0.37132858512E+03 -0.10327322530E+03  0.95324436852E+03  0.50400001928E-02 0. -1.
       -1    1    3    3    0  502 -0.87185121947E+03  0.37132858512E+03  0.36049015607E+02  0.94831903839E+03  0.50400001928E-02 0.  1.
</event>
<event>
 5   0  0.7207648E-06  0.1900110E+04  0.7818609E-02  0.8654801E-01
       -2   -1    0    0    0  501  0.00000000000E+00  0.00000000000E+00  0.64807972240E+03  0.64807972241E+03  0.25500000920E-02 0.  1.
        2   -1    0    0  501    0  0.00000000000E+00  0.00000000000E+00 -0.13927374419E+04  0.13927374419E+04  0.25500000920E-02 0. -1.
    10030    2    1    2    0    0  0.00000000000E+00  0.00000000000E+00 -0.74465771953E+03  0.20408171643E+04  0.19001104123E+04 0.  0.
        4    1    3    3  502    0 -0.39648905665E+03 -0.71773365763E+03  0.14305726814E+03  0.83235339262E+03  0.12699999809E+01 0.  1.
       -4    1    3    3    0  502  0.39648905665E+03  0.71773365763E+03 -0.88771498767E+03  0.12084637717E+04  0.12699999809E+01 0. -1.
</event>
<event>
 5   0  0.7207648E-06  0.1897803E+04  0.7818609E-02  0.8655951E-01
       -2   -1    0    0    0  501  0.00000000000E+00  0.00000000000E+00  0.94405040517E+03  0.94405040517E+03  0.25500000920E-02 0. -1.
        2   -1    0    0  501    0  0.00000000000E+00  0.00000000000E+00 -0.95377779820E+03  0.95377779821E+03  0.25500000920E-02 0.  1.
    10030    2    1    2    0    0  0.00000000000E+00  0.00000000000E+00 -0.97273930350E+01  0.18978282034E+04  0.18978032741E+04 0.  0.
        4    1    3    3  502    0 -0.73280162939E+02  0.46984772207E+02 -0.94977565499E+03  0.95375728506E+03  0.12699999809E+01 0.  1.
       -4    1    3    3    0  502  0.73280162939E+02 -0.46984772207E+02  0.94004826196E+03  0.94407091831E+03  0.12699999809E+01 0. -1.
</event>
<event>
 5   0  0.3211263E-06  0.1900914E+04  0.7818609E-02  0.8654402E-01
       -1   -1    0    0    0  501  0.00000000000E+00  0.00000000000E+00  0.78949655925E+03  0.78949655927E+03  0.50400001928E-02 0.  1.
        1   -1    0    0  501    0  0.00000000000E+00  0.00000000000E+00 -0.11442332582E+04  0.11442332582E+04  0.50400001928E-02 0. -1.
    10030    2    1    2    0    0  0.00000000000E+00  0.00000000000E+00 -0.35473669893E+03  0.19337298175E+04  0.19009136965E+04 0.  0.
        5    1    3    3  502    0 -0.36197599341E+03 -0.36362537356E+03 -0.99124011808E+03  0.11161671442E+04  0.46999998093E+01 0. -1.
       -5    1    3    3    0  502  0.36197599341E+03  0.36362537356E+03  0.63650341915E+03  0.81756267325E+03  0.46999998093E+01 0.  1.
</event>
<event>
 5   0  0.6984466E-06  0.1899548E+04  0.7818609E-02  0.8655081E-01
        2   -1    0    0  501    0  0.00000000000E+00  0.00000000000E+00  0.92089398581E+03  0.92089398582E+03  0.25500000920E-02 0.  1.
       -2   -1    0    0    0  501  0.00000000000E+00  0.00000000000E+00 -0.97955960681E+03  0.97955960682E+03  0.25500000920E-02 0. -1.
    10030    2    1    2    0    0  0.00000000000E+00  0.00000000000E+00 -0.58665621000E+02  0.19004535926E+04  0.18995478943E+04 0.  0.
        2    1    3    3  502    0 -0.94412742022E+03  0.43883792496E+02  0.64350384732E+02  0.94733486418E+03  0.25500000920E-02 0.  1.
       -2    1    3    3    0  502  0.94412742022E+03 -0.43883792496E+02 -0.12301600573E+03  0.95311872846E+03  0.25500000920E-02 0. -1.
</event>
<event>
 5   0  0.3495279E-06  0.1899606E+04  0.7818609E-02  0.8655053E-01
        1   -1    0    0  501    0  0.00000000000E+00  0.00000000000E+00  0.10053680668E+04  0.10053680669E+04  0.50400001928E-02 0. -1.
       -1   -1    0    0    0  501  0.00000000000E+00  0.00000000000E+00 -0.89730869357E+03  0.89730869358E+03  0.50400001928E-02 0.  1.
    10030    2    1    2    0    0  0.00000000000E+00  0.00000000000E+00  0.10805937328E+03  0.19026767604E+04  0.18996057556E+04 0.  0.
        2    1    3    3  502    0 -0.62726413416E+03  0.64821565655E+03  0.35196926939E+03  0.96825936504E+03  0.25500000920E-02 0. -1.
       -2    1    3    3    0  502  0.62726413416E+03 -0.64821565655E+03 -0.24390989611E+03  0.93441739540E+03  0.25500000920E-02 0.  1.
</event>
<event>
 5   0  0.3236653E-06  0.1899660E+04  0.7818609E-02  0.8655026E-01
       -1   -1    0    0    0  501  0.00000000000E+00  0.00000000000E+00  0.13244919009E+04  0.13244919009E+04  0.50400001928E-02 0. -1.
        1   -1    0    0  501    0  0.00000000000E+00  0.00000000000E+00 -0.68114936291E+03  0.68114936293E+03  0.50400001928E-02 0.  1.
    10030    2    1    2    0    0  0.00000000000E+00  0.00000000000E+00  0.64334253803E+03  0.20056412639E+04  0.18996597743E+04 0.  0.
        3    1    3    3  502    0  0.80023672510E+03 -0.50120877288E+03  0.43030866652E+03  0.10376678702E+04  0.10100000352E+00 0. -1.
       -3    1    3    3    0  502 -0.80023672510E+03  0.50120877288E+03  0.21303387151E+03  0.96797339366E+03  0.10100000352E+00 0.  1.
</event>
<event>
 5   0  0.7577180E-06  0.1899835E+04  0.7818609E-02  0.8654938E-01
       -2   -1    0    0    0  501  0.00000000000E+00  0.00000000000E+00  0.70094161570E+03  0.70094161570E+03  0.25500000920E-02 0. -1.
        2   -1    0    0  501    0  0.00000000000E+00  0.00000000000E+00 -0.12873304468E+04  0.12873304468E+04  0.25500000920E-02 0.  1.
    10030    2    1    2    0    0  0.00000000000E+00  0.00000000000E+00 -0.58638883111E+03  0.19882720625E+04  0.18998352385E+04 0.  0.
        5    1    3    3  502    0  0.43649330894E+03  0.61579930658E+03 -0.89674264895E+03  0.11721367937E+04  0.46999998093E+01 0.  1.
       -5    1    3    3    0  502 -0.43649330894E+03 -0.61579930658E+03  0.31035381784E+03  0.81613526880E+03  0.46999998093E+01 0. -1.
</event>
<event>
 5   0  0.6870370E-06  0.1899421E+04  0.7818609E-02  0.8655145E-01
        2   -1    0    0  501    0  0.00000000000E+00  0.00000000000E+00  0.12238326305E+04  0.12238326305E+04  0.25500000920E-02 0. -1.
       -2   -1    0    0    0  501  0.00000000000E+00  0.00000000000E+00 -0.73698809054E+03  0.73698809055E+03  0.25500000920E-02 0.  1.
    10030    2    1    2    0    0  0.00000000000E+00  0.00000000000E+00  0.48684453995E+03  0.19608207210E+04  0.18994210418E+04 0.  0.
        1    1    3    3  502    0 -0.25136110949E+03 -0.60980586999E+03 -0.46196993702E+03  0.80527127676E+03  0.50400001928E-02 0.  1.
       -1    1    3    3    0  502  0.25136110949E+03  0.60980586999E+03  0.94881447697E+03  0.11555494443E+04  0.50400001928E-02 0. -1.
</event>
<event>
 5   0  0.3379108E-06  0.1899101E+04  0.7818609E-02  0.8655304E-01
        1   -1    0    0  501    0  0.00000000000E+00  0.00000000000E+00  0.25743152634E+04  0.25743152635E+04  0.50400001928E-02 0. -1.
       -1   -1    0    0    0  501  0.00000000000E+00  0.00000000000E+00 -0.35024692294E+03  0.35024692297E+03  0.50400001928E-02 0.  1.
    10030    2    1    2    0    0  0.00000000000E+00  0.00000000000E+00  0.22240683405E+04  0.29245621864E+04  0.18991008396E+04 0.  0.
        4    1    3    3  502    0  0.82743739843E+03  0.42023307259E+03  0.14215490243E+04  0.16976606625E+04  0.12699999809E+01 0. -1.
       -4    1    3    3    0  502 -0.82743739843E+03 -0.42023307259E+03  0.80251931623E+03  0.12269015239E+04  0.12699999809E+01 0.  1.
</event>
<event>
 5   0  0.3379108E-06  0.1900444E+04  0.7818609E-02  0.8654636E-01
        1   -1    0    0  501    0  0.00000000000E+00  0.00000000000E+00  0.12627269902E+04  0.12627269902E+04  0.50400001928E-02 0. -1.
       -1   -1    0    0    0  501  0.00000000000E+00  0.00000000000E+00 -0.71505690085E+03  0.71505690087E+03  0.50400001928E-02 0.  1.
    10030    2    1    2    0    0  0.00000000000E+00  0.00000000000E+00  0.54767008937E+03  0.19777838911E+04  0.19004437885E+04 0.  0.
        4    1    3    3  502    0 -0.16265891072E+03  0.72400887879E+03 -0.34384510471E+03  0.81784952573E+03  0.12699999809E+01 0. -1.
       -4    1    3    3    0  502  0.16265891072E+03 -0.72400887879E+03  0.89151519408E+03  0.11599343654E+04  0.12699999809E+01 0.  1.
</event>
<event>
 5   0  0.3211263E-06  0.1899430E+04  0.7818609E-02  0.8655140E-01
       -1   -1    0    0    0  501  0.00000000000E+00  0.00000000000E+00  0.70649446901E+03  0.70649446903E+03  0.50400001928E-02 0.  1.
        1   -1    0    0  501    0  0.00000000000E+00  0.00000000000E+00 -0.12766669538E+04  0.12766669538E+04  0.50400001928E-02 0. -1.
    10030    2    1    2    0    0  0.00000000000E+00  0.00000000000E+00 -0.57017248477E+03  0.19831614228E+04  0.18994295371E+04 0.  0.
        5    1    3    3  502    0 -0.14252402004E+02 -0.36773254633E+03 -0.11991838484E+04  0.12543900306E+04  0.46999998093E+01 0. -1.
       -5    1    3    3    0  502  0.14252402004E+02  0.36773254633E+03  0.62901136362E+03  0.72877139224E+03  0.46999998093E+01 0.  1.
</event>
<event>
 5   0  0.7207648E-06  0.1900508E+04  0.7818609E-02  0.8654604E-01
       -2   -1    0    0    0  501  0.00000000000E+00  0.00000000000E+00  0.72958584865E+03  0.72958584866E+03  0.25500000920E-02 0.  1.
        2   -1    0    0  501    0  0.00000000000E+00  0.00000000000E+00 -0.12376646987E+04  0.12376646987E+04  0.25500000920E-02 0. -1.
    10030    2    1    2    0    0  0.00000000000E+00  0.00000000000E+00 -0.50807885005E+03  0.19672505474E+04  0.19005079843E+04 0.  0.
        4    1    3    3  502    0  0.70406813041E+02  0.16183479977E+03 -0.12205502700E+04  0.12332445809E+04  0.12699999809E+01 0. -1.
       -4    1    3    3    0  502 -0.70406813041E+02 -0.16183479977E+03  0.71247141994E+03  0.73400596651E+03  0.12699999809E+01 0.  1.
</event>
<event>
 5   0  0.3211263E-06  0.1900240E+04  0.7818609E-02  0.8654737E-01
       -1   -1    0    0    0  501  0.00000000000E+00  0.00000000000E+00  0.58217014081E+03  0.58217014083E+03  0.50400001928E-02 0.  1.
        1   -1    0    0  501    0  0.00000000000E+00  0.00000000000E+00 -0.15506265277E+04  0.15506265277E+04  0.50400001928E-02 0. -1.
    10030    2    1    2    0    0  0.00000000000E+00  0.00000000000E+00 -0.96845638687E+03  0.21327966685E+04  0.19002404732E+04 0.  0.
        5    1    3    3  502    0 -0.68114868915E+03  0.65955469941E+03 -0.55278027899E+03  0.10975263391E+04  0.46999998093E+01 0. -1.
       -5    1    3    3    0  502  0.68114868915E+03 -0.65955469941E+03 -0.41567610788E+03  0.10352703294E+04  0.46999998093E+01 0.  1.
</event>
<event>
 5   0  0.6862201E-06  0.1898785E+04  0.7818609E-02  0.8655461E-01
        2   -1    0    0  501    0  0.00000000000E+00  0.00000000000E+00  0.11303076535E+04  0.11303076535E+04  0.25500000920E-02 0. -1.
       -2   -1    0    0    0  501  0.00000000000E+00  0.00000000000E+00 -0.79743419455E+03  0.79743419456E+03  0.25500000920E-02 0.  1.
    10030    2    1    2    0    0  0.00000000000E+00  0.00000000000E+00  0.33287345893E+03  0.19277418480E+04  0.18987848464E+04 0.  0.
        3    1    3    3  502    0  0.65842595604E+02 -0.49335518397E+03 -0.65435490242E+03  0.82214045848E+03  0.10100000352E+00 0.  1.
       -3    1    3    3    0  502 -0.65842595604E+02  0.49335518397E+03  0.98722836135E+03  0.11056013896E+04  0.10100000352E+00 0. -1.
</event>
<event>
 5   0  0.6862201E-06  0.1899187E+04  0.7818609E-02  0.8655261E-01
        2   -1    0    0  501    0  0.00000000000E+00  0.00000000000E+00  0.16581904587E+04  0.16581904587E+04  0.25500000920E-02 0.  1.
       -2   -1    0    0    0  501  0.00000000000E+00  0.00000000000E+00 -0.54380238236E+03  0.54380238237E+03  0.25500000920E-02 0. -1.
    10030    2    1    2    0    0  0.00000000000E+00  0.00000000000E+00  0.11143880763E+04  0.22019928410E+04  0.18991871122E+04 0.  0.
        3    1    3    3  502    0 -0.41048608808E+02 -0.73862220226E+03  0.12475039641E+04  0.14503495774E+04  0.10100000352E+00 0.  1.
       -3    1    3    3    0  502  0.41048608808E+02  0.73862220226E+03 -0.13311588783E+03  0.75164326362E+03  0.10100000352E+00 0. -1.
</event>
<event>
 5   0  0.2527750E-06  0.1899841E+04  0.7818609E-02  0.8654935E-01
       -3   -1    0    0    0  501  0.00000000000E+00  0.00000000000E+00  0.72468870630E+03  0.72468871334E+03  0.10100000352E+00 0.  1.
        3   -1    0    0  501    0  0.00000000000E+00  0.00000000000E+00 -0.12451539878E+04  0.12451539919E+04  0.10100000352E+00 0. -1.
    10030    2    1    2    0    0  0.00000000000E+00  0.00000000000E+00 -0.52046528151E+03  0.19698427052E+04  0.18998410918E+04 0.  0.
        4    1    3    3  502    0  0.60388472520E+03  0.69880155707E+03 -0.29905623634E+02  0.92406511497E+03  0.12699999809E+01 0.  1.
       -4    1    3    3    0  502 -0.60388472520E+03 -0.69880155707E+03 -0.49055965787E+03  0.10457775903E+04  0.12699999809E+01 0. -1.
</event>
<event>
 5   0  0.3211263E-06  0.1900754E+04  0.7818609E-02  0.8654481E-01
       -1   -1    0    0    0  501  0.00000000000E+00  0.00000000000E+00  0.70159239695E+03  0.70159239697E+03  0.50400001928E-02 0.  1.
        1   -1    0    0  501    0  0.00000000000E+00  0.00000000000E+00 -0.12873809319E+04  0.12873809320E+04  0.50400001928E-02 0. -1.
    10030    2    1    2    0    0  0.00000000000E+00  0.00000000000E+00 -0.58578853500E+03  0.19889733289E+04  0.19007542438E+04 0.  0.
        5    1    3    3  502    0  0.32236164459E+02  0.94505124375E+03 -0.19343792972E+03  0.96519497836E+03  0.46999998093E+01 0. -1.
       -5    1    3    3    0  502 -0.32236164459E+02 -0.94505124375E+03 -0.39235060528E+03  0.10237783506E+04  0.46999998093E+01 0.  1.
</event>
<event>
 5   0  0.6862201E-06  0.1899395E+04  0.7818609E-02  0.8655157E-01
       -2   -1    0    0    0  501  0.00000000000E+00  0.00000000000E+00  0.48488232603E+03  0.48488232604E+03  0.25500000920E-02 0.  1.
        2   -1    0    0  501    0  0.00000000000E+00  0.00000000000E+00 -0.18600915610E+04  0.18600915610E+04  0.25500000920E-02 0. -1.
    10030    2    1    2    0    0  0.00000000000E+00  0.00000000000E+00 -0.13752092350E+04  0.23449738870E+04  0.18993951908E+04 0.  0.
        3    1    3    3  502    0  0.36193520954E+03  0.77212166997E+03 -0.12037112020E+04  0.14751574957E+04  0.10100000352E+00 0. -1.
       -3    1    3    3    0  502 -0.36193520954E+03 -0.77212166997E+03 -0.17149803299E+03  0.86981639134E+03  0.10100000352E+00 0.  1.
</event>
<event>
 5   0  0.2527750E-06  0.1898690E+04  0.7818609E-02  0.8655509E-01
        3   -1    0    0  501    0  0.00000000000E+00  0.00000000000E+00  0.13901774138E+04  0.13901774174E+04  0.10100000352E+00 0. -1.
       -3   -1    0    0    0  501  0.00000000000E+00  0.00000000000E+00 -0.64830266499E+03  0.64830267286E+03  0.10100000352E+00 0.  1.
    10030    2    1    2    0    0  0.00000000000E+00  0.00000000000E+00  0.74187474878E+03  0.20384800903E+04  0.18986897945E+04 0.  0.
        1    1    3    3  502    0 -0.39959955687E+02 -0.58278751862E+02  0.13873500593E+04  0.13891484435E+04  0.50400001928E-02 0. -1.
       -1    1    3    3    0  502  0.39959955687E+02  0.58278751862E+02 -0.64547531054E+03  0.64933164679E+03  0.50400001928E-02 0.  1.
</event>
<event>
 5   0  0.6984466E-06  0.1899927E+04  0.7818609E-02  0.8654893E-01
       -2   -1    0    0    0  501  0.00000000000E+00  0.00000000000E+00  0.13083792420E+04  0.13083792420E+04  0.25500000920E-02 0. -1.
        2   -1    0    0  501    0  0.00000000000E+00  0.00000000000E+00 -0.68973170660E+03  0.68973170660E+03  0.25500000920E-02 0.  1.
    10030    2    1    2    0    0  0.00000000000E+00  0.00000000000E+00  0.61864753541E+03  0.19981109486E+04  0.18999269959E+04 0.  0.
        2    1    3    3  502    0 -0.18680685104E+03  0.88356373292E+02 -0.66580724481E+03  0.69713910774E+03  0.25500000920E-02 0.  1.
       -2    1    3    3    0  502  0.18680685104E+03 -0.88356373292E+02  0.12844547802E+04  0.13009718409E+04  0.25500000920E-02 0. -1.
</event>
<event>
 5   0  0.6870370E-06  0.1902292E+04  0.7818609E-02  0.8653716E-01
        2   -1    0    0  501    0  0.00000000000E+00  0.00000000000E+00  0.18792031061E+04  0.18792031061E+04  0.25500000920E-02 0. -1.
       -2   -1    0    0    0  501  0.00000000000E+00  0.00000000000E+00 -0.48141620985E+03  0.48141620986E+03  0.25500000920E-02 0.  1.
    10030    2    1    2    0    0  0.00000000000E+00  0.00000000000E+00  0.13977868962E+04  0.23606193159E+04  0.19022921299E+04 0.  0.
        1    1    3    3  502    0  0.73282767104E+03 -0.55864773773E+01 -0.53496754839E+02  0.73479895685E+03  0.50400001928E-02 0.  1.
       -1    1    3    3    0  502 -0.73282767104E+03  0.55864773773E+01  0.14512836511E+04  0.16258203591E+04  0.50400001928E-02 0. -1.
</event>
<event>
 5   0  0.3398807E-06  0.1900117E+04  0.7818609E-02  0.8654798E-01
       -1   -1    0    0    0  501  0.00000000000E+00  0.00000000000E+00  0.69303639890E+03  0.69303639892E+03  0.50400001928E-02 0.  1.
        1   -1    0    0  501    0  0.00000000000E+00  0.00000000000E+00 -0.13024011304E+04  0.13024011304E+04  0.50400001928E-02 0. -1.
    10030    2    1    2    0    0  0.00000000000E+00  0.00000000000E+00 -0.60936473153E+03  0.19954375294E+04  0.19001172484E+04 0.  0.
        1    1    3    3  502    0  0.92760561733E+02 -0.93700566668E+03 -0.43763202125E+03  0.10383187985E+04  0.50400001928E-02 0.  1.
       -1    1    3    3    0  502 -0.92760561733E+02  0.93700566668E+03 -0.17173271028E+03  0.95711873089E+03  0.50400001928E-02 0. -1.
</event>
<event>
 5   0  0.7207648E-06  0.1898825E+04  0.7818609E-02  0.8655441E-01
        2   -1    0    0  501    0  0.00000000000E+00  0.00000000000E+00  0.12172072064E+04  0.12172072064E+04  0.25500000920E-02 0.  1.
       -2   -1    0    0    0  501  0.00000000000E+00  0.00000000000E+00 -0.74053471360E+03  0.74053471361E+03  0.25500000920E-02 0. -1.
    10030    2    1    2    0    0  0.00000000000E+00  0.00000000000E+00  0.47667249280E+03  0.19577419200E+04  0.18988250999E+04 0.  0.
        4    1    3    3  502    0 -0.57734386773E+03  0.68379795497E+03  0.56515260702E+03  0.10584444562E+04  0.12699999809E+01 0.  1.
       -4    1    3    3    0  502  0.57734386773E+03 -0.68379795497E+03 -0.88480114222E+02  0.89929746377E+03  0.12699999809E+01 0. -1.
</event>
<event>
 5   0  0.7207648E-06  0.1899859E+04  0.7818609E-02  0.8654927E-01
        2   -1    0    0  501    0  0.00000000000E+00  0.00000000000E+00  0.15755807102E+04  0.15755807102E+04  0.25500000920E-02 0. -1.
       -2   -1    0    0    0  501  0.00000000000E+00  0.00000000000E+00 -0.57271936949E+03  0.57271936950E+03  0.25500000920E-02 0.  1.
    10030    2    1    2    0    0  0.00000000000E+00  0.00000000000E+00  0.10028613407E+04  0.21483000797E+04  0.18998585115E+04 0.  0.
        4    1    3    3  502    0 -0.66272365875E+03  0.25575624688E+02  0.12704423625E+04  0.14331371776E+04  0.12699999809E+01 0. -1.
       -4    1    3    3    0  502  0.66272365875E+03 -0.25575624688E+02 -0.26758102179E+03  0.71516290212E+03  0.12699999809E+01 0.  1.
</event>
<event>
 5   0  0.7577180E-06  0.1899336E+04  0.7818609E-02  0.8655187E-01
       -2   -1    0    0    0  501  0.00000000000E+00  0.00000000000E+00  0.69106488275E+03  0.69106488276E+03  0.25500000920E-02 0.  1.
        2   -1    0    0  501    0  0.00000000000E+00  0.00000000000E+00 -0.13050429362E+04  0.13050429362E+04  0.25500000920E-02 0. -1.
    10030    2    1    2    0    0  0.00000000000E+00  0.00000000000E+00 -0.61397805341E+03  0.19961078189E+04  0.18993360352E+04 0.  0.
        5    1    3    3  502    0  0.21421068975E+03  0.89722555377E+03 -0.54420446154E+03  0.10710184405E+04  0.46999998093E+01 0. -1.
       -5    1    3    3    0  502 -0.21421068975E+03 -0.89722555377E+03 -0.69773591871E+02  0.92508937842E+03  0.46999998093E+01 0.  1.
</event>
<event>
 5   0  0.3379108E-06  0.1900298E+04  0.7818609E-02  0.8654708E-01
       -1   -1    0    0    0  501  0.00000000000E+00  0.00000000000E+00  0.37553185445E+03  0.37553185449E+03  0.50400001928E-02 0.  1.
        1   -1    0    0  501    0  0.00000000000E+00  0.00000000000E+00 -0.24040126170E+04  0.24040126170E+04  0.50400001928E-02 0. -1.
    10030    2    1    2    0    0  0.00000000000E+00  0.00000000000E+00 -0.20284807625E+04  0.27795444715E+04  0.19002982042E+04 0.  0.
        4    1    3    3  502    0 -0.69286291189E+03 -0.59800151483E+02 -0.19612074112E+04  0.20808582833E+04  0.12699999809E+01 0.  1.
       -4    1    3    3    0  502  0.69286291189E+03  0.59800151483E+02 -0.67273351357E+02  0.69868618814E+03  0.12699999809E+01 0. -1.
</event>
<event>
 5   0  0.3495279E-06  0.1900301E+04  0.7818609E-02  0.8654706E-01
        1   -1    0    0  501    0  0.00000000000E+00  0.00000000000E+00  0.54280156210E+03  0.54280156212E+03  0.50400001928E-02 0. -1.
       -1   -1    0    0    0  501  0.00000000000E+00  0.00000000000E+00 -0.16631977781E+04  0.16631977781E+04  0.50400001928E-02 0.  1.
    10030    2    1    2    0    0  0.00000000000E+00  0.00000000000E+00 -0.11203962160E+04  0.22059993402E+04  0.19003013993E+04 0.  0.
        2    1    3    3  502    0 -0.69022308015E+03  0.46392128487E+03 -0.10936362703E+04  0.13739254531E+04  0.25500000920E-02 0.  1.
       -2    1    3    3    0  502  0.69022308015E+03 -0.46392128487E+03 -0.26759945693E+02  0.83207388712E+03  0.25500000920E-02 0. -1.
</event>
<event>
 5   0  0.6862201E-06  0.1914895E+04  0.7818609E-02  0.8647478E-01
        2   -1    0    0  501    0  0.00000000000E+00  0.00000000000E+00  0.11863223071E+04  0.11863223071E+04  0.25500000920E-02 0.  1.
       -2   -1    0    0    0  501  0.00000000000E+00  0.00000000000E+00 -0.77272897867E+03  0.77272897867E+03  0.25500000920E-02 0. -1.
    10030    2    1    2    0    0  0.00000000000E+00  0.00000000000E+00  0.41359332840E+03  0.19590512857E+04  0.19148949054E+04 0.  0.
        3    1    3    3  502    0 -0.30051249770E+03 -0.13408009527E+03 -0.71305858033E+03  0.78532654508E+03  0.10100000352E+00 0. -1.
       -3    1    3    3    0  502  0.30051249770E+03  0.13408009527E+03  0.11266519087E+04  0.11737247407E+04  0.10100000352E+00 0.  1.
</event>
<event>
 5   0  0.6870370E-06  0.1904984E+04  0.7818609E-02  0.8652380E-01
        2   -1    0    0  501    0  0.00000000000E+00  0.00000000000E+00  0.13924108799E+04  0.13924108799E+04  0.25500000920E-02 0. -1.
       -2   -1    0    0    0  501  0.00000000000E+00  0.00000000000E+00 -0.65156124257E+03  0.65156124258E+03  0.25500000920E-02 0.  1.
    10030    2    1    2    0    0  0.00000000000E+00  0.00000000000E+00  0.74084963735E+03  0.20439721225E+04  0.19049839507E+04 0.  0.
        1    1    3    3  502    0  0.26324145354E+03 -0.37596139106E+03 -0.52509404336E+03  0.69740001780E+03  0.50400001928E-02 0.  1.
       -1    1    3    3    0  502 -0.26324145354E+03  0.37596139106E+03  0.12659436807E+04  0.13465721047E+04  0.50400001928E-02 0. -1.
</event>
<event>
 5   0  0.7207648E-06  0.1899878E+04  0.7818609E-02  0.8654917E-01
       -2   -1    0    0    0  501  0.00000000000E+00  0.00000000000E+00  0.69721576511E+03  0.69721576511E+03  0.25500000920E-02 0.  1.
        2   -1    0    0  501    0  0.00000000000E+00  0.00000000000E+00 -0.12942684357E+04  0.12942684357E+04  0.25500000920E-02 0. -1.
    10030    2    1    2    0    0  0.00000000000E+00  0.00000000000E+00 -0.59705267056E+03  0.19914842008E+04  0.18998782673E+04 0.  0.
        4    1    3    3  502    0  0.82544537228E+02 -0.91045123790E+03 -0.27916465024E+02  0.91461248578E+03  0.12699999809E+01 0.  1.
       -4    1    3    3    0  502 -0.82544537228E+02  0.91045123790E+03 -0.56913620553E+03  0.10768717150E+04  0.12699999809E+01 0. -1.
</event>
<event>
 5   0  0.3236653E-06  0.1903762E+04  0.7818609E-02  0.8652986E-01
        1   -1    0    0  501    0  0.00000000000E+00  0.00000000000E+00  0.21508274404E+04  0.21508274404E+04  0.50400001928E-02 0.  1.
       -1   -1    0    0    0  501  0.00000000000E+00  0.00000000000E+00 -0.42126914998E+03  0.42126915001E+03  0.50400001928E-02 0. -1.
    10030    2    1    2    0    0  0.00000000000E+00  0.00000000000E+00  0.17295582904E+04  0.25720965904E+04  0.19037617998E+04 0.  0.
        3    1    3    3  502    0  0.43288918910E+03  0.37011454617E+03 -0.16566386397E+03  0.59314614839E+03  0.10100000352E+00 0. -1.
       -3    1    3    3    0  502 -0.43288918910E+03 -0.37011454617E+03  0.18952221544E+04  0.19789504420E+04  0.10100000352E+00 0.  1.
</event>
<event>
 5   0  0.3398807E-06  0.1900236E+04  0.7818609E-02  0.8654739E-01
        1   -1    0    0  501    0  0.00000000000E+00  0.00000000000E+00  0.14480212580E+04  0.14480212580E+04  0.50400001928E-02 0.  1.
       -1   -1    0    0    0  501  0.00000000000E+00  0.00000000000E+00 -0.62341915988E+03  0.62341915990E+03  0.50400001928E-02 0. -1.
    10030    2    1    2    0    0  0.00000000000E+00  0.00000000000E+00  0.82460209816E+03  0.20714404179E+04  0.19002359813E+04 0.  0.
        1    1    3    3  502    0  0.12729726975E+03 -0.85074336281E+03 -0.27475959892E+02  0.86065311982E+03  0.50400001928E-02 0.  1.
       -1    1    3    3    0  502 -0.12729726975E+03  0.85074336281E+03  0.85207805805E+03  0.12107872981E+04  0.50400001928E-02 0. -1.
</event>
<event>
 5   0  0.3379108E-06  0.1903810E+04  0.7818609E-02  0.8652962E-01
        1   -1    0    0  501    0  0.00000000000E+00  0.00000000000E+00  0.20417579908E+04  0.20417579908E+04  0.50400001928E-02 0.  1.
       -1   -1    0    0    0  501  0.00000000000E+00  0.00000000000E+00 -0.44379561012E+03  0.44379561014E+03  0.50400001928E-02 0. -1.
    10030    2    1    2    0    0  0.00000000000E+00  0.00000000000E+00  0.15979623807E+04  0.24855536010E+04  0.19038101095E+04 0.  0.
        4    1    3    3  502    0  0.77512986814E+03 -0.33656388932E+03  0.13710823141E+04  0.16105806062E+04  0.12699999809E+01 0.  1.
       -4    1    3    3    0  502 -0.77512986814E+03  0.33656388932E+03  0.22688006660E+03  0.87497299478E+03  0.12699999809E+01 0. -1.
</event>
<event>
 5   0  0.6870370E-06  0.1900002E+04  0.7818609E-02  0.8654855E-01
        2   -1    0    0  501    0  0.00000000000E+00  0.00000000000E+00  0.19475375579E+04  0.19475375579E+04  0.25500000920E-02 0.  1.
       -2   -1    0    0    0  501  0.00000000000E+00  0.00000000000E+00 -0.46340690768E+03  0.46340690769E+03  0.25500000920E-02 0. -1.
    10030    2    1    2    0    0  0.00000000000E+00  0.00000000000E+00  0.14841306502E+04  0.24109444656E+04  0.19000024814E+04 0.  0.
        1    1    3    3  502    0  0.57873375146E+03  0.54386800003E+03  0.14035801011E+04  0.16126878981E+04  0.50400001928E-02 0.  1.
       -1    1    3    3    0  502 -0.57873375146E+03 -0.54386800003E+03  0.80550549139E+02  0.79825656748E+03  0.50400001928E-02 0. -1.
</event>
<event>
 5   0  0.7207648E-06  0.1900249E+04  0.7818609E-02  0.8654733E-01
       -2   -1    0    0    0  501  0.00000000000E+00  0.00000000000E+00  0.91507767577E+03  0.91507767577E+03  0.25500000920E-02 0.  1.
        2   -1    0    0  501    0  0.00000000000E+00  0.00000000000E+00 -0.98651330870E+03  0.98651330871E+03  0.25500000920E-02 0. -1.
    10030    2    1    2    0    0  0.00000000000E+00  0.00000000000E+00 -0.71435632933E+02  0.19015909845E+04  0.19002487265E+04 0.  0.
        4    1    3    3  502    0 -0.48778684788E+03 -0.81387801985E+03 -0.84755007181E+02  0.95263763536E+03  0.12699999809E+01 0.  1.
       -4    1    3    3    0  502  0.48778684788E+03  0.81387801985E+03  0.13319374248E+02  0.94895334912E+03  0.12699999809E+01 0. -1.
</event>
<event>
 5   0  0.3211263E-06  0.1898960E+04  0.7818609E-02  0.8655374E-01
        1   -1    0    0  501    0  0.00000000000E+00  0.00000000000E+00  0.12686746175E+04  0.12686746175E+04  0.50400001928E-02 0.  1.
       -1   -1    0    0    0  501  0.00000000000E+00  0.00000000000E+00 -0.71059391330E+03  0.71059391332E+03  0.50400001928E-02 0. -1.
    10030    2    1    2    0    0  0.00000000000E+00  0.00000000000E+00  0.55808070415E+03  0.19792685308E+04  0.18989602009E+04 0.  0.
        5    1    3    3  502    0 -0.77600227018E+03  0.45825681763E+03 -0.32448593406E+02  0.90180587459E+03  0.46999998093E+01 0. -1.
       -5    1    3    3    0  502  0.77600227018E+03 -0.45825681763E+03  0.59052929756E+03  0.10774626562E+04  0.46999998093E+01 0.  1.
</event>
<event>
 5   0  0.6870370E-06  0.1897530E+04  0.7818609E-02  0.8656087E-01
        2   -1    0    0  501    0  0.00000000000E+00  0.00000000000E+00  0.11026952303E+04  0.11026952303E+04  0.25500000920E-02 0.  1.
       -2   -1    0    0    0  501  0.00000000000E+00  0.00000000000E+00 -0.81632259839E+03  0.81632259839E+03  0.25500000920E-02 0. -1.
    10030    2    1    2    0    0  0.00000000000E+00  0.00000000000E+00  0.28637263189E+03  0.19190178287E+04  0.18975300109E+04 0.  0.
        1    1    3    3  502    0  0.54625330099E+02 -0.71381790101E+03 -0.48646760358E+03  0.86554644696E+03  0.50400001928E-02 0. -1.
       -1    1    3    3    0  502 -0.54625330099E+02  0.71381790101E+03  0.77284023547E+03  0.10534713817E+04  0.50400001928E-02 0.  1.
</event>
<event>
 5   0  0.3236653E-06  0.1899875E+04  0.7818609E-02  0.8654919E-01
        1   -1    0    0  501    0  0.00000000000E+00  0.00000000000E+00  0.99949917282E+03  0.99949917283E+03  0.50400001928E-02 0. -1.
       -1   -1    0    0    0  501  0.00000000000E+00  0.00000000000E+00 -0.90283302590E+03  0.90283302592E+03  0.50400001928E-02 0.  1.
    10030    2    1    2    0    0  0.00000000000E+00  0.00000000000E+00  0.96666146915E+02  0.19023321987E+04  0.18998745881E+04 0.  0.
        3    1    3    3  502    0 -0.79361001647E+03  0.35123930261E+03  0.43509033939E+03  0.97081899423E+03  0.10100000352E+00 0. -1.
       -3    1    3    3    0  502  0.79361001647E+03 -0.35123930261E+03 -0.33842419247E+03  0.93151320452E+03  0.10100000352E+00 0.  1.
</event>
<event>
 5   0  0.3211263E-06  0.1900360E+04  0.7818609E-02  0.8654677E-01
        1   -1    0    0  501    0  0.00000000000E+00  0.00000000000E+00  0.10308628439E+04  0.10308628439E+04  0.50400001928E-02 0. -1.
       -1   -1    0    0    0  501  0.00000000000E+00  0.00000000000E+00 -0.87581180662E+03  0.87581180663E+03  0.50400001928E-02 0.  1.
    10030    2    1    2    0    0  0.00000000000E+00  0.00000000000E+00  0.15505103730E+03  0.19066746506E+04  0.19003598078E+04 0.  0.
        5    1    3    3  502    0 -0.64462332382E+03 -0.58791120555E+03  0.45512828133E+03  0.98404403239E+03  0.46999998093E+01 0. -1.
       -5    1    3    3    0  502  0.64462332382E+03  0.58791120555E+03 -0.30007724403E+03  0.92263061818E+03  0.46999998093E+01 0.  1.
</event>
<event>
 5   0  0.3211263E-06  0.1902451E+04  0.7818609E-02  0.8653637E-01
       -1   -1    0    0    0  501  0.00000000000E+00  0.00000000000E+00  0.38643320909E+03  0.38643320912E+03  0.50400001928E-02 0.  1.
        1   -1    0    0  501    0  0.00000000000E+00  0.00000000000E+00 -0.23414904731E+04  0.23414904731E+04  0.50400001928E-02 0. -1.
    10030    2    1    2    0    0  0.00000000000E+00  0.00000000000E+00 -0.19550572640E+04  0.27279236822E+04  0.19024507117E+04 0.  0.
        5    1    3    3  502    0  0.51622365425E+03 -0.56999412839E+03 -0.17476572675E+03  0.78863509740E+03  0.46999998093E+01 0.  1.
       -5    1    3    3    0  502 -0.51622365425E+03  0.56999412839E+03 -0.17802915372E+04  0.19392885848E+04  0.46999998093E+01 0. -1.
</event>
<event>
 5   0  0.2527750E-06  0.1900279E+04  0.7818609E-02  0.8654717E-01
        4   -1    0    0  501    0  0.00000000000E+00  0.00000000000E+00  0.80306818973E+03  0.80306919394E+03  0.12699999809E+01 0.  1.
       -4   -1    0    0    0  501  0.00000000000E+00  0.00000000000E+00 -0.11241433627E+04  0.11241440801E+04  0.12699999809E+01 0. -1.
    10030    2    1    2    0    0  0.00000000000E+00  0.00000000000E+00 -0.32107517299E+03  0.19272132740E+04  0.19002793839E+04 0.  0.
        1    1    3    3  502    0  0.27297961638E+03  0.19897901659E+03  0.74011194712E+03  0.81355775105E+03  0.50400001928E-02 0.  1.
       -1    1    3    3    0  502 -0.27297961638E+03 -0.19897901659E+03 -0.10611871201E+04  0.11136555230E+04  0.50400001928E-02 0. -1.
</event>
<event>
 5   0  0.7577180E-06  0.1900008E+04  0.7818609E-02  0.8654852E-01
        2   -1    0    0  501    0  0.00000000000E+00  0.00000000000E+00  0.58190522378E+03  0.58190522379E+03  0.25500000920E-02 0.  1.
       -2   -1    0    0    0  501  0.00000000000E+00  0.00000000000E+00 -0.15509529151E+04  0.15509529151E+04  0.25500000920E-02 0. -1.
    10030    2    1    2    0    0  0.00000000000E+00  0.00000000000E+00 -0.96904769128E+03  0.21328581389E+04  0.19000080033E+04 0.  0.
        5    1    3    3  502    0 -0.12878974779E+03 -0.30943403628E+01 -0.15410888671E+04  0.15464712607E+04  0.46999998093E+01 0. -1.
       -5    1    3    3    0  502  0.12878974779E+03  0.30943403628E+01  0.57204117577E+03  0.58638687814E+03  0.46999998093E+01 0.  1.
</event>
<event>
 5   0  0.7207648E-06  0.1900564E+04  0.7818609E-02  0.8654576E-01
        2   -1    0    0  501    0  0.00000000000E+00  0.00000000000E+00  0.90594267384E+03  0.90594267384E+03  0.25500000920E-02 0. -1.
       -2   -1    0    0    0  501  0.00000000000E+00  0.00000000000E+00 -0.99679107301E+03  0.99679107302E+03  0.25500000920E-02 0.  1.
    10030    2    1    2    0    0  0.00000000000E+00  0.00000000000E+00 -0.90848399177E+02  0.19027337469E+04  0.19005636742E+04 0.  0.
        4    1    3    3  502    0 -0.20461569461E+03  0.41354440285E+02 -0.97355132861E+03  0.99568146239E+03  0.12699999809E+01 0.  1.
       -4    1    3    3    0  502  0.20461569461E+03 -0.41354440285E+02  0.88270292944E+03  0.90705228446E+03  0.12699999809E+01 0. -1.
</event>
<event>
 5   0  0.3398807E-06  0.1899970E+04  0.7818609E-02  0.8654872E-01
        1   -1    0    0  501    0  0.00000000000E+00  0.00000000000E+00  0.11217394764E+04  0.11217394764E+04  0.50400001928E-02 0. -1.
       -1   -1    0    0    0  501  0.00000000000E+00  0.00000000000E+00 -0.80452818812E+03  0.80452818813E+03  0.50400001928E-02 0.  1.
    10030    2    1    2    0    0  0.00000000000E+00  0.00000000000E+00  0.31721128828E+03  0.19262676645E+04  0.18999695034E+04 0.  0.
        1    1    3    3  502    0  0.65031815756E+03  0.35668830778E+03 -0.44318480780E+03  0.86403300218E+03  0.50400001928E-02 0.  1.
       -1    1    3    3    0  502 -0.65031815756E+03 -0.35668830778E+03  0.76039609607E+03  0.10622346624E+04  0.50400001928E-02 0. -1.
</event>
<event>
 5   0  0.7577180E-06  0.1899484E+04  0.7818609E-02  0.8655113E-01
       -2   -1    0    0    0  501  0.00000000000E+00  0.00000000000E+00  0.75491252592E+03  0.75491252592E+03  0.25500000920E-02 0.  1.
        2   -1    0    0  501    0  0.00000000000E+00  0.00000000000E+00 -0.11948539594E+04  0.11948539594E+04  0.25500000920E-02 0. -1.
    10030    2    1    2    0    0  0.00000000000E+00  0.00000000000E+00 -0.43994143351E+03  0.19497664853E+04  0.18994843728E+04 0.  0.
        5    1    3    3  502    0 -0.18319732513E+03 -0.16999746677E+03  0.72054140956E+03  0.76266795628E+03  0.46999998093E+01 0.  1.
       -5    1    3    3    0  502  0.18319732513E+03  0.16999746677E+03 -0.11604828431E+04  0.11870985291E+04  0.46999998093E+01 0. -1.
</event>
<event>
 5   0  0.3211263E-06  0.1899837E+04  0.7818609E-02  0.8654938E-01
       -1   -1    0    0    0  501  0.00000000000E+00  0.00000000000E+00  0.12048383152E+04  0.12048383152E+04  0.50400001928E-02 0.  1.
        1   -1    0    0  501    0  0.00000000000E+00  0.00000000000E+00 -0.74893448106E+03  0.74893448108E+03  0.50400001928E-02 0. -1.
    10030    2    1    2    0    0  0.00000000000E+00  0.00000000000E+00  0.45590383414E+03  0.19537727963E+04  0.18998367913E+04 0.  0.
        5    1    3    3  502    0 -0.19912861429E+03 -0.22060289159E+03  0.11557881074E+04  0.11933926764E+04  0.46999998093E+01 0.  1.
       -5    1    3    3    0  502  0.19912861429E+03  0.22060289159E+03 -0.69988427326E+03  0.76038011992E+03  0.46999998093E+01 0. -1.
</event>
<event>
 5   0  0.6862201E-06  0.1900211E+04  0.7818609E-02  0.8654751E-01
       -2   -1    0    0    0  501  0.00000000000E+00  0.00000000000E+00  0.64619649495E+03  0.64619649495E+03  0.25500000920E-02 0.  1.
        2   -1    0    0  501    0  0.00000000000E+00  0.00000000000E+00 -0.13969438246E+04  0.13969438246E+04  0.25500000920E-02 0. -1.
    10030    2    1    2    0    0  0.00000000000E+00  0.00000000000E+00 -0.75074732966E+03  0.20431403196E+04  0.19002107284E+04 0.  0.
        3    1    3    3  502    0  0.39335539153E+03  0.81454377609E+03 -0.62838053503E+02  0.90672965011E+03  0.10100000352E+00 0.  1.
       -3    1    3    3    0  502 -0.39335539153E+03 -0.81454377609E+03 -0.68790927616E+03  0.11364106695E+04  0.10100000352E+00 0. -1.
</event>
<event>
 5   0  0.7577180E-06  0.1902159E+04  0.7818609E-02  0.8653782E-01
       -2   -1    0    0    0  501  0.00000000000E+00  0.00000000000E+00  0.65802365863E+03  0.65802365864E+03  0.25500000920E-02 0.  1.
        2   -1    0    0  501    0  0.00000000000E+00  0.00000000000E+00 -0.13746500558E+04  0.13746500558E+04  0.25500000920E-02 0. -1.
    10030    2    1    2    0    0  0.00000000000E+00  0.00000000000E+00 -0.71662639720E+03  0.20326737145E+04  0.19021590460E+04 0.  0.
        5    1    3    3  502    0  0.30164980175E+03  0.73918968959E+03  0.19400225000E+03  0.82161606794E+03  0.46999998093E+01 0.  1.
       -5    1    3    3    0  502 -0.30164980175E+03 -0.73918968959E+03 -0.91062864721E+03  0.12110576465E+04  0.46999998093E+01 0. -1.
</event>
<event>
 5   0  0.3379108E-06  0.1896880E+04  0.7818609E-02  0.8656411E-01
       -1   -1    0    0    0  501  0.00000000000E+00  0.00000000000E+00  0.59229032670E+03  0.59229032672E+03  0.50400001928E-02 0. -1.
        1   -1    0    0  501    0  0.00000000000E+00  0.00000000000E+00 -0.15187455146E+04  0.15187455146E+04  0.50400001928E-02 0.  1.
    10030    2    1    2    0    0  0.00000000000E+00  0.00000000000E+00 -0.92645518792E+03  0.21110358413E+04  0.18968798349E+04 0.  0.
        4    1    3    3  502    0 -0.14221723327E+03 -0.88421661744E+03 -0.81068013682E+03  0.12080019309E+04  0.12699999809E+01 0.  1.
       -4    1    3    3    0  502  0.14221723327E+03  0.88421661744E+03 -0.11577505110E+03  0.90303391041E+03  0.12699999809E+01 0. -1.
</event>
<event>
 5   0  0.6862201E-06  0.1902734E+04  0.7818609E-02  0.8653497E-01
       -2   -1    0    0    0  501  0.00000000000E+00  0.00000000000E+00  0.96106437117E+03  0.96106437118E+03  0.25500000920E-02 0.  1.
        2   -1    0    0  501    0  0.00000000000E+00  0.00000000000E+00 -0.94176729110E+03  0.94176729110E+03  0.25500000920E-02 0. -1.
    10030    2    1    2    0    0  0.00000000000E+00  0.00000000000E+00  0.19297080077E+02  0.19028316623E+04  0.19027338116E+04 0.  0.
        3    1    3    3  502    0  0.17890485824E+03 -0.17369927852E+02 -0.92463197872E+03  0.94194106448E+03  0.10100000352E+00 0. -1.
       -3    1    3    3    0  502 -0.17890485824E+03  0.17369927852E+02  0.94392905879E+03  0.96089059779E+03  0.10100000352E+00 0.  1.
</event>
<event>
 5   0  0.6984466E-06  0.1899181E+04  0.7818609E-02  0.8655264E-01
        2   -1    0    0  501    0  0.00000000000E+00  0.00000000000E+00  0.19937579138E+04  0.19937579138E+04  0.25500000920E-02 0.  1.
       -2   -1    0    0    0  501  0.00000000000E+00  0.00000000000E+00 -0.45227285485E+03  0.45227285485E+03  0.25500000920E-02 0. -1.
    10030    2    1    2    0    0  0.00000000000E+00  0.00000000000E+00  0.15414850590E+04  0.24460307687E+04  0.18991814906E+04 0.  0.
        2    1    3    3  502    0 -0.22181323930E+03 -0.89667540443E+03  0.48711881642E+03  0.10442761298E+04  0.25500000920E-02 0. -1.
       -2    1    3    3    0  502  0.22181323930E+03  0.89667540443E+03  0.10543662426E+04  0.14017546388E+04  0.25500000920E-02 0.  1.
</event>
<event>
 5   0  0.7207648E-06  0.1900199E+04  0.7818609E-02  0.8654757E-01
       -2   -1    0    0    0  501  0.00000000000E+00  0.00000000000E+00  0.18938632413E+04  0.18938632413E+04  0.25500000920E-02 0. -1.
        2   -1    0    0  501    0  0.00000000000E+00  0.00000000000E+00 -0.47663915235E+03  0.47663915236E+03  0.25500000920E-02 0.  1.
    10030    2    1    2    0    0  0.00000000000E+00  0.00000000000E+00  0.14172240890E+04  0.23705023937E+04  0.19001993264E+04 0.  0.
        4    1    3    3  502    0 -0.32410193175E+03 -0.89263718788E+03  0.74486578636E+03  0.12069257906E+04  0.12699999809E+01 0. -1.
       -4    1    3    3    0  502  0.32410193175E+03  0.89263718788E+03  0.67235830260E+03  0.11635766031E+04  0.12699999809E+01 0.  1.
</event>
<event>
 5   0  0.6862201E-06  0.1898136E+04  0.7818609E-02  0.8655785E-01
       -2   -1    0    0    0  501  0.00000000000E+00  0.00000000000E+00  0.70613124214E+03  0.70613124215E+03  0.25500000920E-02 0.  1.
        2   -1    0    0  501    0  0.00000000000E+00  0.00000000000E+00 -0.12755844188E+04  0.12755844188E+04  0.25500000920E-02 0. -1.
    10030    2    1    2    0    0  0.00000000000E+00  0.00000000000E+00 -0.56945317666E+03  0.19817156610E+04  0.18981359383E+04 0.  0.
        3    1    3    3  502    0  0.31178115732E+03 -0.48071882841E+03  0.50518038933E+03  0.76387519792E+03  0.10100000352E+00 0.  1.
       -3    1    3    3    0  502 -0.31178115732E+03  0.48071882841E+03 -0.10746335660E+04  0.12178404630E+04  0.10100000352E+00 0. -1.
</event>
<event>
 5   0  0.6870370E-06  0.1899452E+04  0.7818609E-02  0.8655129E-01
       -2   -1    0    0    0  501  0.00000000000E+00  0.00000000000E+00  0.60195698478E+03  0.60195698479E+03  0.25500000920E-02 0.  1.
        2   -1    0    0  501    0  0.00000000000E+00  0.00000000000E+00 -0.14984120225E+04  0.14984120225E+04  0.25500000920E-02 0. -1.
    10030    2    1    2    0    0  0.00000000000E+00  0.00000000000E+00 -0.89645503771E+03  0.21003690073E+04  0.18994521137E+04 0.  0.
        1    1    3    3  502    0  0.25312157018E+02 -0.21625718635E+03  0.57398573390E+03  0.61389534832E+03  0.50400001928E-02 0.  1.
       -1    1    3    3    0  502 -0.25312157018E+02  0.21625718635E+03 -0.14704407716E+04  0.14864736590E+04  0.50400001928E-02 0. -1.
</event>
<event>
 5   0  0.6870370E-06  0.1899469E+04  0.7818609E-02  0.8655121E-01
       -2   -1    0    0    0  501  0.00000000000E+00  0.00000000000E+00  0.13291323887E+04  0.13291323887E+04  0.25500000920E-02 0.  1.
        2   -1    0    0  501    0  0.00000000000E+00  0.00000000000E+00 -0.67863486603E+03  0.67863486603E+03  0.25500000920E-02 0. -1.
    10030    2    1    2    0    0  0.00000000000E+00  0.00000000000E+00  0.65049752269E+03  0.20077672547E+04  0.18994689579E+04 0.  0.
        1    1    3    3  502    0  0.47487312471E+03  0.79799177160E+03  0.53585812172E+03  0.10721190600E+04  0.50400001928E-02 0.  1.
       -1    1    3    3    0  502 -0.47487312471E+03 -0.79799177160E+03  0.11463940097E+03  0.93564819478E+03  0.50400001928E-02 0. -1.
</event>
<event>
 5   0  0.3398807E-06  0.1900380E+04  0.7818609E-02  0.8654667E-01
       -1   -1    0    0    0  501  0.00000000000E+00  0.00000000000E+00  0.68329316538E+03  0.68329316540E+03  0.50400001928E-02 0.  1.
        1   -1    0    0  501    0  0.00000000000E+00  0.00000000000E+00 -0.13213371817E+04  0.13213371817E+04  0.50400001928E-02 0. -1.
    10030    2    1    2    0    0  0.00000000000E+00  0.00000000000E+00 -0.63804401635E+03  0.20046303471E+04  0.19003796099E+04 0.  0.
        1    1    3    3  502    0  0.30328732297E+03 -0.75561038228E+03  0.19767576701E+03  0.83785795871E+03  0.50400001928E-02 0.  1.
       -1    1    3    3    0  502 -0.30328732297E+03  0.75561038228E+03 -0.83571978336E+03  0.11667723884E+04  0.50400001928E-02 0. -1.
</event>
<event>
 5   0  0.3495279E-06  0.1900598E+04  0.7818609E-02  0.8654559E-01
       -1   -1    0    0    0  501  0.00000000000E+00  0.00000000000E+00  0.82648277629E+03  0.82648277630E+03  0.50400001928E-02 0. -1.
        1   -1    0    0  501    0  0.00000000000E+00  0.00000000000E+00 -0.10926646823E+04  0.10926646823E+04  0.50400001928E-02 0.  1.
    10030    2    1    2    0    0  0.00000000000E+00  0.00000000000E+00 -0.26618190601E+03  0.19191474586E+04  0.19005983692E+04 0.  0.
        2    1    3    3  502    0 -0.89255576391E+02  0.33794094052E+03 -0.10253996405E+04  0.10833351558E+04  0.25500000920E-02 0.  1.
       -2    1    3    3    0  502  0.89255576391E+02 -0.33794094052E+03  0.75921773444E+03  0.83581230279E+03  0.25500000920E-02 0. -1.
</event>
<event>
 5   0  0.6870370E-06  0.1899932E+04  0.7818609E-02  0.8654890E-01
        2   -1    0    0  501    0  0.00000000000E+00  0.00000000000E+00  0.68905041031E+03  0.68905041031E+03  0.25500000920E-02 0. -1.
       -2   -1    0    0    0  501  0.00000000000E+00  0.00000000000E+00 -0.13096797914E+04  0.13096797914E+04  0.25500000920E-02 0.  1.
    10030    2    1    2    0    0  0.00000000000E+00  0.00000000000E+00 -0.62062938105E+03  0.19987302017E+04  0.18999319963E+04 0.  0.
        1    1    3    3  502    0  0.90688348025E+03  0.18899620264E+03 -0.53168074756E+03  0.10681018812E+04  0.50400001928E-02 0. -1.
       -1    1    3    3    0  502 -0.90688348025E+03 -0.18899620264E+03 -0.88948633491E+02  0.93062832043E+03  0.50400001928E-02 0.  1.
</event>
<event>
 5   0  0.3211263E-06  0.1899766E+04  0.7818609E-02  0.8654973E-01
       -1   -1    0    0    0  501  0.00000000000E+00  0.00000000000E+00  0.51929215488E+03  0.51929215491E+03  0.50400001928E-02 0.  1.
        1   -1    0    0  501    0  0.00000000000E+00  0.00000000000E+00 -0.17375141626E+04  0.17375141626E+04  0.50400001928E-02 0. -1.
    10030    2    1    2    0    0  0.00000000000E+00  0.00000000000E+00 -0.12182220077E+04  0.22568063175E+04  0.18997657473E+04 0.  0.
        5    1    3    3  502    0 -0.15240586061E+03 -0.32047950309E+03 -0.16557931738E+04  0.16934012468E+04  0.46999998093E+01 0. -1.
       -5    1    3    3    0  502  0.15240586061E+03  0.32047950309E+03  0.43757116612E+03  0.56340507068E+03  0.46999998093E+01 0.  1.
</event>
<event>
 5   0  0.7577180E-06  0.1898349E+04  0.7818609E-02  0.8655679E-01
        2   -1    0    0  501    0  0.00000000000E+00  0.00000000000E+00  0.11015224178E+04  0.11015224178E+04  0.25500000920E-02 0. -1.
       -2   -1    0    0    0  501  0.00000000000E+00  0.00000000000E+00 -0.81789708095E+03  0.81789708095E+03  0.25500000920E-02 0.  1.
    10030    2    1    2    0    0  0.00000000000E+00  0.00000000000E+00  0.28362533680E+03  0.19194194987E+04  0.18983487246E+04 0.  0.
        5    1    3    3  502    0  0.14046036137E+02 -0.88019190537E+03 -0.21705616588E+03  0.90668106331E+03  0.46999998093E+01 0.  1.
       -5    1    3    3    0  502 -0.14046036137E+02  0.88019190537E+03  0.50068150268E+03  0.10127384354E+04  0.46999998093E+01 0. -1.
</event>
<event>
 5   0  0.3236653E-06  0.1899898E+04  0.7818609E-02  0.8654907E-01
       -1   -1    0    0    0  501  0.00000000000E+00  0.00000000000E+00  0.10673787756E+04  0.10673787756E+04  0.50400001928E-02 0. -1.
        1   -1    0    0  501    0  0.00000000000E+00  0.00000000000E+00 -0.84543833398E+03  0.84543833399E+03  0.50400001928E-02 0.  1.
    10030    2    1    2    0    0  0.00000000000E+00  0.00000000000E+00  0.22194044160E+03  0.19128171096E+04  0.18998978223E+04 0.  0.
        3    1    3    3  502    0 -0.77641202965E+03 -0.53219662042E+03  0.23972274257E+03  0.97134745898E+03  0.10100000352E+00 0.  1.
       -3    1    3    3    0  502  0.77641202965E+03  0.53219662042E+03 -0.17782300972E+02  0.94146965060E+03  0.10100000352E+00 0. -1.
</event>
<event>
 5   0  0.6984466E-06  0.1899813E+04  0.7818609E-02  0.8654949E-01
       -2   -1    0    0    0  501  0.00000000000E+00  0.00000000000E+00  0.10221522007E+04  0.10221522007E+04  0.25500000920E-02 0.  1.
        2   -1    0    0  501    0  0.00000000000E+00  0.00000000000E+00 -0.88276709786E+03  0.88276709786E+03  0.25500000920E-02 0. -1.
    10030    2    1    2    0    0  0.00000000000E+00  0.00000000000E+00  0.13938510288E+03  0.19049192986E+04  0.18998129717E+04 0.  0.
        2    1    3    3  502    0 -0.73594916987E+03  0.59726855226E+03  0.13288119912E+03  0.95708323423E+03  0.25500000920E-02 0.  1.
       -2    1    3    3    0  502  0.73594916987E+03 -0.59726855226E+03  0.65039037565E+01  0.94783606438E+03  0.25500000920E-02 0. -1.
</event>
<event>
 5   0  0.3379108E-06  0.1899841E+04  0.7818609E-02  0.8654936E-01
       -1   -1    0    0    0  501  0.00000000000E+00  0.00000000000E+00  0.80912028533E+03  0.80912028535E+03  0.50400001928E-02 0.  1.
        1   -1    0    0  501    0  0.00000000000E+00  0.00000000000E+00 -0.11152220321E+04  0.11152220321E+04  0.50400001928E-02 0. -1.
    10030    2    1    2    0    0  0.00000000000E+00  0.00000000000E+00 -0.30610174673E+03  0.19243423174E+04  0.18998408026E+04 0.  0.
        4    1    3    3  502    0 -0.32179123368E+02 -0.85495538565E+03  0.26502267795E+03  0.89566893447E+03  0.12699999809E+01 0.  1.
       -4    1    3    3    0  502  0.32179123368E+02  0.85495538565E+03 -0.57112442468E+03  0.10286733830E+04  0.12699999809E+01 0. -1.
</event>
<event>
 5   0  0.3211263E-06  0.1899453E+04  0.7818609E-02  0.8655129E-01
       -1   -1    0    0    0  501  0.00000000000E+00  0.00000000000E+00  0.11640345603E+04  0.11640345603E+04  0.50400001928E-02 0.  1.
        1   -1    0    0  501    0  0.00000000000E+00  0.00000000000E+00 -0.77487430308E+03  0.77487430310E+03  0.50400001928E-02 0. -1.
    10030    2    1    2    0    0  0.00000000000E+00  0.00000000000E+00  0.38916025718E+03  0.19389088634E+04  0.18994530462E+04 0.  0.
        5    1    3    3  502    0 -0.43613356732E+03 -0.80688021530E+03  0.44605126683E+03  0.10199274450E+04  0.46999998093E+01 0.  1.
       -5    1    3    3    0  502  0.43613356732E+03  0.80688021530E+03 -0.56891009646E+02  0.91898141839E+03  0.46999998093E+01 0. -1.
</event>
<event>
 5   0  0.3398807E-06  0.1900479E+04  0.7818609E-02  0.8654618E-01
       -1   -1    0    0    0  501  0.00000000000E+00  0.00000000000E+00  0.14628575112E+04  0.14628575112E+04  0.50400001928E-02 0.  1.
        1   -1    0    0  501    0  0.00000000000E+00  0.00000000000E+00 -0.61725419311E+03  0.61725419313E+03  0.50400001928E-02 0. -1.
    10030    2    1    2    0    0  0.00000000000E+00  0.00000000000E+00  0.84560331808E+03  0.20801117043E+04  0.19004788162E+04 0.  0.
        1    1    3    3  502    0 -0.68032588237E+03 -0.43896789588E+03 -0.12162575313E+03  0.81873618687E+03  0.50400001928E-02 0. -1.
       -1    1    3    3    0  502  0.68032588237E+03  0.43896789588E+03  0.96722907121E+03  0.12613755175E+04  0.50400001928E-02 0.  1.
</event>
<event>
 5   0  0.3495279E-06  0.1899609E+04  0.7818609E-02  0.8655051E-01
       -1   -1    0    0    0  501  0.00000000000E+00  0.00000000000E+00  0.41510431571E+03  0.41510431574E+03  0.50400001928E-02 0.  1.
        1   -1    0    0  501    0  0.00000000000E+00  0.00000000000E+00 -0.21732582654E+04  0.21732582654E+04  0.50400001928E-02 0. -1.
    10030    2    1    2    0    0  0.00000000000E+00  0.00000000000E+00 -0.17581539497E+04  0.25883625812E+04  0.18996093127E+04 0.  0.
        2    1    3    3  502    0 -0.20103986124E+03  0.50165590226E+03  0.18517553468E+03  0.57128421011E+03  0.25500000920E-02 0.  1.
       -2    1    3    3    0  502  0.20103986124E+03 -0.50165590226E+03 -0.19433294844E+04  0.20170783711E+04  0.25500000920E-02 0. -1.
</event>
<event>
 5   0  0.6862201E-06  0.1899715E+04  0.7818609E-02  0.8654998E-01
        2   -1    0    0  501    0  0.00000000000E+00  0.00000000000E+00  0.15303784922E+04  0.15303784922E+04  0.25500000920E-02 0. -1.
       -2   -1    0    0    0  501  0.00000000000E+00  0.00000000000E+00 -0.58954679292E+03  0.58954679293E+03  0.25500000920E-02 0.  1.
    10030    2    1    2    0    0  0.00000000000E+00  0.00000000000E+00  0.94083169929E+03  0.21199252851E+04  0.18997154861E+04 0.  0.
        3    1    3    3  502    0 -0.21365403714E+03  0.72689911151E+03  0.11097101818E+04  0.13436841384E+04  0.10100000352E+00 0. -1.
       -3    1    3    3    0  502  0.21365403714E+03 -0.72689911151E+03 -0.16887848251E+03  0.77624114678E+03  0.10100000352E+00 0.  1.
</event>
<event>
 5   0  0.6870370E-06  0.1906193E+04  0.7818609E-02  0.8651780E-01
        2   -1    0    0  501    0  0.00000000000E+00  0.00000000000E+00  0.16113888242E+04  0.16113888242E+04  0.25500000920E-02 0. -1.
       -2   -1    0    0    0  501  0.00000000000E+00  0.00000000000E+00 -0.56373301335E+03  0.56373301335E+03  0.25500000920E-02 0.  1.
    10030    2    1    2    0    0  0.00000000000E+00  0.00000000000E+00  0.10476558108E+04  0.21751218375E+04  0.19061931461E+04 0.  0.
        1    1    3    3  502    0  0.29343902478E+03  0.15347248588E+03  0.15436336355E+04  0.15787542766E+04  0.50400001928E-02 0. -1.
       -1    1    3    3    0  502 -0.29343902478E+03 -0.15347248588E+03 -0.49597782466E+03  0.59636756095E+03  0.50400001928E-02 0.  1.
</event>
<event>
 5   0  0.3495279E-06  0.1899986E+04  0.7818609E-02  0.8654863E-01
       -1   -1    0    0    0  501  0.00000000000E+00  0.00000000000E+00  0.12554027154E+04  0.12554027154E+04  0.50400001928E-02 0. -1.
        1   -1    0    0  501    0  0.00000000000E+00  0.00000000000E+00 -0.71888203754E+03  0.71888203755E+03  0.50400001928E-02 0.  1.
    10030    2    1    2    0    0  0.00000000000E+00  0.00000000000E+00  0.53652067786E+03  0.19742847530E+04  0.18999857494E+04 0.  0.
        2    1    3    3  502    0  0.71155567784E+03 -0.14664806109E+03 -0.36777832585E+03  0.81429603551E+03  0.25500000920E-02 0.  1.
       -2    1    3    3    0  502 -0.71155567784E+03  0.14664806109E+03  0.90429900370E+03  0.11599887174E+04  0.25500000920E-02 0. -1.
</event>
<event>
 5   0  0.3379108E-06  0.1900156E+04  0.7818609E-02  0.8654779E-01
       -1   -1    0    0    0  501  0.00000000000E+00  0.00000000000E+00  0.11460783507E+04  0.11460783507E+04  0.50400001928E-02 0.  1.
        1   -1    0    0  501    0  0.00000000000E+00  0.00000000000E+00 -0.78759725253E+03  0.78759725255E+03  0.50400001928E-02 0. -1.
    10030    2    1    2    0    0  0.00000000000E+00  0.00000000000E+00  0.35848109820E+03  0.19336756033E+04  0.19001559518E+04 0.  0.
        4    1    3    3  502    0  0.32551388479E+03  0.45605367902E+03 -0.60156382541E+03  0.82208569887E+03  0.12699999809E+01 0. -1.
       -4    1    3    3    0  502 -0.32551388479E+03 -0.45605367902E+03  0.96004492362E+03  0.11115899044E+04  0.12699999809E+01 0.  1.
</event>
<event>
 5   0  0.3236653E-06  0.1899703E+04  0.7818609E-02  0.8655004E-01
        1   -1    0    0  501    0  0.00000000000E+00  0.00000000000E+00  0.69516845291E+03  0.69516845293E+03  0.50400001928E-02 0. -1.
       -1   -1    0    0    0  501  0.00000000000E+00  0.00000000000E+00 -0.12978407764E+04  0.12978407764E+04  0.50400001928E-02 0.  1.
    10030    2    1    2    0    0  0.00000000000E+00  0.00000000000E+00 -0.60267232352E+03  0.19930092294E+04  0.18997030975E+04 0.  0.
        3    1    3    3  502    0 -0.77816092284E+03  0.16128486846E+03 -0.84714959644E+03  0.11615548543E+04  0.10100000352E+00 0.  1.
       -3    1    3    3    0  502  0.77816092284E+03 -0.16128486846E+03  0.24447727292E+03  0.83145437506E+03  0.10100000352E+00 0. -1.
</event>
<event>
 5   0  0.3379108E-06  0.1889134E+04  0.7818609E-02  0.8660284E-01
        1   -1    0    0  501    0  0.00000000000E+00  0.00000000000E+00  0.10098308617E+04  0.10098308617E+04  0.50400001928E-02 0.  1.
       -1   -1    0    0    0  501  0.00000000000E+00  0.00000000000E+00 -0.88352090521E+03  0.88352090522E+03  0.50400001928E-02 0. -1.
    10030    2    1    2    0    0  0.00000000000E+00  0.00000000000E+00  0.12630995645E+03  0.18933517669E+04  0.18891338513E+04 0.  0.
        4    1    3    3  502    0 -0.81516692717E+03 -0.46195196990E+03 -0.56729494829E+02  0.93867810784E+03  0.12699999809E+01 0. -1.
       -4    1    3    3    0  502  0.81516692717E+03  0.46195196990E+03  0.18303945128E+03  0.95467365905E+03  0.12699999809E+01 0.  1.
</event>
<event>
 5   0  0.6984466E-06  0.1897823E+04  0.7818609E-02  0.8655941E-01
       -2   -1    0    0    0  501  0.00000000000E+00  0.00000000000E+00  0.72412295004E+03  0.72412295004E+03  0.25500000920E-02 0. -1.
        2   -1    0    0  501    0  0.00000000000E+00  0.00000000000E+00 -0.12434810947E+04  0.12434810947E+04  0.25500000920E-02 0.  1.
    10030    2    1    2    0    0  0.00000000000E+00  0.00000000000E+00 -0.51935814461E+03  0.19676040447E+04  0.18978231726E+04 0.  0.
        2    1    3    3  502    0 -0.33596270070E+03  0.64178344959E+03  0.37578183857E+03  0.81606918985E+03  0.25500000920E-02 0. -1.
       -2    1    3    3    0  502  0.33596270070E+03 -0.64178344959E+03 -0.89513998318E+03  0.11515348548E+04  0.25500000920E-02 0.  1.
</event>
<event>
 5   0  0.6870370E-06  0.1900711E+04  0.7818609E-02  0.8654502E-01
       -2   -1    0    0    0  501  0.00000000000E+00  0.00000000000E+00  0.53189917988E+03  0.53189917988E+03  0.25500000920E-02 0.  1.
        2   -1    0    0  501    0  0.00000000000E+00  0.00000000000E+00 -0.16980207580E+04  0.16980207580E+04  0.25500000920E-02 0. -1.
    10030    2    1    2    0    0  0.00000000000E+00  0.00000000000E+00 -0.11661215781E+04  0.22299199378E+04  0.19007112864E+04 0.  0.
        1    1    3    3  502    0  0.66063592132E+03 -0.14001793834E+03 -0.13675563851E+04  0.15252066450E+04  0.50400001928E-02 0. -1.
       -1    1    3    3    0  502 -0.66063592132E+03  0.14001793834E+03  0.20143480699E+03  0.70471329283E+03  0.50400001928E-02 0.  1.
</event>
<event>
 5   0  0.3398807E-06  0.1900618E+04  0.7818609E-02  0.8654549E-01
        1   -1    0    0  501    0  0.00000000000E+00  0.00000000000E+00  0.79494394583E+03  0.79494394585E+03  0.50400001928E-02 0.  1.
       -1   -1    0    0    0  501  0.00000000000E+00  0.00000000000E+00 -0.11360392830E+04  0.11360392830E+04  0.50400001928E-02 0. -1.
    10030    2    1    2    0    0  0.00000000000E+00  0.00000000000E+00 -0.34109533715E+03  0.19309832288E+04  0.19006183733E+04 0.  0.
        1    1    3    3  502    0 -0.19852959186E+03  0.92522163987E+03 -0.81753033833E+02  0.94980663310E+03  0.50400001928E-02 0. -1.
       -1    1    3    3    0  502  0.19852959186E+03 -0.92522163987E+03 -0.25934230332E+03  0.98117659574E+03  0.50400001928E-02 0.  1.
</event>
<event>
 5   0  0.6984466E-06  0.1900513E+04  0.7818609E-02  0.8654601E-01
        2   -1    0    0  501    0  0.00000000000E+00  0.00000000000E+00  0.24220456434E+04  0.24220456434E+04  0.25500000920E-02 0. -1.
       -2   -1    0    0    0  501  0.00000000000E+00  0.00000000000E+00 -0.37282010242E+03  0.37282010243E+03  0.25500000920E-02 0.  1.
    10030    2    1    2    0    0  0.00000000000E+00  0.00000000000E+00  0.20492255410E+04  0.27948657459E+04  0.19005128833E+04 0.  0.
        2    1    3    3  502    0 -0.94611591780E+02  0.12465101934E+03  0.24029660379E+04  0.24080562720E+04  0.25500000920E-02 0. -1.
       -2    1    3    3    0  502  0.94611591780E+02 -0.12465101934E+03 -0.35374049688E+03  0.38680947385E+03  0.25500000920E-02 0.  1.
</event>
<event>
 5   0  0.3236653E-06  0.1899953E+04  0.7818609E-02  0.8654880E-01
       -1   -1    0    0    0  501  0.00000000000E+00  0.00000000000E+00  0.12607943129E+04  0.12607943129E+04  0.50400001928E-02 0.  1.
        1   -1    0    0  501    0  0.00000000000E+00  0.00000000000E+00 -0.71578295368E+03  0.71578295370E+03  0.50400001928E-02 0. -1.
    10030    2    1    2    0    0  0.00000000000E+00  0.00000000000E+00  0.54501135923E+03  0.19765772666E+04  0.18999527124E+04 0.  0.
        3    1    3    3  502    0  0.84884581222E+02 -0.93971040345E+03  0.38738574671E+03  0.10199650785E+04  0.10100000352E+00 0.  1.
       -3    1    3    3    0  502 -0.84884581222E+02  0.93971040345E+03  0.15762561252E+03  0.95661218809E+03  0.10100000352E+00 0. -1.
</event>
<event>
 5   0  0.6870370E-06  0.1899957E+04  0.7818609E-02  0.8654878E-01
        2   -1    0    0  501    0  0.00000000000E+00  0.00000000000E+00  0.11218443397E+04  0.11218443397E+04  0.25500000920E-02 0. -1.
       -2   -1    0    0    0  501  0.00000000000E+00  0.00000000000E+00 -0.80444239686E+03  0.80444239686E+03  0.25500000920E-02 0.  1.
    10030    2    1    2    0    0  0.00000000000E+00  0.00000000000E+00  0.31740194282E+03  0.19262867365E+04  0.18999569990E+04 0.  0.
        1    1    3    3  502    0 -0.19891595135E+03 -0.15015345814E+03 -0.77070639499E+03  0.81000121235E+03  0.50400001928E-02 0.  1.
       -1    1    3    3    0  502  0.19891595135E+03  0.15015345814E+03  0.10881083378E+04  0.11162855242E+04  0.50400001928E-02 0. -1.
</event>
<event>
 5   0  0.3236653E-06  0.1894828E+04  0.7818609E-02  0.8657435E-01
       -1   -1    0    0    0  501  0.00000000000E+00  0.00000000000E+00  0.17723574639E+04  0.17723574639E+04  0.50400001928E-02 0.  1.
        1   -1    0    0  501    0  0.00000000000E+00  0.00000000000E+00 -0.50644057898E+03  0.50644057900E+03  0.50400001928E-02 0. -1.
    10030    2    1    2    0    0  0.00000000000E+00  0.00000000000E+00  0.12659168849E+04  0.22787980429E+04  0.18948284779E+04 0.  0.
        3    1    3    3  502    0 -0.82888985435E+03 -0.43152551905E+03  0.44540405173E+03  0.10352088889E+04  0.10100000352E+00 0. -1.
       -3    1    3    3    0  502  0.82888985435E+03  0.43152551905E+03  0.82051283318E+03  0.12435891540E+04  0.10100000352E+00 0.  1.
</event>
<event>
 5   0  0.7577180E-06  0.1900236E+04  0.7818609E-02  0.8654739E-01
       -2   -1    0    0    0  501  0.00000000000E+00  0.00000000000E+00  0.61408620577E+03  0.61408620578E+03  0.25500000920E-02 0. -1.
        2   -1    0    0  501    0  0.00000000000E+00  0.00000000000E+00 -0.14700283981E+04  0.14700283981E+04  0.25500000920E-02 0.  1.
    10030    2    1    2    0    0  0.00000000000E+00  0.00000000000E+00 -0.85594219229E+03  0.20841146038E+04  0.19002359447E+04 0.  0.
        5    1    3    3  502    0 -0.73750844564E+02  0.32803463092E+03  0.54664388575E+03  0.64178464767E+03  0.46999998093E+01 0. -1.
       -5    1    3    3    0  502  0.73750844564E+02 -0.32803463092E+03 -0.14025860780E+04  0.14423299562E+04  0.46999998093E+01 0.  1.
</event>
<event>
 5   0  0.6870370E-06  0.1902167E+04  0.7818609E-02  0.8653778E-01
       -2   -1    0    0    0  501  0.00000000000E+00  0.00000000000E+00  0.38774229618E+03  0.38774229619E+03  0.25500000920E-02 0.  1.
        2   -1    0    0  501    0  0.00000000000E+00  0.00000000000E+00 -0.23328897063E+04  0.23328897063E+04  0.25500000920E-02 0. -1.
    10030    2    1    2    0    0  0.00000000000E+00  0.00000000000E+00 -0.19451474101E+04  0.27206320025E+04  0.19021671971E+04 0.  0.
        1    1    3    3  502    0  0.56427626109E+03 -0.10613785577E+03 -0.20570308241E+04  0.21356611984E+04  0.50400001928E-02 0. -1.
       -1    1    3    3    0  502 -0.56427626109E+03  0.10613785577E+03  0.11188341396E+03  0.58497080406E+03  0.50400001928E-02 0.  1.
</event>
<event>
 5   0  0.3495279E-06  0.1899704E+04  0.7818609E-02  0.8655004E-01
       -1   -1    0    0    0  501  0.00000000000E+00  0.00000000000E+00  0.70013933715E+03  0.70013933717E+03  0.50400001928E-02 0.  1.
        1   -1    0    0  501    0  0.00000000000E+00  0.00000000000E+00 -0.12886275735E+04  0.12886275735E+04  0.50400001928E-02 0. -1.
    10030    2    1    2    0    0  0.00000000000E+00  0.00000000000E+00 -0.58848823632E+03  0.19887669107E+04  0.18997040350E+04 0.  0.
        2    1    3    3  502    0 -0.24280444302E+03  0.70323857599E+03  0.32396669104E+03  0.81145111327E+03  0.25500000920E-02 0.  1.
       -2    1    3    3    0  502  0.24280444302E+03 -0.70323857599E+03 -0.91245492736E+03  0.11773157974E+04  0.25500000920E-02 0. -1.
</event>
<event>
 5   0  0.6984466E-06  0.1897682E+04  0.7818609E-02  0.8656011E-01
        2   -1    0    0  501    0  0.00000000000E+00  0.00000000000E+00  0.23868678554E+04  0.23868678554E+04  0.25500000920E-02 0.  1.
       -2   -1    0    0    0  501  0.00000000000E+00  0.00000000000E+00 -0.37718839757E+03  0.37718839758E+03  0.25500000920E-02 0. -1.
    10030    2    1    2    0    0  0.00000000000E+00  0.00000000000E+00  0.20096794578E+04  0.27640562530E+04  0.18976815978E+04 0.  0.
        2    1    3    3  502    0 -0.39415061568E+03  0.78926576124E+03  0.15135963254E+04  0.17519329285E+04  0.25500000920E-02 0.  1.
       -2    1    3    3    0  502  0.39415061568E+03 -0.78926576124E+03  0.49608313247E+03  0.10121233245E+04  0.25500000920E-02 0. -1.
</event>
<event>
 5   0  0.6870370E-06  0.1899916E+04  0.7818609E-02  0.8654898E-01
        2   -1    0    0  501    0  0.00000000000E+00  0.00000000000E+00  0.13845499347E+04  0.13845499347E+04  0.25500000920E-02 0.  1.
       -2   -1    0    0    0  501  0.00000000000E+00  0.00000000000E+00 -0.65177868517E+03  0.65177868517E+03  0.25500000920E-02 0. -1.
    10030    2    1    2    0    0  0.00000000000E+00  0.00000000000E+00  0.73277124949E+03  0.20363286198E+04  0.18999159307E+04 0.  0.
        1    1    3    3  502    0  0.66524120362E+03  0.48862014767E+03  0.87038736815E+03  0.11995289402E+04  0.50400001928E-02 0.  1.
       -1    1    3    3    0  502 -0.66524120362E+03 -0.48862014767E+03 -0.13761611867E+03  0.83679967964E+03  0.50400001928E-02 0. -1.
</event>
<event>
 5   0  0.3495279E-06  0.1899397E+04  0.7818609E-02  0.8655156E-01
       -1   -1    0    0    0  501  0.00000000000E+00  0.00000000000E+00  0.97087603492E+03  0.97087603493E+03  0.50400001928E-02 0.  1.
        1   -1    0    0  501    0  0.00000000000E+00  0.00000000000E+00 -0.92898309831E+03  0.92898309832E+03  0.50400001928E-02 0. -1.
    10030    2    1    2    0    0  0.00000000000E+00  0.00000000000E+00  0.41892936610E+02  0.18998591333E+04  0.18993971960E+04 0.  0.
        2    1    3    3  502    0 -0.96473709610E+02 -0.62763534308E+03  0.72730099886E+03  0.96550507170E+03  0.25500000920E-02 0.  1.
       -2    1    3    3    0  502  0.96473709610E+02  0.62763534308E+03 -0.68540806226E+03  0.93435406155E+03  0.25500000920E-02 0. -1.
</event>
<event>
 5   0  0.3379108E-06  0.1904163E+04  0.7818609E-02  0.8652787E-01
        1   -1    0    0  501    0  0.00000000000E+00  0.00000000000E+00  0.14613237487E+04  0.14613237487E+04  0.50400001928E-02 0.  1.
       -1   -1    0    0    0  501  0.00000000000E+00  0.00000000000E+00 -0.62029994896E+03  0.62029994899E+03  0.50400001928E-02 0. -1.
    10030    2    1    2    0    0  0.00000000000E+00  0.00000000000E+00  0.84102379972E+03  0.20816236977E+04  0.19041628573E+04 0.  0.
        4    1    3    3  502    0 -0.41099595832E+03  0.33960420162E+03 -0.44180359162E+03  0.69241657836E+03  0.12699999809E+01 0. -1.
       -4    1    3    3    0  502  0.41099595832E+03 -0.33960420162E+03  0.12828273913E+04  0.13892071193E+04  0.12699999809E+01 0.  1.
</event>
<event>
 5   0  0.7577180E-06  0.1901075E+04  0.7818609E-02  0.8654322E-01
       -2   -1    0    0    0  501  0.00000000000E+00  0.00000000000E+00  0.79962504732E+03  0.79962504733E+03  0.25500000920E-02 0.  1.
        2   -1    0    0  501    0  0.00000000000E+00  0.00000000000E+00 -0.11299309191E+04  0.11299309191E+04  0.25500000920E-02 0. -1.
    10030    2    1    2    0    0  0.00000000000E+00  0.00000000000E+00 -0.33030587182E+03  0.19295559665E+04  0.19010745011E+04 0.  0.
        5    1    3    3  502    0  0.46468841749E+03 -0.76838202398E+03  0.15121008428E+03  0.91062222668E+03  0.46999998093E+01 0.  1.
       -5    1    3    3    0  502 -0.46468841749E+03  0.76838202398E+03 -0.48151595610E+03  0.10189337398E+04  0.46999998093E+01 0. -1.
</event>
<event>
 5   0  0.3236653E-06  0.1899495E+04  0.7818609E-02  0.8655108E-01
        1   -1    0    0  501    0  0.00000000000E+00  0.00000000000E+00  0.96093348561E+03  0.96093348562E+03  0.50400001928E-02 0.  1.
       -1   -1    0    0    0  501  0.00000000000E+00  0.00000000000E+00 -0.93869141370E+03  0.93869141371E+03  0.50400001928E-02 0. -1.
    10030    2    1    2    0    0  0.00000000000E+00  0.00000000000E+00  0.22242071908E+02  0.18996248993E+04  0.18994946824E+04 0.  0.
        3    1    3    3  502    0  0.11123864324E+03  0.73578757664E+03  0.60129927942E+03  0.95672264911E+03  0.10100000352E+00 0.  1.
       -3    1    3    3    0  502 -0.11123864324E+03 -0.73578757664E+03 -0.57905720752E+03  0.94290225022E+03  0.10100000352E+00 0. -1.
</event>
<event>
 5   0  0.3236653E-06  0.1900411E+04  0.7818609E-02  0.8654652E-01
        1   -1    0    0  501    0  0.00000000000E+00  0.00000000000E+00  0.11708947866E+04  0.11708947866E+04  0.50400001928E-02 0.  1.
       -1   -1    0    0    0  501  0.00000000000E+00  0.00000000000E+00 -0.77111189691E+03  0.77111189693E+03  0.50400001928E-02 0. -1.
    10030    2    1    2    0    0  0.00000000000E+00  0.00000000000E+00  0.39978288971E+03  0.19420066836E+04  0.19004114292E+04 0.  0.
        3    1    3    3  502    0  0.29958008185E+03  0.40376747919E+03 -0.62405314906E+03  0.80138551631E+03  0.10100000352E+00 0. -1.
       -3    1    3    3    0  502 -0.29958008185E+03 -0.40376747919E+03  0.10238360388E+04  0.11406211672E+04  0.10100000352E+00 0.  1.
</event>
<event>
 5   0  0.6862201E-06  0.1897345E+04  0.7818609E-02  0.8656179E-01
       -2   -1    0    0    0  501  0.00000000000E+00  0.00000000000E+00  0.97317694077E+03  0.97317694077E+03  0.25500000920E-02 0. -1.
        2   -1    0    0  501    0  0.00000000000E+00  0.00000000000E+00 -0.92478505403E+03  0.92478505404E+03  0.25500000920E-02 0.  1.
    10030    2    1    2    0    0  0.00000000000E+00  0.00000000000E+00  0.48391886735E+02  0.18979619948E+04  0.18973449763E+04 0.  0.
        3    1    3    3  502    0 -0.78414984993E+02 -0.94448260780E+03  0.66437311894E+02  0.95005801556E+03  0.10100000352E+00 0.  1.
       -3    1    3    3    0  502  0.78414984993E+02  0.94448260780E+03 -0.18045425159E+02  0.94790397925E+03  0.10100000352E+00 0. -1.
</event>
<event>
 5   0  0.7577180E-06  0.1899769E+04  0.7818609E-02  0.8654971E-01
       -2   -1    0    0    0  501  0.00000000000E+00  0.00000000000E+00  0.59318451701E+03  0.59318451702E+03  0.25500000920E-02 0. -1.
        2   -1    0    0  501    0  0.00000000000E+00  0.00000000000E+00 -0.15210788283E+04  0.15210788283E+04  0.25500000920E-02 0.  1.
    10030    2    1    2    0    0  0.00000000000E+00  0.00000000000E+00 -0.92789431130E+03  0.21142633453E+04  0.18997688387E+04 0.  0.
        5    1    3    3  502    0 -0.76263334869E+03 -0.46109154609E+02 -0.10920466952E+04  0.13327879626E+04  0.46999998093E+01 0.  1.
       -5    1    3    3    0  502  0.76263334869E+03  0.46109154609E+02  0.16415238393E+03  0.78147538274E+03  0.46999998093E+01 0. -1.
</event>
<event>
 5   0  0.3211263E-06  0.1899682E+04  0.7818609E-02  0.8655015E-01
        1   -1    0    0  501    0  0.00000000000E+00  0.00000000000E+00  0.14664978077E+04  0.14664978078E+04  0.50400001928E-02 0. -1.
       -1   -1    0    0    0  501  0.00000000000E+00  0.00000000000E+00 -0.61520580465E+03  0.61520580467E+03  0.50400001928E-02 0.  1.
    10030    2    1    2    0    0  0.00000000000E+00  0.00000000000E+00  0.85129200309E+03  0.20817036124E+04  0.18996820406E+04 0.  0.
        5    1    3    3  502    0  0.79429219412E+03  0.38687169807E+03  0.80777994120E+03  0.11971216830E+04  0.46999998093E+01 0.  1.
       -5    1    3    3    0  502 -0.79429219412E+03 -0.38687169807E+03  0.43512061889E+02  0.88458192947E+03  0.46999998093E+01 0. -1.
</event>
<event>
 5   0  0.3495279E-06  0.1898130E+04  0.7818609E-02  0.8655788E-01
        1   -1    0    0  501    0  0.00000000000E+00  0.00000000000E+00  0.10836056285E+04  0.10836056285E+04  0.50400001928E-02 0.  1.
       -1   -1    0    0    0  501  0.00000000000E+00  0.00000000000E+00 -0.83122938272E+03  0.83122938273E+03  0.50400001928E-02 0. -1.
    10030    2    1    2    0    0  0.00000000000E+00  0.00000000000E+00  0.25237624577E+03  0.19148350112E+04  0.18981304884E+04 0.  0.
        2    1    3    3  502    0 -0.76747845926E+03  0.55769990534E+03  0.15234832288E+03  0.96086543352E+03  0.25500000920E-02 0.  1.
       -2    1    3    3    0  502  0.76747845926E+03 -0.55769990534E+03  0.10002792289E+03  0.95396957771E+03  0.25500000920E-02 0. -1.
</event>
<event>
 5   0  0.7207648E-06  0.1901295E+04  0.7818609E-02  0.8654212E-01
        2   -1    0    0  501    0  0.00000000000E+00  0.00000000000E+00  0.18583403648E+04  0.18583403648E+04  0.25500000920E-02 0. -1.
       -2   -1    0    0    0  501  0.00000000000E+00  0.00000000000E+00 -0.48631087683E+03  0.48631087684E+03  0.25500000920E-02 0.  1.
    10030    2    1    2    0    0  0.00000000000E+00  0.00000000000E+00  0.13720294879E+04  0.23446512416E+04  0.19012954870E+04 0.  0.
        4    1    3    3  502    0 -0.45718376037E+03  0.44097353052E+03 -0.18620175805E+03  0.66192699973E+03  0.12699999809E+01 0.  1.
       -4    1    3    3    0  502  0.45718376037E+03 -0.44097353052E+03  0.15582312460E+04  0.16827242419E+04  0.12699999809E+01 0. -1.
</event>
<event>
 5   0  0.7577180E-06  0.1900530E+04  0.7818609E-02  0.8654592E-01
        2   -1    0    0  501    0  0.00000000000E+00  0.00000000000E+00  0.10066394220E+04  0.10066394220E+04  0.25500000920E-02 0.  1.
       -2   -1    0    0    0  501  0.00000000000E+00  0.00000000000E+00 -0.89704796400E+03  0.89704796400E+03  0.25500000920E-02 0. -1.
    10030    2    1    2    0    0  0.00000000000E+00  0.00000000000E+00  0.10959145798E+03  0.19036873860E+04  0.19005302881E+04 0.  0.
        5    1    3    3  502    0 -0.93812565882E+02  0.94552643831E+03  0.42097489206E+02  0.95111268084E+03  0.46999998093E+01 0. -1.
       -5    1    3    3    0  502  0.93812565882E+02 -0.94552643831E+03  0.67493968772E+02  0.95257470515E+03  0.46999998093E+01 0.  1.
</event>
<event>
 5   0  0.3398807E-06  0.1899487E+04  0.7818609E-02  0.8655112E-01
       -1   -1    0    0    0  501  0.00000000000E+00  0.00000000000E+00  0.79324204585E+03  0.79324204586E+03  0.50400001928E-02 0.  1.
        1   -1    0    0  501    0  0.00000000000E+00  0.00000000000E+00 -0.11371212176E+04  0.11371212176E+04  0.50400001928E-02 0. -1.
    10030    2    1    2    0    0  0.00000000000E+00  0.00000000000E+00 -0.34387917171E+03  0.19303632634E+04  0.18994866265E+04 0.  0.
        1    1    3    3  502    0 -0.79447014821E+03 -0.20827542004E+03  0.31273096005E+03  0.87884135109E+03  0.50400001928E-02 0.  1.
       -1    1    3    3    0  502  0.79447014821E+03  0.20827542004E+03 -0.65661013176E+03  0.10515219123E+04  0.50400001928E-02 0. -1.
</event>
<event>
 5   0  0.6984466E-06  0.1899689E+04  0.7818609E-02  0.8655011E-01
        2   -1    0    0  501    0  0.00000000000E+00  0.00000000000E+00  0.18970380592E+04  0.18970380592E+04  0.25500000920E-02 0.  1.
       -2   -1    0    0    0  501  0.00000000000E+00  0.00000000000E+00 -0.47558567017E+03  0.47558567018E+03  0.25500000920E-02 0. -1.
    10030    2    1    2    0    0  0.00000000000E+00  0.00000000000E+00  0.14214523890E+04  0.23726237294E+04  0.18996885184E+04 0.  0.
        2    1    3    3  502    0 -0.64189755590E+03 -0.52012210781E+03  0.12960642682E+04  0.15369912383E+04  0.25500000920E-02 0.  1.
       -2    1    3    3    0  502  0.64189755590E+03  0.52012210781E+03  0.12538812084E+03  0.83563249108E+03  0.25500000920E-02 0. -1.
</event>
<event>
 5   0  0.3495279E-06  0.1899682E+04  0.7818609E-02  0.8655015E-01
        1   -1    0    0  501    0  0.00000000000E+00  0.00000000000E+00  0.50946613323E+03  0.50946613325E+03  0.50400001928E-02 0.  1.
       -1   -1    0    0    0  501  0.00000000000E+00  0.00000000000E+00 -0.17708695190E+04  0.17708695190E+04  0.50400001928E-02 0. -1.
    10030    2    1    2    0    0  0.00000000000E+00  0.00000000000E+00 -0.12614033858E+04  0.22803356523E+04  0.18996821274E+04 0.  0.
        2    1    3    3  502    0  0.49247862942E+03  0.10396461060E+03 -0.15976236056E+04  0.16750358283E+04  0.25500000920E-02 0. -1.
       -2    1    3    3    0  502 -0.49247862942E+03 -0.10396461060E+03  0.33622021985E+03  0.60529982400E+03  0.25500000920E-02 0.  1.
</event>
<event>
 5   0  0.6870370E-06  0.1895264E+04  0.7818609E-02  0.8657218E-01
        2   -1    0    0  501    0  0.00000000000E+00  0.00000000000E+00  0.15700747926E+04  0.15700747926E+04  0.25500000920E-02 0. -1.
       -2   -1    0    0    0  501  0.00000000000E+00  0.00000000000E+00 -0.57195118579E+03  0.57195118580E+03  0.25500000920E-02 0.  1.
    10030    2    1    2    0    0  0.00000000000E+00  0.00000000000E+00  0.99812360682E+03  0.21420259784E+04  0.18952637172E+04 0.  0.
        1    1    3    3  502    0 -0.44900950561E+03  0.68365739749E+03 -0.41794029504E+02  0.81898944694E+03  0.50400001928E-02 0.  1.
       -1    1    3    3    0  502  0.44900950561E+03 -0.68365739749E+03  0.10399176363E+04  0.13230365315E+04  0.50400001928E-02 0. -1.
</event>
<event>
 5   0  0.3236653E-06  0.1901440E+04  0.7818609E-02  0.8654140E-01
       -1   -1    0    0    0  501  0.00000000000E+00  0.00000000000E+00  0.58140097515E+03  0.58140097517E+03  0.50400001928E-02 0.  1.
        1   -1    0    0  501    0  0.00000000000E+00  0.00000000000E+00 -0.15546386908E+04  0.15546386908E+04  0.50400001928E-02 0. -1.
    10030    2    1    2    0    0  0.00000000000E+00  0.00000000000E+00 -0.97323771566E+03  0.21360396660E+04  0.19014399290E+04 0.  0.
        3    1    3    3  502    0  0.26312074681E+03 -0.79288004369E+03  0.23223865875E+02  0.83572163382E+03  0.10100000352E+00 0.  1.
       -3    1    3    3    0  502 -0.26312074681E+03  0.79288004369E+03 -0.99646158153E+03  0.13003180322E+04  0.10100000352E+00 0. -1.
</event>
<event>
 5   0  0.3236653E-06  0.1900462E+04  0.7818609E-02  0.8654627E-01
        1   -1    0    0  501    0  0.00000000000E+00  0.00000000000E+00  0.20924906009E+04  0.20924906009E+04  0.50400001928E-02 0. -1.
       -1   -1    0    0    0  501  0.00000000000E+00  0.00000000000E+00 -0.43151375948E+03  0.43151375951E+03  0.50400001928E-02 0.  1.
    10030    2    1    2    0    0  0.00000000000E+00  0.00000000000E+00  0.16609768414E+04  0.25240043604E+04  0.19004615081E+04 0.  0.
        3    1    3    3  502    0 -0.78874854945E+03 -0.45179176011E+03  0.46267785987E+03  0.10199563133E+04  0.10100000352E+00 0. -1.
       -3    1    3    3    0  502  0.78874854945E+03  0.45179176011E+03  0.11982989816E+04  0.15040480472E+04  0.10100000352E+00 0.  1.
</event>
<event>
 5   0  0.7207648E-06  0.1900297E+04  0.7818609E-02  0.8654709E-01
        2   -1    0    0  501    0  0.00000000000E+00  0.00000000000E+00  0.16780666974E+04  0.16780666974E+04  0.25500000920E-02 0.  1.
       -2   -1    0    0    0  501  0.00000000000E+00  0.00000000000E+00 -0.53798920676E+03  0.53798920677E+03  0.25500000920E-02 0. -1.
    10030    2    1    2    0    0  0.00000000000E+00  0.00000000000E+00  0.11400774907E+04  0.22160559042E+04  0.19002965784E+04 0.  0.
        4    1    3    3  502    0  0.47988787925E+03 -0.21186098941E+03 -0.35381181898E+03  0.63274155201E+03  0.12699999809E+01 0. -1.
       -4    1    3    3    0  502 -0.47988787925E+03  0.21186098941E+03  0.14938893097E+04  0.15833143522E+04  0.12699999809E+01 0.  1.
</event>
<event>
 5   0  0.6870370E-06  0.1904348E+04  0.7818609E-02  0.8652695E-01
        2   -1    0    0  501    0  0.00000000000E+00  0.00000000000E+00  0.79709378189E+03  0.79709378190E+03  0.25500000920E-02 0.  1.
       -2   -1    0    0    0  501  0.00000000000E+00  0.00000000000E+00 -0.11374258888E+04  0.11374258888E+04  0.25500000920E-02 0. -1.
    10030    2    1    2    0    0  0.00000000000E+00  0.00000000000E+00 -0.34033210696E+03  0.19345196707E+04  0.19043477659E+04 0.  0.
        1    1    3    3  502    0  0.62759625217E+03  0.52645700168E+03 -0.66324393496E+03  0.10540050036E+04  0.50400001928E-02 0. -1.
       -1    1    3    3    0  502 -0.62759625217E+03 -0.52645700168E+03  0.32291182800E+03  0.88051466714E+03  0.50400001928E-02 0.  1.
</event>
<event>
 5   0  0.3495279E-06  0.1895266E+04  0.7818609E-02  0.8657216E-01
       -1   -1    0    0    0  501  0.00000000000E+00  0.00000000000E+00  0.19025428993E+04  0.19025428993E+04  0.50400001928E-02 0. -1.
        1   -1    0    0  501    0  0.00000000000E+00  0.00000000000E+00 -0.47200417207E+03  0.47200417210E+03  0.50400001928E-02 0.  1.
    10030    2    1    2    0    0  0.00000000000E+00  0.00000000000E+00  0.14305387272E+04  0.23745470714E+04  0.18952658769E+04 0.  0.
        2    1    3    3  502    0  0.45356911406E+03  0.42381131645E+03 -0.18180492920E+03  0.64683383142E+03  0.25500000920E-02 0.  1.
       -2    1    3    3    0  502 -0.45356911406E+03 -0.42381131645E+03  0.16123436564E+04  0.17277132400E+04  0.25500000920E-02 0. -1.
</event>
<event>
 5   0  0.3379108E-06  0.1898074E+04  0.7818609E-02  0.8655816E-01
       -1   -1    0    0    0  501  0.00000000000E+00  0.00000000000E+00  0.55985649877E+03  0.55985649880E+03  0.50400001928E-02 0.  1.
        1   -1    0    0  501    0  0.00000000000E+00  0.00000000000E+00 -0.16087531533E+04  0.16087531533E+04  0.50400001928E-02 0. -1.
    10030    2    1    2    0    0  0.00000000000E+00  0.00000000000E+00 -0.10488966545E+04  0.21686096521E+04  0.18980736633E+04 0.  0.
        4    1    3    3  502    0  0.24389699670E+03  0.41769776754E+03  0.40845684282E+03  0.63308433511E+03  0.12699999809E+01 0.  1.
       -4    1    3    3    0  502 -0.24389699670E+03 -0.41769776754E+03 -0.14573534974E+04  0.15355253170E+04  0.12699999809E+01 0. -1.
</event>
<event>
 5   0  0.3211263E-06  0.1900061E+04  0.7818609E-02  0.8654826E-01
       -1   -1    0    0    0  501  0.00000000000E+00  0.00000000000E+00  0.12401286235E+04  0.12401286236E+04  0.50400001928E-02 0. -1.
        1   -1    0    0  501    0  0.00000000000E+00  0.00000000000E+00 -0.72779415491E+03  0.72779415493E+03  0.50400001928E-02 0.  1.
    10030    2    1    2    0    0  0.00000000000E+00  0.00000000000E+00  0.51233446864E+03  0.19679227785E+04  0.19000614344E+04 0.  0.
        5    1    3    3  502    0 -0.22963614698E+03 -0.20606927035E+03 -0.67444416383E+03  0.74168343942E+03  0.46999998093E+01 0.  1.
       -5    1    3    3    0  502  0.22963614698E+03  0.20606927035E+03  0.11867786325E+04  0.12262393391E+04  0.46999998093E+01 0. -1.
</event>
<event>
 5   0  0.6984466E-06  0.1901644E+04  0.7818609E-02  0.8654038E-01
        2   -1    0    0  501    0  0.00000000000E+00  0.00000000000E+00  0.92734147494E+03  0.92734147494E+03  0.25500000920E-02 0.  1.
       -2   -1    0    0    0  501  0.00000000000E+00  0.00000000000E+00 -0.97489749325E+03  0.97489749325E+03  0.25500000920E-02 0. -1.
    10030    2    1    2    0    0  0.00000000000E+00  0.00000000000E+00 -0.47556018314E+02  0.19022389682E+04  0.19016444245E+04 0.  0.
        2    1    3    3  502    0  0.14676629587E+02  0.31211203128E+03  0.87451920941E+03  0.92866203280E+03  0.25500000920E-02 0.  1.
       -2    1    3    3    0  502 -0.14676629587E+02 -0.31211203128E+03 -0.92207522773E+03  0.97357693539E+03  0.25500000920E-02 0. -1.
</event>
<event>
 5   0  0.3379108E-06  0.1898472E+04  0.7818609E-02  0.8655618E-01
        1   -1    0    0  501    0  0.00000000000E+00  0.00000000000E+00  0.21859570186E+04  0.21859570186E+04  0.50400001928E-02 0.  1.
       -1   -1    0    0    0  501  0.00000000000E+00  0.00000000000E+00 -0.41219864115E+03  0.41219864118E+03  0.50400001928E-02 0. -1.
    10030    2    1    2    0    0  0.00000000000E+00  0.00000000000E+00  0.17737583774E+04  0.25981556598E+04  0.18984715038E+04 0.  0.
        4    1    3    3  502    0  0.50406134117E+03 -0.64327892298E+02  0.19841390321E+04  0.20481760727E+04  0.12699999809E+01 0.  1.
       -4    1    3    3    0  502 -0.50406134117E+03  0.64327892298E+02 -0.21038065466E+03  0.54997958703E+03  0.12699999809E+01 0. -1.
</event>
<event>
 5   0  0.7577180E-06  0.1899908E+04  0.7818609E-02  0.8654902E-01
        2   -1    0    0  501    0  0.00000000000E+00  0.00000000000E+00  0.20487195715E+04  0.20487195715E+04  0.25500000920E-02 0. -1.
       -2   -1    0    0    0  501  0.00000000000E+00  0.00000000000E+00 -0.44047660245E+03  0.44047660245E+03  0.25500000920E-02 0.  1.
    10030    2    1    2    0    0  0.00000000000E+00  0.00000000000E+00  0.16082429691E+04  0.24891961740E+04  0.18999084570E+04 0.  0.
        5    1    3    3  502    0 -0.86184940433E+03  0.67446599340E+02  0.28821278996E+03  0.91127500888E+03  0.46999998093E+01 0.  1.
       -5    1    3    3    0  502  0.86184940433E+03 -0.67446599340E+02  0.13200301791E+04  0.15779211651E+04  0.46999998093E+01 0. -1.
</event>
<event>
 5   0  0.3211263E-06  0.1900170E+04  0.7818609E-02  0.8654772E-01
        1   -1    0    0  501    0  0.00000000000E+00  0.00000000000E+00  0.11940658774E+04  0.11940658775E+04  0.50400001928E-02 0.  1.
       -1   -1    0    0    0  501  0.00000000000E+00  0.00000000000E+00 -0.75595589953E+03  0.75595589955E+03  0.50400001928E-02 0. -1.
    10030    2    1    2    0    0  0.00000000000E+00  0.00000000000E+00  0.43810997791E+03  0.19500217770E+04  0.19001696182E+04 0.  0.
        5    1    3    3  502    0  0.43654387454E+03 -0.84980759651E+02 -0.64252270897E+03  0.78144085218E+03  0.46999998093E+01 0. -1.
       -5    1    3    3    0  502 -0.43654387454E+03  0.84980759651E+02  0.10806326869E+04  0.11685809248E+04  0.46999998093E+01 0.  1.
</event>
<event>
 5   0  0.3398807E-06  0.1898427E+04  0.7818609E-02  0.8655640E-01
       -1   -1    0    0    0  501  0.00000000000E+00  0.00000000000E+00  0.10180024697E+04  0.10180024697E+04  0.50400001928E-02 0. -1.
        1   -1    0    0  501    0  0.00000000000E+00  0.00000000000E+00 -0.88507281398E+03  0.88507281399E+03  0.50400001928E-02 0.  1.
    10030    2    1    2    0    0  0.00000000000E+00  0.00000000000E+00  0.13292965569E+03  0.19030752837E+04  0.18984270441E+04 0.  0.
        1    1    3    3  502    0  0.70143821382E+03  0.43068788449E+03 -0.40744918107E+03  0.91843478638E+03  0.50400001928E-02 0.  1.
       -1    1    3    3    0  502 -0.70143821382E+03 -0.43068788449E+03  0.54037883675E+03  0.98464049729E+03  0.50400001928E-02 0. -1.
</event>
<event>
 5   0  0.6984466E-06  0.1900865E+04  0.7818609E-02  0.8654426E-01
       -2   -1    0    0    0  501  0.00000000000E+00  0.00000000000E+00  0.13776826116E+04  0.13776826116E+04  0.25500000920E-02 0. -1.
        2   -1    0    0  501    0  0.00000000000E+00  0.00000000000E+00 -0.65568251494E+03  0.65568251494E+03  0.25500000920E-02 0.  1.
    10030    2    1    2    0    0  0.00000000000E+00  0.00000000000E+00  0.72200009664E+03  0.20333651265E+04  0.19008654866E+04 0.  0.
        2    1    3    3  502    0 -0.71622860406E+03  0.47813899126E+02 -0.30536069790E+03  0.78007354657E+03  0.25500000920E-02 0.  1.
       -2    1    3    3    0  502  0.71622860406E+03 -0.47813899126E+02  0.10273607945E+04  0.12532915800E+04  0.25500000920E-02 0. -1.
</event>
<event>
 5   0  0.3211263E-06  0.1900870E+04  0.7818609E-02  0.8654423E-01
        1   -1    0    0  501    0  0.00000000000E+00  0.00000000000E+00  0.84843776901E+03  0.84843776903E+03  0.50400001928E-02 0. -1.
       -1   -1    0    0    0  501  0.00000000000E+00  0.00000000000E+00 -0.10646939994E+04  0.10646939994E+04  0.50400001928E-02 0.  1.
    10030    2    1    2    0    0  0.00000000000E+00  0.00000000000E+00 -0.21625623036E+03  0.19131317684E+04  0.19008699077E+04 0.  0.
        5    1    3    3  502    0 -0.14099145979E+03 -0.88371696641E+03  0.21404653906E+03  0.92014796601E+03  0.46999998093E+01 0. -1.
       -5    1    3    3    0  502  0.14099145979E+03  0.88371696641E+03 -0.43030276942E+03  0.99298380240E+03  0.46999998093E+01 0.  1.
</event>
<event>
 5   0  0.6870370E-06  0.1899351E+04  0.7818609E-02  0.8655180E-01
        2   -1    0    0  501    0  0.00000000000E+00  0.00000000000E+00  0.70257286490E+03  0.70257286490E+03  0.25500000920E-02 0. -1.
       -2   -1    0    0    0  501  0.00000000000E+00  0.00000000000E+00 -0.12836866504E+04  0.12836866504E+04  0.25500000920E-02 0.  1.
    10030    2    1    2    0    0  0.00000000000E+00  0.00000000000E+00 -0.58111378553E+03  0.19862595153E+04  0.18993508445E+04 0.  0.
        1    1    3    3  502    0 -0.20690143996E+03 -0.56773503396E+03  0.47559995221E+03  0.76897762595E+03  0.50400001928E-02 0. -1.
       -1    1    3    3    0  502  0.20690143996E+03  0.56773503396E+03 -0.10567137377E+04  0.12172818894E+04  0.50400001928E-02 0.  1.
</event>
<event>
 5   0  0.3398807E-06  0.1899981E+04  0.7818609E-02  0.8654866E-01
        1   -1    0    0  501    0  0.00000000000E+00  0.00000000000E+00  0.78780136776E+03  0.78780136778E+03  0.50400001928E-02 0. -1.
       -1   -1    0    0    0  501  0.00000000000E+00  0.00000000000E+00 -0.11455700453E+04  0.11455700453E+04  0.50400001928E-02 0.  1.
    10030    2    1    2    0    0  0.00000000000E+00  0.00000000000E+00 -0.35776867751E+03  0.19333714131E+04  0.18999806826E+04 0.  0.
        1    1    3    3  502    0 -0.32379107867E+03 -0.31724652655E+03 -0.10284190611E+04  0.11238913588E+04  0.50400001928E-02 0.  1.
       -1    1    3    3    0  502  0.32379107867E+03  0.31724652655E+03  0.67065038356E+03  0.80948005425E+03  0.50400001928E-02 0. -1.
</event>
<event>
 5   0  0.3495279E-06  0.1912015E+04  0.7818609E-02  0.8648899E-01
        1   -1    0    0  501    0  0.00000000000E+00  0.00000000000E+00  0.17768794859E+04  0.17768794859E+04  0.50400001928E-02 0.  1.
       -1   -1    0    0    0  501  0.00000000000E+00  0.00000000000E+00 -0.51435675890E+03  0.51435675893E+03  0.50400001928E-02 0. -1.
    10030    2    1    2    0    0  0.00000000000E+00  0.00000000000E+00  0.12625227270E+04  0.22912362448E+04  0.19120146164E+04 0.  0.
        2    1    3    3  502    0 -0.81561891340E+03  0.20214975061E+02  0.34125375467E+02  0.81658275660E+03  0.25500000920E-02 0. -1.
       -2    1    3    3    0  502  0.81561891340E+03 -0.20214975061E+02  0.12283973515E+04  0.14746534882E+04  0.25500000920E-02 0.  1.
</event>
<event>
 5   0  0.7207648E-06  0.1899884E+04  0.7818609E-02  0.8654914E-01
       -2   -1    0    0    0  501  0.00000000000E+00  0.00000000000E+00  0.66842789402E+03  0.66842789402E+03  0.25500000920E-02 0.  1.
        2   -1    0    0  501    0  0.00000000000E+00  0.00000000000E+00 -0.13500180886E+04  0.13500180886E+04  0.25500000920E-02 0. -1.
    10030    2    1    2    0    0  0.00000000000E+00  0.00000000000E+00 -0.68159019457E+03  0.20184459826E+04  0.18998839416E+04 0.  0.
        4    1    3    3  502    0 -0.74848090051E+02  0.15733897716E+03  0.65130583609E+03  0.67420968203E+03  0.12699999809E+01 0.  1.
       -4    1    3    3    0  502  0.74848090051E+02 -0.15733897716E+03 -0.13328960307E+04  0.13442363006E+04  0.12699999809E+01 0. -1.
</event>
<event>
 5   0  0.6984466E-06  0.1899027E+04  0.7818609E-02  0.8655341E-01
       -2   -1    0    0    0  501  0.00000000000E+00  0.00000000000E+00  0.14410494951E+04  0.14410494951E+04  0.25500000920E-02 0.  1.
        2   -1    0    0  501    0  0.00000000000E+00  0.00000000000E+00 -0.62563836793E+03  0.62563836793E+03  0.25500000920E-02 0. -1.
    10030    2    1    2    0    0  0.00000000000E+00  0.00000000000E+00  0.81541112715E+03  0.20666878630E+04  0.18990269658E+04 0.  0.
        2    1    3    3  502    0 -0.27134049966E+03 -0.61771550188E+03  0.11348070373E+04  0.13202216177E+04  0.25500000920E-02 0.  1.
       -2    1    3    3    0  502  0.27134049966E+03  0.61771550188E+03 -0.31939591010E+03  0.74646624532E+03  0.25500000920E-02 0. -1.
</event>
<event>
 5   0  0.7207648E-06  0.1900358E+04  0.7818609E-02  0.8654678E-01
       -2   -1    0    0    0  501  0.00000000000E+00  0.00000000000E+00  0.60688399464E+03  0.60688399464E+03  0.25500000920E-02 0. -1.
        2   -1    0    0  501    0  0.00000000000E+00  0.00000000000E+00 -0.14876653872E+04  0.14876653872E+04  0.25500000920E-02 0.  1.
    10030    2    1    2    0    0  0.00000000000E+00  0.00000000000E+00 -0.88078139260E+03  0.20945493819E+04  0.19003581903E+04 0.  0.
        4    1    3    3  502    0 -0.78961800610E+02  0.25730972132E+03 -0.14447696764E+04  0.14696272621E+04  0.12699999809E+01 0.  1.
       -4    1    3    3    0  502  0.78961800610E+02 -0.25730972132E+03  0.56398828381E+03  0.62492211981E+03  0.12699999809E+01 0. -1.
</event>
<event>
 5   0  0.3495279E-06  0.1901770E+04  0.7818609E-02  0.8653976E-01
        1   -1    0    0  501    0  0.00000000000E+00  0.00000000000E+00  0.87895057604E+03  0.87895057605E+03  0.50400001928E-02 0. -1.
       -1   -1    0    0    0  501  0.00000000000E+00  0.00000000000E+00 -0.10287064938E+04  0.10287064938E+04  0.50400001928E-02 0.  1.
    10030    2    1    2    0    0  0.00000000000E+00  0.00000000000E+00 -0.14975591779E+03  0.19076570699E+04  0.19017698760E+04 0.  0.
        2    1    3    3  502    0 -0.71265927689E+03 -0.12926393111E+03 -0.69289376789E+03  0.10023443432E+04  0.25500000920E-02 0.  1.
       -2    1    3    3    0  502  0.71265927689E+03  0.12926393111E+03  0.54313785010E+03  0.90531272665E+03  0.25500000920E-02 0. -1.
</event>
<event>
 5   0  0.6870370E-06  0.1900532E+04  0.7818609E-02  0.8654592E-01
        2   -1    0    0  501    0  0.00000000000E+00  0.00000000000E+00  0.10132889255E+04  0.10132889255E+04  0.25500000920E-02 0. -1.
       -2   -1    0    0    0  501  0.00000000000E+00  0.00000000000E+00 -0.89116258966E+03  0.89116258966E+03  0.25500000920E-02 0.  1.
    10030    2    1    2    0    0  0.00000000000E+00  0.00000000000E+00  0.12212633584E+03  0.19044515152E+04  0.19005316971E+04 0.  0.
        1    1    3    3  502    0 -0.15545233878E+03  0.44769979142E+03 -0.76428883858E+03  0.89929859428E+03  0.50400001928E-02 0.  1.
       -1    1    3    3    0  502  0.15545233878E+03 -0.44769979142E+03  0.88641517442E+03  0.10051529209E+04  0.50400001928E-02 0. -1.
</event>
<event>
 5   0  0.3379108E-06  0.1899192E+04  0.7818609E-02  0.8655259E-01
       -1   -1    0    0    0  501  0.00000000000E+00  0.00000000000E+00  0.39825544677E+03  0.39825544680E+03  0.50400001928E-02 0. -1.
        1   -1    0    0  501    0  0.00000000000E+00  0.00000000000E+00 -0.22642067117E+04  0.22642067117E+04  0.50400001928E-02 0.  1.
    10030    2    1    2    0    0  0.00000000000E+00  0.00000000000E+00 -0.18659512649E+04  0.26624621585E+04  0.18991920973E+04 0.  0.
        4    1    3    3  502    0  0.64548158405E+03 -0.69217151096E+03 -0.82453798111E+03  0.12552339906E+04  0.12699999809E+01 0.  1.
       -4    1    3    3    0  502 -0.64548158405E+03  0.69217151096E+03 -0.10414132838E+04  0.14072281679E+04  0.12699999809E+01 0. -1.
</event>
<event>
 5   0  0.3495279E-06  0.1899763E+04  0.7818609E-02  0.8654974E-01
       -1   -1    0    0    0  501  0.00000000000E+00  0.00000000000E+00  0.12101630651E+04  0.12101630651E+04  0.50400001928E-02 0. -1.
        1   -1    0    0  501    0  0.00000000000E+00  0.00000000000E+00 -0.74558125349E+03  0.74558125351E+03  0.50400001928E-02 0.  1.
    10030    2    1    2    0    0  0.00000000000E+00  0.00000000000E+00  0.46458181161E+03  0.19557443186E+04  0.18997630326E+04 0.  0.
        2    1    3    3  502    0 -0.25283932417E+03 -0.79772852867E+03  0.69495193702E+03  0.10877760450E+04  0.25500000920E-02 0.  1.
       -2    1    3    3    0  502  0.25283932417E+03  0.79772852867E+03 -0.23037012541E+03  0.86796827361E+03  0.25500000920E-02 0. -1.
</event>
<event>
 5   0  0.3398807E-06  0.1900224E+04  0.7818609E-02  0.8654745E-01
        1   -1    0    0  501    0  0.00000000000E+00  0.00000000000E+00  0.13736180936E+04  0.13736180936E+04  0.50400001928E-02 0. -1.
       -1   -1    0    0    0  501  0.00000000000E+00  0.00000000000E+00 -0.65717910642E+03  0.65717910644E+03  0.50400001928E-02 0.  1.
    10030    2    1    2    0    0  0.00000000000E+00  0.00000000000E+00  0.71643898716E+03  0.20307972000E+04  0.19002243145E+04 0.  0.
        1    1    3    3  502    0  0.44595858648E+03  0.83829076023E+03  0.39370744051E+03  0.10279182887E+04  0.50400001928E-02 0. -1.
       -1    1    3    3    0  502 -0.44595858648E+03 -0.83829076023E+03  0.32273154664E+03  0.10028789113E+04  0.50400001928E-02 0.  1.
</event>
<event>
 5   0  0.6870370E-06  0.1899997E+04  0.7818609E-02  0.8654858E-01
        2   -1    0    0  501    0  0.00000000000E+00  0.00000000000E+00  0.19264774625E+04  0.19264774625E+04  0.25500000920E-02 0. -1.
       -2   -1    0    0    0  501  0.00000000000E+00  0.00000000000E+00 -0.46847015200E+03  0.46847015201E+03  0.25500000920E-02 0.  1.
    10030    2    1    2    0    0  0.00000000000E+00  0.00000000000E+00  0.14580073105E+04  0.23949476146E+04  0.18999970418E+04 0.  0.
        1    1    3    3  502    0 -0.38300077185E+03 -0.23445838679E+03 -0.32623711490E+03  0.55505943965E+03  0.50400001928E-02 0.  1.
       -1    1    3    3    0  502  0.38300077185E+03  0.23445838679E+03  0.17842444255E+04  0.18398881749E+04  0.50400001928E-02 0. -1.
</event>
<event>
 5   0  0.3236653E-06  0.1898621E+04  0.7818609E-02  0.8655543E-01
       -1   -1    0    0    0  501  0.00000000000E+00  0.00000000000E+00  0.77713316976E+03  0.77713316978E+03  0.50400001928E-02 0. -1.
        1   -1    0    0  501    0  0.00000000000E+00  0.00000000000E+00 -0.11596339513E+04  0.11596339513E+04  0.50400001928E-02 0.  1.
    10030    2    1    2    0    0  0.00000000000E+00  0.00000000000E+00 -0.38250078153E+03  0.19367671211E+04  0.18986205607E+04 0.  0.
        3    1    3    3  502    0 -0.15839063402E+03  0.65961087738E+02  0.76118513423E+03  0.78028281848E+03  0.10100000352E+00 0. -1.
       -3    1    3    3    0  502  0.15839063402E+03 -0.65961087738E+02 -0.11436859158E+04  0.11564843026E+04  0.10100000352E+00 0.  1.
</event>
<event>
 5   0  0.3211263E-06  0.1901382E+04  0.7818609E-02  0.8654169E-01
        1   -1    0    0  501    0  0.00000000000E+00  0.00000000000E+00  0.10394376433E+04  0.10394376433E+04  0.50400001928E-02 0.  1.
       -1   -1    0    0    0  501  0.00000000000E+00  0.00000000000E+00 -0.86952163493E+03  0.86952163495E+03  0.50400001928E-02 0. -1.
    10030    2    1    2    0    0  0.00000000000E+00  0.00000000000E+00  0.16991600834E+03  0.19089592782E+04  0.19013821489E+04 0.  0.
        5    1    3    3  502    0  0.45602648632E+02 -0.86168105755E+03 -0.31565289868E+03  0.91882135856E+03  0.46999998093E+01 0. -1.
       -5    1    3    3    0  502 -0.45602648632E+02  0.86168105755E+03  0.48556890702E+03  0.99013791967E+03  0.46999998093E+01 0.  1.
</event>
<event>
 5   0  0.3236653E-06  0.1893936E+04  0.7818609E-02  0.8657881E-01
       -1   -1    0    0    0  501  0.00000000000E+00  0.00000000000E+00  0.13321614311E+04  0.13321614311E+04  0.50400001928E-02 0.  1.
        1   -1    0    0  501    0  0.00000000000E+00  0.00000000000E+00 -0.67315281697E+03  0.67315281699E+03  0.50400001928E-02 0. -1.
    10030    2    1    2    0    0  0.00000000000E+00  0.00000000000E+00  0.65900861413E+03  0.20053142481E+04  0.18939358173E+04 0.  0.
        3    1    3    3  502    0  0.36913107122E+02 -0.82825583486E+03 -0.15498322646E+03  0.84343945613E+03  0.10100000352E+00 0. -1.
       -3    1    3    3    0  502 -0.36913107122E+02  0.82825583486E+03  0.81399184060E+03  0.11618747920E+04  0.10100000352E+00 0.  1.
</event>
<event>
 5   0  0.6984466E-06  0.1900485E+04  0.7818609E-02  0.8654615E-01
        2   -1    0    0  501    0  0.00000000000E+00  0.00000000000E+00  0.67645541430E+03  0.67645541431E+03  0.25500000920E-02 0.  1.
       -2   -1    0    0    0  501  0.00000000000E+00  0.00000000000E+00 -0.13348411149E+04  0.13348411149E+04  0.25500000920E-02 0. -1.
    10030    2    1    2    0    0  0.00000000000E+00  0.00000000000E+00 -0.65838570055E+03  0.20112965292E+04  0.19004846744E+04 0.  0.
        2    1    3    3  502    0 -0.25580669639E+03 -0.56710945540E+03  0.43095632954E+03  0.75681804834E+03  0.25500000920E-02 0.  1.
       -2    1    3    3    0  502  0.25580669639E+03  0.56710945540E+03 -0.10893420301E+04  0.12544784808E+04  0.25500000920E-02 0. -1.
</event>
<event>
 5   0  0.6984466E-06  0.1900177E+04  0.7818609E-02  0.8654768E-01
        2   -1    0    0  501    0  0.00000000000E+00  0.00000000000E+00  0.16552944063E+04  0.16552944063E+04  0.25500000920E-02 0.  1.
       -2   -1    0    0    0  501  0.00000000000E+00  0.00000000000E+00 -0.54532200746E+03  0.54532200747E+03  0.25500000920E-02 0. -1.
    10030    2    1    2    0    0  0.00000000000E+00  0.00000000000E+00  0.11099723988E+04  0.22006164138E+04  0.19001773271E+04 0.  0.
        2    1    3    3  502    0  0.58736172464E+03 -0.25121067547E+03  0.13694338320E+04  0.15111087384E+04  0.25500000920E-02 0.  1.
       -2    1    3    3    0  502 -0.58736172464E+03  0.25121067547E+03 -0.25946143319E+03  0.68950767534E+03  0.25500000920E-02 0. -1.
</event>
<event>
 5   0  0.7207648E-06  0.1900100E+04  0.7818609E-02  0.8654807E-01
        2   -1    0    0  501    0  0.00000000000E+00  0.00000000000E+00  0.39659284764E+03  0.39659284764E+03  0.25500000920E-02 0.  1.
       -2   -1    0    0    0  501  0.00000000000E+00  0.00000000000E+00 -0.22758733582E+04  0.22758733582E+04  0.25500000920E-02 0. -1.
    10030    2    1    2    0    0  0.00000000000E+00  0.00000000000E+00 -0.18792805105E+04  0.26724662058E+04  0.19001000984E+04 0.  0.
        4    1    3    3  502    0 -0.73192432227E+03 -0.40190221167E+03 -0.30227518723E+03  0.88803744459E+03  0.12699999809E+01 0.  1.
       -4    1    3    3    0  502  0.73192432227E+03  0.40190221167E+03 -0.15770053233E+04  0.17844287612E+04  0.12699999809E+01 0. -1.
</event>
<event>
 5   0  0.2527750E-06  0.1900245E+04  0.7818609E-02  0.8654735E-01
        3   -1    0    0  501    0  0.00000000000E+00  0.00000000000E+00  0.76468905995E+03  0.76468906662E+03  0.10100000352E+00 0.  1.
       -3   -1    0    0    0  501  0.00000000000E+00  0.00000000000E+00 -0.11805224749E+04  0.11805224793E+04  0.10100000352E+00 0. -1.
    10030    2    1    2    0    0  0.00000000000E+00  0.00000000000E+00 -0.41583341499E+03  0.19452115459E+04  0.19002448603E+04 0.  0.
        2    1    3    3  502    0  0.10134276585E+03  0.52372953417E+03  0.59692618275E+03  0.80055221492E+03  0.25500000920E-02 0.  1.
       -2    1    3    3    0  502 -0.10134276585E+03 -0.52372953417E+03 -0.10127595977E+04  0.11446593310E+04  0.25500000920E-02 0. -1.
</event>
<event>
 5   0  0.3236653E-06  0.1899808E+04  0.7818609E-02  0.8654952E-01
        1   -1    0    0  501    0  0.00000000000E+00  0.00000000000E+00  0.14767452056E+04  0.14767452056E+04  0.50400001928E-02 0. -1.
       -1   -1    0    0    0  501  0.00000000000E+00  0.00000000000E+00 -0.61101796485E+03  0.61101796487E+03  0.50400001928E-02 0.  1.
    10030    2    1    2    0    0  0.00000000000E+00  0.00000000000E+00  0.86572724075E+03  0.20877631705E+04  0.18998082536E+04 0.  0.
        3    1    3    3  502    0  0.76828334827E+03  0.52384385086E+03  0.21964173244E+03  0.95546542802E+03  0.10100000352E+00 0. -1.
       -3    1    3    3    0  502 -0.76828334827E+03 -0.52384385086E+03  0.64608550831E+03  0.11322977424E+04  0.10100000352E+00 0.  1.
</event>
<event>
 5   0  0.3379108E-06  0.1900405E+04  0.7818609E-02  0.8654655E-01
       -1   -1    0    0    0  501  0.00000000000E+00  0.00000000000E+00  0.11391918394E+04  0.11391918394E+04  0.50400001928E-02 0.  1.
        1   -1    0    0  501    0  0.00000000000E+00  0.00000000000E+00 -0.79256579349E+03  0.79256579351E+03  0.50400001928E-02 0. -1.
    10030    2    1    2    0    0  0.00000000000E+00  0.00000000000E+00  0.34662604589E+03  0.19317576329E+04  0.19004046771E+04 0.  0.
        4    1    3    3  502    0 -0.77922835230E+03  0.10255302048E+03 -0.36950923221E+03  0.86847719177E+03  0.12699999809E+01 0. -1.
       -4    1    3    3    0  502  0.77922835230E+03 -0.10255302048E+03  0.71613527810E+03  0.10632804411E+04  0.12699999809E+01 0.  1.
</event>
<event>
 5   0  0.7577180E-06  0.1899799E+04  0.7818609E-02  0.8654957E-01
       -2   -1    0    0    0  501  0.00000000000E+00  0.00000000000E+00  0.47913460882E+03  0.47913460883E+03  0.25500000920E-02 0.  1.
        2   -1    0    0  501    0  0.00000000000E+00  0.00000000000E+00 -0.18832050029E+04  0.18832050029E+04  0.25500000920E-02 0. -1.
    10030    2    1    2    0    0  0.00000000000E+00  0.00000000000E+00 -0.14040703941E+04  0.23623396118E+04  0.18997986129E+04 0.  0.
        5    1    3    3  502    0 -0.27239176825E+03 -0.43956193972E+03  0.28874827170E+03  0.59229184417E+03  0.46999998093E+01 0.  1.
       -5    1    3    3    0  502  0.27239176825E+03  0.43956193972E+03 -0.16928186658E+04  0.17700477676E+04  0.46999998093E+01 0. -1.
</event>
<event>
 5   0  0.3211263E-06  0.1896906E+04  0.7818609E-02  0.8656398E-01
        1   -1    0    0  501    0  0.00000000000E+00  0.00000000000E+00  0.19284951034E+04  0.19284951034E+04  0.50400001928E-02 0.  1.
       -1   -1    0    0    0  501  0.00000000000E+00  0.00000000000E+00 -0.46645869060E+03  0.46645869063E+03  0.50400001928E-02 0. -1.
    10030    2    1    2    0    0  0.00000000000E+00  0.00000000000E+00  0.14620364128E+04  0.23949537940E+04  0.18969062189E+04 0.  0.
        5    1    3    3  502    0 -0.24484696173E+03 -0.41316351955E+03 -0.30157124241E+03  0.56711677175E+03  0.46999998093E+01 0. -1.
       -5    1    3    3    0  502  0.24484696173E+03  0.41316351955E+03  0.17636076552E+04  0.18278370223E+04  0.46999998093E+01 0.  1.
</event>
<event>
 5   0  0.3495279E-06  0.1899945E+04  0.7818609E-02  0.8654884E-01
        1   -1    0    0  501    0  0.00000000000E+00  0.00000000000E+00  0.89633462500E+03  0.89633462501E+03  0.50400001928E-02 0.  1.
       -1   -1    0    0    0  501  0.00000000000E+00  0.00000000000E+00 -0.10068204548E+04  0.10068204548E+04  0.50400001928E-02 0. -1.
    10030    2    1    2    0    0  0.00000000000E+00  0.00000000000E+00 -0.11048582983E+03  0.19031550798E+04  0.18999452990E+04 0.  0.
        2    1    3    3  502    0 -0.11736921100E+03  0.54599546447E+03  0.71453532504E+03  0.90688880776E+03  0.25500000920E-02 0.  1.
       -2    1    3    3    0  502  0.11736921100E+03 -0.54599546447E+03 -0.82502115486E+03  0.99626627208E+03  0.25500000920E-02 0. -1.
</event>
<event>
 5   0  0.6862201E-06  0.1900256E+04  0.7818609E-02  0.8654729E-01
        2   -1    0    0  501    0  0.00000000000E+00  0.00000000000E+00  0.15367048304E+04  0.15367048304E+04  0.25500000920E-02 0.  1.
       -2   -1    0    0    0  501  0.00000000000E+00  0.00000000000E+00 -0.58745406449E+03  0.58745406449E+03  0.25500000920E-02 0. -1.
    10030    2    1    2    0    0  0.00000000000E+00  0.00000000000E+00  0.94925076596E+03  0.21241588949E+04  0.19002562970E+04 0.  0.
        3    1    3    3  502    0 -0.70796683730E+02 -0.20937756931E+03 -0.55831767636E+03  0.60047462469E+03  0.10100000352E+00 0. -1.
       -3    1    3    3    0  502  0.70796683730E+02  0.20937756931E+03  0.15075684423E+04  0.15236842703E+04  0.10100000352E+00 0.  1.
</event>
<event>
 5   0  0.3236653E-06  0.1900227E+04  0.7818609E-02  0.8654743E-01
       -1   -1    0    0    0  501  0.00000000000E+00  0.00000000000E+00  0.35988024340E+03  0.35988024343E+03  0.50400001928E-02 0. -1.
        1   -1    0    0  501    0  0.00000000000E+00  0.00000000000E+00 -0.25083777032E+04  0.25083777032E+04  0.50400001928E-02 0.  1.
    10030    2    1    2    0    0  0.00000000000E+00  0.00000000000E+00 -0.21484974598E+04  0.28682579467E+04  0.19002269111E+04 0.  0.
        3    1    3    3  502    0  0.37032636071E+02  0.56241357240E+03 -0.22287747153E+04  0.22989382733E+04  0.10100000352E+00 0.  1.
       -3    1    3    3    0  502 -0.37032636071E+02 -0.56241357240E+03  0.80277255484E+02  0.56931967338E+03  0.10100000352E+00 0. -1.
</event>
<event>
 5   0  0.3236653E-06  0.1907499E+04  0.7818609E-02  0.8651132E-01
        1   -1    0    0  501    0  0.00000000000E+00  0.00000000000E+00  0.12791448738E+04  0.12791448738E+04  0.50400001928E-02 0.  1.
       -1   -1    0    0    0  501  0.00000000000E+00  0.00000000000E+00 -0.71113014093E+03  0.71113014095E+03  0.50400001928E-02 0. -1.
    10030    2    1    2    0    0  0.00000000000E+00  0.00000000000E+00  0.56801473282E+03  0.19902750147E+04  0.19074993834E+04 0.  0.
        3    1    3    3  502    0 -0.27926668235E+03  0.35357756692E+03 -0.59308469045E+03  0.74481973386E+03  0.10100000352E+00 0. -1.
       -3    1    3    3    0  502  0.27926668235E+03 -0.35357756692E+03  0.11610994233E+04  0.12454552809E+04  0.10100000352E+00 0.  1.
</event>
<event>
 5   0  0.3236653E-06  0.1899453E+04  0.7818609E-02  0.8655129E-01
       -1   -1    0    0    0  501  0.00000000000E+00  0.00000000000E+00  0.77929768266E+03  0.77929768268E+03  0.50400001928E-02 0.  1.
        1   -1    0    0  501    0  0.00000000000E+00  0.00000000000E+00 -0.11574273542E+04  0.11574273542E+04  0.50400001928E-02 0. -1.
    10030    2    1    2    0    0  0.00000000000E+00  0.00000000000E+00 -0.37812967149E+03  0.19367250368E+04  0.18994530318E+04 0.  0.
        3    1    3    3  502    0 -0.52359747697E+03 -0.24608018060E+03  0.57888804373E+03  0.81842602021E+03  0.10100000352E+00 0.  1.
       -3    1    3    3    0  502  0.52359747697E+03  0.24608018060E+03 -0.95701771522E+03  0.11182990166E+04  0.10100000352E+00 0. -1.
</event>
<event>
 5   0  0.3495279E-06  0.1901524E+04  0.7818609E-02  0.8654098E-01
       -1   -1    0    0    0  501  0.00000000000E+00  0.00000000000E+00  0.10366749749E+04  0.10366749749E+04  0.50400001928E-02 0. -1.
        1   -1    0    0  501    0  0.00000000000E+00  0.00000000000E+00 -0.87196865316E+03  0.87196865317E+03  0.50400001928E-02 0.  1.
    10030    2    1    2    0    0  0.00000000000E+00  0.00000000000E+00  0.16470632173E+03  0.19086436281E+04  0.19015236855E+04 0.  0.
        2    1    3    3  502    0  0.12615480865E+03  0.94011861848E+03  0.17225473873E+02  0.94870162302E+03  0.25500000920E-02 0.  1.
       -2    1    3    3    0  502 -0.12615480865E+03 -0.94011861848E+03  0.14748084785E+03  0.95994200505E+03  0.25500000920E-02 0. -1.
</event>
<event>
 5   0  0.3379108E-06  0.1899688E+04  0.7818609E-02  0.8655012E-01
        1   -1    0    0  501    0  0.00000000000E+00  0.00000000000E+00  0.10679952073E+04  0.10679952073E+04  0.50400001928E-02 0.  1.
       -1   -1    0    0    0  501  0.00000000000E+00  0.00000000000E+00 -0.84476369250E+03  0.84476369251E+03  0.50400001928E-02 0. -1.
    10030    2    1    2    0    0  0.00000000000E+00  0.00000000000E+00  0.22323151476E+03  0.19127588998E+04  0.18996879479E+04 0.  0.
        4    1    3    3  502    0  0.42548741021E+03  0.64299789138E+03 -0.44692272423E+03  0.89119434407E+03  0.12699999809E+01 0. -1.
       -4    1    3    3    0  502 -0.42548741021E+03 -0.64299789138E+03  0.67015423899E+03  0.10215645557E+04  0.12699999809E+01 0.  1.
</event>
<event>
 5   0  0.3379108E-06  0.1899360E+04  0.7818609E-02  0.8655175E-01
        1   -1    0    0  501    0  0.00000000000E+00  0.00000000000E+00  0.20432974434E+04  0.20432974434E+04  0.50400001928E-02 0. -1.
       -1   -1    0    0    0  501  0.00000000000E+00  0.00000000000E+00 -0.44139063363E+03  0.44139063366E+03  0.50400001928E-02 0.  1.
    10030    2    1    2    0    0  0.00000000000E+00  0.00000000000E+00  0.16019068097E+04  0.24846880770E+04  0.18993602641E+04 0.  0.
        4    1    3    3  502    0 -0.10189039750E+03  0.77924762892E+03  0.10346116978E+03  0.79266282039E+03  0.12699999809E+01 0.  1.
       -4    1    3    3    0  502  0.10189039750E+03 -0.77924762892E+03  0.14984456399E+04  0.16920252566E+04  0.12699999809E+01 0. -1.
</event>
<event>
 5   0  0.6862201E-06  0.1899591E+04  0.7818609E-02  0.8655060E-01
        2   -1    0    0  501    0  0.00000000000E+00  0.00000000000E+00  0.10550374340E+04  0.10550374340E+04  0.25500000920E-02 0.  1.
       -2   -1    0    0    0  501  0.00000000000E+00  0.00000000000E+00 -0.85505181384E+03  0.85505181384E+03  0.25500000920E-02 0. -1.
    10030    2    1    2    0    0  0.00000000000E+00  0.00000000000E+00  0.19998562014E+03  0.19100892478E+04  0.18995911893E+04 0.  0.
        3    1    3    3  502    0  0.77196476383E+03 -0.20003907222E+03 -0.41877157982E+03  0.90073018895E+03  0.10100000352E+00 0. -1.
       -3    1    3    3    0  502 -0.77196476383E+03  0.20003907222E+03  0.61875719996E+03  0.10093590589E+04  0.10100000352E+00 0.  1.
</event>
<event>
 5   0  0.7207648E-06  0.1898103E+04  0.7818609E-02  0.8655801E-01
        2   -1    0    0  501    0  0.00000000000E+00  0.00000000000E+00  0.16480523095E+04  0.16480523095E+04  0.25500000920E-02 0.  1.
       -2   -1    0    0    0  501  0.00000000000E+00  0.00000000000E+00 -0.54652341877E+03  0.54652341878E+03  0.25500000920E-02 0. -1.
    10030    2    1    2    0    0  0.00000000000E+00  0.00000000000E+00  0.11015288907E+04  0.21945757283E+04  0.18981034561E+04 0.  0.
        4    1    3    3  502    0 -0.89656413799E+03 -0.25551576081E+03  0.34529341955E+03  0.99415527763E+03  0.12699999809E+01 0. -1.
       -4    1    3    3    0  502  0.89656413799E+03  0.25551576081E+03  0.75623547116E+03  0.12004204506E+04  0.12699999809E+01 0.  1.
</event>
<event>
 5   0  0.7207648E-06  0.1897194E+04  0.7818609E-02  0.8656255E-01
       -2   -1    0    0    0  501  0.00000000000E+00  0.00000000000E+00  0.43022059309E+03  0.43022059310E+03  0.25500000920E-02 0. -1.
        2   -1    0    0  501    0  0.00000000000E+00  0.00000000000E+00 -0.20915686188E+04  0.20915686188E+04  0.25500000920E-02 0.  1.
    10030    2    1    2    0    0  0.00000000000E+00  0.00000000000E+00 -0.16613480257E+04  0.25217892119E+04  0.18971936029E+04 0.  0.
        4    1    3    3  502    0 -0.79925719701E+03 -0.64453079759E+01 -0.15097233062E+04  0.17082504744E+04  0.12699999809E+01 0.  1.
       -4    1    3    3    0  502  0.79925719701E+03  0.64453079759E+01 -0.15162471946E+03  0.81353873750E+03  0.12699999809E+01 0. -1.
</event>
<event>
 5   0  0.3211263E-06  0.1894152E+04  0.7818609E-02  0.8657773E-01
        1   -1    0    0  501    0  0.00000000000E+00  0.00000000000E+00  0.11686726277E+04  0.11686726277E+04  0.50400001928E-02 0.  1.
       -1   -1    0    0    0  501  0.00000000000E+00  0.00000000000E+00 -0.76749678588E+03  0.76749678590E+03  0.50400001928E-02 0. -1.
    10030    2    1    2    0    0  0.00000000000E+00  0.00000000000E+00  0.40117584185E+03  0.19361694136E+04  0.18941515098E+04 0.  0.
        5    1    3    3  502    0  0.12116201857E+03 -0.23721453714E+03 -0.72840681915E+03  0.77559625808E+03  0.46999998093E+01 0. -1.
       -5    1    3    3    0  502 -0.12116201857E+03  0.23721453714E+03  0.11295826610E+04  0.11605731556E+04  0.46999998093E+01 0.  1.
</event>
<event>
 5   0  0.3236653E-06  0.1899598E+04  0.7818609E-02  0.8655056E-01
       -1   -1    0    0    0  501  0.00000000000E+00  0.00000000000E+00  0.11390659303E+04  0.11390659303E+04  0.50400001928E-02 0. -1.
        1   -1    0    0  501    0  0.00000000000E+00  0.00000000000E+00 -0.79198070670E+03  0.79198070671E+03  0.50400001928E-02 0.  1.
    10030    2    1    2    0    0  0.00000000000E+00  0.00000000000E+00  0.34708522359E+03  0.19310466370E+04  0.18995981054E+04 0.  0.
        3    1    3    3  502    0  0.79445994079E+03  0.12244256490E+03 -0.34075750140E+03  0.87308330884E+03  0.10100000352E+00 0.  1.
       -3    1    3    3    0  502 -0.79445994079E+03 -0.12244256490E+03  0.68784272499E+03  0.10579633282E+04  0.10100000352E+00 0. -1.
</event>
<event>
 5   0  0.7207648E-06  0.1907393E+04  0.7818609E-02  0.8651185E-01
        2   -1    0    0  501    0  0.00000000000E+00  0.00000000000E+00  0.68665562196E+03  0.68665562196E+03  0.25500000920E-02 0. -1.
       -2   -1    0    0    0  501  0.00000000000E+00  0.00000000000E+00 -0.13245902484E+04  0.13245902484E+04  0.25500000920E-02 0.  1.
    10030    2    1    2    0    0  0.00000000000E+00  0.00000000000E+00 -0.63793462639E+03  0.20112458703E+04  0.19073933426E+04 0.  0.
        4    1    3    3  502    0  0.20985575664E+03 -0.52104478246E+03  0.49371587937E+03  0.74785298446E+03  0.12699999809E+01 0. -1.
       -4    1    3    3    0  502 -0.20985575664E+03  0.52104478246E+03 -0.11316505058E+04  0.12633928859E+04  0.12699999809E+01 0.  1.
</event>
<event>
 5   0  0.7577180E-06  0.1901180E+04  0.7818609E-02  0.8654269E-01
        2   -1    0    0  501    0  0.00000000000E+00  0.00000000000E+00  0.84554231323E+03  0.84554231324E+03  0.25500000920E-02 0. -1.
       -2   -1    0    0    0  501  0.00000000000E+00  0.00000000000E+00 -0.10686879855E+04  0.10686879855E+04  0.25500000920E-02 0.  1.
    10030    2    1    2    0    0  0.00000000000E+00  0.00000000000E+00 -0.22314567227E+03  0.19142302987E+04  0.19011795406E+04 0.  0.
        5    1    3    3  502    0 -0.14781537534E+02 -0.11907644778E+03 -0.10610205569E+04  0.10677941780E+04  0.46999998093E+01 0.  1.
       -5    1    3    3    0  502  0.14781537534E+02  0.11907644778E+03  0.83787488465E+03  0.84643612080E+03  0.46999998093E+01 0. -1.
</event>
<event>
 5   0  0.3211263E-06  0.1899846E+04  0.7818609E-02  0.8654933E-01
       -1   -1    0    0    0  501  0.00000000000E+00  0.00000000000E+00  0.13729766968E+04  0.13729766968E+04  0.50400001928E-02 0. -1.
        1   -1    0    0  501    0  0.00000000000E+00  0.00000000000E+00 -0.65722434299E+03  0.65722434301E+03  0.50400001928E-02 0.  1.
    10030    2    1    2    0    0  0.00000000000E+00  0.00000000000E+00  0.71575235378E+03  0.20302010398E+04  0.18998460017E+04 0.  0.
        5    1    3    3  502    0  0.26395084066E+03 -0.68436153766E+03  0.10028717052E+04  0.12424952746E+04  0.46999998093E+01 0. -1.
       -5    1    3    3    0  502 -0.26395084066E+03  0.68436153766E+03 -0.28711935138E+03  0.78770576514E+03  0.46999998093E+01 0.  1.
</event>
<event>
 5   0  0.3236653E-06  0.1898789E+04  0.7818609E-02  0.8655460E-01
        1   -1    0    0  501    0  0.00000000000E+00  0.00000000000E+00  0.10334798764E+04  0.10334798764E+04  0.50400001928E-02 0.  1.
       -1   -1    0    0    0  501  0.00000000000E+00  0.00000000000E+00 -0.87215014946E+03  0.87215014948E+03  0.50400001928E-02 0. -1.
    10030    2    1    2    0    0  0.00000000000E+00  0.00000000000E+00  0.16132972691E+03  0.19056300259E+04  0.18987886967E+04 0.  0.
        3    1    3    3  502    0  0.44452111626E+03 -0.76090034495E+03  0.43518151113E+03  0.98282822283E+03  0.10100000352E+00 0.  1.
       -3    1    3    3    0  502 -0.44452111626E+03  0.76090034495E+03 -0.27385178422E+03  0.92280180303E+03  0.10100000352E+00 0. -1.
</event>
<event>
 5   0  0.6984466E-06  0.1900223E+04  0.7818609E-02  0.8654746E-01
       -2   -1    0    0    0  501  0.00000000000E+00  0.00000000000E+00  0.36890333257E+03  0.36890333258E+03  0.25500000920E-02 0. -1.
        2   -1    0    0  501    0  0.00000000000E+00  0.00000000000E+00 -0.24470135983E+04  0.24470135983E+04  0.25500000920E-02 0.  1.
    10030    2    1    2    0    0  0.00000000000E+00  0.00000000000E+00 -0.20781102657E+04  0.28159169308E+04  0.19002225883E+04 0.  0.
        2    1    3    3  502    0  0.37787318955E+03 -0.31473237806E+03  0.16562666344E+03  0.51891888463E+03  0.25500000920E-02 0. -1.
       -2    1    3    3    0  502 -0.37787318955E+03  0.31473237806E+03 -0.22437369291E+04  0.22969980462E+04  0.25500000920E-02 0.  1.
</event>
<event>
 5   0  0.7577180E-06  0.1899801E+04  0.7818609E-02  0.8654955E-01
       -2   -1    0    0    0  501  0.00000000000E+00  0.00000000000E+00  0.67235456345E+03  0.67235456345E+03  0.25500000920E-02 0.  1.
        2   -1    0    0  501    0  0.00000000000E+00  0.00000000000E+00 -0.13420164936E+04  0.13420164936E+04  0.25500000920E-02 0. -1.
    10030    2    1    2    0    0  0.00000000000E+00  0.00000000000E+00 -0.66966193014E+03  0.20143710570E+04  0.18998009514E+04 0.  0.
        5    1    3    3  502    0 -0.49351174348E+03 -0.76795353731E+02  0.52187916845E+03  0.72237893364E+03  0.46999998093E+01 0.  1.
       -5    1    3    3    0  502  0.49351174348E+03  0.76795353731E+02 -0.11915410986E+04  0.12919921234E+04  0.46999998093E+01 0. -1.
</event>
<event>
 5   0  0.6870370E-06  0.1900270E+04  0.7818609E-02  0.8654722E-01
        2   -1    0    0  501    0  0.00000000000E+00  0.00000000000E+00  0.22072461470E+04  0.22072461470E+04  0.25500000920E-02 0.  1.
       -2   -1    0    0    0  501  0.00000000000E+00  0.00000000000E+00 -0.40899686711E+03  0.40899686712E+03  0.25500000920E-02 0. -1.
    10030    2    1    2    0    0  0.00000000000E+00  0.00000000000E+00  0.17982492799E+04  0.26162430142E+04  0.19002702535E+04 0.  0.
        1    1    3    3  502    0  0.31839553301E+03 -0.75957110833E+03  0.24688700980E+03  0.85981229328E+03  0.50400001928E-02 0. -1.
       -1    1    3    3    0  502 -0.31839553301E+03  0.75957110833E+03  0.15513622701E+04  0.17564307209E+04  0.50400001928E-02 0.  1.
</event>
<event>
 5   0  0.7207648E-06  0.1899989E+04  0.7818609E-02  0.8654862E-01
       -2   -1    0    0    0  501  0.00000000000E+00  0.00000000000E+00  0.82375540482E+03  0.82375540482E+03  0.25500000920E-02 0.  1.
        2   -1    0    0  501    0  0.00000000000E+00  0.00000000000E+00 -0.10955794042E+04  0.10955794042E+04  0.25500000920E-02 0. -1.
    10030    2    1    2    0    0  0.00000000000E+00  0.00000000000E+00 -0.27182399940E+03  0.19193348090E+04  0.18999889006E+04 0.  0.
        4    1    3    3  502    0 -0.91606108244E+03 -0.25118688406E+03 -0.15106760191E+03  0.96181380253E+03  0.12699999809E+01 0.  1.
       -4    1    3    3    0  502  0.91606108244E+03  0.25118688406E+03 -0.12075639749E+03  0.95752100651E+03  0.12699999809E+01 0. -1.
</event>
<event>
 5   0  0.7577180E-06  0.1911127E+04  0.7818609E-02  0.8649338E-01
       -2   -1    0    0    0  501  0.00000000000E+00  0.00000000000E+00  0.74073372538E+03  0.74073372539E+03  0.25500000920E-02 0. -1.
        2   -1    0    0  501    0  0.00000000000E+00  0.00000000000E+00 -0.12326983000E+04  0.12326983000E+04  0.25500000920E-02 0.  1.
    10030    2    1    2    0    0  0.00000000000E+00  0.00000000000E+00 -0.49196457461E+03  0.19734320254E+04  0.19111265830E+04 0.  0.
        5    1    3    3  502    0 -0.95094032712E+03  0.42417462134E+02 -0.15963576869E+03  0.96519035194E+03  0.46999998093E+01 0. -1.
       -5    1    3    3    0  502  0.95094032712E+03 -0.42417462134E+02 -0.33232880592E+03  0.10082416734E+04  0.46999998093E+01 0.  1.
</event>
<event>
 5   0  0.6862201E-06  0.1901660E+04  0.7818609E-02  0.8654030E-01
        2   -1    0    0  501    0  0.00000000000E+00  0.00000000000E+00  0.12458856327E+04  0.12458856327E+04  0.25500000920E-02 0. -1.
       -2   -1    0    0    0  501  0.00000000000E+00  0.00000000000E+00 -0.72565070855E+03  0.72565070856E+03  0.25500000920E-02 0.  1.
    10030    2    1    2    0    0  0.00000000000E+00  0.00000000000E+00  0.52023492413E+03  0.19715363412E+04  0.19016601086E+04 0.  0.
        3    1    3    3  502    0  0.27354920929E+03 -0.58416783481E+03  0.98435372696E+03  0.11768744619E+04  0.10100000352E+00 0. -1.
       -3    1    3    3    0  502 -0.27354920929E+03  0.58416783481E+03 -0.46411880283E+03  0.79466187933E+03  0.10100000352E+00 0.  1.
</event>
<event>
 5   0  0.3379108E-06  0.1899910E+04  0.7818609E-02  0.8654901E-01
        1   -1    0    0  501    0  0.00000000000E+00  0.00000000000E+00  0.21124767297E+04  0.21124767297E+04  0.50400001928E-02 0.  1.
       -1   -1    0    0    0  501  0.00000000000E+00  0.00000000000E+00 -0.42718300568E+03  0.42718300571E+03  0.50400001928E-02 0. -1.
    10030    2    1    2    0    0  0.00000000000E+00  0.00000000000E+00  0.16852937240E+04  0.25396597355E+04  0.18999096388E+04 0.  0.
        4    1    3    3  502    0 -0.94878747469E+03 -0.92789422491E+01  0.90432162331E+03  0.13107566449E+04  0.12699999809E+01 0.  1.
       -4    1    3    3    0  502  0.94878747469E+03  0.92789422491E+01  0.78097210074E+03  0.12289030905E+04  0.12699999809E+01 0. -1.
</event>
<event>
 5   0  0.7577180E-06  0.1898949E+04  0.7818609E-02  0.8655380E-01
       -2   -1    0    0    0  501  0.00000000000E+00  0.00000000000E+00  0.89623423110E+03  0.89623423110E+03  0.25500000920E-02 0. -1.
        2   -1    0    0  501    0  0.00000000000E+00  0.00000000000E+00 -0.10058775455E+04  0.10058775455E+04  0.25500000920E-02 0.  1.
    10030    2    1    2    0    0  0.00000000000E+00  0.00000000000E+00 -0.10964331437E+03  0.19021117766E+04  0.18989490657E+04 0.  0.
        5    1    3    3  502    0  0.14371971875E+03 -0.63432590325E+03 -0.74767817638E+03  0.99099417481E+03  0.46999998093E+01 0.  1.
       -5    1    3    3    0  502 -0.14371971875E+03  0.63432590325E+03  0.63803486201E+03  0.91111760175E+03  0.46999998093E+01 0. -1.
</event>
<event>
 5   0  0.3211263E-06  0.1900384E+04  0.7818609E-02  0.8654665E-01
        1   -1    0    0  501    0  0.00000000000E+00  0.00000000000E+00  0.63124159708E+03  0.63124159710E+03  0.50400001928E-02 0. -1.
       -1   -1    0    0    0  501  0.00000000000E+00  0.00000000000E+00 -0.14303001430E+04  0.14303001430E+04  0.50400001928E-02 0.  1.
    10030    2    1    2    0    0  0.00000000000E+00  0.00000000000E+00 -0.79905854596E+03  0.20615417401E+04  0.19003841155E+04 0.  0.
        5    1    3    3  502    0  0.17896122692E+03 -0.17051088835E+03  0.59573904804E+03  0.64500247065E+03  0.46999998093E+01 0. -1.
       -5    1    3    3    0  502 -0.17896122692E+03  0.17051088835E+03 -0.13947975940E+04  0.14165392695E+04  0.46999998093E+01 0.  1.
</event>
<event>
 5   0  0.3211263E-06  0.1898535E+04  0.7818609E-02  0.8655586E-01
        1   -1    0    0  501    0  0.00000000000E+00  0.00000000000E+00  0.52925079095E+03  0.52925079098E+03  0.50400001928E-02 0.  1.
       -1   -1    0    0    0  501  0.00000000000E+00  0.00000000000E+00 -0.17026113273E+04  0.17026113273E+04  0.50400001928E-02 0. -1.
    10030    2    1    2    0    0  0.00000000000E+00  0.00000000000E+00 -0.11733605363E+04  0.22318621182E+04  0.18985345840E+04 0.  0.
        5    1    3    3  502    0 -0.27429251363E+03  0.46499414611E+03  0.33119177603E+03  0.63337668212E+03  0.46999998093E+01 0.  1.
       -5    1    3    3    0  502  0.27429251363E+03 -0.46499414611E+03 -0.15045523123E+04  0.15984854361E+04  0.46999998093E+01 0. -1.
</event>
<event>
 5   0  0.3211263E-06  0.1899837E+04  0.7818609E-02  0.8654937E-01
       -1   -1    0    0    0  501  0.00000000000E+00  0.00000000000E+00  0.11169603646E+04  0.11169603646E+04  0.50400001928E-02 0.  1.
        1   -1    0    0  501    0  0.00000000000E+00  0.00000000000E+00 -0.80785807132E+03  0.80785807134E+03  0.50400001928E-02 0. -1.
    10030    2    1    2    0    0  0.00000000000E+00  0.00000000000E+00  0.30910229328E+03  0.19248184359E+04  0.18998373045E+04 0.  0.
        5    1    3    3  502    0 -0.71537457183E+03 -0.78115699761E+02 -0.47365073153E+03  0.86152768154E+03  0.46999998093E+01 0. -1.
       -5    1    3    3    0  502  0.71537457183E+03  0.78115699761E+02  0.78275302481E+03  0.10632907544E+04  0.46999998093E+01 0.  1.
</event>
<event>
 5   0  0.3398807E-06  0.1900376E+04  0.7818609E-02  0.8654669E-01
        1   -1    0    0  501    0  0.00000000000E+00  0.00000000000E+00  0.19340667657E+04  0.19340667657E+04  0.50400001928E-02 0. -1.
       -1   -1    0    0    0  501  0.00000000000E+00  0.00000000000E+00 -0.46681795296E+03  0.46681795299E+03  0.50400001928E-02 0.  1.
    10030    2    1    2    0    0  0.00000000000E+00  0.00000000000E+00  0.14672488128E+04  0.24008847187E+04  0.19003758455E+04 0.  0.
        1    1    3    3  502    0 -0.55733841084E+03  0.65199319071E+03  0.21712880122E+03  0.88479723173E+03  0.50400001928E-02 0.  1.
       -1    1    3    3    0  502  0.55733841084E+03 -0.65199319071E+03  0.12501200115E+04  0.15160874870E+04  0.50400001928E-02 0. -1.
</event>
<event>
 5   0  0.6862201E-06  0.1902098E+04  0.7818609E-02  0.8653813E-01
        2   -1    0    0  501    0  0.00000000000E+00  0.00000000000E+00  0.22840862873E+04  0.22840862873E+04  0.25500000920E-02 0. -1.
       -2   -1    0    0    0  501  0.00000000000E+00  0.00000000000E+00 -0.39599818769E+03  0.39599818770E+03  0.25500000920E-02 0.  1.
    10030    2    1    2    0    0  0.00000000000E+00  0.00000000000E+00  0.18880880996E+04  0.26800844750E+04  0.19020978211E+04 0.  0.
        3    1    3    3  502    0 -0.25459169460E+03  0.39532769195E+02  0.22339773284E+04  0.22487851131E+04  0.10100000352E+00 0. -1.
       -3    1    3    3    0  502  0.25459169460E+03 -0.39532769195E+02 -0.34588922879E+03  0.43129936192E+03  0.10100000352E+00 0.  1.
</event>
<event>
 5   0  0.2527750E-06  0.1901373E+04  0.7818609E-02  0.8654173E-01
       -4   -1    0    0    0  501  0.00000000000E+00  0.00000000000E+00  0.12777196140E+04  0.12777202452E+04  0.12699999809E+01 0. -1.
        4   -1    0    0  501    0  0.00000000000E+00  0.00000000000E+00 -0.70735640246E+03  0.70735754255E+03  0.12699999809E+01 0.  1.
    10030    2    1    2    0    0  0.00000000000E+00  0.00000000000E+00  0.57036321153E+03  0.19850777877E+04  0.19013730907E+04 0.  0.
        5    1    3    3  502    0  0.70550226456E+03  0.56161321186E+03 -0.29136985334E+02  0.90222718810E+03  0.46999998093E+01 0.  1.
       -5    1    3    3    0  502 -0.70550226456E+03 -0.56161321186E+03  0.59950019687E+03  0.10828505996E+04  0.46999998093E+01 0. -1.
</event>
<event>
 5   0  0.3379108E-06  0.1898559E+04  0.7818609E-02  0.8655574E-01
        1   -1    0    0  501    0  0.00000000000E+00  0.00000000000E+00  0.27217687395E+04  0.27217687395E+04  0.50400001928E-02 0. -1.
       -1   -1    0    0    0  501  0.00000000000E+00  0.00000000000E+00 -0.33108308302E+03  0.33108308306E+03  0.50400001928E-02 0.  1.
    10030    2    1    2    0    0  0.00000000000E+00  0.00000000000E+00  0.23906856565E+04  0.30528518226E+04  0.18985590174E+04 0.  0.
        4    1    3    3  502    0  0.87986177865E+03  0.31720608390E+03  0.14563791662E+04  0.17308432447E+04  0.12699999809E+01 0.  1.
       -4    1    3    3    0  502 -0.87986177865E+03 -0.31720608390E+03  0.93430649029E+03  0.13220085778E+04  0.12699999809E+01 0. -1.
</event>
<event>
 5   0  0.6984466E-06  0.1900116E+04  0.7818609E-02  0.8654799E-01
       -2   -1    0    0    0  501  0.00000000000E+00  0.00000000000E+00  0.46973698171E+03  0.46973698171E+03  0.25500000920E-02 0. -1.
        2   -1    0    0  501    0  0.00000000000E+00  0.00000000000E+00 -0.19215215943E+04  0.19215215943E+04  0.25500000920E-02 0.  1.
    10030    2    1    2    0    0  0.00000000000E+00  0.00000000000E+00 -0.14517846126E+04  0.23912585760E+04  0.19001155270E+04 0.  0.
        2    1    3    3  502    0  0.85953906247E+03  0.34831102320E+03 -0.46650548136E+03  0.10381499569E+04  0.25500000920E-02 0.  1.
       -2    1    3    3    0  502 -0.85953906247E+03 -0.34831102320E+03 -0.98527913125E+03  0.13531086192E+04  0.25500000920E-02 0. -1.
</event>
<event>
 5   0  0.6984466E-06  0.1900575E+04  0.7818609E-02  0.8654570E-01
       -2   -1    0    0    0  501  0.00000000000E+00  0.00000000000E+00  0.53326803467E+03  0.53326803467E+03  0.25500000920E-02 0.  1.
        2   -1    0    0  501    0  0.00000000000E+00  0.00000000000E+00 -0.16934193355E+04  0.16934193355E+04  0.25500000920E-02 0. -1.
    10030    2    1    2    0    0  0.00000000000E+00  0.00000000000E+00 -0.11601513009E+04  0.22266873702E+04  0.19005750718E+04 0.  0.
        2    1    3    3  502    0 -0.52816914447E+03  0.73144851758E+03 -0.92972457360E+03  0.12955181827E+04  0.25500000920E-02 0.  1.
       -2    1    3    3    0  502  0.52816914447E+03 -0.73144851758E+03 -0.23042672726E+03  0.93116918746E+03  0.25500000920E-02 0. -1.
</event>
<event>
 5   0  0.3398807E-06  0.1899318E+04  0.7818609E-02  0.8655196E-01
        1   -1    0    0  501    0  0.00000000000E+00  0.00000000000E+00  0.80416051090E+03  0.80416051092E+03  0.50400001928E-02 0. -1.
       -1   -1    0    0    0  501  0.00000000000E+00  0.00000000000E+00 -0.11214834103E+04  0.11214834103E+04  0.50400001928E-02 0.  1.
    10030    2    1    2    0    0  0.00000000000E+00  0.00000000000E+00 -0.31732289939E+03  0.19256439212E+04  0.18993184801E+04 0.  0.
        1    1    3    3  502    0  0.32158603450E+03 -0.64650425667E+03  0.46670831557E+03  0.85976856381E+03  0.50400001928E-02 0. -1.
       -1    1    3    3    0  502 -0.32158603450E+03  0.64650425667E+03 -0.78403121496E+03  0.10658753574E+04  0.50400001928E-02 0.  1.
</event>
<event>
 5   0  0.7577180E-06  0.1899889E+04  0.7818609E-02  0.8654912E-01
        2   -1    0    0  501    0  0.00000000000E+00  0.00000000000E+00  0.85487568685E+03  0.85487568685E+03  0.25500000920E-02 0. -1.
       -2   -1    0    0    0  501  0.00000000000E+00  0.00000000000E+00 -0.10555852432E+04  0.10555852432E+04  0.25500000920E-02 0.  1.
    10030    2    1    2    0    0  0.00000000000E+00  0.00000000000E+00 -0.20070955635E+03  0.19104609301E+04  0.18998885860E+04 0.  0.
        5    1    3    3  502    0 -0.80596997128E+03  0.32580289466E+03 -0.48541772930E+03  0.99568447949E+03  0.46999998093E+01 0.  1.
       -5    1    3    3    0  502  0.80596997128E+03 -0.32580289466E+03  0.28470817294E+03  0.91477645057E+03  0.46999998093E+01 0. -1.
</event>
<event>
 5   0  0.3236653E-06  0.1896818E+04  0.7818609E-02  0.8656442E-01
       -1   -1    0    0    0  501  0.00000000000E+00  0.00000000000E+00  0.55948782988E+03  0.55948782991E+03  0.50400001928E-02 0.  1.
        1   -1    0    0  501    0  0.00000000000E+00  0.00000000000E+00 -0.16076833891E+04  0.16076833891E+04  0.50400001928E-02 0. -1.
    10030    2    1    2    0    0  0.00000000000E+00  0.00000000000E+00 -0.10481955593E+04  0.21671712191E+04  0.18968176407E+04 0.  0.
        3    1    3    3  502    0 -0.90405292024E+03 -0.18355857117E+03 -0.77564608505E+03  0.12052519617E+04  0.10100000352E+00 0. -1.
       -3    1    3    3    0  502  0.90405292024E+03  0.18355857117E+03 -0.27254947421E+03  0.96191925739E+03  0.10100000352E+00 0.  1.
</event>
<event>
 5   0  0.7207648E-06  0.1901847E+04  0.7818609E-02  0.8653938E-01
       -2   -1    0    0    0  501  0.00000000000E+00  0.00000000000E+00  0.72374765210E+03  0.72374765210E+03  0.25500000920E-02 0. -1.
        2   -1    0    0  501    0  0.00000000000E+00  0.00000000000E+00 -0.12494069693E+04  0.12494069693E+04  0.25500000920E-02 0.  1.
    10030    2    1    2    0    0  0.00000000000E+00  0.00000000000E+00 -0.52565931724E+03  0.19731546214E+04  0.19018468504E+04 0.  0.
        4    1    3    3  502    0 -0.37968861300E+03 -0.24895680035E+03  0.60402794074E+03  0.75564164614E+03  0.12699999809E+01 0. -1.
       -4    1    3    3    0  502  0.37968861300E+03  0.24895680035E+03 -0.11296872580E+04  0.12175129753E+04  0.12699999809E+01 0.  1.
</event>
<event>
 5   0  0.2527750E-06  0.1900154E+04  0.7818609E-02  0.8654780E-01
       -3   -1    0    0    0  501  0.00000000000E+00  0.00000000000E+00  0.79905910015E+03  0.79905910653E+03  0.10100000352E+00 0. -1.
        3   -1    0    0  501    0  0.00000000000E+00  0.00000000000E+00 -0.11296365252E+04  0.11296365297E+04  0.10100000352E+00 0.  1.
    10030    2    1    2    0    0  0.00000000000E+00  0.00000000000E+00 -0.33057742507E+03  0.19286956363E+04  0.19001540525E+04 0.  0.
        3    1    3    3  502    0 -0.11649065850E+03 -0.86096622918E+03 -0.55552875007E+03  0.10312347568E+04  0.10100000352E+00 0.  1.
       -3    1    3    3    0  502  0.11649065850E+03  0.86096622918E+03  0.22495132500E+03  0.89746087944E+03  0.10100000352E+00 0. -1.
</event>
<event>
 5   0  0.2527750E-06  0.1899664E+04  0.7818609E-02  0.8655024E-01
       -4   -1    0    0    0  501  0.00000000000E+00  0.00000000000E+00  0.47616122851E+03  0.47616292215E+03  0.12699999809E+01 0.  1.
        4   -1    0    0  501    0  0.00000000000E+00  0.00000000000E+00 -0.18946900570E+04  0.18946904827E+04  0.12699999809E+01 0. -1.
    10030    2    1    2    0    0  0.00000000000E+00  0.00000000000E+00 -0.14185288285E+04  0.23708534048E+04  0.18996636096E+04 0.  0.
        5    1    3    3  502    0  0.27511134234E+03 -0.45910499503E+02 -0.18424149208E+04  0.18634132272E+04  0.46999998093E+01 0. -1.
       -5    1    3    3    0  502 -0.27511134234E+03  0.45910499503E+02  0.42388609231E+03  0.50744017766E+03  0.46999998093E+01 0.  1.
</event>
<event>
 5   0  0.3398807E-06  0.1899819E+04  0.7818609E-02  0.8654947E-01
       -1   -1    0    0    0  501  0.00000000000E+00  0.00000000000E+00  0.12244542456E+04  0.12244542456E+04  0.50400001928E-02 0. -1.
        1   -1    0    0  501    0  0.00000000000E+00  0.00000000000E+00 -0.73692227727E+03  0.73692227729E+03  0.50400001928E-02 0.  1.
    10030    2    1    2    0    0  0.00000000000E+00  0.00000000000E+00  0.48753196833E+03  0.19613765229E+04  0.18998185294E+04 0.  0.
        1    1    3    3  502    0 -0.77386269586E+03  0.53008375755E+03  0.88990533962E+02  0.94221631127E+03  0.50400001928E-02 0.  1.
       -1    1    3    3    0  502  0.77386269586E+03 -0.53008375755E+03  0.39854143437E+03  0.10191602116E+04  0.50400001928E-02 0. -1.
</event>
<event>
 5   0  0.3398807E-06  0.1899416E+04  0.7818609E-02  0.8655147E-01
        1   -1    0    0  501    0  0.00000000000E+00  0.00000000000E+00  0.98593102005E+03  0.98593102007E+03  0.50400001928E-02 0.  1.
       -1   -1    0    0    0  501  0.00000000000E+00  0.00000000000E+00 -0.91481595263E+03  0.91481595264E+03  0.50400001928E-02 0. -1.
    10030    2    1    2    0    0  0.00000000000E+00  0.00000000000E+00  0.71115067428E+02  0.19007469727E+04  0.18994161475E+04 0.  0.
        1    1    3    3  502    0 -0.46149043334E+02  0.76830459100E+03  0.59229592284E+03  0.97120344881E+03  0.50400001928E-02 0.  1.
       -1    1    3    3    0  502  0.46149043334E+02 -0.76830459100E+03 -0.52118085541E+03  0.92954352390E+03  0.50400001928E-02 0. -1.
</event>
<event>
 5   0  0.3236653E-06  0.1900579E+04  0.7818609E-02  0.8654568E-01
        1   -1    0    0  501    0  0.00000000000E+00  0.00000000000E+00  0.12251388459E+04  0.12251388459E+04  0.50400001928E-02 0. -1.
       -1   -1    0    0    0  501  0.00000000000E+00  0.00000000000E+00 -0.73710038397E+03  0.73710038398E+03  0.50400001928E-02 0.  1.
    10030    2    1    2    0    0  0.00000000000E+00  0.00000000000E+00  0.48803846195E+03  0.19622392299E+04  0.19005791894E+04 0.  0.
        3    1    3    3  502    0 -0.86378905109E+03  0.39405431338E+03  0.20220878030E+03  0.97072072591E+03  0.10100000352E+00 0.  1.
       -3    1    3    3    0  502  0.86378905109E+03 -0.39405431338E+03  0.28582968165E+03  0.99151850401E+03  0.10100000352E+00 0. -1.
</event>
<event>
 5   0  0.7207648E-06  0.1907943E+04  0.7818609E-02  0.8650913E-01
        2   -1    0    0  501    0  0.00000000000E+00  0.00000000000E+00  0.16018877540E+04  0.16018877540E+04  0.25500000920E-02 0.  1.
       -2   -1    0    0    0  501  0.00000000000E+00  0.00000000000E+00 -0.56811839650E+03  0.56811839650E+03  0.25500000920E-02 0. -1.
    10030    2    1    2    0    0  0.00000000000E+00  0.00000000000E+00  0.10337693575E+04  0.21700061505E+04  0.19079432928E+04 0.  0.
        4    1    3    3  502    0  0.36813829397E+02 -0.41682879063E+03 -0.45816556790E+03  0.62049883098E+03  0.12699999809E+01 0. -1.
       -4    1    3    3    0  502 -0.36813829397E+02  0.41682879063E+03  0.14919349254E+04  0.15495073195E+04  0.12699999809E+01 0.  1.
</event>
<event>
 5   0  0.6870370E-06  0.1898451E+04  0.7818609E-02  0.8655628E-01
       -2   -1    0    0    0  501  0.00000000000E+00  0.00000000000E+00  0.95619865396E+03  0.95619865396E+03  0.25500000920E-02 0. -1.
        2   -1    0    0  501    0  0.00000000000E+00  0.00000000000E+00 -0.94230283614E+03  0.94230283615E+03  0.25500000920E-02 0.  1.
    10030    2    1    2    0    0  0.00000000000E+00  0.00000000000E+00  0.13895817812E+02  0.18985014901E+04  0.18984506352E+04 0.  0.
        1    1    3    3  502    0  0.86460234332E+03 -0.30568169774E+03  0.25200587829E+03  0.95104441280E+03  0.50400001928E-02 0. -1.
       -1    1    3    3    0  502 -0.86460234332E+03  0.30568169774E+03 -0.23811006048E+03  0.94745707730E+03  0.50400001928E-02 0.  1.
</event>
<event>
 5   0  0.2527750E-06  0.1899353E+04  0.7818609E-02  0.8655178E-01
       -4   -1    0    0    0  501  0.00000000000E+00  0.00000000000E+00  0.14140049458E+04  0.14140055162E+04  0.12699999809E+01 0. -1.
        4   -1    0    0  501    0  0.00000000000E+00  0.00000000000E+00 -0.63782233595E+03  0.63782360033E+03  0.12699999809E+01 0.  1.
    10030    2    1    2    0    0  0.00000000000E+00  0.00000000000E+00  0.77618260989E+03  0.20518291165E+04  0.18993533845E+04 0.  0.
        5    1    3    3  502    0 -0.59719698555E+03 -0.35699968631E+03  0.10863307987E+04  0.12900502742E+04  0.46999998093E+01 0. -1.
       -5    1    3    3    0  502  0.59719698555E+03  0.35699968631E+03 -0.31014818885E+03  0.76177884233E+03  0.46999998093E+01 0.  1.
</event>
<event>
 5   0  0.3495279E-06  0.1900213E+04  0.7818609E-02  0.8654750E-01
        1   -1    0    0  501    0  0.00000000000E+00  0.00000000000E+00  0.11314124241E+04  0.11314124242E+04  0.50400001928E-02 0. -1.
       -1   -1    0    0    0  501  0.00000000000E+00  0.00000000000E+00 -0.79785457791E+03  0.79785457792E+03  0.50400001928E-02 0.  1.
    10030    2    1    2    0    0  0.00000000000E+00  0.00000000000E+00  0.33355784624E+03  0.19292670021E+04  0.19002132324E+04 0.  0.
        2    1    3    3  502    0  0.27212280339E+03  0.55400603118E+03  0.90013098938E+03  0.10914253528E+04  0.25500000920E-02 0. -1.
       -2    1    3    3    0  502 -0.27212280339E+03 -0.55400603118E+03 -0.56657314315E+03  0.83784164926E+03  0.25500000920E-02 0.  1.
</event>
<event>
 5   0  0.3211263E-06  0.1900087E+04  0.7818609E-02  0.8654813E-01
        1   -1    0    0  501    0  0.00000000000E+00  0.00000000000E+00  0.11715221052E+04  0.11715221052E+04  0.50400001928E-02 0.  1.
       -1   -1    0    0    0  501  0.00000000000E+00  0.00000000000E+00 -0.77043607378E+03  0.77043607379E+03  0.50400001928E-02 0. -1.
    10030    2    1    2    0    0  0.00000000000E+00  0.00000000000E+00  0.40108603145E+03  0.19419581790E+04  0.19000872518E+04 0.  0.
        5    1    3    3  502    0  0.17937086402E+03  0.68154246602E+03 -0.45058858328E+03  0.83649638447E+03  0.46999998093E+01 0. -1.
       -5    1    3    3    0  502 -0.17937086402E+03 -0.68154246602E+03  0.85167461472E+03  0.11054617946E+04  0.46999998093E+01 0.  1.
</event>
<event>
 5   0  0.7207648E-06  0.1899909E+04  0.7818609E-02  0.8654902E-01
        2   -1    0    0  501    0  0.00000000000E+00  0.00000000000E+00  0.87351385171E+03  0.87351385172E+03  0.25500000920E-02 0.  1.
       -2   -1    0    0    0  501  0.00000000000E+00  0.00000000000E+00 -0.10330847582E+04  0.10330847582E+04  0.25500000920E-02 0. -1.
    10030    2    1    2    0    0  0.00000000000E+00  0.00000000000E+00 -0.15957090645E+03  0.19065986099E+04  0.18999093097E+04 0.  0.
        4    1    3    3  502    0  0.77749771456E+03  0.10146364846E+03  0.45839994995E+03  0.90825640384E+03  0.12699999809E+01 0.  1.
       -4    1    3    3    0  502 -0.77749771456E+03 -0.10146364846E+03 -0.61797085640E+03  0.99834220604E+03  0.12699999809E+01 0. -1.
</event>
<event>
 5   0  0.3236653E-06  0.1899621E+04  0.7818609E-02  0.8655045E-01
        1   -1    0    0  501    0  0.00000000000E+00  0.00000000000E+00  0.12969991202E+04  0.12969991202E+04  0.50400001928E-02 0. -1.
       -1   -1    0    0    0  501  0.00000000000E+00  0.00000000000E+00 -0.69555935777E+03  0.69555935779E+03  0.50400001928E-02 0.  1.
    10030    2    1    2    0    0  0.00000000000E+00  0.00000000000E+00  0.60143976246E+03  0.19925584780E+04  0.18996208834E+04 0.  0.
        3    1    3    3  502    0  0.25350219395E+03 -0.31118796599E+03  0.12036716271E+04  0.12688288728E+04  0.10100000352E+00 0. -1.
       -3    1    3    3    0  502 -0.25350219395E+03  0.31118796599E+03 -0.60223186460E+03  0.72372960521E+03  0.10100000352E+00 0.  1.
</event>
<event>
 5   0  0.7207648E-06  0.1900081E+04  0.7818609E-02  0.8654816E-01
       -2   -1    0    0    0  501  0.00000000000E+00  0.00000000000E+00  0.19430727399E+04  0.19430727399E+04  0.25500000920E-02 0.  1.
        2   -1    0    0  501    0  0.00000000000E+00  0.00000000000E+00 -0.46450987727E+03  0.46450987728E+03  0.25500000920E-02 0. -1.
    10030    2    1    2    0    0  0.00000000000E+00  0.00000000000E+00  0.14785628626E+04  0.24075826171E+04  0.19000805035E+04 0.  0.
        4    1    3    3  502    0 -0.63579998318E+02  0.73382632802E+03  0.14995715910E+04  0.16707064570E+04  0.12699999809E+01 0.  1.
       -4    1    3    3    0  502  0.63579998318E+02 -0.73382632802E+03 -0.21008728405E+02  0.73687616019E+03  0.12699999809E+01 0. -1.
</event>
<event>
 5   0  0.3236653E-06  0.1899664E+04  0.7818609E-02  0.8655024E-01
        1   -1    0    0  501    0  0.00000000000E+00  0.00000000000E+00  0.12315392932E+04  0.12315392932E+04  0.50400001928E-02 0. -1.
       -1   -1    0    0    0  501  0.00000000000E+00  0.00000000000E+00 -0.73256330788E+03  0.73256330789E+03  0.50400001928E-02 0.  1.
    10030    2    1    2    0    0  0.00000000000E+00  0.00000000000E+00  0.49897598529E+03  0.19641026011E+04  0.18996636528E+04 0.  0.
        3    1    3    3  502    0 -0.48795763404E+02  0.74903188736E+03  0.85125386472E+03  0.11349286089E+04  0.10100000352E+00 0. -1.
       -3    1    3    3    0  502  0.48795763404E+02 -0.74903188736E+03 -0.35227787943E+03  0.82917399221E+03  0.10100000352E+00 0.  1.
</event>
<event>
 5   0  0.3236653E-06  0.1900250E+04  0.7818609E-02  0.8654732E-01
       -1   -1    0    0    0  501  0.00000000000E+00  0.00000000000E+00  0.91523085362E+03  0.91523085363E+03  0.50400001928E-02 0.  1.
        1   -1    0    0  501    0  0.00000000000E+00  0.00000000000E+00 -0.98634956562E+03  0.98634956563E+03  0.50400001928E-02 0. -1.
    10030    2    1    2    0    0  0.00000000000E+00  0.00000000000E+00 -0.71118712003E+02  0.19015804193E+04  0.19002500414E+04 0.  0.
        3    1    3    3  502    0  0.59504173321E+03  0.70628288087E+02 -0.77341845656E+03  0.97838598646E+03  0.10100000352E+00 0. -1.
       -3    1    3    3    0  502 -0.59504173321E+03 -0.70628288087E+02  0.70229974456E+03  0.92319443280E+03  0.10100000352E+00 0.  1.
</event>
<event>
 5   0  0.7207648E-06  0.1900898E+04  0.7818609E-02  0.8654410E-01
        2   -1    0    0  501    0  0.00000000000E+00  0.00000000000E+00  0.11182272166E+04  0.11182272166E+04  0.25500000920E-02 0. -1.
       -2   -1    0    0    0  501  0.00000000000E+00  0.00000000000E+00 -0.80784414317E+03  0.80784414317E+03  0.25500000920E-02 0.  1.
    10030    2    1    2    0    0  0.00000000000E+00  0.00000000000E+00  0.31038307344E+03  0.19260713598E+04  0.19008980064E+04 0.  0.
        4    1    3    3  502    0  0.50596508811E+03 -0.28668696460E+03  0.91691947472E+03  0.10857868217E+04  0.12699999809E+01 0. -1.
       -4    1    3    3    0  502 -0.50596508811E+03  0.28668696460E+03 -0.60653640128E+03  0.84028453814E+03  0.12699999809E+01 0.  1.
</event>
<event>
 5   0  0.6870370E-06  0.1900384E+04  0.7818609E-02  0.8654665E-01
        2   -1    0    0  501    0  0.00000000000E+00  0.00000000000E+00  0.85726057550E+03  0.85726057551E+03  0.25500000920E-02 0.  1.
       -2   -1    0    0    0  501  0.00000000000E+00  0.00000000000E+00 -0.10531972883E+04  0.10531972883E+04  0.25500000920E-02 0. -1.
    10030    2    1    2    0    0  0.00000000000E+00  0.00000000000E+00 -0.19593671281E+03  0.19104578638E+04  0.19003836597E+04 0.  0.
        1    1    3    3  502    0 -0.58575493057E+03  0.61780970669E+03  0.32624828692E+03  0.91172123871E+03  0.50400001928E-02 0.  1.
       -1    1    3    3    0  502  0.58575493057E+03 -0.61780970669E+03 -0.52218499973E+03  0.99873662511E+03  0.50400001928E-02 0. -1.
</event>
<event>
 5   0  0.6984466E-06  0.1899992E+04  0.7818609E-02  0.8654860E-01
       -2   -1    0    0    0  501  0.00000000000E+00  0.00000000000E+00  0.62501079592E+03  0.62501079593E+03  0.25500000920E-02 0.  1.
        2   -1    0    0  501    0  0.00000000000E+00  0.00000000000E+00 -0.14439632283E+04  0.14439632283E+04  0.25500000920E-02 0. -1.
    10030    2    1    2    0    0  0.00000000000E+00  0.00000000000E+00 -0.81895243237E+03  0.20689740242E+04  0.18999922175E+04 0.  0.
        2    1    3    3  502    0  0.17837006170E+03  0.25258234441E+03  0.56867813687E+03  0.64730869218E+03  0.25500000920E-02 0.  1.
       -2    1    3    3    0  502 -0.17837006170E+03 -0.25258234441E+03 -0.13876305692E+04  0.14216653320E+04  0.25500000920E-02 0. -1.
</event>
<event>
 5   0  0.7207648E-06  0.1900190E+04  0.7818609E-02  0.8654762E-01
       -2   -1    0    0    0  501  0.00000000000E+00  0.00000000000E+00  0.57860740452E+03  0.57860740453E+03  0.25500000920E-02 0.  1.
        2   -1    0    0  501    0  0.00000000000E+00  0.00000000000E+00 -0.15600916336E+04  0.15600916336E+04  0.25500000920E-02 0. -1.
    10030    2    1    2    0    0  0.00000000000E+00  0.00000000000E+00 -0.98148422903E+03  0.21386990381E+04  0.19001900651E+04 0.  0.
        4    1    3    3  502    0 -0.43262269647E+03  0.27546900953E+03  0.40941473958E+03  0.65625270635E+03  0.12699999809E+01 0.  1.
       -4    1    3    3    0  502  0.43262269647E+03 -0.27546900953E+03 -0.13908989686E+04  0.14824463317E+04  0.12699999809E+01 0. -1.
</event>
<event>
 5   0  0.3398807E-06  0.1900333E+04  0.7818609E-02  0.8654691E-01
       -1   -1    0    0    0  501  0.00000000000E+00  0.00000000000E+00  0.84628256008E+03  0.84628256010E+03  0.50400001928E-02 0.  1.
        1   -1    0    0  501    0  0.00000000000E+00  0.00000000000E+00 -0.10668026182E+04  0.10668026182E+04  0.50400001928E-02 0. -1.
    10030    2    1    2    0    0  0.00000000000E+00  0.00000000000E+00 -0.22052005814E+03  0.19130851783E+04  0.19003330770E+04 0.  0.
        1    1    3    3  502    0 -0.89574103327E+03 -0.17608341863E+03 -0.37557948522E+03  0.98712578669E+03  0.50400001928E-02 0. -1.
       -1    1    3    3    0  502  0.89574103327E+03  0.17608341863E+03  0.15505942709E+03  0.92595939164E+03  0.50400001928E-02 0.  1.
</event>
<event>
 5   0  0.3236653E-06  0.1898612E+04  0.7818609E-02  0.8655547E-01
        1   -1    0    0  501    0  0.00000000000E+00  0.00000000000E+00  0.14583638622E+04  0.14583638622E+04  0.50400001928E-02 0.  1.
       -1   -1    0    0    0  501  0.00000000000E+00  0.00000000000E+00 -0.61794062719E+03  0.61794062721E+03  0.50400001928E-02 0. -1.
    10030    2    1    2    0    0  0.00000000000E+00  0.00000000000E+00  0.84042323500E+03  0.20763044894E+04  0.18986124193E+04 0.  0.
        3    1    3    3  502    0  0.25171970959E+03 -0.81059525359E+03  0.88515453415E+03  0.12263466218E+04  0.10100000352E+00 0.  1.
       -3    1    3    3    0  502 -0.25171970959E+03  0.81059525359E+03 -0.44731299147E+02  0.84995786758E+03  0.10100000352E+00 0. -1.
</event>
<event>
 5   0  0.6984466E-06  0.1898028E+04  0.7818609E-02  0.8655838E-01
       -2   -1    0    0    0  501  0.00000000000E+00  0.00000000000E+00  0.61737001858E+03  0.61737001859E+03  0.25500000920E-02 0.  1.
        2   -1    0    0  501    0  0.00000000000E+00  0.00000000000E+00 -0.14588137358E+04  0.14588137358E+04  0.25500000920E-02 0. -1.
    10030    2    1    2    0    0  0.00000000000E+00  0.00000000000E+00 -0.84144371724E+03  0.20761837544E+04  0.18980283066E+04 0.  0.
        2    1    3    3  502    0  0.86141752057E+03  0.38713489035E+03 -0.52283443533E+03  0.10794764540E+04  0.25500000920E-02 0. -1.
       -2    1    3    3    0  502 -0.86141752057E+03 -0.38713489035E+03 -0.31860928191E+03  0.99670730037E+03  0.25500000920E-02 0.  1.
</event>
<event>
 5   0  0.3495279E-06  0.1903116E+04  0.7818609E-02  0.8653307E-01
       -1   -1    0    0    0  501  0.00000000000E+00  0.00000000000E+00  0.49249881842E+03  0.49249881845E+03  0.50400001928E-02 0.  1.
        1   -1    0    0  501    0  0.00000000000E+00  0.00000000000E+00 -0.18385069779E+04  0.18385069780E+04  0.50400001928E-02 0. -1.
    10030    2    1    2    0    0  0.00000000000E+00  0.00000000000E+00 -0.13460081595E+04  0.23310057964E+04  0.19031158812E+04 0.  0.
        2    1    3    3  502    0 -0.63742867173E+03 -0.53829219940E+03 -0.12334771516E+04  0.14891405868E+04  0.25500000920E-02 0. -1.
       -2    1    3    3    0  502  0.63742867173E+03  0.53829219940E+03 -0.11253100788E+03  0.84186520965E+03  0.25500000920E-02 0.  1.
</event>
<event>
 5   0  0.3379108E-06  0.1899827E+04  0.7818609E-02  0.8654942E-01
       -1   -1    0    0    0  501  0.00000000000E+00  0.00000000000E+00  0.68895627850E+03  0.68895627852E+03  0.50400001928E-02 0. -1.
        1   -1    0    0  501    0  0.00000000000E+00  0.00000000000E+00 -0.13097144278E+04  0.13097144278E+04  0.50400001928E-02 0.  1.
    10030    2    1    2    0    0  0.00000000000E+00  0.00000000000E+00 -0.62075814931E+03  0.19986707063E+04  0.18998273375E+04 0.  0.
        4    1    3    3  502    0 -0.42853640145E+03  0.28508455796E+03 -0.11503015031E+04  0.12602030842E+04  0.12699999809E+01 0.  1.
       -4    1    3    3    0  502  0.42853640145E+03 -0.28508455796E+03  0.52954335375E+03  0.73846762215E+03  0.12699999809E+01 0. -1.
</event>
<event>
 5   0  0.3379108E-06  0.1900101E+04  0.7818609E-02  0.8654806E-01
        1   -1    0    0  501    0  0.00000000000E+00  0.00000000000E+00  0.73056238280E+03  0.73056238282E+03  0.50400001928E-02 0.  1.
       -1   -1    0    0    0  501  0.00000000000E+00  0.00000000000E+00 -0.12354807358E+04  0.12354807358E+04  0.50400001928E-02 0. -1.
    10030    2    1    2    0    0  0.00000000000E+00  0.00000000000E+00 -0.50491835297E+03  0.19660431186E+04  0.19001007871E+04 0.  0.
        4    1    3    3  502    0  0.89254186038E+03 -0.23719827560E+03 -0.48313135603E+03  0.10422626898E+04  0.12699999809E+01 0. -1.
       -4    1    3    3    0  502 -0.89254186038E+03  0.23719827560E+03 -0.21786996933E+02  0.92378042879E+03  0.12699999809E+01 0.  1.
</event>
<event>
 5   0  0.6984466E-06  0.1897649E+04  0.7818609E-02  0.8656028E-01
       -2   -1    0    0    0  501  0.00000000000E+00  0.00000000000E+00  0.16036792645E+04  0.16036792645E+04  0.25500000920E-02 0. -1.
        2   -1    0    0  501    0  0.00000000000E+00  0.00000000000E+00 -0.56137640614E+03  0.56137640615E+03  0.25500000920E-02 0.  1.
    10030    2    1    2    0    0  0.00000000000E+00  0.00000000000E+00  0.10423028584E+04  0.21650556707E+04  0.18976487579E+04 0.  0.
        2    1    3    3  502    0  0.50146922711E+03 -0.74091550726E+03  0.88165259278E+03  0.12560805981E+04  0.25500000920E-02 0. -1.
       -2    1    3    3    0  502 -0.50146922711E+03  0.74091550726E+03  0.16065026558E+03  0.90897507252E+03  0.25500000920E-02 0.  1.
</event>
<event>
 5   0  0.3398807E-06  0.1899517E+04  0.7818609E-02  0.8655097E-01
       -1   -1    0    0    0  501  0.00000000000E+00  0.00000000000E+00  0.97083567318E+03  0.97083567319E+03  0.50400001928E-02 0.  1.
        1   -1    0    0  501    0  0.00000000000E+00  0.00000000000E+00 -0.92913884158E+03  0.92913884159E+03  0.50400001928E-02 0. -1.
    10030    2    1    2    0    0  0.00000000000E+00  0.00000000000E+00  0.41696831604E+02  0.18999745148E+04  0.18995169204E+04 0.  0.
        1    1    3    3  502    0  0.62214193046E+03 -0.47218009221E+03 -0.51967653937E+03  0.93812489931E+03  0.50400001928E-02 0. -1.
       -1    1    3    3    0  502 -0.62214193046E+03  0.47218009221E+03  0.56137337097E+03  0.96184961547E+03  0.50400001928E-02 0.  1.
</event>
<event>
 5   0  0.6984466E-06  0.1901766E+04  0.7818609E-02  0.8653978E-01
       -2   -1    0    0    0  501  0.00000000000E+00  0.00000000000E+00  0.53007788378E+03  0.53007788379E+03  0.25500000920E-02 0.  1.
        2   -1    0    0  501    0  0.00000000000E+00  0.00000000000E+00 -0.17057468064E+04  0.17057468064E+04  0.25500000920E-02 0. -1.
    10030    2    1    2    0    0  0.00000000000E+00  0.00000000000E+00 -0.11756689226E+04  0.22358246902E+04  0.19017661869E+04 0.  0.
        2    1    3    3  502    0  0.61742091163E+03 -0.41991977627E+03  0.10434446226E+03  0.75394228389E+03  0.25500000920E-02 0.  1.
       -2    1    3    3    0  502 -0.61742091163E+03  0.41991977627E+03 -0.12800133849E+04  0.14818824063E+04  0.25500000920E-02 0. -1.
</event>
<event>
 5   0  0.6984466E-06  0.1897524E+04  0.7818609E-02  0.8656090E-01
       -2   -1    0    0    0  501  0.00000000000E+00  0.00000000000E+00  0.55617706406E+03  0.55617706406E+03  0.25500000920E-02 0.  1.
        2   -1    0    0  501    0  0.00000000000E+00  0.00000000000E+00 -0.16184576727E+04  0.16184576727E+04  0.25500000920E-02 0. -1.
    10030    2    1    2    0    0  0.00000000000E+00  0.00000000000E+00 -0.10622806086E+04  0.21746347367E+04  0.18975236881E+04 0.  0.
        2    1    3    3  502    0  0.42433563438E+03  0.81762264258E+03 -0.79142353250E+03  0.12144623189E+04  0.25500000920E-02 0. -1.
       -2    1    3    3    0  502 -0.42433563438E+03 -0.81762264258E+03 -0.27085707612E+03  0.96017241783E+03  0.25500000920E-02 0.  1.
</event>
<event>
 5   0  0.6984466E-06  0.1899088E+04  0.7818609E-02  0.8655311E-01
       -2   -1    0    0    0  501  0.00000000000E+00  0.00000000000E+00  0.72987657547E+03  0.72987657548E+03  0.25500000920E-02 0. -1.
        2   -1    0    0  501    0  0.00000000000E+00  0.00000000000E+00 -0.12353230217E+04  0.12353230217E+04  0.25500000920E-02 0.  1.
    10030    2    1    2    0    0  0.00000000000E+00  0.00000000000E+00 -0.50544644621E+03  0.19651995972E+04  0.18990875037E+04 0.  0.
        2    1    3    3  502    0  0.47884845995E+03  0.55095941068E+03 -0.88113756324E+03  0.11442270427E+04  0.25500000920E-02 0.  1.
       -2    1    3    3    0  502 -0.47884845995E+03 -0.55095941068E+03  0.37569111703E+03  0.82097255449E+03  0.25500000920E-02 0. -1.
</event>
<event>
 5   0  0.6870370E-06  0.1899593E+04  0.7818609E-02  0.8655059E-01
        2   -1    0    0  501    0  0.00000000000E+00  0.00000000000E+00  0.20914352277E+04  0.20914352277E+04  0.25500000920E-02 0. -1.
       -2   -1    0    0    0  501  0.00000000000E+00  0.00000000000E+00 -0.43133696499E+03  0.43133696500E+03  0.25500000920E-02 0.  1.
    10030    2    1    2    0    0  0.00000000000E+00  0.00000000000E+00  0.16600982627E+04  0.25227721927E+04  0.18995929286E+04 0.  0.
        1    1    3    3  502    0  0.36708749348E+03  0.50117722861E+03 -0.12410536429E+03  0.63350926103E+03  0.50400001928E-02 0.  1.
       -1    1    3    3    0  502 -0.36708749348E+03 -0.50117722861E+03  0.17842036270E+04  0.18892629316E+04  0.50400001928E-02 0. -1.
</event>
<event>
 5   0  0.3495279E-06  0.1899755E+04  0.7818609E-02  0.8654978E-01
       -1   -1    0    0    0  501  0.00000000000E+00  0.00000000000E+00  0.12240461937E+04  0.12240461937E+04  0.50400001928E-02 0. -1.
        1   -1    0    0  501    0  0.00000000000E+00  0.00000000000E+00 -0.73711876518E+03  0.73711876520E+03  0.50400001928E-02 0.  1.
    10030    2    1    2    0    0  0.00000000000E+00  0.00000000000E+00  0.48692742856E+03  0.19611649589E+04  0.18997551620E+04 0.  0.
        2    1    3    3  502    0 -0.77661014020E+03 -0.24342835438E+03 -0.26215089933E+03  0.85504606168E+03  0.25500000920E-02 0.  1.
       -2    1    3    3    0  502  0.77661014020E+03  0.24342835438E+03  0.74907832788E+03  0.11061188973E+04  0.25500000920E-02 0. -1.
</event>
<event>
 5   0  0.7207648E-06  0.1899752E+04  0.7818609E-02  0.8654980E-01
        2   -1    0    0  501    0  0.00000000000E+00  0.00000000000E+00  0.65373579632E+03  0.65373579633E+03  0.25500000920E-02 0.  1.
       -2   -1    0    0    0  501  0.00000000000E+00  0.00000000000E+00 -0.13801674550E+04  0.13801674550E+04  0.25500000920E-02 0. -1.
    10030    2    1    2    0    0  0.00000000000E+00  0.00000000000E+00 -0.72643165870E+03  0.20339032513E+04  0.18997524789E+04 0.  0.
        4    1    3    3  502    0 -0.68741603339E+03 -0.50375287502E+03  0.85875518617E+02  0.85655354745E+03  0.12699999809E+01 0.  1.
       -4    1    3    3    0  502  0.68741603339E+03  0.50375287502E+03 -0.81230717732E+03  0.11773497039E+04  0.12699999809E+01 0. -1.
</event>
<event>
 5   0  0.7577180E-06  0.1899734E+04  0.7818609E-02  0.8654989E-01
       -2   -1    0    0    0  501  0.00000000000E+00  0.00000000000E+00  0.17964684913E+04  0.17964684913E+04  0.25500000920E-02 0.  1.
        2   -1    0    0  501    0  0.00000000000E+00  0.00000000000E+00 -0.50223368088E+03  0.50223368088E+03  0.25500000920E-02 0. -1.
    10030    2    1    2    0    0  0.00000000000E+00  0.00000000000E+00  0.12942348104E+04  0.22987021722E+04  0.18997336476E+04 0.  0.
        5    1    3    3  502    0 -0.75313631576E+03  0.57708826062E+03  0.59327900685E+03  0.11190385340E+04  0.46999998093E+01 0. -1.
       -5    1    3    3    0  502  0.75313631576E+03 -0.57708826062E+03  0.70095580359E+03  0.11796636382E+04  0.46999998093E+01 0.  1.
</event>
<event>
 5   0  0.3236653E-06  0.1900305E+04  0.7818609E-02  0.8654705E-01
        1   -1    0    0  501    0  0.00000000000E+00  0.00000000000E+00  0.83263302547E+03  0.83263302549E+03  0.50400001928E-02 0. -1.
       -1   -1    0    0    0  501  0.00000000000E+00  0.00000000000E+00 -0.10842584893E+04  0.10842584893E+04  0.50400001928E-02 0.  1.
    10030    2    1    2    0    0  0.00000000000E+00  0.00000000000E+00 -0.25162546378E+03  0.19168915148E+04  0.19003046349E+04 0.  0.
        3    1    3    3  502    0  0.60323393217E+03  0.51403785145E+02  0.61287407933E+03  0.86148022227E+03  0.10100000352E+00 0. -1.
       -3    1    3    3    0  502 -0.60323393217E+03 -0.51403785145E+02 -0.86449954311E+03  0.10554112925E+04  0.10100000352E+00 0.  1.
</event>
<event>
 5   0  0.7577180E-06  0.1899655E+04  0.7818609E-02  0.8655028E-01
        2   -1    0    0  501    0  0.00000000000E+00  0.00000000000E+00  0.13129308040E+04  0.13129308040E+04  0.25500000920E-02 0.  1.
       -2   -1    0    0    0  501  0.00000000000E+00  0.00000000000E+00 -0.68714377854E+03  0.68714377854E+03  0.25500000920E-02 0. -1.
    10030    2    1    2    0    0  0.00000000000E+00  0.00000000000E+00  0.62578702549E+03  0.20000745826E+04  0.18996549515E+04 0.  0.
        5    1    3    3  502    0  0.10747708847E+03  0.40417966741E+03  0.12107556006E+04  0.12809620379E+04  0.46999998093E+01 0.  1.
       -5    1    3    3    0  502 -0.10747708847E+03 -0.40417966741E+03 -0.58496857511E+03  0.71911254471E+03  0.46999998093E+01 0. -1.
</event>
<event>
 5   0  0.3211263E-06  0.1899767E+04  0.7818609E-02  0.8654972E-01
        1   -1    0    0  501    0  0.00000000000E+00  0.00000000000E+00  0.10131730481E+04  0.10131730481E+04  0.50400001928E-02 0. -1.
       -1   -1    0    0    0  501  0.00000000000E+00  0.00000000000E+00 -0.89054743962E+03  0.89054743963E+03  0.50400001928E-02 0.  1.
    10030    2    1    2    0    0  0.00000000000E+00  0.00000000000E+00  0.12262560844E+03  0.19037204877E+04  0.18997670003E+04 0.  0.
        5    1    3    3  502    0  0.20143525691E+03 -0.57876704893E+02  0.98970219075E+03  0.10116612042E+04  0.46999998093E+01 0. -1.
       -5    1    3    3    0  502 -0.20143525691E+03  0.57876704893E+02 -0.86707658231E+03  0.89205928351E+03  0.46999998093E+01 0.  1.
</event>
<event>
 5   0  0.7577180E-06  0.1899326E+04  0.7818609E-02  0.8655192E-01
        2   -1    0    0  501    0  0.00000000000E+00  0.00000000000E+00  0.12138772447E+04  0.12138772447E+04  0.25500000920E-02 0. -1.
       -2   -1    0    0    0  501  0.00000000000E+00  0.00000000000E+00 -0.74295819711E+03  0.74295819711E+03  0.25500000920E-02 0.  1.
    10030    2    1    2    0    0  0.00000000000E+00  0.00000000000E+00  0.47091904760E+03  0.19568354418E+04  0.18993262482E+04 0.  0.
        5    1    3    3  502    0 -0.14100052420E+03  0.14114915248E+03  0.11920297625E+04  0.12086195744E+04  0.46999998093E+01 0. -1.
       -5    1    3    3    0  502  0.14100052420E+03 -0.14114915248E+03 -0.72111071489E+03  0.74821586738E+03  0.46999998093E+01 0.  1.
</event>
<event>
 5   0  0.6984466E-06  0.1900564E+04  0.7818609E-02  0.8654576E-01
        2   -1    0    0  501    0  0.00000000000E+00  0.00000000000E+00  0.86395867563E+03  0.86395867563E+03  0.25500000920E-02 0. -1.
       -2   -1    0    0    0  501  0.00000000000E+00  0.00000000000E+00 -0.10452305276E+04  0.10452305276E+04  0.25500000920E-02 0.  1.
    10030    2    1    2    0    0  0.00000000000E+00  0.00000000000E+00 -0.18127185198E+03  0.19091892032E+04  0.19005641082E+04 0.  0.
        2    1    3    3  502    0  0.61630544319E+03 -0.29759201117E+03  0.57163025821E+03  0.89171439179E+03  0.25500000920E-02 0. -1.
       -2    1    3    3    0  502 -0.61630544319E+03  0.29759201117E+03 -0.75290211019E+03  0.10174748115E+04  0.25500000920E-02 0.  1.
</event>
<event>
 5   0  0.3398807E-06  0.1900188E+04  0.7818609E-02  0.8654763E-01
       -1   -1    0    0    0  501  0.00000000000E+00  0.00000000000E+00  0.12392101289E+04  0.12392101289E+04  0.50400001928E-02 0.  1.
        1   -1    0    0  501    0  0.00000000000E+00  0.00000000000E+00 -0.72843038440E+03  0.72843038442E+03  0.50400001928E-02 0. -1.
    10030    2    1    2    0    0  0.00000000000E+00  0.00000000000E+00  0.51077974449E+03  0.19676405133E+04  0.19001876861E+04 0.  0.
        1    1    3    3  502    0  0.42430965079E+03  0.80356207103E+03  0.54259383618E+03  0.10583755254E+04  0.50400001928E-02 0.  1.
       -1    1    3    3    0  502 -0.42430965079E+03 -0.80356207103E+03 -0.31814091691E+02  0.90926498789E+03  0.50400001928E-02 0. -1.
</event>
<event>
 5   0  0.3236653E-06  0.1900332E+04  0.7818609E-02  0.8654691E-01
       -1   -1    0    0    0  501  0.00000000000E+00  0.00000000000E+00  0.54179317627E+03  0.54179317629E+03  0.50400001928E-02 0.  1.
        1   -1    0    0  501    0  0.00000000000E+00  0.00000000000E+00 -0.16663470528E+04  0.16663470528E+04  0.50400001928E-02 0. -1.
    10030    2    1    2    0    0  0.00000000000E+00  0.00000000000E+00 -0.11245538765E+04  0.22081402291E+04  0.19003320368E+04 0.  0.
        3    1    3    3  502    0 -0.50340810668E+03 -0.47854998468E+03  0.19111522372E+03  0.72038520852E+03  0.10100000352E+00 0.  1.
       -3    1    3    3    0  502  0.50340810668E+03  0.47854998468E+03 -0.13156691003E+04  0.14877550206E+04  0.10100000352E+00 0. -1.
</event>
<event>
 5   0  0.7207648E-06  0.1904783E+04  0.7818609E-02  0.8652479E-01
       -2   -1    0    0    0  501  0.00000000000E+00  0.00000000000E+00  0.99565718664E+03  0.99565718665E+03  0.25500000920E-02 0. -1.
        2   -1    0    0  501    0  0.00000000000E+00  0.00000000000E+00 -0.91100620126E+03  0.91100620127E+03  0.25500000920E-02 0.  1.
    10030    2    1    2    0    0  0.00000000000E+00  0.00000000000E+00  0.84650985379E+02  0.19066633879E+04  0.19047833172E+04 0.  0.
        4    1    3    3  502    0  0.51160140579E+03  0.79420758831E+03 -0.78402700284E+02  0.94797167049E+03  0.12699999809E+01 0. -1.
       -4    1    3    3    0  502 -0.51160140579E+03 -0.79420758831E+03  0.16305368566E+03  0.95869171742E+03  0.12699999809E+01 0.  1.
</event>
<event>
 5   0  0.7207648E-06  0.1899364E+04  0.7818609E-02  0.8655173E-01
       -2   -1    0    0    0  501  0.00000000000E+00  0.00000000000E+00  0.67351866194E+03  0.67351866194E+03  0.25500000920E-02 0. -1.
        2   -1    0    0  501    0  0.00000000000E+00  0.00000000000E+00 -0.13390814797E+04  0.13390814797E+04  0.25500000920E-02 0.  1.
    10030    2    1    2    0    0  0.00000000000E+00  0.00000000000E+00 -0.66556281779E+03  0.20126001417E+04  0.18993644900E+04 0.  0.
        4    1    3    3  502    0  0.51484718689E+03 -0.10684780737E+03  0.50519507099E+03  0.72918293482E+03  0.12699999809E+01 0. -1.
       -4    1    3    3    0  502 -0.51484718689E+03  0.10684780737E+03 -0.11707578888E+04  0.12834172068E+04  0.12699999809E+01 0.  1.
</event>
<event>
 5   0  0.6870370E-06  0.1899648E+04  0.7818609E-02  0.8655032E-01
       -2   -1    0    0    0  501  0.00000000000E+00  0.00000000000E+00  0.43762417818E+03  0.43762417819E+03  0.25500000920E-02 0. -1.
        2   -1    0    0  501    0  0.00000000000E+00  0.00000000000E+00 -0.20615072769E+04  0.20615072769E+04  0.25500000920E-02 0.  1.
    10030    2    1    2    0    0  0.00000000000E+00  0.00000000000E+00 -0.16238830988E+04  0.24991314551E+04  0.18996477862E+04 0.  0.
        1    1    3    3  502    0  0.21255109829E+03  0.62587398252E+03  0.85421483296E+02  0.66647808757E+03  0.50400001928E-02 0. -1.
       -1    1    3    3    0  502 -0.21255109829E+03 -0.62587398252E+03 -0.17093045820E+04  0.18326533676E+04  0.50400001928E-02 0.  1.
</event>
<event>
 5   0  0.2527750E-06  0.1900613E+04  0.7818609E-02  0.8654551E-01
       -4   -1    0    0    0  501  0.00000000000E+00  0.00000000000E+00  0.12427143591E+04  0.12427150080E+04  0.12699999809E+01 0. -1.
        4   -1    0    0  501    0  0.00000000000E+00  0.00000000000E+00 -0.72670013621E+03  0.72670124595E+03  0.12699999809E+01 0.  1.
    10030    2    1    2    0    0  0.00000000000E+00  0.00000000000E+00  0.51601422285E+03  0.19694162539E+04  0.19006129809E+04 0.  0.
        4    1    3    3  502    0 -0.58844121667E+03  0.46700380903E+03  0.86107690223E+03  0.11427207304E+04  0.12699999809E+01 0.  1.
       -4    1    3    3    0  502  0.58844121667E+03 -0.46700380903E+03 -0.34506267938E+03  0.82669552359E+03  0.12699999809E+01 0. -1.
</event>
<event>
 5   0  0.3236653E-06  0.1900114E+04  0.7818609E-02  0.8654800E-01
        1   -1    0    0  501    0  0.00000000000E+00  0.00000000000E+00  0.10766296863E+04  0.10766296864E+04  0.50400001928E-02 0. -1.
       -1   -1    0    0    0  501  0.00000000000E+00  0.00000000000E+00 -0.83836485724E+03  0.83836485726E+03  0.50400001928E-02 0.  1.
    10030    2    1    2    0    0  0.00000000000E+00  0.00000000000E+00  0.23826482910E+03  0.19149945436E+04  0.19001142001E+04 0.  0.
        3    1    3    3  502    0  0.23089783925E+01  0.50491281695E+03 -0.69194713903E+03  0.85658224212E+03  0.10100000352E+00 0.  1.
       -3    1    3    3    0  502 -0.23089783925E+01 -0.50491281695E+03  0.93021196813E+03  0.10584123015E+04  0.10100000352E+00 0. -1.
</event>
<event>
 5   0  0.3398807E-06  0.1899428E+04  0.7818609E-02  0.8655141E-01
       -1   -1    0    0    0  501  0.00000000000E+00  0.00000000000E+00  0.96476886750E+03  0.96476886751E+03  0.50400001928E-02 0.  1.
        1   -1    0    0  501    0  0.00000000000E+00  0.00000000000E+00 -0.93489396585E+03  0.93489396586E+03  0.50400001928E-02 0. -1.
    10030    2    1    2    0    0  0.00000000000E+00  0.00000000000E+00  0.29874901655E+02  0.18996628334E+04  0.18994279062E+04 0.  0.
        1    1    3    3  502    0 -0.12006737889E+03 -0.43630878166E+02  0.95613660822E+03  0.96463311295E+03  0.50400001928E-02 0.  1.
       -1    1    3    3    0  502  0.12006737889E+03  0.43630878166E+02 -0.92626170656E+03  0.93502972042E+03  0.50400001928E-02 0. -1.
</event>
<event>
 5   0  0.6984466E-06  0.1897781E+04  0.7818609E-02  0.8655962E-01
       -2   -1    0    0    0  501  0.00000000000E+00  0.00000000000E+00  0.69097576626E+03  0.69097576626E+03  0.25500000920E-02 0. -1.
        2   -1    0    0  501    0  0.00000000000E+00  0.00000000000E+00 -0.13030750596E+04  0.13030750596E+04  0.25500000920E-02 0.  1.
    10030    2    1    2    0    0  0.00000000000E+00  0.00000000000E+00 -0.61209929339E+03  0.19940508259E+04  0.18977811126E+04 0.  0.
        2    1    3    3  502    0 -0.55480158392E+03 -0.12116552594E+03 -0.11048150269E+04  0.12422166179E+04  0.25500000920E-02 0.  1.
       -2    1    3    3    0  502  0.55480158392E+03  0.12116552594E+03  0.49271573352E+03  0.75183420797E+03  0.25500000920E-02 0. -1.
</event>
<event>
 5   0  0.3211263E-06  0.1885693E+04  0.7818609E-02  0.8662011E-01
        1   -1    0    0  501    0  0.00000000000E+00  0.00000000000E+00  0.10800968800E+04  0.10800968800E+04  0.50400001928E-02 0. -1.
       -1   -1    0    0    0  501  0.00000000000E+00  0.00000000000E+00 -0.82303656253E+03  0.82303656254E+03  0.50400001928E-02 0.  1.
    10030    2    1    2    0    0  0.00000000000E+00  0.00000000000E+00  0.25706031747E+03  0.19031334426E+04  0.18856926826E+04 0.  0.
        5    1    3    3  502    0 -0.93230320167E+03 -0.11520782651E+03  0.20974197519E+03  0.96253617557E+03  0.46999998093E+01 0.  1.
       -5    1    3    3    0  502  0.93230320167E+03  0.11520782651E+03  0.47318342282E+02  0.94059726698E+03  0.46999998093E+01 0. -1.
</event>
<event>
 5   0  0.3236653E-06  0.1900155E+04  0.7818609E-02  0.8654779E-01
        1   -1    0    0  501    0  0.00000000000E+00  0.00000000000E+00  0.46976961863E+03  0.46976961866E+03  0.50400001928E-02 0.  1.
       -1   -1    0    0    0  501  0.00000000000E+00  0.00000000000E+00 -0.19214671917E+04  0.19214671917E+04  0.50400001928E-02 0. -1.
    10030    2    1    2    0    0  0.00000000000E+00  0.00000000000E+00 -0.14516975730E+04  0.23912368103E+04  0.19001546357E+04 0.  0.
        3    1    3    3  502    0 -0.44450200348E+03  0.62635059893E+03 -0.22076502536E+02  0.76836481312E+03  0.10100000352E+00 0.  1.
       -3    1    3    3    0  502  0.44450200348E+03 -0.62635059893E+03 -0.14296210705E+04  0.16228719972E+04  0.10100000352E+00 0. -1.
</event>
<event>
 5   0  0.3495279E-06  0.1902831E+04  0.7818609E-02  0.8653449E-01
       -1   -1    0    0    0  501  0.00000000000E+00  0.00000000000E+00  0.53517917507E+03  0.53517917510E+03  0.50400001928E-02 0. -1.
        1   -1    0    0  501    0  0.00000000000E+00  0.00000000000E+00 -0.16913793595E+04  0.16913793595E+04  0.50400001928E-02 0.  1.
    10030    2    1    2    0    0  0.00000000000E+00  0.00000000000E+00 -0.11562001844E+04  0.22265585346E+04  0.19028305341E+04 0.  0.
        2    1    3    3  502    0 -0.17402336769E+03  0.63362222168E+03 -0.13832222544E+04  0.15313605250E+04  0.25500000920E-02 0.  1.
       -2    1    3    3    0  502  0.17402336769E+03 -0.63362222168E+03  0.22702207001E+03  0.69519800962E+03  0.25500000920E-02 0. -1.
</event>
<event>
 5   0  0.6984466E-06  0.1899922E+04  0.7818609E-02  0.8654895E-01
        2   -1    0    0  501    0  0.00000000000E+00  0.00000000000E+00  0.99894528864E+03  0.99894528864E+03  0.25500000920E-02 0. -1.
       -2   -1    0    0    0  501  0.00000000000E+00  0.00000000000E+00 -0.90337917905E+03  0.90337917906E+03  0.25500000920E-02 0.  1.
    10030    2    1    2    0    0  0.00000000000E+00  0.00000000000E+00  0.95566109589E+02  0.19023244677E+04  0.18999224982E+04 0.  0.
        2    1    3    3  502    0 -0.49794131577E+03  0.94393038012E+02 -0.75670692502E+03  0.91074747870E+03  0.25500000920E-02 0.  1.
       -2    1    3    3    0  502  0.49794131577E+03 -0.94393038012E+02  0.85227303461E+03  0.99157698900E+03  0.25500000920E-02 0. -1.
</event>
<event>
 5   0  0.6862201E-06  0.1902412E+04  0.7818609E-02  0.8653657E-01
       -2   -1    0    0    0  501  0.00000000000E+00  0.00000000000E+00  0.56560249608E+03  0.56560249608E+03  0.25500000920E-02 0.  1.
        2   -1    0    0  501    0  0.00000000000E+00  0.00000000000E+00 -0.15996973427E+04  0.15996973427E+04  0.25500000920E-02 0. -1.
    10030    2    1    2    0    0  0.00000000000E+00  0.00000000000E+00 -0.10340948467E+04  0.21652998388E+04  0.19024119533E+04 0.  0.
        3    1    3    3  502    0  0.29624803880E+03  0.90206014352E+03 -0.58260338448E+03  0.11139578613E+04  0.10100000352E+00 0. -1.
       -3    1    3    3    0  502 -0.29624803880E+03 -0.90206014352E+03 -0.45149146218E+03  0.10513419775E+04  0.10100000352E+00 0.  1.
</event>
<event>
 5   0  0.3211263E-06  0.1901593E+04  0.7818609E-02  0.8654064E-01
       -1   -1    0    0    0  501  0.00000000000E+00  0.00000000000E+00  0.55551343862E+03  0.55551343865E+03  0.50400001928E-02 0.  1.
        1   -1    0    0  501    0  0.00000000000E+00  0.00000000000E+00 -0.16273490854E+04  0.16273490854E+04  0.50400001928E-02 0. -1.
    10030    2    1    2    0    0  0.00000000000E+00  0.00000000000E+00 -0.10718356468E+04  0.21828625241E+04  0.19015933175E+04 0.  0.
        5    1    3    3  502    0 -0.13000956721E+03 -0.10071403066E+02 -0.16170223405E+04  0.16222784164E+04  0.46999998093E+01 0. -1.
       -5    1    3    3    0  502  0.13000956721E+03  0.10071403066E+02  0.54518669372E+03  0.56058410763E+03  0.46999998093E+01 0.  1.
</event>
<event>
 5   0  0.3398807E-06  0.1899945E+04  0.7818609E-02  0.8654884E-01
       -1   -1    0    0    0  501  0.00000000000E+00  0.00000000000E+00  0.61878289211E+03  0.61878289213E+03  0.50400001928E-02 0.  1.
        1   -1    0    0  501    0  0.00000000000E+00  0.00000000000E+00 -0.14584239108E+04  0.14584239108E+04  0.50400001928E-02 0. -1.
    10030    2    1    2    0    0  0.00000000000E+00  0.00000000000E+00 -0.83964101872E+03  0.20772068030E+04  0.18999450155E+04 0.  0.
        1    1    3    3  502    0  0.59769018289E+03  0.65306689364E+03 -0.43119570525E+02  0.88633471087E+03  0.50400001928E-02 0. -1.
       -1    1    3    3    0  502 -0.59769018289E+03 -0.65306689364E+03 -0.79652144820E+03  0.11908720921E+04  0.50400001928E-02 0.  1.
</event>
<event>
 5   0  0.3236653E-06  0.1899804E+04  0.7818609E-02  0.8654954E-01
        1   -1    0    0  501    0  0.00000000000E+00  0.00000000000E+00  0.98588791676E+03  0.98588791677E+03  0.50400001928E-02 0. -1.
       -1   -1    0    0    0  501  0.00000000000E+00  0.00000000000E+00 -0.91522940536E+03  0.91522940538E+03  0.50400001928E-02 0.  1.
    10030    2    1    2    0    0  0.00000000000E+00  0.00000000000E+00  0.70658511397E+02  0.19011173221E+04  0.18998037918E+04 0.  0.
        3    1    3    3  502    0  0.69061008748E+03 -0.17333528621E+03 -0.59385516543E+03  0.92717386831E+03  0.10100000352E+00 0.  1.
       -3    1    3    3    0  502 -0.69061008748E+03  0.17333528621E+03  0.66451367683E+03  0.97394345383E+03  0.10100000352E+00 0. -1.
</event>
<event>
 5   0  0.7577180E-06  0.1901101E+04  0.7818609E-02  0.8654309E-01
        2   -1    0    0  501    0  0.00000000000E+00  0.00000000000E+00  0.13106247976E+04  0.13106247976E+04  0.25500000920E-02 0.  1.
       -2   -1    0    0    0  501  0.00000000000E+00  0.00000000000E+00 -0.68940083916E+03  0.68940083917E+03  0.25500000920E-02 0. -1.
    10030    2    1    2    0    0  0.00000000000E+00  0.00000000000E+00  0.62122395848E+03  0.20000256368E+04  0.19011005605E+04 0.  0.
        5    1    3    3  502    0  0.26725496270E+03  0.65798490374E+03  0.97527410374E+03  0.12064621901E+04  0.46999998093E+01 0.  1.
       -5    1    3    3    0  502 -0.26725496270E+03 -0.65798490374E+03 -0.35405014526E+03  0.79356344674E+03  0.46999998093E+01 0. -1.
</event>
<event>
 5   0  0.2527750E-06  0.1900098E+04  0.7818609E-02  0.8654808E-01
        3   -1    0    0  501    0  0.00000000000E+00  0.00000000000E+00  0.24560423804E+04  0.24560423825E+04  0.10100000352E+00 0. -1.
       -3   -1    0    0    0  501  0.00000000000E+00  0.00000000000E+00 -0.36749888772E+03  0.36749890159E+03  0.10100000352E+00 0.  1.
    10030    2    1    2    0    0  0.00000000000E+00  0.00000000000E+00  0.20885434927E+04  0.28235412841E+04  0.19000977506E+04 0.  0.
        4    1    3    3  502    0 -0.29846663596E+03  0.79762671617E+03  0.41856155419E+03  0.94893945996E+03  0.12699999809E+01 0.  1.
       -4    1    3    3    0  502  0.29846663596E+03 -0.79762671617E+03  0.16699819385E+04  0.18746018241E+04  0.12699999809E+01 0. -1.
</event>
<event>
 5   0  0.6984466E-06  0.1896815E+04  0.7818609E-02  0.8656443E-01
       -2   -1    0    0    0  501  0.00000000000E+00  0.00000000000E+00  0.90849058474E+03  0.90849058474E+03  0.25500000920E-02 0. -1.
        2   -1    0    0  501    0  0.00000000000E+00  0.00000000000E+00 -0.99007864690E+03  0.99007864690E+03  0.25500000920E-02 0.  1.
    10030    2    1    2    0    0  0.00000000000E+00  0.00000000000E+00 -0.81588062162E+02  0.18985692316E+04  0.18968153615E+04 0.  0.
        2    1    3    3  502    0 -0.88774998222E+02  0.92524077000E+03  0.14786272942E+03  0.94117738473E+03  0.25500000920E-02 0.  1.
       -2    1    3    3    0  502  0.88774998222E+02 -0.92524077000E+03 -0.22945079158E+03  0.95739184691E+03  0.25500000920E-02 0. -1.
</event>
<event>
 5   0  0.6984466E-06  0.1900566E+04  0.7818609E-02  0.8654575E-01
       -2   -1    0    0    0  501  0.00000000000E+00  0.00000000000E+00  0.54632386971E+03  0.54632386971E+03  0.25500000920E-02 0. -1.
        2   -1    0    0  501    0  0.00000000000E+00  0.00000000000E+00 -0.16529351602E+04  0.16529351602E+04  0.25500000920E-02 0.  1.
    10030    2    1    2    0    0  0.00000000000E+00  0.00000000000E+00 -0.11066112905E+04  0.21992590299E+04  0.19005661610E+04 0.  0.
        2    1    3    3  502    0 -0.10304129626E+03  0.89647203684E+03 -0.20856069989E+03  0.92616261375E+03  0.25500000920E-02 0. -1.
       -2    1    3    3    0  502  0.10304129626E+03 -0.89647203684E+03 -0.89805059062E+03  0.12730964162E+04  0.25500000920E-02 0.  1.
</event>
<event>
 5   0  0.7577180E-06  0.1901698E+04  0.7818609E-02  0.8654012E-01
       -2   -1    0    0    0  501  0.00000000000E+00  0.00000000000E+00  0.59290968105E+03  0.59290968105E+03  0.25500000920E-02 0.  1.
        2   -1    0    0  501    0  0.00000000000E+00  0.00000000000E+00 -0.15248754982E+04  0.15248754982E+04  0.25500000920E-02 0. -1.
    10030    2    1    2    0    0  0.00000000000E+00  0.00000000000E+00 -0.93196581712E+03  0.21177851792E+04  0.19016976050E+04 0.  0.
        5    1    3    3  502    0 -0.36149117519E+02  0.48175849010E+03  0.44603306841E+03  0.65754512362E+03  0.46999998093E+01 0.  1.
       -5    1    3    3    0  502  0.36149117519E+02 -0.48175849010E+03 -0.13779988855E+04  0.14602400556E+04  0.46999998093E+01 0. -1.
</event>
<event>
 5   0  0.6870370E-06  0.1900091E+04  0.7818609E-02  0.8654811E-01
       -2   -1    0    0    0  501  0.00000000000E+00  0.00000000000E+00  0.46366336020E+03  0.46366336021E+03  0.25500000920E-02 0.  1.
        2   -1    0    0  501    0  0.00000000000E+00  0.00000000000E+00 -0.19466427130E+04  0.19466427130E+04  0.25500000920E-02 0. -1.
    10030    2    1    2    0    0  0.00000000000E+00  0.00000000000E+00 -0.14829793528E+04  0.24103060732E+04  0.19000914730E+04 0.  0.
        1    1    3    3  502    0 -0.20579949181E+03 -0.10694053551E+03 -0.19101805517E+04  0.19242087852E+04  0.50400001928E-02 0. -1.
       -1    1    3    3    0  502  0.20579949181E+03  0.10694053551E+03  0.42720119894E+03  0.48609728796E+03  0.50400001928E-02 0.  1.
</event>
<event>
 5   0  0.6984466E-06  0.1899714E+04  0.7818609E-02  0.8654999E-01
       -2   -1    0    0    0  501  0.00000000000E+00  0.00000000000E+00  0.59281678286E+03  0.59281678286E+03  0.25500000920E-02 0. -1.
        2   -1    0    0  501    0  0.00000000000E+00  0.00000000000E+00 -0.15219345298E+04  0.15219345298E+04  0.25500000920E-02 0.  1.
    10030    2    1    2    0    0  0.00000000000E+00  0.00000000000E+00 -0.92911774694E+03  0.21147513127E+04  0.18997140118E+04 0.  0.
        2    1    3    3  502    0 -0.21181623454E+03 -0.57050451607E+03  0.34730027362E+03  0.70068466526E+03  0.25500000920E-02 0. -1.
       -2    1    3    3    0  502  0.21181623454E+03  0.57050451607E+03 -0.12764180206E+04  0.14140666474E+04  0.25500000920E-02 0.  1.
</event>
<event>
 5   0  0.6870370E-06  0.1902056E+04  0.7818609E-02  0.8653834E-01
       -2   -1    0    0    0  501  0.00000000000E+00  0.00000000000E+00  0.84439047678E+03  0.84439047678E+03  0.25500000920E-02 0.  1.
        2   -1    0    0  501    0  0.00000000000E+00  0.00000000000E+00 -0.10711325080E+04  0.10711325080E+04  0.25500000920E-02 0. -1.
    10030    2    1    2    0    0  0.00000000000E+00  0.00000000000E+00 -0.22674203121E+03  0.19155229848E+04  0.19020558237E+04 0.  0.
        1    1    3    3  502    0 -0.11457103651E+03  0.34149963911E+02 -0.10635348031E+04  0.10702331614E+04  0.50400001928E-02 0. -1.
       -1    1    3    3    0  502  0.11457103651E+03 -0.34149963911E+02  0.83679277184E+03  0.84528982336E+03  0.50400001928E-02 0.  1.
</event>
<event>
 5   0  0.3379108E-06  0.1900105E+04  0.7818609E-02  0.8654804E-01
        1   -1    0    0  501    0  0.00000000000E+00  0.00000000000E+00  0.16559501766E+04  0.16559501766E+04  0.50400001928E-02 0.  1.
       -1   -1    0    0    0  501  0.00000000000E+00  0.00000000000E+00 -0.54506431084E+03  0.54506431087E+03  0.50400001928E-02 0. -1.
    10030    2    1    2    0    0  0.00000000000E+00  0.00000000000E+00  0.11108858658E+04  0.22010144875E+04  0.19001045675E+04 0.  0.
        4    1    3    3  502    0 -0.64017512844E+02  0.16790454551E+03 -0.52519889845E+03  0.55509069006E+03  0.12699999809E+01 0. -1.
       -4    1    3    3    0  502  0.64017512844E+02 -0.16790454551E+03  0.16360847642E+04  0.16459237974E+04  0.12699999809E+01 0.  1.
</event>
<event>
 5   0  0.3379108E-06  0.1898940E+04  0.7818609E-02  0.8655384E-01
        1   -1    0    0  501    0  0.00000000000E+00  0.00000000000E+00  0.12298129636E+04  0.12298129636E+04  0.50400001928E-02 0.  1.
       -1   -1    0    0    0  501  0.00000000000E+00  0.00000000000E+00 -0.73303272582E+03  0.73303272584E+03  0.50400001928E-02 0. -1.
    10030    2    1    2    0    0  0.00000000000E+00  0.00000000000E+00  0.49678023780E+03  0.19628456895E+04  0.18989398611E+04 0.  0.
        4    1    3    3  502    0  0.37246215108E+03  0.77593146753E+03 -0.16596676830E+03  0.87655249550E+03  0.12699999809E+01 0. -1.
       -4    1    3    3    0  502 -0.37246215108E+03 -0.77593146753E+03  0.66274700610E+03  0.10862931940E+04  0.12699999809E+01 0.  1.
</event>
<event>
 5   0  0.3379108E-06  0.1900370E+04  0.7818609E-02  0.8654672E-01
        1   -1    0    0  501    0  0.00000000000E+00  0.00000000000E+00  0.16111066973E+04  0.16111066973E+04  0.50400001928E-02 0. -1.
       -1   -1    0    0    0  501  0.00000000000E+00  0.00000000000E+00 -0.56039225813E+03  0.56039225815E+03  0.50400001928E-02 0.  1.
    10030    2    1    2    0    0  0.00000000000E+00  0.00000000000E+00  0.10507144392E+04  0.21714989555E+04  0.19003701957E+04 0.  0.
        4    1    3    3  502    0  0.85588869753E+03 -0.28504361274E+03  0.18436062605E+03  0.92075283169E+03  0.12699999809E+01 0.  1.
       -4    1    3    3    0  502 -0.85588869753E+03  0.28504361274E+03  0.86635381312E+03  0.12507461238E+04  0.12699999809E+01 0. -1.
</event>
<event>
 5   0  0.7207648E-06  0.1899705E+04  0.7818609E-02  0.8655003E-01
        2   -1    0    0  501    0  0.00000000000E+00  0.00000000000E+00  0.85738215026E+03  0.85738215026E+03  0.25500000920E-02 0.  1.
       -2   -1    0    0    0  501  0.00000000000E+00  0.00000000000E+00 -0.10522961219E+04  0.10522961219E+04  0.25500000920E-02 0. -1.
    10030    2    1    2    0    0  0.00000000000E+00  0.00000000000E+00 -0.19491397166E+03  0.19096782722E+04  0.18997051474E+04 0.  0.
        4    1    3    3  502    0  0.23507703892E+03 -0.78100837128E+03  0.39190768388E+03  0.90489144974E+03  0.12699999809E+01 0.  1.
       -4    1    3    3    0  502 -0.23507703892E+03  0.78100837128E+03 -0.58682165553E+03  0.10047868224E+04  0.12699999809E+01 0. -1.
</event>
<event>
 5   0  0.3211263E-06  0.1900076E+04  0.7818609E-02  0.8654818E-01
        1   -1    0    0  501    0  0.00000000000E+00  0.00000000000E+00  0.15903321837E+04  0.15903321837E+04  0.50400001928E-02 0. -1.
       -1   -1    0    0    0  501  0.00000000000E+00  0.00000000000E+00 -0.56753702586E+03  0.56753702588E+03  0.50400001928E-02 0.  1.
    10030    2    1    2    0    0  0.00000000000E+00  0.00000000000E+00  0.10227951578E+04  0.21578692096E+04  0.19000762066E+04 0.  0.
        5    1    3    3  502    0  0.48550044883E+03  0.36169764370E+02 -0.41508736055E+03  0.63979570533E+03  0.46999998093E+01 0.  1.
       -5    1    3    3    0  502 -0.48550044883E+03 -0.36169764370E+02  0.14378825184E+04  0.15180735043E+04  0.46999998093E+01 0. -1.
</event>
<event>
 5   0  0.3495279E-06  0.1900229E+04  0.7818609E-02  0.8654743E-01
       -1   -1    0    0    0  501  0.00000000000E+00  0.00000000000E+00  0.51369422976E+03  0.51369422978E+03  0.50400001928E-02 0.  1.
        1   -1    0    0  501    0  0.00000000000E+00  0.00000000000E+00 -0.17573046121E+04  0.17573046121E+04  0.50400001928E-02 0. -1.
    10030    2    1    2    0    0  0.00000000000E+00  0.00000000000E+00 -0.12436103823E+04  0.22709988419E+04  0.19002286591E+04 0.  0.
        2    1    3    3  502    0  0.54753430738E+02  0.29949896308E+03 -0.16974251001E+04  0.17245142903E+04  0.25500000920E-02 0. -1.
       -2    1    3    3    0  502 -0.54753430738E+02 -0.29949896308E+03  0.45381471774E+03  0.54648455158E+03  0.25500000920E-02 0.  1.
</event>
<event>
 5   0  0.3379108E-06  0.1899915E+04  0.7818609E-02  0.8654899E-01
        1   -1    0    0  501    0  0.00000000000E+00  0.00000000000E+00  0.99712117299E+03  0.99712117301E+03  0.50400001928E-02 0. -1.
       -1   -1    0    0    0  501  0.00000000000E+00  0.00000000000E+00 -0.90502454400E+03  0.90502454402E+03  0.50400001928E-02 0.  1.
    10030    2    1    2    0    0  0.00000000000E+00  0.00000000000E+00  0.92096628990E+02  0.19021457170E+04  0.18999148770E+04 0.  0.
        4    1    3    3  502    0 -0.74760965102E+03 -0.18790569125E+03 -0.50975106064E+03  0.92416259166E+03  0.12699999809E+01 0.  1.
       -4    1    3    3    0  502  0.74760965102E+03  0.18790569125E+03  0.60184768963E+03  0.97798312537E+03  0.12699999809E+01 0. -1.
</event>
<event>
 5   0  0.3379108E-06  0.1899965E+04  0.7818609E-02  0.8654874E-01
       -1   -1    0    0    0  501  0.00000000000E+00  0.00000000000E+00  0.98602280127E+03  0.98602280128E+03  0.50400001928E-02 0. -1.
        1   -1    0    0  501    0  0.00000000000E+00  0.00000000000E+00 -0.91525997633E+03  0.91525997634E+03  0.50400001928E-02 0.  1.
    10030    2    1    2    0    0  0.00000000000E+00  0.00000000000E+00  0.70762824944E+02  0.19012827776E+04  0.18999654795E+04 0.  0.
        4    1    3    3  502    0  0.64069392878E+03  0.68927153181E+03  0.16540085357E+03  0.95548051272E+03  0.12699999809E+01 0.  1.
       -4    1    3    3    0  502 -0.64069392878E+03 -0.68927153181E+03 -0.94638028621E+02  0.94580226490E+03  0.12699999809E+01 0. -1.
</event>
<event>
 5   0  0.6862201E-06  0.1899811E+04  0.7818609E-02  0.8654951E-01
        2   -1    0    0  501    0  0.00000000000E+00  0.00000000000E+00  0.13329616737E+04  0.13329616737E+04  0.25500000920E-02 0.  1.
       -2   -1    0    0    0  501  0.00000000000E+00  0.00000000000E+00 -0.67692897270E+03  0.67692897271E+03  0.25500000920E-02 0. -1.
    10030    2    1    2    0    0  0.00000000000E+00  0.00000000000E+00  0.65603270105E+03  0.20098906465E+04  0.18998109132E+04 0.  0.
        3    1    3    3  502    0 -0.34928691894E+03  0.37405878945E+03 -0.51860143143E+03  0.72860742831E+03  0.10100000352E+00 0. -1.
       -3    1    3    3    0  502  0.34928691894E+03 -0.37405878945E+03  0.11746341325E+04  0.12812832181E+04  0.10100000352E+00 0.  1.
</event>
<event>
 5   0  0.3495279E-06  0.1903895E+04  0.7818609E-02  0.8652920E-01
       -1   -1    0    0    0  501  0.00000000000E+00  0.00000000000E+00  0.83007883527E+03  0.83007883529E+03  0.50400001928E-02 0.  1.
        1   -1    0    0  501    0  0.00000000000E+00  0.00000000000E+00 -0.10917087775E+04  0.10917087775E+04  0.50400001928E-02 0. -1.
    10030    2    1    2    0    0  0.00000000000E+00  0.00000000000E+00 -0.26162994224E+03  0.19217876128E+04  0.19038953233E+04 0.  0.
        2    1    3    3  502    0  0.48401736260E+03 -0.21135910381E+03 -0.93025470382E+03  0.10697286067E+04  0.25500000920E-02 0. -1.
       -2    1    3    3    0  502 -0.48401736260E+03  0.21135910381E+03  0.66862476157E+03  0.85205900609E+03  0.25500000920E-02 0.  1.
</event>
<event>
 5   0  0.6862201E-06  0.1899110E+04  0.7818609E-02  0.8655299E-01
        2   -1    0    0  501    0  0.00000000000E+00  0.00000000000E+00  0.14718138042E+04  0.14718138042E+04  0.25500000920E-02 0. -1.
       -2   -1    0    0    0  501  0.00000000000E+00  0.00000000000E+00 -0.61261474960E+03  0.61261474961E+03  0.25500000920E-02 0.  1.
    10030    2    1    2    0    0  0.00000000000E+00  0.00000000000E+00  0.85919905461E+03  0.20844285538E+04  0.18991101549E+04 0.  0.
        3    1    3    3  502    0  0.89419994182E+01 -0.46393316486E+03 -0.47969964508E+03  0.66740220295E+03  0.10100000352E+00 0.  1.
       -3    1    3    3    0  502 -0.89419994182E+01  0.46393316486E+03  0.13388986997E+04  0.14170263509E+04  0.10100000352E+00 0. -1.
</event>
<event>
 5   0  0.3211263E-06  0.1899962E+04  0.7818609E-02  0.8654875E-01
        1   -1    0    0  501    0  0.00000000000E+00  0.00000000000E+00  0.12793207703E+04  0.12793207703E+04  0.50400001928E-02 0. -1.
       -1   -1    0    0    0  501  0.00000000000E+00  0.00000000000E+00 -0.70542447671E+03  0.70542447673E+03  0.50400001928E-02 0.  1.
    10030    2    1    2    0    0  0.00000000000E+00  0.00000000000E+00  0.57389629362E+03  0.19847452471E+04  0.18999622996E+04 0.  0.
        5    1    3    3  502    0  0.22127951817E+03  0.22206477482E+03 -0.64982038043E+03  0.72150260304E+03  0.46999998093E+01 0.  1.
       -5    1    3    3    0  502 -0.22127951817E+03 -0.22206477482E+03  0.12237166740E+04  0.12632426440E+04  0.46999998093E+01 0. -1.
</event>
<event>
 5   0  0.6862201E-06  0.1900303E+04  0.7818609E-02  0.8654706E-01
        2   -1    0    0  501    0  0.00000000000E+00  0.00000000000E+00  0.20409068832E+04  0.20409068832E+04  0.25500000920E-02 0.  1.
       -2   -1    0    0    0  501  0.00000000000E+00  0.00000000000E+00 -0.44234627055E+03  0.44234627056E+03  0.25500000920E-02 0. -1.
    10030    2    1    2    0    0  0.00000000000E+00  0.00000000000E+00  0.15985606126E+04  0.24832531537E+04  0.19003026583E+04 0.  0.
        3    1    3    3  502    0 -0.36528274631E+03 -0.29189294572E+03 -0.28159434852E+03  0.54582814496E+03  0.10100000352E+00 0. -1.
       -3    1    3    3    0  502  0.36528274631E+03  0.29189294572E+03  0.18801549611E+04  0.19374250088E+04  0.10100000352E+00 0.  1.
</event>
<event>
 5   0  0.3236653E-06  0.1900900E+04  0.7818609E-02  0.8654408E-01
        1   -1    0    0  501    0  0.00000000000E+00  0.00000000000E+00  0.11211655543E+04  0.11211655543E+04  0.50400001928E-02 0. -1.
       -1   -1    0    0    0  501  0.00000000000E+00  0.00000000000E+00 -0.80572892457E+03  0.80572892458E+03  0.50400001928E-02 0.  1.
    10030    2    1    2    0    0  0.00000000000E+00  0.00000000000E+00  0.31543662973E+03  0.19268944789E+04  0.19009003302E+04 0.  0.
        3    1    3    3  502    0 -0.76482643585E+03 -0.56326437515E+03  0.19178250227E+03  0.96902361770E+03  0.10100000352E+00 0.  1.
       -3    1    3    3    0  502  0.76482643585E+03  0.56326437515E+03  0.12365412745E+03  0.95787086119E+03  0.10100000352E+00 0. -1.
</event>
<event>
 5   0  0.3211263E-06  0.1899627E+04  0.7818609E-02  0.8655042E-01
        1   -1    0    0  501    0  0.00000000000E+00  0.00000000000E+00  0.95224146903E+03  0.95224146904E+03  0.50400001928E-02 0.  1.
       -1   -1    0    0    0  501  0.00000000000E+00  0.00000000000E+00 -0.94739167725E+03  0.94739167726E+03  0.50400001928E-02 0. -1.
    10030    2    1    2    0    0  0.00000000000E+00  0.00000000000E+00  0.48497917775E+01  0.18996331463E+04  0.18996269555E+04 0.  0.
        5    1    3    3  502    0 -0.52805683298E+02 -0.80818335512E+03 -0.49373675255E+03  0.94854986506E+03  0.46999998093E+01 0. -1.
       -5    1    3    3    0  502  0.52805683298E+02  0.80818335512E+03  0.49858654433E+03  0.95108328124E+03  0.46999998093E+01 0.  1.
</event>
<event>
 5   0  0.7577180E-06  0.1900365E+04  0.7818609E-02  0.8654675E-01
        2   -1    0    0  501    0  0.00000000000E+00  0.00000000000E+00  0.83345116096E+03  0.83345116096E+03  0.25500000920E-02 0.  1.
       -2   -1    0    0    0  501  0.00000000000E+00  0.00000000000E+00 -0.10832625373E+04  0.10832625373E+04  0.25500000920E-02 0. -1.
    10030    2    1    2    0    0  0.00000000000E+00  0.00000000000E+00 -0.24981137638E+03  0.19167136983E+04  0.19003646170E+04 0.  0.
        5    1    3    3  502    0  0.25784561336E+02 -0.48691425984E+03  0.69763102723E+03  0.85115302983E+03  0.46999998093E+01 0.  1.
       -5    1    3    3    0  502 -0.25784561336E+02  0.48691425984E+03 -0.94744240361E+03  0.10655606685E+04  0.46999998093E+01 0. -1.
</event>
<event>
 5   0  0.3236653E-06  0.1892271E+04  0.7818609E-02  0.8658713E-01
        1   -1    0    0  501    0  0.00000000000E+00  0.00000000000E+00  0.21384908296E+04  0.21384908296E+04  0.50400001928E-02 0. -1.
       -1   -1    0    0    0  501  0.00000000000E+00  0.00000000000E+00 -0.41859986973E+03  0.41859986976E+03  0.50400001928E-02 0.  1.
    10030    2    1    2    0    0  0.00000000000E+00  0.00000000000E+00  0.17198909599E+04  0.25570906994E+04  0.18922705755E+04 0.  0.
        3    1    3    3  502    0  0.54834029140E+03 -0.29167110438E+02  0.19011259243E+04  0.19788399596E+04  0.10100000352E+00 0. -1.
       -3    1    3    3    0  502 -0.54834029140E+03  0.29167110438E+02 -0.18123496443E+03  0.57825073976E+03  0.10100000352E+00 0.  1.
</event>
<event>
 5   0  0.3495279E-06  0.1899086E+04  0.7818609E-02  0.8655311E-01
        1   -1    0    0  501    0  0.00000000000E+00  0.00000000000E+00  0.10790194304E+04  0.10790194304E+04  0.50400001928E-02 0. -1.
       -1   -1    0    0    0  501  0.00000000000E+00  0.00000000000E+00 -0.83560338491E+03  0.83560338492E+03  0.50400001928E-02 0.  1.
    10030    2    1    2    0    0  0.00000000000E+00  0.00000000000E+00  0.24341604550E+03  0.19146228153E+04  0.18990863998E+04 0.  0.
        2    1    3    3  502    0 -0.84442555929E+03  0.41143917559E+03 -0.18336874865E+02  0.93950676495E+03  0.25500000920E-02 0.  1.
       -2    1    3    3    0  502  0.84442555929E+03 -0.41143917559E+03  0.26175292037E+03  0.97511605039E+03  0.25500000920E-02 0. -1.
</event>
<event>
 5   0  0.6984466E-06  0.1906213E+04  0.7818609E-02  0.8651770E-01
        2   -1    0    0  501    0  0.00000000000E+00  0.00000000000E+00  0.14061409000E+04  0.14061409001E+04  0.25500000920E-02 0. -1.
       -2   -1    0    0    0  501  0.00000000000E+00  0.00000000000E+00 -0.64603216091E+03  0.64603216092E+03  0.25500000920E-02 0.  1.
    10030    2    1    2    0    0  0.00000000000E+00  0.00000000000E+00  0.76010873914E+03  0.20521730610E+04  0.19062132559E+04 0.  0.
        2    1    3    3  502    0 -0.69840588727E+03 -0.59999730448E+03  0.11493655769E+03  0.92788898100E+03  0.25500000920E-02 0.  1.
       -2    1    3    3    0  502  0.69840588727E+03  0.59999730448E+03  0.64517218144E+03  0.11242840800E+04  0.25500000920E-02 0. -1.
</event>
<event>
 5   0  0.6984466E-06  0.1899748E+04  0.7818609E-02  0.8654982E-01
        2   -1    0    0  501    0  0.00000000000E+00  0.00000000000E+00  0.10847430562E+04  0.10847430562E+04  0.25500000920E-02 0. -1.
       -2   -1    0    0    0  501  0.00000000000E+00  0.00000000000E+00 -0.83177368185E+03  0.83177368186E+03  0.25500000920E-02 0.  1.
    10030    2    1    2    0    0  0.00000000000E+00  0.00000000000E+00  0.25296937437E+03  0.19165167381E+04  0.18997481157E+04 0.  0.
        2    1    3    3  502    0 -0.48021803698E+03 -0.51604151043E+03 -0.51580808368E+03  0.87347935450E+03  0.25500000920E-02 0.  1.
       -2    1    3    3    0  502  0.48021803698E+03  0.51604151043E+03  0.76877745806E+03  0.10430373836E+04  0.25500000920E-02 0. -1.
</event>
<event>
 5   0  0.7207648E-06  0.1898847E+04  0.7818609E-02  0.8655431E-01
       -2   -1    0    0    0  501  0.00000000000E+00  0.00000000000E+00  0.71352098685E+03  0.71352098686E+03  0.25500000920E-02 0. -1.
        2   -1    0    0  501    0  0.00000000000E+00  0.00000000000E+00 -0.12633190669E+04  0.12633190669E+04  0.25500000920E-02 0.  1.
    10030    2    1    2    0    0  0.00000000000E+00  0.00000000000E+00 -0.54979808001E+03  0.19768400537E+04  0.18988466682E+04 0.  0.
        4    1    3    3  502    0  0.40296382169E+03 -0.46046678522E+03  0.48086162763E+03  0.77822812832E+03  0.12699999809E+01 0. -1.
       -4    1    3    3    0  502 -0.40296382169E+03  0.46046678522E+03 -0.10306597076E+04  0.11986119254E+04  0.12699999809E+01 0.  1.
</event>
<event>
 5   0  0.6870370E-06  0.1899762E+04  0.7818609E-02  0.8654975E-01
       -2   -1    0    0    0  501  0.00000000000E+00  0.00000000000E+00  0.40703646305E+03  0.40703646306E+03  0.25500000920E-02 0.  1.
        2   -1    0    0  501    0  0.00000000000E+00  0.00000000000E+00 -0.22166898723E+04  0.22166898723E+04  0.25500000920E-02 0. -1.
    10030    2    1    2    0    0  0.00000000000E+00  0.00000000000E+00 -0.18096534093E+04  0.26237263354E+04  0.18997616749E+04 0.  0.
        1    1    3    3  502    0  0.46512670847E+03 -0.81727087075E+03 -0.71953989818E+03  0.11840659594E+04  0.50400001928E-02 0.  1.
       -1    1    3    3    0  502 -0.46512670847E+03  0.81727087075E+03 -0.10901135111E+04  0.14396603760E+04  0.50400001928E-02 0. -1.
</event>
<event>
 5   0  0.2527750E-06  0.1903134E+04  0.7818609E-02  0.8653298E-01
        4   -1    0    0  501    0  0.00000000000E+00  0.00000000000E+00  0.60018269546E+03  0.60018403914E+03  0.12699999809E+01 0.  1.
       -4   -1    0    0    0  501  0.00000000000E+00  0.00000000000E+00 -0.15086699607E+04  0.15086704952E+04  0.12699999809E+01 0. -1.
    10030    2    1    2    0    0  0.00000000000E+00  0.00000000000E+00 -0.90848726519E+03  0.21088545343E+04  0.19031338198E+04 0.  0.
        5    1    3    3  502    0 -0.28342132054E+02  0.45022079272E+03  0.47414982984E+03  0.65447856327E+03  0.46999998093E+01 0. -1.
       -5    1    3    3    0  502  0.28342132054E+02 -0.45022079272E+03 -0.13826370950E+04  0.14543759711E+04  0.46999998093E+01 0.  1.
</event>
<event>
 5   0  0.7207648E-06  0.1900466E+04  0.7818609E-02  0.8654625E-01
       -2   -1    0    0    0  501  0.00000000000E+00  0.00000000000E+00  0.12108355766E+04  0.12108355766E+04  0.25500000920E-02 0. -1.
        2   -1    0    0  501    0  0.00000000000E+00  0.00000000000E+00 -0.74571851350E+03  0.74571851350E+03  0.25500000920E-02 0.  1.
    10030    2    1    2    0    0  0.00000000000E+00  0.00000000000E+00  0.46511706306E+03  0.19565540901E+04  0.19004657390E+04 0.  0.
        4    1    3    3  502    0 -0.34691049844E+03  0.87906982289E+03  0.13048479681E+03  0.95401181467E+03  0.12699999809E+01 0. -1.
       -4    1    3    3    0  502  0.34691049844E+03 -0.87906982289E+03  0.33463226625E+03  0.10025422754E+04  0.12699999809E+01 0.  1.
</event>
<event>
 5   0  0.6862201E-06  0.1900033E+04  0.7818609E-02  0.8654840E-01
       -2   -1    0    0    0  501  0.00000000000E+00  0.00000000000E+00  0.62898205725E+03  0.62898205726E+03  0.25500000920E-02 0.  1.
        2   -1    0    0  501    0  0.00000000000E+00  0.00000000000E+00 -0.14349084896E+04  0.14349084896E+04  0.25500000920E-02 0. -1.
    10030    2    1    2    0    0  0.00000000000E+00  0.00000000000E+00 -0.80592643237E+03  0.20638905469E+04  0.19000333616E+04 0.  0.
        3    1    3    3  502    0 -0.74389317398E+03  0.31700852271E+03 -0.94462550083E+03  0.12434584049E+04  0.10100000352E+00 0. -1.
       -3    1    3    3    0  502  0.74389317398E+03 -0.31700852271E+03  0.13869906846E+03  0.82043214196E+03  0.10100000352E+00 0.  1.
</event>
<event>
 5   0  0.2527750E-06  0.1900776E+04  0.7818609E-02  0.8654470E-01
       -3   -1    0    0    0  501  0.00000000000E+00  0.00000000000E+00  0.70057072831E+03  0.70057073559E+03  0.10100000352E+00 0.  1.
        3   -1    0    0  501    0  0.00000000000E+00  0.00000000000E+00 -0.12892881999E+04  0.12892882039E+04  0.10100000352E+00 0. -1.
    10030    2    1    2    0    0  0.00000000000E+00  0.00000000000E+00 -0.58871747161E+03  0.19898589395E+04  0.19007762461E+04 0.  0.
        1    1    3    3  502    0 -0.75550907719E+03  0.21009477629E+03 -0.85646248316E+03  0.11612328646E+04  0.50400001928E-02 0. -1.
       -1    1    3    3    0  502  0.75550907719E+03 -0.21009477629E+03  0.26774501155E+03  0.82862607488E+03  0.50400001928E-02 0.  1.
</event>
<event>
 5   0  0.2527750E-06  0.1899853E+04  0.7818609E-02  0.8654930E-01
        3   -1    0    0  501    0  0.00000000000E+00  0.00000000000E+00  0.54378694026E+03  0.54378694964E+03  0.10100000352E+00 0. -1.
       -3   -1    0    0    0  501  0.00000000000E+00  0.00000000000E+00 -0.16593997692E+04  0.16593997723E+04  0.10100000352E+00 0.  1.
    10030    2    1    2    0    0  0.00000000000E+00  0.00000000000E+00 -0.11156128290E+04  0.22031867219E+04  0.18998525594E+04 0.  0.
        4    1    3    3  502    0  0.70062326858E+03 -0.20756196232E+03 -0.12616776489E+04  0.14580078996E+04  0.12699999809E+01 0.  1.
       -4    1    3    3    0  502 -0.70062326858E+03  0.20756196232E+03  0.14606481998E+03  0.74517882230E+03  0.12699999809E+01 0. -1.
</event>
<event>
 5   0  0.3236653E-06  0.1899067E+04  0.7818609E-02  0.8655321E-01
        1   -1    0    0  501    0  0.00000000000E+00  0.00000000000E+00  0.15214617204E+04  0.15214617204E+04  0.50400001928E-02 0.  1.
       -1   -1    0    0    0  501  0.00000000000E+00  0.00000000000E+00 -0.59259725762E+03  0.59259725764E+03  0.50400001928E-02 0. -1.
    10030    2    1    2    0    0  0.00000000000E+00  0.00000000000E+00  0.92886446281E+03  0.21140589781E+04  0.18990671848E+04 0.  0.
        3    1    3    3  502    0 -0.31377993032E+03  0.53588272053E+03  0.12640743957E+04  0.14083721891E+04  0.10100000352E+00 0.  1.
       -3    1    3    3    0  502  0.31377993032E+03 -0.53588272053E+03 -0.33520993292E+03  0.70568678899E+03  0.10100000352E+00 0. -1.
</event>
<event>
 5   0  0.7577180E-06  0.1904528E+04  0.7818609E-02  0.8652606E-01
        2   -1    0    0  501    0  0.00000000000E+00  0.00000000000E+00  0.18468447258E+04  0.18468447258E+04  0.25500000920E-02 0. -1.
       -2   -1    0    0    0  501  0.00000000000E+00  0.00000000000E+00 -0.49100314613E+03  0.49100314613E+03  0.25500000920E-02 0.  1.
    10030    2    1    2    0    0  0.00000000000E+00  0.00000000000E+00  0.13558415797E+04  0.23378478719E+04  0.19045278373E+04 0.  0.
        5    1    3    3  502    0  0.48417771300E+01  0.52446530484E+03 -0.29770527025E+03  0.60310680374E+03  0.46999998093E+01 0.  1.
       -5    1    3    3    0  502 -0.48417771300E+01 -0.52446530484E+03  0.16535468499E+04  0.17347410682E+04  0.46999998093E+01 0. -1.
</event>
<event>
 5   0  0.3379108E-06  0.1900478E+04  0.7818609E-02  0.8654618E-01
       -1   -1    0    0    0  501  0.00000000000E+00  0.00000000000E+00  0.63772613611E+03  0.63772613613E+03  0.50400001928E-02 0.  1.
        1   -1    0    0  501    0  0.00000000000E+00  0.00000000000E+00 -0.14158966622E+04  0.14158966622E+04  0.50400001928E-02 0. -1.
    10030    2    1    2    0    0  0.00000000000E+00  0.00000000000E+00 -0.77817052610E+03  0.20536227983E+04  0.19004781583E+04 0.  0.
        4    1    3    3  502    0  0.19942483324E+03  0.83135067592E+03 -0.83728396867E+03  0.11966454227E+04  0.12699999809E+01 0. -1.
       -4    1    3    3    0  502 -0.19942483324E+03 -0.83135067592E+03  0.59113442567E+02  0.85697737569E+03  0.12699999809E+01 0.  1.
</event>
<event>
 5   0  0.6870370E-06  0.1898717E+04  0.7818609E-02  0.8655495E-01
        2   -1    0    0  501    0  0.00000000000E+00  0.00000000000E+00  0.65064061118E+03  0.65064061119E+03  0.25500000920E-02 0.  1.
       -2   -1    0    0    0  501  0.00000000000E+00  0.00000000000E+00 -0.13852214332E+04  0.13852214332E+04  0.25500000920E-02 0. -1.
    10030    2    1    2    0    0  0.00000000000E+00  0.00000000000E+00 -0.73458082205E+03  0.20358620444E+04  0.18987167455E+04 0.  0.
        1    1    3    3  502    0  0.11025169507E+03 -0.14356492920E+03  0.63196572896E+03  0.65737889209E+03  0.50400001928E-02 0.  1.
       -1    1    3    3    0  502 -0.11025169507E+03  0.14356492920E+03 -0.13665465510E+04  0.13784831523E+04  0.50400001928E-02 0. -1.
</event>
<event>
 5   0  0.6984466E-06  0.1901088E+04  0.7818609E-02  0.8654315E-01
        2   -1    0    0  501    0  0.00000000000E+00  0.00000000000E+00  0.12378180846E+04  0.12378180846E+04  0.25500000920E-02 0. -1.
       -2   -1    0    0    0  501  0.00000000000E+00  0.00000000000E+00 -0.72994103764E+03  0.72994103765E+03  0.25500000920E-02 0.  1.
    10030    2    1    2    0    0  0.00000000000E+00  0.00000000000E+00  0.50787704694E+03  0.19677591222E+04  0.19010883378E+04 0.  0.
        2    1    3    3  502    0 -0.34263742050E+03 -0.85806719642E+03  0.22826879920E+02  0.92422983178E+03  0.25500000920E-02 0.  1.
       -2    1    3    3    0  502  0.34263742050E+03  0.85806719642E+03  0.48505016702E+03  0.10435292904E+04  0.25500000920E-02 0. -1.
</event>
<event>
 5   0  0.3211263E-06  0.1900798E+04  0.7818609E-02  0.8654459E-01
        1   -1    0    0  501    0  0.00000000000E+00  0.00000000000E+00  0.23069024880E+04  0.23069024880E+04  0.50400001928E-02 0.  1.
       -1   -1    0    0    0  501  0.00000000000E+00  0.00000000000E+00 -0.39154610108E+03  0.39154610111E+03  0.50400001928E-02 0. -1.
    10030    2    1    2    0    0  0.00000000000E+00  0.00000000000E+00  0.19153563869E+04  0.26984485891E+04  0.19007984373E+04 0.  0.
        5    1    3    3  502    0 -0.33873048732E+03 -0.41601761074E+03  0.20713739447E+04  0.21397245393E+04  0.46999998093E+01 0.  1.
       -5    1    3    3    0  502  0.33873048732E+03  0.41601761074E+03 -0.15601755776E+03  0.55872404979E+03  0.46999998093E+01 0. -1.
</event>
<event>
 5   0  0.7207648E-06  0.1899661E+04  0.7818609E-02  0.8655025E-01
        2   -1    0    0  501    0  0.00000000000E+00  0.00000000000E+00  0.18904597301E+04  0.18904597301E+04  0.25500000920E-02 0. -1.
       -2   -1    0    0    0  501  0.00000000000E+00  0.00000000000E+00 -0.47722675379E+03  0.47722675379E+03  0.25500000920E-02 0.  1.
    10030    2    1    2    0    0  0.00000000000E+00  0.00000000000E+00  0.14132329763E+04  0.23676864839E+04  0.18996609805E+04 0.  0.
        4    1    3    3  502    0 -0.28587777022E+02 -0.30364724934E+03  0.18277687747E+04  0.18530405337E+04  0.12699999809E+01 0. -1.
       -4    1    3    3    0  502  0.28587777022E+02  0.30364724934E+03 -0.41453579835E+03  0.51464595019E+03  0.12699999809E+01 0.  1.
</event>
<event>
 5   0  0.7577180E-06  0.1898915E+04  0.7818609E-02  0.8655397E-01
       -2   -1    0    0    0  501  0.00000000000E+00  0.00000000000E+00  0.11875341725E+04  0.11875341725E+04  0.25500000920E-02 0.  1.
        2   -1    0    0  501    0  0.00000000000E+00  0.00000000000E+00 -0.75911023630E+03  0.75911023630E+03  0.25500000920E-02 0. -1.
    10030    2    1    2    0    0  0.00000000000E+00  0.00000000000E+00  0.42842393624E+03  0.19466444088E+04  0.18989147915E+04 0.  0.
        5    1    3    3  502    0 -0.10216732378E+03 -0.80887380156E+03  0.71299294126E+03  0.10830955697E+04  0.46999998093E+01 0.  1.
       -5    1    3    3    0  502  0.10216732378E+03  0.80887380156E+03 -0.28456900502E+03  0.86354883910E+03  0.46999998093E+01 0. -1.
</event>
<event>
 5   0  0.3379108E-06  0.1900454E+04  0.7818609E-02  0.8654630E-01
       -1   -1    0    0    0  501  0.00000000000E+00  0.00000000000E+00  0.11363844666E+04  0.11363844666E+04  0.50400001928E-02 0.  1.
        1   -1    0    0  501    0  0.00000000000E+00  0.00000000000E+00 -0.79456509924E+03  0.79456509926E+03  0.50400001928E-02 0. -1.
    10030    2    1    2    0    0  0.00000000000E+00  0.00000000000E+00  0.34181936735E+03  0.19309495659E+04  0.19004540894E+04 0.  0.
        4    1    3    3  502    0 -0.72043830921E+03  0.55283584725E+03 -0.11334914872E+03  0.91515489060E+03  0.12699999809E+01 0. -1.
       -4    1    3    3    0  502  0.72043830921E+03 -0.55283584725E+03  0.45516851607E+03  0.10157946753E+04  0.12699999809E+01 0.  1.
</event>
<event>
 5   0  0.6862201E-06  0.1899823E+04  0.7818609E-02  0.8654944E-01
       -2   -1    0    0    0  501  0.00000000000E+00  0.00000000000E+00  0.98959077706E+03  0.98959077707E+03  0.25500000920E-02 0.  1.
        2   -1    0    0  501    0  0.00000000000E+00  0.00000000000E+00 -0.91182328957E+03  0.91182328957E+03  0.25500000920E-02 0. -1.
    10030    2    1    2    0    0  0.00000000000E+00  0.00000000000E+00  0.77767487494E+02  0.19014140666E+04  0.18998230630E+04 0.  0.
        3    1    3    3  502    0 -0.62711588579E+03 -0.35898187764E+03 -0.57822777753E+03  0.92546728499E+03  0.10100000352E+00 0. -1.
       -3    1    3    3    0  502  0.62711588579E+03  0.35898187764E+03  0.65599526502E+03  0.97594678165E+03  0.10100000352E+00 0.  1.
</event>
<event>
 5   0  0.3211263E-06  0.1900194E+04  0.7818609E-02  0.8654760E-01
       -1   -1    0    0    0  501  0.00000000000E+00  0.00000000000E+00  0.11177005821E+04  0.11177005821E+04  0.50400001928E-02 0.  1.
        1   -1    0    0  501    0  0.00000000000E+00  0.00000000000E+00 -0.80762581029E+03  0.80762581030E+03  0.50400001928E-02 0. -1.
    10030    2    1    2    0    0  0.00000000000E+00  0.00000000000E+00  0.31007477183E+03  0.19253263924E+04  0.19001935042E+04 0.  0.
        5    1    3    3  502    0  0.27987394784E+03  0.90650420329E+03  0.20652734954E+03  0.97095568043E+03  0.46999998093E+01 0. -1.
       -5    1    3    3    0  502 -0.27987394784E+03 -0.90650420329E+03  0.10354742229E+03  0.95437071199E+03  0.46999998093E+01 0.  1.
</event>
<event>
 5   0  0.3236653E-06  0.1900879E+04  0.7818609E-02  0.8654419E-01
        1   -1    0    0  501    0  0.00000000000E+00  0.00000000000E+00  0.12674514616E+04  0.12674514616E+04  0.50400001928E-02 0.  1.
       -1   -1    0    0    0  501  0.00000000000E+00  0.00000000000E+00 -0.71271756570E+03  0.71271756572E+03  0.50400001928E-02 0. -1.
    10030    2    1    2    0    0  0.00000000000E+00  0.00000000000E+00  0.55473389593E+03  0.19801690274E+04  0.19008786604E+04 0.  0.
        3    1    3    3  502    0 -0.64997461285E+03 -0.66442546451E+03  0.70575304723E+02  0.93215292687E+03  0.10100000352E+00 0. -1.
       -3    1    3    3    0  502  0.64997461285E+03  0.66442546451E+03  0.48415859121E+03  0.10480161005E+04  0.10100000352E+00 0.  1.
</event>
<event>
 5   0  0.3236653E-06  0.1902703E+04  0.7818609E-02  0.8653512E-01
        1   -1    0    0  501    0  0.00000000000E+00  0.00000000000E+00  0.13175258419E+04  0.13175258419E+04  0.50400001928E-02 0.  1.
       -1   -1    0    0    0  501  0.00000000000E+00  0.00000000000E+00 -0.68694647394E+03  0.68694647396E+03  0.50400001928E-02 0. -1.
    10030    2    1    2    0    0  0.00000000000E+00  0.00000000000E+00  0.63057936793E+03  0.20044723158E+04  0.19027030577E+04 0.  0.
        3    1    3    3  502    0  0.79253115068E+03 -0.29107413725E+03  0.77719276697E+03  0.11475445026E+04  0.10100000352E+00 0. -1.
       -3    1    3    3    0  502 -0.79253115068E+03  0.29107413725E+03 -0.14661339904E+03  0.85692781327E+03  0.10100000352E+00 0.  1.
</event>
<event>
 5   0  0.3398807E-06  0.1901690E+04  0.7818609E-02  0.8654016E-01
       -1   -1    0    0    0  501  0.00000000000E+00  0.00000000000E+00  0.81956460455E+03  0.81956460456E+03  0.50400001928E-02 0.  1.
        1   -1    0    0  501    0  0.00000000000E+00  0.00000000000E+00 -0.11031545230E+04  0.11031545230E+04  0.50400001928E-02 0. -1.
    10030    2    1    2    0    0  0.00000000000E+00  0.00000000000E+00 -0.28358991844E+03  0.19227191276E+04  0.19016901960E+04 0.  0.
        1    1    3    3  502    0  0.84306367106E+02  0.42404319428E+03  0.71443820119E+03  0.83507013926E+03  0.50400001928E-02 0.  1.
       -1    1    3    3    0  502 -0.84306367106E+02 -0.42404319428E+03 -0.99802811963E+03  0.10876489883E+04  0.50400001928E-02 0. -1.
</event>
<event>
 5   0  0.6862201E-06  0.1899688E+04  0.7818609E-02  0.8655012E-01
        2   -1    0    0  501    0  0.00000000000E+00  0.00000000000E+00  0.11005238346E+04  0.11005238346E+04  0.25500000920E-02 0.  1.
       -2   -1    0    0    0  501  0.00000000000E+00  0.00000000000E+00 -0.81979471157E+03  0.81979471157E+03  0.25500000920E-02 0. -1.
    10030    2    1    2    0    0  0.00000000000E+00  0.00000000000E+00  0.28072912308E+03  0.19203185462E+04  0.18996879950E+04 0.  0.
        3    1    3    3  502    0  0.38974854750E+03  0.43369186748E+03  0.89831478276E+03  0.10709631298E+04  0.10100000352E+00 0.  1.
       -3    1    3    3    0  502 -0.38974854750E+03 -0.43369186748E+03 -0.61758565969E+03  0.84935541645E+03  0.10100000352E+00 0. -1.
</event>
<event>
 5   0  0.2527750E-06  0.1897669E+04  0.7818609E-02  0.8656018E-01
        3   -1    0    0  501    0  0.00000000000E+00  0.00000000000E+00  0.12089534323E+04  0.12089534365E+04  0.10100000352E+00 0.  1.
       -3   -1    0    0    0  501  0.00000000000E+00  0.00000000000E+00 -0.74468270952E+03  0.74468271637E+03  0.10100000352E+00 0. -1.
    10030    2    1    2    0    0  0.00000000000E+00  0.00000000000E+00  0.46427072275E+03  0.19536361529E+04  0.18976688103E+04 0.  0.
        2    1    3    3  502    0  0.25792246002E+03  0.76302501153E+03 -0.28420993875E+03  0.85411149910E+03  0.25500000920E-02 0. -1.
       -2    1    3    3    0  502 -0.25792246002E+03 -0.76302501153E+03  0.74848066150E+03  0.10995246538E+04  0.25500000920E-02 0.  1.
</event>
<event>
 5   0  0.6862201E-06  0.1899804E+04  0.7818609E-02  0.8654954E-01
        2   -1    0    0  501    0  0.00000000000E+00  0.00000000000E+00  0.63222015615E+03  0.63222015616E+03  0.25500000920E-02 0.  1.
       -2   -1    0    0    0  501  0.00000000000E+00  0.00000000000E+00 -0.14272144176E+04  0.14272144176E+04  0.25500000920E-02 0. -1.
    10030    2    1    2    0    0  0.00000000000E+00  0.00000000000E+00 -0.79499426142E+03  0.20594345737E+04  0.18998039077E+04 0.  0.
        3    1    3    3  502    0 -0.63713191738E+03  0.16174828495E+02  0.36604042733E+03  0.73497231911E+03  0.10100000352E+00 0.  1.
       -3    1    3    3    0  502  0.63713191738E+03 -0.16174828495E+02 -0.11610346887E+04  0.13244622546E+04  0.10100000352E+00 0. -1.
</event>
<event>
 5   0  0.7577180E-06  0.1898859E+04  0.7818609E-02  0.8655424E-01
       -2   -1    0    0    0  501  0.00000000000E+00  0.00000000000E+00  0.11161171601E+04  0.11161171601E+04  0.25500000920E-02 0. -1.
        2   -1    0    0  501    0  0.00000000000E+00  0.00000000000E+00 -0.80763622590E+03  0.80763622590E+03  0.25500000920E-02 0.  1.
    10030    2    1    2    0    0  0.00000000000E+00  0.00000000000E+00  0.30848093418E+03  0.19237533860E+04  0.18988592900E+04 0.  0.
        5    1    3    3  502    0  0.31643696174E+02 -0.94856066082E+03  0.12889428317E+03  0.95781233913E+03  0.46999998093E+01 0. -1.
       -5    1    3    3    0  502 -0.31643696174E+02  0.94856066082E+03  0.17958665101E+03  0.96594104684E+03  0.46999998093E+01 0.  1.
</event>
<event>
 5   0  0.3495279E-06  0.1899608E+04  0.7818609E-02  0.8655052E-01
        1   -1    0    0  501    0  0.00000000000E+00  0.00000000000E+00  0.20287571602E+04  0.20287571602E+04  0.50400001928E-02 0. -1.
       -1   -1    0    0    0  501  0.00000000000E+00  0.00000000000E+00 -0.44466993759E+03  0.44466993762E+03  0.50400001928E-02 0.  1.
    10030    2    1    2    0    0  0.00000000000E+00  0.00000000000E+00  0.15840872226E+04  0.24734270978E+04  0.18996076646E+04 0.  0.
        2    1    3    3  502    0  0.22994587097E+03  0.81199776068E+03  0.22461499160E+03  0.87330828542E+03  0.25500000920E-02 0. -1.
       -2    1    3    3    0  502 -0.22994587097E+03 -0.81199776068E+03  0.13594722310E+04  0.16001188124E+04  0.25500000920E-02 0.  1.
</event>
<event>
 5   0  0.3379108E-06  0.1902259E+04  0.7818609E-02  0.8653733E-01
       -1   -1    0    0    0  501  0.00000000000E+00  0.00000000000E+00  0.54849913332E+03  0.54849913334E+03  0.50400001928E-02 0.  1.
        1   -1    0    0  501    0  0.00000000000E+00  0.00000000000E+00 -0.16493138281E+04  0.16493138281E+04  0.50400001928E-02 0. -1.
    10030    2    1    2    0    0  0.00000000000E+00  0.00000000000E+00 -0.11008146948E+04  0.21978129614E+04  0.19022588734E+04 0.  0.
        4    1    3    3  502    0  0.48003097853E+03  0.80202088394E+03 -0.34705448994E+03  0.99705349431E+03  0.12699999809E+01 0. -1.
       -4    1    3    3    0  502 -0.48003097853E+03 -0.80202088394E+03 -0.75376020483E+03  0.12007594671E+04  0.12699999809E+01 0.  1.
</event>
<event>
 5   0  0.6984466E-06  0.1901393E+04  0.7818609E-02  0.8654163E-01
       -2   -1    0    0    0  501  0.00000000000E+00  0.00000000000E+00  0.11619652062E+04  0.11619652062E+04  0.25500000920E-02 0.  1.
        2   -1    0    0  501    0  0.00000000000E+00  0.00000000000E+00 -0.77784061610E+03  0.77784061611E+03  0.25500000920E-02 0. -1.
    10030    2    1    2    0    0  0.00000000000E+00  0.00000000000E+00  0.38412459005E+03  0.19398058223E+04  0.19013928914E+04 0.  0.
        2    1    3    3  502    0 -0.61992687111E+03 -0.29929086816E+03 -0.47688208093E+03  0.83743708325E+03  0.25500000920E-02 0. -1.
       -2    1    3    3    0  502  0.61992687111E+03  0.29929086816E+03  0.86100667098E+03  0.11023687390E+04  0.25500000920E-02 0.  1.
</event>
<event>
 5   0  0.6862201E-06  0.1899539E+04  0.7818609E-02  0.8655086E-01
        2   -1    0    0  501    0  0.00000000000E+00  0.00000000000E+00  0.10339510343E+04  0.10339510343E+04  0.25500000920E-02 0.  1.
       -2   -1    0    0    0  501  0.00000000000E+00  0.00000000000E+00 -0.87244150163E+03  0.87244150163E+03  0.25500000920E-02 0. -1.
    10030    2    1    2    0    0  0.00000000000E+00  0.00000000000E+00  0.16150953265E+03  0.19063925359E+04  0.18995386734E+04 0.  0.
        3    1    3    3  502    0 -0.74118321039E+03 -0.51061544725E+03  0.38513292120E+03  0.97898317837E+03  0.10100000352E+00 0.  1.
       -3    1    3    3    0  502  0.74118321039E+03  0.51061544725E+03 -0.22362338856E+03  0.92740935754E+03  0.10100000352E+00 0. -1.
</event>
<event>
 5   0  0.3398807E-06  0.1898133E+04  0.7818609E-02  0.8655786E-01
       -1   -1    0    0    0  501  0.00000000000E+00  0.00000000000E+00  0.87167871679E+03  0.87167871681E+03  0.50400001928E-02 0.  1.
        1   -1    0    0  501    0  0.00000000000E+00  0.00000000000E+00 -0.10333253153E+04  0.10333253153E+04  0.50400001928E-02 0. -1.
    10030    2    1    2    0    0  0.00000000000E+00  0.00000000000E+00 -0.16164659847E+03  0.19050040321E+04  0.18981334883E+04 0.  0.
        1    1    3    3  502    0 -0.50280352908E+03  0.55768200175E+03 -0.66336124129E+03  0.10019325029E+04  0.50400001928E-02 0.  1.
       -1    1    3    3    0  502  0.50280352908E+03 -0.55768200175E+03  0.50171464282E+03  0.90307152916E+03  0.50400001928E-02 0. -1.
</event>
<event>
 5   0  0.7577180E-06  0.1898876E+04  0.7818609E-02  0.8655416E-01
        2   -1    0    0  501    0  0.00000000000E+00  0.00000000000E+00  0.90293974476E+03  0.90293974476E+03  0.25500000920E-02 0.  1.
       -2   -1    0    0    0  501  0.00000000000E+00  0.00000000000E+00 -0.99833115511E+03  0.99833115511E+03  0.25500000920E-02 0. -1.
    10030    2    1    2    0    0  0.00000000000E+00  0.00000000000E+00 -0.95391410349E+02  0.19012708999E+04  0.18988763818E+04 0.  0.
        5    1    3    3  502    0 -0.48047801885E+02 -0.12438231393E+03  0.89350628839E+03  0.90341304433E+03  0.46999998093E+01 0.  1.
       -5    1    3    3    0  502  0.48047801885E+02  0.12438231393E+03 -0.98889769874E+03  0.99785785553E+03  0.46999998093E+01 0. -1.
</event>
<event>
 5   0  0.3379108E-06  0.1899324E+04  0.7818609E-02  0.8655193E-01
       -1   -1    0    0    0  501  0.00000000000E+00  0.00000000000E+00  0.45313766310E+03  0.45313766312E+03  0.50400001928E-02 0. -1.
        1   -1    0    0  501    0  0.00000000000E+00  0.00000000000E+00 -0.19902516839E+04  0.19902516839E+04  0.50400001928E-02 0.  1.
    10030    2    1    2    0    0  0.00000000000E+00  0.00000000000E+00 -0.15371140208E+04  0.24433893470E+04  0.18993240872E+04 0.  0.
        4    1    3    3  502    0  0.38865186168E+03  0.86412165018E+03 -0.68618501074E+03  0.11698751975E+04  0.12699999809E+01 0. -1.
       -4    1    3    3    0  502 -0.38865186168E+03 -0.86412165018E+03 -0.85092901003E+03  0.12735141495E+04  0.12699999809E+01 0.  1.
</event>
<event>
 5   0  0.3211263E-06  0.1900309E+04  0.7818609E-02  0.8654703E-01
        1   -1    0    0  501    0  0.00000000000E+00  0.00000000000E+00  0.86579705867E+03  0.86579705869E+03  0.50400001928E-02 0.  1.
       -1   -1    0    0    0  501  0.00000000000E+00  0.00000000000E+00 -0.10427311610E+04  0.10427311610E+04  0.50400001928E-02 0. -1.
    10030    2    1    2    0    0  0.00000000000E+00  0.00000000000E+00 -0.17693410235E+03  0.19085282197E+04  0.19003089983E+04 0.  0.
        5    1    3    3  502    0  0.60769041053E+03  0.64163831512E+03 -0.43895225771E+03  0.98675657435E+03  0.46999998093E+01 0. -1.
       -5    1    3    3    0  502 -0.60769041053E+03 -0.64163831512E+03  0.26201815535E+03  0.92177164538E+03  0.46999998093E+01 0.  1.
</event>
<event>
 5   0  0.6984466E-06  0.1896550E+04  0.7818609E-02  0.8656576E-01
        2   -1    0    0  501    0  0.00000000000E+00  0.00000000000E+00  0.14283848989E+04  0.14283848989E+04  0.25500000920E-02 0. -1.
       -2   -1    0    0    0  501  0.00000000000E+00  0.00000000000E+00 -0.62953980792E+03  0.62953980792E+03  0.25500000920E-02 0.  1.
    10030    2    1    2    0    0  0.00000000000E+00  0.00000000000E+00  0.79884509094E+03  0.20579247068E+04  0.18965496617E+04 0.  0.
        2    1    3    3  502    0  0.51882577300E+03 -0.79226535578E+03  0.45214243043E+03  0.10494271552E+04  0.25500000920E-02 0. -1.
       -2    1    3    3    0  502 -0.51882577300E+03  0.79226535578E+03  0.34670266051E+03  0.10084975516E+04  0.25500000920E-02 0.  1.
</event>
<event>
 5   0  0.3398807E-06  0.1899776E+04  0.7818609E-02  0.8654968E-01
       -1   -1    0    0    0  501  0.00000000000E+00  0.00000000000E+00  0.16075208208E+04  0.16075208209E+04  0.50400001928E-02 0. -1.
        1   -1    0    0  501    0  0.00000000000E+00  0.00000000000E+00 -0.56129116565E+03  0.56129116567E+03  0.50400001928E-02 0.  1.
    10030    2    1    2    0    0  0.00000000000E+00  0.00000000000E+00  0.10462296552E+04  0.21688119865E+04  0.18997760240E+04 0.  0.
        1    1    3    3  502    0  0.45750331403E+03 -0.39324249824E+03 -0.31450536426E+03  0.68034003920E+03  0.50400001928E-02 0.  1.
       -1    1    3    3    0  502 -0.45750331403E+03  0.39324249824E+03  0.13607350195E+04  0.14884719473E+04  0.50400001928E-02 0. -1.
</event>
<event>
 5   0  0.3495279E-06  0.1899214E+04  0.7818609E-02  0.8655247E-01
       -1   -1    0    0    0  501  0.00000000000E+00  0.00000000000E+00  0.81070574392E+03  0.81070574394E+03  0.50400001928E-02 0.  1.
        1   -1    0    0  501    0  0.00000000000E+00  0.00000000000E+00 -0.11123073049E+04  0.11123073049E+04  0.50400001928E-02 0. -1.
    10030    2    1    2    0    0  0.00000000000E+00  0.00000000000E+00 -0.30160156097E+03  0.19230130488E+04  0.18992144914E+04 0.  0.
        2    1    3    3  502    0  0.14590865256E+02 -0.25118857438E+03 -0.10779413609E+04  0.11069174183E+04  0.25500000920E-02 0. -1.
       -2    1    3    3    0  502 -0.14590865256E+02  0.25118857438E+03  0.77633979996E+03  0.81609563058E+03  0.25500000920E-02 0.  1.
</event>
<event>
 5   0  0.7577180E-06  0.1899460E+04  0.7818609E-02  0.8655125E-01
       -2   -1    0    0    0  501  0.00000000000E+00  0.00000000000E+00  0.97457989887E+03  0.97457989888E+03  0.25500000920E-02 0.  1.
        2   -1    0    0  501    0  0.00000000000E+00  0.00000000000E+00 -0.92551353549E+03  0.92551353549E+03  0.25500000920E-02 0. -1.
    10030    2    1    2    0    0  0.00000000000E+00  0.00000000000E+00  0.49066363386E+02  0.19000934344E+04  0.18994598051E+04 0.  0.
        5    1    3    3  502    0 -0.17664293672E+03  0.72241015603E+03  0.61539563718E+03  0.96530463631E+03  0.46999998093E+01 0.  1.
       -5    1    3    3    0  502  0.17664293672E+03 -0.72241015603E+03 -0.56632927379E+03  0.93478879806E+03  0.46999998093E+01 0. -1.
</event>
<event>
 5   0  0.7207648E-06  0.1899706E+04  0.7818609E-02  0.8655003E-01
        2   -1    0    0  501    0  0.00000000000E+00  0.00000000000E+00  0.19870515624E+04  0.19870515624E+04  0.25500000920E-02 0. -1.
       -2   -1    0    0    0  501  0.00000000000E+00  0.00000000000E+00 -0.45405011929E+03  0.45405011930E+03  0.25500000920E-02 0.  1.
    10030    2    1    2    0    0  0.00000000000E+00  0.00000000000E+00  0.15330014431E+04  0.24411016817E+04  0.18997062920E+04 0.  0.
        4    1    3    3  502    0  0.30186705070E+03  0.92903634695E+02 -0.38459740220E+03  0.49766612936E+03  0.12699999809E+01 0.  1.
       -4    1    3    3    0  502 -0.30186705070E+03 -0.92903634695E+02  0.19175988453E+04  0.19434355523E+04  0.12699999809E+01 0. -1.
</event>
<event>
 5   0  0.3495279E-06  0.1900238E+04  0.7818609E-02  0.8654738E-01
        1   -1    0    0  501    0  0.00000000000E+00  0.00000000000E+00  0.14397350603E+04  0.14397350603E+04  0.50400001928E-02 0.  1.
       -1   -1    0    0    0  501  0.00000000000E+00  0.00000000000E+00 -0.62700850679E+03  0.62700850681E+03  0.50400001928E-02 0. -1.
    10030    2    1    2    0    0  0.00000000000E+00  0.00000000000E+00  0.81272655349E+03  0.20667435671E+04  0.19002380170E+04 0.  0.
        2    1    3    3  502    0 -0.48107559888E+03 -0.26581496798E+03  0.12492783847E+04  0.13648398483E+04  0.25500000920E-02 0.  1.
       -2    1    3    3    0  502  0.48107559888E+03  0.26581496798E+03 -0.43655183124E+03  0.70190371876E+03  0.25500000920E-02 0. -1.
</event>
<event>
 5   0  0.3236653E-06  0.1899618E+04  0.7818609E-02  0.8655047E-01
        1   -1    0    0  501    0  0.00000000000E+00  0.00000000000E+00  0.82838602312E+03  0.82838602314E+03  0.50400001928E-02 0. -1.
       -1   -1    0    0    0  501  0.00000000000E+00  0.00000000000E+00 -0.10890298056E+04  0.10890298056E+04  0.50400001928E-02 0.  1.
    10030    2    1    2    0    0  0.00000000000E+00  0.00000000000E+00 -0.26064378244E+03  0.19174158287E+04  0.18996179297E+04 0.  0.
        3    1    3    3  502    0 -0.55497741612E+03 -0.21147866673E+03  0.61784738502E+03  0.85700557773E+03  0.10100000352E+00 0. -1.
       -3    1    3    3    0  502  0.55497741612E+03  0.21147866673E+03 -0.87849116746E+03  0.10604102510E+04  0.10100000352E+00 0.  1.
</event>
<event>
 5   0  0.3495279E-06  0.1901431E+04  0.7818609E-02  0.8654144E-01
       -1   -1    0    0    0  501  0.00000000000E+00  0.00000000000E+00  0.39642974296E+03  0.39642974299E+03  0.50400001928E-02 0. -1.
        1   -1    0    0  501    0  0.00000000000E+00  0.00000000000E+00 -0.22800004308E+04  0.22800004308E+04  0.50400001928E-02 0.  1.
    10030    2    1    2    0    0  0.00000000000E+00  0.00000000000E+00 -0.18835706878E+04  0.26764301738E+04  0.19014310240E+04 0.  0.
        2    1    3    3  502    0 -0.75826598874E+03  0.24230532655E+03 -0.16734340122E+04  0.18531218455E+04  0.25500000920E-02 0.  1.
       -2    1    3    3    0  502  0.75826598874E+03 -0.24230532655E+03 -0.21013667557E+03  0.82330832826E+03  0.25500000920E-02 0. -1.
</event>
<event>
 5   0  0.6862201E-06  0.1900014E+04  0.7818609E-02  0.8654850E-01
       -2   -1    0    0    0  501  0.00000000000E+00  0.00000000000E+00  0.83563851661E+03  0.83563851661E+03  0.25500000920E-02 0.  1.
        2   -1    0    0  501    0  0.00000000000E+00  0.00000000000E+00 -0.10800278500E+04  0.10800278500E+04  0.25500000920E-02 0. -1.
    10030    2    1    2    0    0  0.00000000000E+00  0.00000000000E+00 -0.24438933338E+03  0.19156663666E+04  0.19000135478E+04 0.  0.
        3    1    3    3  502    0 -0.44796625158E+03  0.38522667554E+03  0.62786921882E+03  0.86214448919E+03  0.10100000352E+00 0.  1.
       -3    1    3    3    0  502  0.44796625158E+03 -0.38522667554E+03 -0.87225855220E+03  0.10535218774E+04  0.10100000352E+00 0. -1.
</event>
<event>
 5   0  0.3211263E-06  0.1899060E+04  0.7818609E-02  0.8655325E-01
        1   -1    0    0  501    0  0.00000000000E+00  0.00000000000E+00  0.78596351206E+03  0.78596351208E+03  0.50400001928E-02 0.  1.
       -1   -1    0    0    0  501  0.00000000000E+00  0.00000000000E+00 -0.11471360115E+04  0.11471360115E+04  0.50400001928E-02 0. -1.
    10030    2    1    2    0    0  0.00000000000E+00  0.00000000000E+00 -0.36117249942E+03  0.19330995236E+04  0.18990598184E+04 0.  0.
        5    1    3    3  502    0  0.10597261706E+03  0.93542323235E+03 -0.54519107769E+02  0.94299588668E+03  0.46999998093E+01 0. -1.
       -5    1    3    3    0  502 -0.10597261706E+03 -0.93542323235E+03 -0.30665339166E+03  0.99010363690E+03  0.46999998093E+01 0.  1.
</event>
<event>
 5   0  0.3379108E-06  0.1900327E+04  0.7818609E-02  0.8654693E-01
       -1   -1    0    0    0  501  0.00000000000E+00  0.00000000000E+00  0.11187673958E+04  0.11187673958E+04  0.50400001928E-02 0. -1.
        1   -1    0    0  501    0  0.00000000000E+00  0.00000000000E+00 -0.80696947278E+03  0.80696947279E+03  0.50400001928E-02 0.  1.
    10030    2    1    2    0    0  0.00000000000E+00  0.00000000000E+00  0.31179792302E+03  0.19257368686E+04  0.19003274829E+04 0.  0.
        4    1    3    3  502    0  0.94688392029E+03 -0.26432649595E+02  0.80597382724E+02  0.95067628269E+03  0.12699999809E+01 0.  1.
       -4    1    3    3    0  502 -0.94688392029E+03  0.26432649595E+02  0.23120054030E+03  0.97506058591E+03  0.12699999809E+01 0. -1.
</event>
<event>
 5   0  0.3236653E-06  0.1899742E+04  0.7818609E-02  0.8654985E-01
       -1   -1    0    0    0  501  0.00000000000E+00  0.00000000000E+00  0.78950853781E+03  0.78950853782E+03  0.50400001928E-02 0.  1.
        1   -1    0    0  501    0  0.00000000000E+00  0.00000000000E+00 -0.11428060091E+04  0.11428060091E+04  0.50400001928E-02 0. -1.
    10030    2    1    2    0    0  0.00000000000E+00  0.00000000000E+00 -0.35329747132E+03  0.19323145470E+04  0.18997421944E+04 0.  0.
        3    1    3    3  502    0  0.70004402036E+03  0.47466887756E+03  0.26306289902E+03  0.88576197299E+03  0.10100000352E+00 0.  1.
       -3    1    3    3    0  502 -0.70004402036E+03 -0.47466887756E+03 -0.61636037034E+03  0.10465525740E+04  0.10100000352E+00 0. -1.
</event>
<event>
 5   0  0.6870370E-06  0.1899430E+04  0.7818609E-02  0.8655140E-01
        2   -1    0    0  501    0  0.00000000000E+00  0.00000000000E+00  0.99181258875E+03  0.99181258875E+03  0.25500000920E-02 0.  1.
       -2   -1    0    0    0  501  0.00000000000E+00  0.00000000000E+00 -0.90940447097E+03  0.90940447097E+03  0.25500000920E-02 0. -1.
    10030    2    1    2    0    0  0.00000000000E+00  0.00000000000E+00  0.82408117779E+02  0.19012170597E+04  0.18994302331E+04 0.  0.
        1    1    3    3  502    0  0.94287806173E+03  0.94899748094E+02 -0.21574964208E+02  0.94788737759E+03  0.50400001928E-02 0.  1.
       -1    1    3    3    0  502 -0.94287806173E+03 -0.94899748094E+02  0.10398308199E+03  0.95332968214E+03  0.50400001928E-02 0. -1.
</event>
<event>
 5   0  0.3398807E-06  0.1894623E+04  0.7818609E-02  0.8657537E-01
        1   -1    0    0  501    0  0.00000000000E+00  0.00000000000E+00  0.22400767325E+04  0.22400767325E+04  0.50400001928E-02 0.  1.
       -1   -1    0    0    0  501  0.00000000000E+00  0.00000000000E+00 -0.40061095569E+03  0.40061095572E+03  0.50400001928E-02 0. -1.
    10030    2    1    2    0    0  0.00000000000E+00  0.00000000000E+00  0.18394657768E+04  0.26406876883E+04  0.18946232139E+04 0.  0.
        1    1    3    3  502    0 -0.98197945611E+02  0.32683158444E+03 -0.31195973906E+03  0.46236414213E+03  0.50400001928E-02 0. -1.
       -1    1    3    3    0  502  0.98197945611E+02 -0.32683158444E+03  0.21514255159E+04  0.21783235461E+04  0.50400001928E-02 0.  1.
</event>
<event>
 5   0  0.6862201E-06  0.1899693E+04  0.7818609E-02  0.8655009E-01
       -2   -1    0    0    0  501  0.00000000000E+00  0.00000000000E+00  0.92044680371E+03  0.92044680372E+03  0.25500000920E-02 0.  1.
        2   -1    0    0  501    0  0.00000000000E+00  0.00000000000E+00 -0.98018491689E+03  0.98018491690E+03  0.25500000920E-02 0. -1.
    10030    2    1    2    0    0  0.00000000000E+00  0.00000000000E+00 -0.59738113180E+02  0.19006317206E+04  0.18996926844E+04 0.  0.
        3    1    3    3  502    0  0.84032312223E+02  0.68874422954E+03  0.61912563705E+03  0.92991752746E+03  0.10100000352E+00 0.  1.
       -3    1    3    3    0  502 -0.84032312223E+02 -0.68874422954E+03 -0.67886375023E+03  0.97071419316E+03  0.10100000352E+00 0. -1.
</event>
<event>
 5   0  0.6862201E-06  0.1900309E+04  0.7818609E-02  0.8654702E-01
        2   -1    0    0  501    0  0.00000000000E+00  0.00000000000E+00  0.74203903425E+03  0.74203903425E+03  0.25500000920E-02 0.  1.
       -2   -1    0    0    0  501  0.00000000000E+00  0.00000000000E+00 -0.12166393002E+04  0.12166393002E+04  0.25500000920E-02 0. -1.
    10030    2    1    2    0    0  0.00000000000E+00  0.00000000000E+00 -0.47460026600E+03  0.19586783345E+04  0.19003092921E+04 0.  0.
        3    1    3    3  502    0  0.38707762201E+02  0.78705077738E+03 -0.78449907149E+03  0.11119289637E+04  0.10100000352E+00 0. -1.
       -3    1    3    3    0  502 -0.38707762201E+02 -0.78705077738E+03  0.30989880549E+03  0.84674937076E+03  0.10100000352E+00 0.  1.
</event>
<event>
 5   0  0.7207648E-06  0.1898783E+04  0.7818609E-02  0.8655462E-01
        2   -1    0    0  501    0  0.00000000000E+00  0.00000000000E+00  0.16251731374E+04  0.16251731374E+04  0.25500000920E-02 0. -1.
       -2   -1    0    0    0  501  0.00000000000E+00  0.00000000000E+00 -0.55461418093E+03  0.55461418093E+03  0.25500000920E-02 0.  1.
    10030    2    1    2    0    0  0.00000000000E+00  0.00000000000E+00  0.10705589565E+04  0.21797873184E+04  0.18987828401E+04 0.  0.
        4    1    3    3  502    0  0.89966864478E+03  0.27191071848E+03  0.38124588670E+03  0.10142431406E+04  0.12699999809E+01 0.  1.
       -4    1    3    3    0  502 -0.89966864478E+03 -0.27191071848E+03  0.68931306981E+03  0.11655441778E+04  0.12699999809E+01 0. -1.
</event>
<event>
 5   0  0.3236653E-06  0.1900124E+04  0.7818609E-02  0.8654795E-01
       -1   -1    0    0    0  501  0.00000000000E+00  0.00000000000E+00  0.51233721969E+03  0.51233721972E+03  0.50400001928E-02 0.  1.
        1   -1    0    0  501    0  0.00000000000E+00  0.00000000000E+00 -0.17617641312E+04  0.17617641312E+04  0.50400001928E-02 0. -1.
    10030    2    1    2    0    0  0.00000000000E+00  0.00000000000E+00 -0.12494269115E+04  0.22741013509E+04  0.19001235084E+04 0.  0.
        3    1    3    3  502    0  0.83631862923E+03  0.76732541891E+01 -0.85308925319E+02  0.84069337536E+03  0.10100000352E+00 0.  1.
       -3    1    3    3    0  502 -0.83631862923E+03 -0.76732541891E+01 -0.11641179862E+04  0.14334079755E+04  0.10100000352E+00 0. -1.
</event>
<event>
 5   0  0.7207648E-06  0.1899689E+04  0.7818609E-02  0.8655011E-01
        2   -1    0    0  501    0  0.00000000000E+00  0.00000000000E+00  0.22179745733E+04  0.22179745733E+04  0.25500000920E-02 0.  1.
       -2   -1    0    0    0  501  0.00000000000E+00  0.00000000000E+00 -0.40676936249E+03  0.40676936250E+03  0.25500000920E-02 0. -1.
    10030    2    1    2    0    0  0.00000000000E+00  0.00000000000E+00  0.18112052108E+04  0.26247439358E+04  0.18996885042E+04 0.  0.
        4    1    3    3  502    0 -0.52559654519E+03  0.78840736285E+03  0.81432244735E+03  0.12493840720E+04  0.12699999809E+01 0. -1.
       -4    1    3    3    0  502  0.52559654519E+03 -0.78840736285E+03  0.99688276349E+03  0.13753598639E+04  0.12699999809E+01 0.  1.
</event>
<event>
 5   0  0.3211263E-06  0.1899059E+04  0.7818609E-02  0.8655325E-01
        1   -1    0    0  501    0  0.00000000000E+00  0.00000000000E+00  0.20645669712E+04  0.20645669712E+04  0.50400001928E-02 0.  1.
       -1   -1    0    0    0  501  0.00000000000E+00  0.00000000000E+00 -0.43670466980E+03  0.43670466983E+03  0.50400001928E-02 0. -1.
    10030    2    1    2    0    0  0.00000000000E+00  0.00000000000E+00  0.16278623014E+04  0.25012716411E+04  0.18990587537E+04 0.  0.
        5    1    3    3  502    0  0.37643992292E+03  0.10292576641E+03 -0.32617545215E+03  0.50863861881E+03  0.46999998093E+01 0. -1.
       -5    1    3    3    0  502 -0.37643992292E+03 -0.10292576641E+03  0.19540377536E+04  0.19926330223E+04  0.46999998093E+01 0.  1.
</event>
<event>
 5   0  0.6870370E-06  0.1899705E+04  0.7818609E-02  0.8655003E-01
       -2   -1    0    0    0  501  0.00000000000E+00  0.00000000000E+00  0.50335499376E+03  0.50335499377E+03  0.25500000920E-02 0.  1.
        2   -1    0    0  501    0  0.00000000000E+00  0.00000000000E+00 -0.17924116490E+04  0.17924116490E+04  0.25500000920E-02 0. -1.
    10030    2    1    2    0    0  0.00000000000E+00  0.00000000000E+00 -0.12890566552E+04  0.22957666428E+04  0.18997045606E+04 0.  0.
        1    1    3    3  502    0  0.74325547254E+03 -0.16074933584E+02 -0.13590004771E+04  0.15490543560E+04  0.50400001928E-02 0. -1.
       -1    1    3    3    0  502 -0.74325547254E+03  0.16074933584E+02  0.69943821914E+02  0.74671228676E+03  0.50400001928E-02 0.  1.
</event>
<event>
 5   0  0.3495279E-06  0.1901782E+04  0.7818609E-02  0.8653970E-01
       -1   -1    0    0    0  501  0.00000000000E+00  0.00000000000E+00  0.12480984647E+04  0.12480984647E+04  0.50400001928E-02 0.  1.
        1   -1    0    0  501    0  0.00000000000E+00  0.00000000000E+00 -0.72445736854E+03  0.72445736856E+03  0.50400001928E-02 0. -1.
    10030    2    1    2    0    0  0.00000000000E+00  0.00000000000E+00  0.52364109619E+03  0.19725558333E+04  0.19017824581E+04 0.  0.
        2    1    3    3  502    0  0.68040123430E+03 -0.65434526332E+03  0.38044705416E+03  0.10177688953E+04  0.25500000920E-02 0.  1.
       -2    1    3    3    0  502 -0.68040123430E+03  0.65434526332E+03  0.14319404203E+03  0.95478693798E+03  0.25500000920E-02 0. -1.
</event>
<event>
 5   0  0.7577180E-06  0.1901115E+04  0.7818609E-02  0.8654302E-01
        2   -1    0    0  501    0  0.00000000000E+00  0.00000000000E+00  0.86017414484E+03  0.86017414484E+03  0.25500000920E-02 0. -1.
       -2   -1    0    0    0  501  0.00000000000E+00  0.00000000000E+00 -0.10504378126E+04  0.10504378126E+04  0.25500000920E-02 0.  1.
    10030    2    1    2    0    0  0.00000000000E+00  0.00000000000E+00 -0.19026366778E+03  0.19106119575E+04  0.19011148805E+04 0.  0.
        5    1    3    3  502    0  0.62953596677E+02 -0.94345049854E+03  0.26958921859E+01  0.94556404139E+03  0.46999998093E+01 0. -1.
       -5    1    3    3    0  502 -0.62953596677E+02  0.94345049854E+03 -0.19295955996E+03  0.96504791607E+03  0.46999998093E+01 0.  1.
</event>
<event>
 5   0  0.3236653E-06  0.1898225E+04  0.7818609E-02  0.8655740E-01
       -1   -1    0    0    0  501  0.00000000000E+00  0.00000000000E+00  0.89364078891E+03  0.89364078893E+03  0.50400001928E-02 0.  1.
        1   -1    0    0  501    0  0.00000000000E+00  0.00000000000E+00 -0.10080280473E+04  0.10080280473E+04  0.50400001928E-02 0. -1.
    10030    2    1    2    0    0  0.00000000000E+00  0.00000000000E+00 -0.11438725836E+03  0.19016688362E+04  0.18982254655E+04 0.  0.
        3    1    3    3  502    0 -0.58269472162E+02  0.90934552030E+03  0.20882592913E+03  0.93483307898E+03  0.10100000352E+00 0.  1.
       -3    1    3    3    0  502  0.58269472162E+02 -0.90934552030E+03 -0.32321318749E+03  0.96683575722E+03  0.10100000352E+00 0. -1.
</event>
<event>
 5   0  0.3236653E-06  0.1895365E+04  0.7818609E-02  0.8657167E-01
        1   -1    0    0  501    0  0.00000000000E+00  0.00000000000E+00  0.12816126574E+04  0.12816126574E+04  0.50400001928E-02 0.  1.
       -1   -1    0    0    0  501  0.00000000000E+00  0.00000000000E+00 -0.70075954317E+03  0.70075954319E+03  0.50400001928E-02 0. -1.
    10030    2    1    2    0    0  0.00000000000E+00  0.00000000000E+00  0.58085311422E+03  0.19823722006E+04  0.18953651895E+04 0.  0.
        3    1    3    3  502    0 -0.53414242713E+03  0.32479728034E+03 -0.45451998484E+03  0.77290997703E+03  0.10100000352E+00 0. -1.
       -3    1    3    3    0  502  0.53414242713E+03 -0.32479728034E+03  0.10353730991E+04  0.12094622236E+04  0.10100000352E+00 0.  1.
</event>
<event>
 5   0  0.2527750E-06  0.1899549E+04  0.7818609E-02  0.8655081E-01
       -3   -1    0    0    0  501  0.00000000000E+00  0.00000000000E+00  0.11524239125E+04  0.11524239169E+04  0.10100000352E+00 0.  1.
        3   -1    0    0  501    0  0.00000000000E+00  0.00000000000E+00 -0.78276030670E+03  0.78276031322E+03  0.10100000352E+00 0. -1.
    10030    2    1    2    0    0  0.00000000000E+00  0.00000000000E+00  0.36966360578E+03  0.19351842301E+04  0.18995491105E+04 0.  0.
        4    1    3    3  502    0  0.66197816559E+03 -0.23994594332E+03 -0.46452742612E+03  0.84354993329E+03  0.12699999809E+01 0. -1.
       -4    1    3    3    0  502 -0.66197816559E+03  0.23994594332E+03  0.83419103190E+03  0.10916342968E+04  0.12699999809E+01 0.  1.
</event>
<event>
 5   0  0.3236653E-06  0.1899436E+04  0.7818609E-02  0.8655137E-01
        1   -1    0    0  501    0  0.00000000000E+00  0.00000000000E+00  0.16625006391E+04  0.16625006391E+04  0.50400001928E-02 0.  1.
       -1   -1    0    0    0  501  0.00000000000E+00  0.00000000000E+00 -0.54253492710E+03  0.54253492713E+03  0.50400001928E-02 0. -1.
    10030    2    1    2    0    0  0.00000000000E+00  0.00000000000E+00  0.11199657120E+04  0.22050355662E+04  0.18994364039E+04 0.  0.
        3    1    3    3  502    0 -0.52648836975E+03  0.19951872479E+03 -0.32790169240E+03  0.65154988689E+03  0.10100000352E+00 0. -1.
       -3    1    3    3    0  502  0.52648836975E+03 -0.19951872479E+03  0.14478674044E+04  0.15534856793E+04  0.10100000352E+00 0.  1.
</event>
<event>
 5   0  0.3495279E-06  0.1899799E+04  0.7818609E-02  0.8654956E-01
       -1   -1    0    0    0  501  0.00000000000E+00  0.00000000000E+00  0.79394370889E+03  0.79394370891E+03  0.50400001928E-02 0.  1.
        1   -1    0    0  501    0  0.00000000000E+00  0.00000000000E+00 -0.11364904905E+04  0.11364904905E+04  0.50400001928E-02 0. -1.
    10030    2    1    2    0    0  0.00000000000E+00  0.00000000000E+00 -0.34254678157E+03  0.19304341994E+04  0.18997994369E+04 0.  0.
        2    1    3    3  502    0 -0.38161072204E+03  0.84139897908E+03 -0.39558287530E+03  0.10050197990E+04  0.25500000920E-02 0. -1.
       -2    1    3    3    0  502  0.38161072204E+03 -0.84139897908E+03  0.53036093728E+02  0.92541440037E+03  0.25500000920E-02 0.  1.
</event>
<event>
 5   0  0.3211263E-06  0.1899761E+04  0.7818609E-02  0.8654975E-01
       -1   -1    0    0    0  501  0.00000000000E+00  0.00000000000E+00  0.87574878663E+03  0.87574878664E+03  0.50400001928E-02 0.  1.
        1   -1    0    0  501    0  0.00000000000E+00  0.00000000000E+00 -0.10302874607E+04  0.10302874607E+04  0.50400001928E-02 0. -1.
    10030    2    1    2    0    0  0.00000000000E+00  0.00000000000E+00 -0.15453867408E+03  0.19060362474E+04  0.18997610309E+04 0.  0.
        5    1    3    3  502    0 -0.59148916162E+03  0.69286994541E+03 -0.34708647937E+03  0.97489450902E+03  0.46999998093E+01 0. -1.
       -5    1    3    3    0  502  0.59148916162E+03 -0.69286994541E+03  0.19254780528E+03  0.93114173834E+03  0.46999998093E+01 0.  1.
</event>
<event>
 5   0  0.7577180E-06  0.1898637E+04  0.7818609E-02  0.8655535E-01
        2   -1    0    0  501    0  0.00000000000E+00  0.00000000000E+00  0.91021190162E+03  0.91021190162E+03  0.25500000920E-02 0. -1.
       -2   -1    0    0    0  501  0.00000000000E+00  0.00000000000E+00 -0.99010563916E+03  0.99010563916E+03  0.25500000920E-02 0.  1.
    10030    2    1    2    0    0  0.00000000000E+00  0.00000000000E+00 -0.79893737542E+02  0.19003175408E+04  0.18986373394E+04 0.  0.
        5    1    3    3  502    0 -0.73277209290E+02 -0.37528523940E+03  0.82971519786E+03  0.91359616892E+03  0.46999998093E+01 0. -1.
       -5    1    3    3    0  502  0.73277209290E+02  0.37528523940E+03 -0.90960893541E+03  0.98672137186E+03  0.46999998093E+01 0.  1.
</event>
<event>
 5   0  0.3211263E-06  0.1899602E+04  0.7818609E-02  0.8655054E-01
       -1   -1    0    0    0  501  0.00000000000E+00  0.00000000000E+00  0.47832170456E+03  0.47832170459E+03  0.50400001928E-02 0.  1.
        1   -1    0    0  501    0  0.00000000000E+00  0.00000000000E+00 -0.18860156811E+04  0.18860156811E+04  0.50400001928E-02 0. -1.
    10030    2    1    2    0    0  0.00000000000E+00  0.00000000000E+00 -0.14076939765E+04  0.23643373857E+04  0.18996023115E+04 0.  0.
        5    1    3    3  502    0  0.28786282137E+02 -0.49440921930E+03 -0.17125738532E+04  0.17827508011E+04  0.46999998093E+01 0. -1.
       -5    1    3    3    0  502 -0.28786282137E+02  0.49440921930E+03  0.30487987668E+03  0.58158658458E+03  0.46999998093E+01 0.  1.
</event>
<event>
 5   0  0.6870370E-06  0.1899909E+04  0.7818609E-02  0.8654902E-01
       -2   -1    0    0    0  501  0.00000000000E+00  0.00000000000E+00  0.33210192826E+03  0.33210192827E+03  0.25500000920E-02 0. -1.
        2   -1    0    0  501    0  0.00000000000E+00  0.00000000000E+00 -0.27172798407E+04  0.27172798407E+04  0.25500000920E-02 0.  1.
    10030    2    1    2    0    0  0.00000000000E+00  0.00000000000E+00 -0.23851779124E+04  0.30493817689E+04  0.18999093396E+04 0.  0.
        1    1    3    3  502    0  0.81172320954E+03  0.19230410462E+03 -0.19220118080E+04  0.20952338360E+04  0.50400001928E-02 0.  1.
       -1    1    3    3    0  502 -0.81172320954E+03 -0.19230410462E+03 -0.46316610442E+03  0.95414793291E+03  0.50400001928E-02 0. -1.
</event>
<event>
 5   0  0.3398807E-06  0.1900509E+04  0.7818609E-02  0.8654603E-01
       -1   -1    0    0    0  501  0.00000000000E+00  0.00000000000E+00  0.86546061158E+03  0.86546061159E+03  0.50400001928E-02 0. -1.
        1   -1    0    0  501    0  0.00000000000E+00  0.00000000000E+00 -0.10433558141E+04  0.10433558141E+04  0.50400001928E-02 0.  1.
    10030    2    1    2    0    0  0.00000000000E+00  0.00000000000E+00 -0.17789520251E+03  0.19088164257E+04  0.19005087329E+04 0.  0.
        1    1    3    3  502    0  0.36625895944E+03  0.57538529293E+03 -0.75348135392E+03  0.10163404997E+04  0.50400001928E-02 0.  1.
       -1    1    3    3    0  502 -0.36625895944E+03 -0.57538529293E+03  0.57558615141E+03  0.89247592595E+03  0.50400001928E-02 0. -1.
</event>
<event>
 5   0  0.7207648E-06  0.1912817E+04  0.7818609E-02  0.8648503E-01
        2   -1    0    0  501    0  0.00000000000E+00  0.00000000000E+00  0.75816460413E+03  0.75816460414E+03  0.25500000920E-02 0.  1.
       -2   -1    0    0    0  501  0.00000000000E+00  0.00000000000E+00 -0.12064886907E+04  0.12064886907E+04  0.25500000920E-02 0. -1.
    10030    2    1    2    0    0  0.00000000000E+00  0.00000000000E+00 -0.44832408657E+03  0.19646532948E+04  0.19128167927E+04 0.  0.
        4    1    3    3  502    0 -0.36527656813E+03  0.41108167984E+03  0.57953945378E+03  0.79892597286E+03  0.12699999809E+01 0.  1.
       -4    1    3    3    0  502  0.36527656813E+03 -0.41108167984E+03 -0.10278635403E+04  0.11657273220E+04  0.12699999809E+01 0. -1.
</event>
<event>
 5   0  0.6862201E-06  0.1899358E+04  0.7818609E-02  0.8655176E-01
       -2   -1    0    0    0  501  0.00000000000E+00  0.00000000000E+00  0.10243832033E+04  0.10243832033E+04  0.25500000920E-02 0.  1.
        2   -1    0    0  501    0  0.00000000000E+00  0.00000000000E+00 -0.88042311652E+03  0.88042311652E+03  0.25500000920E-02 0. -1.
    10030    2    1    2    0    0  0.00000000000E+00  0.00000000000E+00  0.14396008677E+03  0.19048063198E+04  0.18993584731E+04 0.  0.
        3    1    3    3  502    0 -0.55553187142E+03  0.74949534861E+03 -0.10610096574E+03  0.93894428103E+03  0.10100000352E+00 0. -1.
       -3    1    3    3    0  502  0.55553187142E+03 -0.74949534861E+03  0.25006105251E+03  0.96586203877E+03  0.10100000352E+00 0.  1.
</event>
<event>
 5   0  0.3236653E-06  0.1901982E+04  0.7818609E-02  0.8653870E-01
       -1   -1    0    0    0  501  0.00000000000E+00  0.00000000000E+00  0.52412915404E+03  0.52412915406E+03  0.50400001928E-02 0. -1.
        1   -1    0    0  501    0  0.00000000000E+00  0.00000000000E+00 -0.17254988673E+04  0.17254988673E+04  0.50400001928E-02 0.  1.
    10030    2    1    2    0    0  0.00000000000E+00  0.00000000000E+00 -0.12013697132E+04  0.22496280213E+04  0.19019823991E+04 0.  0.
        3    1    3    3  502    0 -0.34856079023E+03  0.72923724822E+03 -0.11933779662E+04  0.14413301388E+04  0.10100000352E+00 0.  1.
       -3    1    3    3    0  502  0.34856079023E+03 -0.72923724822E+03 -0.79917470419E+01  0.80829788252E+03  0.10100000352E+00 0. -1.
</event>
<event>
 5   0  0.3211263E-06  0.1899259E+04  0.7818609E-02  0.8655225E-01
        1   -1    0    0  501    0  0.00000000000E+00  0.00000000000E+00  0.96939425300E+03  0.96939425301E+03  0.50400001928E-02 0. -1.
       -1   -1    0    0    0  501  0.00000000000E+00  0.00000000000E+00 -0.93026751148E+03  0.93026751150E+03  0.50400001928E-02 0.  1.
    10030    2    1    2    0    0  0.00000000000E+00  0.00000000000E+00  0.39126741516E+02  0.18996617645E+04  0.18992587811E+04 0.  0.
        5    1    3    3  502    0 -0.30738471080E+03  0.49375032098E+03  0.77038845065E+03  0.96529539250E+03  0.46999998093E+01 0. -1.
       -5    1    3    3    0  502  0.30738471080E+03 -0.49375032098E+03 -0.73126170914E+03  0.93436637201E+03  0.46999998093E+01 0.  1.
</event>
<event>
 5   0  0.2527750E-06  0.1898371E+04  0.7818609E-02  0.8655668E-01
        3   -1    0    0  501    0  0.00000000000E+00  0.00000000000E+00  0.39476362539E+03  0.39476363831E+03  0.10100000352E+00 0. -1.
       -3   -1    0    0    0  501  0.00000000000E+00  0.00000000000E+00 -0.22822598317E+04  0.22822598339E+04  0.10100000352E+00 0.  1.
    10030    2    1    2    0    0  0.00000000000E+00  0.00000000000E+00 -0.18874962063E+04  0.26770234722E+04  0.18983710760E+04 0.  0.
        3    1    3    3  502    0  0.73304195095E+03  0.30338594113E+03 -0.20888966341E+03  0.82038310125E+03  0.10100000352E+00 0. -1.
       -3    1    3    3    0  502 -0.73304195095E+03 -0.30338594113E+03 -0.16786065429E+04  0.18566403710E+04  0.10100000352E+00 0.  1.
</event>
<event>
 5   0  0.3379108E-06  0.1898074E+04  0.7818609E-02  0.8655816E-01
       -1   -1    0    0    0  501  0.00000000000E+00  0.00000000000E+00  0.44816753801E+03  0.44816753804E+03  0.50400001928E-02 0.  1.
        1   -1    0    0  501    0  0.00000000000E+00  0.00000000000E+00 -0.20096751379E+04  0.20096751379E+04  0.50400001928E-02 0. -1.
    10030    2    1    2    0    0  0.00000000000E+00  0.00000000000E+00 -0.15615075999E+04  0.24578426759E+04  0.18980739277E+04 0.  0.
        4    1    3    3  502    0  0.82471242695E+03  0.31946717285E+03 -0.12264369779E+04  0.15120711410E+04  0.12699999809E+01 0. -1.
       -4    1    3    3    0  502 -0.82471242695E+03 -0.31946717285E+03 -0.33507062191E+03  0.94577153491E+03  0.12699999809E+01 0.  1.
</event>
<event>
 5   0  0.6862201E-06  0.1899567E+04  0.7818609E-02  0.8655072E-01
        2   -1    0    0  501    0  0.00000000000E+00  0.00000000000E+00  0.71529044391E+03  0.71529044392E+03  0.25500000920E-02 0.  1.
       -2   -1    0    0    0  501  0.00000000000E+00  0.00000000000E+00 -0.12611497524E+04  0.12611497524E+04  0.25500000920E-02 0. -1.
    10030    2    1    2    0    0  0.00000000000E+00  0.00000000000E+00 -0.54585930849E+03  0.19764401963E+04  0.18995666519E+04 0.  0.
        3    1    3    3  502    0 -0.16195234110E+03 -0.38154287926E+03 -0.11620801599E+04  0.12337884088E+04  0.10100000352E+00 0. -1.
       -3    1    3    3    0  502  0.16195234110E+03  0.38154287926E+03  0.61622085144E+03  0.74265178748E+03  0.10100000352E+00 0.  1.
</event>
<event>
 5   0  0.6984466E-06  0.1901829E+04  0.7818609E-02  0.8653946E-01
       -2   -1    0    0    0  501  0.00000000000E+00  0.00000000000E+00  0.58185276441E+03  0.58185276442E+03  0.25500000920E-02 0.  1.
        2   -1    0    0  501    0  0.00000000000E+00  0.00000000000E+00 -0.15540674547E+04  0.15540674547E+04  0.25500000920E-02 0. -1.
    10030    2    1    2    0    0  0.00000000000E+00  0.00000000000E+00 -0.97221469028E+03  0.21359202191E+04  0.19018290613E+04 0.  0.
        2    1    3    3  502    0  0.31053290558E+02 -0.72441944943E+03 -0.11770485547E+04  0.13824583703E+04  0.25500000920E-02 0. -1.
       -2    1    3    3    0  502 -0.31053290558E+02  0.72441944943E+03  0.20483386441E+03  0.75346184879E+03  0.25500000920E-02 0.  1.
</event>
<event>
 5   0  0.6862201E-06  0.1900640E+04  0.7818609E-02  0.8654538E-01
       -2   -1    0    0    0  501  0.00000000000E+00  0.00000000000E+00  0.84622935393E+03  0.84622935393E+03  0.25500000920E-02 0.  1.
        2   -1    0    0  501    0  0.00000000000E+00  0.00000000000E+00 -0.10672139768E+04  0.10672139768E+04  0.25500000920E-02 0. -1.
    10030    2    1    2    0    0  0.00000000000E+00  0.00000000000E+00 -0.22098462289E+03  0.19134433307E+04  0.19006396756E+04 0.  0.
        3    1    3    3  502    0 -0.85428159130E+03  0.26946279307E+03  0.20897890439E+03  0.91982575891E+03  0.10100000352E+00 0.  1.
       -3    1    3    3    0  502  0.85428159130E+03 -0.26946279307E+03 -0.42996352728E+03  0.99361757184E+03  0.10100000352E+00 0. -1.
</event>
<event>
 5   0  0.6984466E-06  0.1899795E+04  0.7818609E-02  0.8654958E-01
        2   -1    0    0  501    0  0.00000000000E+00  0.00000000000E+00  0.11606215705E+04  0.11606215705E+04  0.25500000920E-02 0. -1.
       -2   -1    0    0    0  501  0.00000000000E+00  0.00000000000E+00 -0.77743292459E+03  0.77743292459E+03  0.25500000920E-02 0.  1.
    10030    2    1    2    0    0  0.00000000000E+00  0.00000000000E+00  0.38318864591E+03  0.19380544951E+04  0.18997951699E+04 0.  0.
        2    1    3    3  502    0 -0.13818048726E+03 -0.20335812174E+03  0.11275997822E+04  0.11540925620E+04  0.25500000920E-02 0. -1.
       -2    1    3    3    0  502  0.13818048726E+03  0.20335812174E+03 -0.74441113630E+03  0.78396193313E+03  0.25500000920E-02 0.  1.
</event>
<event>
 5   0  0.6862201E-06  0.1899921E+04  0.7818609E-02  0.8654896E-01
        2   -1    0    0  501    0  0.00000000000E+00  0.00000000000E+00  0.15775905140E+04  0.15775905140E+04  0.25500000920E-02 0. -1.
       -2   -1    0    0    0  501  0.00000000000E+00  0.00000000000E+00 -0.57202755466E+03  0.57202755467E+03  0.25500000920E-02 0.  1.
    10030    2    1    2    0    0  0.00000000000E+00  0.00000000000E+00  0.10055629593E+04  0.21496180687E+04  0.18999213078E+04 0.  0.
        3    1    3    3  502    0 -0.68882295457E+03  0.37222306957E+03  0.11114398115E+04  0.13595313682E+04  0.10100000352E+00 0. -1.
       -3    1    3    3    0  502  0.68882295457E+03 -0.37222306957E+03 -0.10587685216E+03  0.79008670049E+03  0.10100000352E+00 0.  1.
</event>
<event>
 5   0  0.7577180E-06  0.1901169E+04  0.7818609E-02  0.8654275E-01
        2   -1    0    0  501    0  0.00000000000E+00  0.00000000000E+00  0.16444698111E+04  0.16444698111E+04  0.25500000920E-02 0. -1.
       -2   -1    0    0    0  501  0.00000000000E+00  0.00000000000E+00 -0.54948473809E+03  0.54948473810E+03  0.25500000920E-02 0.  1.
    10030    2    1    2    0    0  0.00000000000E+00  0.00000000000E+00  0.10949850730E+04  0.21939545492E+04  0.19011691807E+04 0.  0.
        5    1    3    3  502    0 -0.32941189184E+02 -0.81378088227E+03  0.11131476127E+04  0.13792911744E+04  0.46999998093E+01 0. -1.
       -5    1    3    3    0  502  0.32941189184E+02  0.81378088227E+03 -0.18162539685E+02  0.81466337474E+03  0.46999998093E+01 0.  1.
</event>
<event>
 5   0  0.7207648E-06  0.1900884E+04  0.7818609E-02  0.8654416E-01
        2   -1    0    0  501    0  0.00000000000E+00  0.00000000000E+00  0.16048048547E+04  0.16048048547E+04  0.25500000920E-02 0.  1.
       -2   -1    0    0    0  501  0.00000000000E+00  0.00000000000E+00 -0.56289726578E+03  0.56289726579E+03  0.25500000920E-02 0. -1.
    10030    2    1    2    0    0  0.00000000000E+00  0.00000000000E+00  0.10419075889E+04  0.21677021205E+04  0.19008842835E+04 0.  0.
        4    1    3    3  502    0  0.25828245621E+03 -0.78516776683E+03  0.10560030951E+04  0.13410228928E+04  0.12699999809E+01 0.  1.
       -4    1    3    3    0  502 -0.25828245621E+03  0.78516776683E+03 -0.14095506206E+02  0.82667922767E+03  0.12699999809E+01 0. -1.
</event>
<event>
 5   0  0.7207648E-06  0.1899786E+04  0.7818609E-02  0.8654963E-01
        2   -1    0    0  501    0  0.00000000000E+00  0.00000000000E+00  0.11206123924E+04  0.11206123924E+04  0.25500000920E-02 0.  1.
       -2   -1    0    0    0  501  0.00000000000E+00  0.00000000000E+00 -0.80518170200E+03  0.80518170201E+03  0.25500000920E-02 0. -1.
    10030    2    1    2    0    0  0.00000000000E+00  0.00000000000E+00  0.31543069041E+03  0.19257940944E+04  0.18997858757E+04 0.  0.
        4    1    3    3  502    0 -0.32215649990E+02  0.94934511821E+03  0.15671239227E+03  0.96273277101E+03  0.12699999809E+01 0. -1.
       -4    1    3    3    0  502  0.32215649990E+02 -0.94934511821E+03  0.15871829813E+03  0.96306132341E+03  0.12699999809E+01 0.  1.
</event>
<event>
 5   0  0.3398807E-06  0.1900064E+04  0.7818609E-02  0.8654824E-01
       -1   -1    0    0    0  501  0.00000000000E+00  0.00000000000E+00  0.39087720908E+03  0.39087720912E+03  0.50400001928E-02 0. -1.
        1   -1    0    0  501    0  0.00000000000E+00  0.00000000000E+00 -0.23090654434E+04  0.23090654434E+04  0.50400001928E-02 0.  1.
    10030    2    1    2    0    0  0.00000000000E+00  0.00000000000E+00 -0.19181882343E+04  0.26999426525E+04  0.19000642686E+04 0.  0.
        1    1    3    3  502    0 -0.84297647059E+03  0.42990532051E+03 -0.10791066690E+04  0.14352348650E+04  0.50400001928E-02 0.  1.
       -1    1    3    3    0  502  0.84297647059E+03 -0.42990532051E+03 -0.83908156526E+03  0.12647077875E+04  0.50400001928E-02 0. -1.
</event>
<event>
 5   0  0.6984466E-06  0.1900006E+04  0.7818609E-02  0.8654854E-01
       -2   -1    0    0    0  501  0.00000000000E+00  0.00000000000E+00  0.72981960082E+03  0.72981960083E+03  0.25500000920E-02 0. -1.
        2   -1    0    0  501    0  0.00000000000E+00  0.00000000000E+00 -0.12366142744E+04  0.12366142744E+04  0.25500000920E-02 0.  1.
    10030    2    1    2    0    0  0.00000000000E+00  0.00000000000E+00 -0.50679467359E+03  0.19664338752E+04  0.19000056170E+04 0.  0.
        2    1    3    3  502    0 -0.25506882861E+03 -0.34272562414E+02 -0.11998477866E+04  0.12271387154E+04  0.25500000920E-02 0.  1.
       -2    1    3    3    0  502  0.25506882861E+03  0.34272562414E+02  0.69305311302E+03  0.73929515982E+03  0.25500000920E-02 0. -1.
</event>
<event>
 5   0  0.3211263E-06  0.1897041E+04  0.7818609E-02  0.8656331E-01
       -1   -1    0    0    0  501  0.00000000000E+00  0.00000000000E+00  0.11649466817E+04  0.11649466817E+04  0.50400001928E-02 0.  1.
        1   -1    0    0  501    0  0.00000000000E+00  0.00000000000E+00 -0.77230213859E+03  0.77230213860E+03  0.50400001928E-02 0. -1.
    10030    2    1    2    0    0  0.00000000000E+00  0.00000000000E+00  0.39264454309E+03  0.19372488203E+04  0.18970406571E+04 0.  0.
        5    1    3    3  502    0  0.90154006294E+03  0.27975072145E+03  0.29120978463E+03  0.98785635590E+03  0.46999998093E+01 0. -1.
       -5    1    3    3    0  502 -0.90154006294E+03 -0.27975072145E+03  0.10143475846E+03  0.94939246440E+03  0.46999998093E+01 0.  1.
</event>
<event>
 5   0  0.3398807E-06  0.1897430E+04  0.7818609E-02  0.8656137E-01
        1   -1    0    0  501    0  0.00000000000E+00  0.00000000000E+00  0.10232403746E+04  0.10232403746E+04  0.50400001928E-02 0.  1.
       -1   -1    0    0    0  501  0.00000000000E+00  0.00000000000E+00 -0.87961709693E+03  0.87961709694E+03  0.50400001928E-02 0. -1.
    10030    2    1    2    0    0  0.00000000000E+00  0.00000000000E+00  0.14362327766E+03  0.19028574715E+04  0.18974295537E+04 0.  0.
        1    1    3    3  502    0 -0.20129325571E+03 -0.68302689147E+03  0.70051411731E+03  0.99888174368E+03  0.50400001928E-02 0.  1.
       -1    1    3    3    0  502  0.20129325571E+03  0.68302689147E+03 -0.55689083965E+03  0.90397572787E+03  0.50400001928E-02 0. -1.
</event>
<event>
 5   0  0.3211263E-06  0.1899498E+04  0.7818609E-02  0.8655106E-01
       -1   -1    0    0    0  501  0.00000000000E+00  0.00000000000E+00  0.27691740389E+03  0.27691740394E+03  0.50400001928E-02 0.  1.
        1   -1    0    0  501    0  0.00000000000E+00  0.00000000000E+00 -0.32573737397E+04  0.32573737397E+04  0.50400001928E-02 0. -1.
    10030    2    1    2    0    0  0.00000000000E+00  0.00000000000E+00 -0.29804563358E+04  0.35342911436E+04  0.18994983333E+04 0.  0.
        5    1    3    3  502    0  0.52600891436E+03  0.67029164777E+03 -0.70958829811E+03  0.11088344844E+04  0.46999998093E+01 0.  1.
       -5    1    3    3    0  502 -0.52600891436E+03 -0.67029164777E+03 -0.22708680377E+04  0.24254566592E+04  0.46999998093E+01 0. -1.
</event>
<event>
 5   0  0.6870370E-06  0.1899880E+04  0.7818609E-02  0.8654916E-01
       -2   -1    0    0    0  501  0.00000000000E+00  0.00000000000E+00  0.58307721910E+03  0.58307721911E+03  0.25500000920E-02 0.  1.
        2   -1    0    0  501    0  0.00000000000E+00  0.00000000000E+00 -0.15476272424E+04  0.15476272424E+04  0.25500000920E-02 0. -1.
    10030    2    1    2    0    0  0.00000000000E+00  0.00000000000E+00 -0.96455002329E+03  0.21307044615E+04  0.18998801949E+04 0.  0.
        1    1    3    3  502    0 -0.64043253104E+03 -0.63533344459E+03 -0.14848441777E+03  0.91424834426E+03  0.50400001928E-02 0.  1.
       -1    1    3    3    0  502  0.64043253104E+03  0.63533344459E+03 -0.81606560553E+03  0.12164561172E+04  0.50400001928E-02 0. -1.
</event>
<event>
 5   0  0.6862201E-06  0.1898501E+04  0.7818609E-02  0.8655603E-01
       -2   -1    0    0    0  501  0.00000000000E+00  0.00000000000E+00  0.44203861334E+03  0.44203861334E+03  0.25500000920E-02 0. -1.
        2   -1    0    0  501    0  0.00000000000E+00  0.00000000000E+00 -0.20384562348E+04  0.20384562348E+04  0.25500000920E-02 0.  1.
    10030    2    1    2    0    0  0.00000000000E+00  0.00000000000E+00 -0.15964176215E+04  0.24804948482E+04  0.18985008479E+04 0.  0.
        3    1    3    3  502    0  0.12346983968E+03  0.93938157845E+03 -0.72209367307E+03  0.11912606071E+04  0.10100000352E+00 0. -1.
       -3    1    3    3    0  502 -0.12346983968E+03 -0.93938157845E+03 -0.87432394841E+03  0.12892342410E+04  0.10100000352E+00 0.  1.
</event>
<event>
 5   0  0.7577180E-06  0.1899541E+04  0.7818609E-02  0.8655085E-01
       -2   -1    0    0    0  501  0.00000000000E+00  0.00000000000E+00  0.70980864906E+03  0.70980864906E+03  0.25500000920E-02 0.  1.
        2   -1    0    0  501    0  0.00000000000E+00  0.00000000000E+00 -0.12708546270E+04  0.12708546270E+04  0.25500000920E-02 0. -1.
    10030    2    1    2    0    0  0.00000000000E+00  0.00000000000E+00 -0.56104597791E+03  0.19806632760E+04  0.18995405823E+04 0.  0.
        5    1    3    3  502    0 -0.21818546672E+03 -0.34124208565E+03  0.61522830855E+03  0.73659963382E+03  0.46999998093E+01 0.  1.
       -5    1    3    3    0  502  0.21818546672E+03  0.34124208565E+03 -0.11762742865E+04  0.12440636422E+04  0.46999998093E+01 0. -1.
</event>
<event>
 5   0  0.3211263E-06  0.1900261E+04  0.7818609E-02  0.8654726E-01
       -1   -1    0    0    0  501  0.00000000000E+00  0.00000000000E+00  0.81006732547E+03  0.81006732549E+03  0.50400001928E-02 0.  1.
        1   -1    0    0  501    0  0.00000000000E+00  0.00000000000E+00 -0.11144113618E+04  0.11144113618E+04  0.50400001928E-02 0. -1.
    10030    2    1    2    0    0  0.00000000000E+00  0.00000000000E+00 -0.30434403634E+03  0.19244786873E+04  0.19002612782E+04 0.  0.
        5    1    3    3  502    0 -0.66569445570E+03 -0.62372055303E+03 -0.42116898772E+03  0.10047794996E+04  0.46999998093E+01 0. -1.
       -5    1    3    3    0  502  0.66569445570E+03  0.62372055303E+03  0.11682495137E+03  0.91969918771E+03  0.46999998093E+01 0.  1.
</event>
<event>
 5   0  0.6862201E-06  0.1899865E+04  0.7818609E-02  0.8654924E-01
       -2   -1    0    0    0  501  0.00000000000E+00  0.00000000000E+00  0.75977570268E+03  0.75977570268E+03  0.25500000920E-02 0.  1.
        2   -1    0    0  501    0  0.00000000000E+00  0.00000000000E+00 -0.11876815239E+04  0.11876815239E+04  0.25500000920E-02 0. -1.
    10030    2    1    2    0    0  0.00000000000E+00  0.00000000000E+00 -0.42790582117E+03  0.19474572265E+04  0.18998647998E+04 0.  0.
        3    1    3    3  502    0  0.74325261686E+03  0.58196592508E+03 -0.32273758548E+03  0.99763136965E+03  0.10100000352E+00 0. -1.
       -3    1    3    3    0  502 -0.74325261686E+03 -0.58196592508E+03 -0.10516823570E+03  0.94982585689E+03  0.10100000352E+00 0.  1.
</event>
<event>
 5   0  0.7207648E-06  0.1897521E+04  0.7818609E-02  0.8656092E-01
       -2   -1    0    0    0  501  0.00000000000E+00  0.00000000000E+00  0.10761802236E+04  0.10761802236E+04  0.25500000920E-02 0. -1.
        2   -1    0    0  501    0  0.00000000000E+00  0.00000000000E+00 -0.83642684619E+03  0.83642684620E+03  0.25500000920E-02 0.  1.
    10030    2    1    2    0    0  0.00000000000E+00  0.00000000000E+00  0.23975337738E+03  0.19126070698E+04  0.18975205194E+04 0.  0.
        4    1    3    3  502    0 -0.12123736833E+03 -0.71216172996E+03 -0.50005114710E+03  0.87859296134E+03  0.12699999809E+01 0.  1.
       -4    1    3    3    0  502  0.12123736833E+03  0.71216172996E+03  0.73980452448E+03  0.10340141084E+04  0.12699999809E+01 0. -1.
</event>
<event>
 5   0  0.7577180E-06  0.1899670E+04  0.7818609E-02  0.8655021E-01
       -2   -1    0    0    0  501  0.00000000000E+00  0.00000000000E+00  0.13373501584E+04  0.13373501584E+04  0.25500000920E-02 0.  1.
        2   -1    0    0  501    0  0.00000000000E+00  0.00000000000E+00 -0.67460742424E+03  0.67460742424E+03  0.25500000920E-02 0. -1.
    10030    2    1    2    0    0  0.00000000000E+00  0.00000000000E+00  0.66274273415E+03  0.20119575826E+04  0.18996698088E+04 0.  0.
        5    1    3    3  502    0  0.11848899616E+03 -0.23620885437E+03 -0.63487632928E+03  0.68769492406E+03  0.46999998093E+01 0. -1.
       -5    1    3    3    0  502 -0.11848899616E+03  0.23620885437E+03  0.12976190634E+04  0.13242626586E+04  0.46999998093E+01 0.  1.
</event>
<event>
 5   0  0.3211263E-06  0.1901042E+04  0.7818609E-02  0.8654338E-01
       -1   -1    0    0    0  501  0.00000000000E+00  0.00000000000E+00  0.89603517363E+03  0.89603517365E+03  0.50400001928E-02 0. -1.
        1   -1    0    0  501    0  0.00000000000E+00  0.00000000000E+00 -0.10083203603E+04  0.10083203603E+04  0.50400001928E-02 0.  1.
    10030    2    1    2    0    0  0.00000000000E+00  0.00000000000E+00 -0.11228518668E+03  0.19043555340E+04  0.19010423553E+04 0.  0.
        5    1    3    3  502    0  0.37700452293E+03 -0.30591371143E+03  0.76244300817E+03  0.90391207529E+03  0.46999998093E+01 0. -1.
       -5    1    3    3    0  502 -0.37700452293E+03  0.30591371143E+03 -0.87472819485E+03  0.10004434587E+04  0.46999998093E+01 0.  1.
</event>
<event>
 5   0  0.6862201E-06  0.1899457E+04  0.7818609E-02  0.8655127E-01
       -2   -1    0    0    0  501  0.00000000000E+00  0.00000000000E+00  0.66296845188E+03  0.66296845188E+03  0.25500000920E-02 0.  1.
        2   -1    0    0  501    0  0.00000000000E+00  0.00000000000E+00 -0.13605232662E+04  0.13605232662E+04  0.25500000920E-02 0. -1.
    10030    2    1    2    0    0  0.00000000000E+00  0.00000000000E+00 -0.69755481429E+03  0.20234917181E+04  0.18994567682E+04 0.  0.
        3    1    3    3  502    0 -0.47994990144E+03 -0.16104553834E+03  0.50724711729E+03  0.71664999931E+03  0.10100000352E+00 0.  1.
       -3    1    3    3    0  502  0.47994990144E+03  0.16104553834E+03 -0.12048019316E+04  0.13068417187E+04  0.10100000352E+00 0. -1.
</event>
<event>
 5   0  0.6870370E-06  0.1894265E+04  0.7818609E-02  0.8657716E-01
        2   -1    0    0  501    0  0.00000000000E+00  0.00000000000E+00  0.14488336354E+04  0.14488336354E+04  0.25500000920E-02 0.  1.
       -2   -1    0    0    0  501  0.00000000000E+00  0.00000000000E+00 -0.61916003865E+03  0.61916003865E+03  0.25500000920E-02 0. -1.
    10030    2    1    2    0    0  0.00000000000E+00  0.00000000000E+00  0.82967359671E+03  0.20679936740E+04  0.18942649125E+04 0.  0.
        1    1    3    3  502    0  0.46335775970E+03 -0.12264652628E+03 -0.47697802120E+03  0.67620308829E+03  0.50400001928E-02 0. -1.
       -1    1    3    3    0  502 -0.46335775970E+03  0.12264652628E+03  0.13066516179E+04  0.13917905857E+04  0.50400001928E-02 0.  1.
</event>
<event>
 5   0  0.7207648E-06  0.1899724E+04  0.7818609E-02  0.8654994E-01
        2   -1    0    0  501    0  0.00000000000E+00  0.00000000000E+00  0.49308066662E+03  0.49308066663E+03  0.25500000920E-02 0.  1.
       -2   -1    0    0    0  501  0.00000000000E+00  0.00000000000E+00 -0.18297978411E+04  0.18297978411E+04  0.25500000920E-02 0. -1.
    10030    2    1    2    0    0  0.00000000000E+00  0.00000000000E+00 -0.13367171745E+04  0.23228785077E+04  0.18997241266E+04 0.  0.
        4    1    3    3  502    0  0.44517486559E+03 -0.10611993112E+03 -0.16861015006E+04  0.17471067466E+04  0.12699999809E+01 0. -1.
       -4    1    3    3    0  502 -0.44517486559E+03  0.10611993112E+03  0.34938432610E+03  0.57577176117E+03  0.12699999809E+01 0.  1.
</event>
<event>
 5   0  0.6870370E-06  0.1904624E+04  0.7818609E-02  0.8652558E-01
       -2   -1    0    0    0  501  0.00000000000E+00  0.00000000000E+00  0.77005998214E+03  0.77005998214E+03  0.25500000920E-02 0.  1.
        2   -1    0    0  501    0  0.00000000000E+00  0.00000000000E+00 -0.11776983259E+04  0.11776983259E+04  0.25500000920E-02 0. -1.
    10030    2    1    2    0    0  0.00000000000E+00  0.00000000000E+00 -0.40763834375E+03  0.19477583080E+04  0.19046242168E+04 0.  0.
        1    1    3    3  502    0  0.37670818520E+03  0.79899163554E+03 -0.56768851426E+03  0.10500318756E+04  0.50400001928E-02 0. -1.
       -1    1    3    3    0  502 -0.37670818520E+03 -0.79899163554E+03  0.16005017050E+03  0.89772643247E+03  0.50400001928E-02 0.  1.
</event>
<event>
 5   0  0.6862201E-06  0.1899197E+04  0.7818609E-02  0.8655256E-01
       -2   -1    0    0    0  501  0.00000000000E+00  0.00000000000E+00  0.77741730108E+03  0.77741730108E+03  0.25500000920E-02 0. -1.
        2   -1    0    0  501    0  0.00000000000E+00  0.00000000000E+00 -0.11599138580E+04  0.11599138580E+04  0.25500000920E-02 0.  1.
    10030    2    1    2    0    0  0.00000000000E+00  0.00000000000E+00 -0.38249655690E+03  0.19373311591E+04  0.18991967786E+04 0.  0.
        3    1    3    3  502    0 -0.24682406797E+02  0.57841098896E+03  0.57657300870E+03  0.81707095036E+03  0.10100000352E+00 0. -1.
       -3    1    3    3    0  502  0.24682406797E+02 -0.57841098896E+03 -0.95906956561E+03  0.11202602087E+04  0.10100000352E+00 0.  1.
</event>
<event>
 5   0  0.6984466E-06  0.1900342E+04  0.7818609E-02  0.8654686E-01
        2   -1    0    0  501    0  0.00000000000E+00  0.00000000000E+00  0.69427229733E+03  0.69427229734E+03  0.25500000920E-02 0.  1.
       -2   -1    0    0    0  501  0.00000000000E+00  0.00000000000E+00 -0.13003905413E+04  0.13003905413E+04  0.25500000920E-02 0. -1.
    10030    2    1    2    0    0  0.00000000000E+00  0.00000000000E+00 -0.60611824393E+03  0.19946628386E+04  0.19003422097E+04 0.  0.
        2    1    3    3  502    0  0.51621236888E+03  0.29234268427E+03 -0.10821146632E+04  0.12340630450E+04  0.25500000920E-02 0. -1.
       -2    1    3    3    0  502 -0.51621236888E+03 -0.29234268427E+03  0.47599641925E+03  0.76059979357E+03  0.25500000920E-02 0.  1.
</event>
<event>
 5   0  0.6870370E-06  0.1899731E+04  0.7818609E-02  0.8654990E-01
       -2   -1    0    0    0  501  0.00000000000E+00  0.00000000000E+00  0.57136582071E+03  0.57136582072E+03  0.25500000920E-02 0.  1.
        2   -1    0    0  501    0  0.00000000000E+00  0.00000000000E+00 -0.15791007820E+04  0.15791007820E+04  0.25500000920E-02 0. -1.
    10030    2    1    2    0    0  0.00000000000E+00  0.00000000000E+00 -0.10077349613E+04  0.21504666027E+04  0.18997307328E+04 0.  0.
        1    1    3    3  502    0  0.37990173117E+03 -0.76369699179E+02  0.47782297124E+03  0.61520114448E+03  0.50400001928E-02 0.  1.
       -1    1    3    3    0  502 -0.37990173117E+03  0.76369699179E+02 -0.14855579326E+04  0.15352654582E+04  0.50400001928E-02 0. -1.
</event>
<event>
 5   0  0.6984466E-06  0.1900115E+04  0.7818609E-02  0.8654799E-01
       -2   -1    0    0    0  501  0.00000000000E+00  0.00000000000E+00  0.57301733423E+03  0.57301733424E+03  0.25500000920E-02 0.  1.
        2   -1    0    0  501    0  0.00000000000E+00  0.00000000000E+00 -0.15751862729E+04  0.15751862729E+04  0.25500000920E-02 0. -1.
    10030    2    1    2    0    0  0.00000000000E+00  0.00000000000E+00 -0.10021689387E+04  0.21482036072E+04  0.19001147745E+04 0.  0.
        2    1    3    3  502    0 -0.64202433227E+02  0.76413862510E+03  0.13301974819E+03  0.77828275338E+03  0.25500000920E-02 0.  1.
       -2    1    3    3    0  502  0.64202433227E+02 -0.76413862510E+03 -0.11351886869E+04  0.13699208538E+04  0.25500000920E-02 0. -1.
</event>
<event>
 5   0  0.3398807E-06  0.1899775E+04  0.7818609E-02  0.8654969E-01
        1   -1    0    0  501    0  0.00000000000E+00  0.00000000000E+00  0.11991197334E+04  0.11991197334E+04  0.50400001928E-02 0. -1.
       -1   -1    0    0    0  501  0.00000000000E+00  0.00000000000E+00 -0.75245682574E+03  0.75245682576E+03  0.50400001928E-02 0.  1.
    10030    2    1    2    0    0  0.00000000000E+00  0.00000000000E+00  0.44666290762E+03  0.19515765591E+04  0.18997745427E+04 0.  0.
        1    1    3    3  502    0  0.83119696715E+03 -0.42973796968E+03  0.55403205400E+02  0.93735406116E+03  0.50400001928E-02 0. -1.
       -1    1    3    3    0  502 -0.83119696715E+03  0.42973796968E+03  0.39125970222E+03  0.10142224980E+04  0.50400001928E-02 0.  1.
</event>
<event>
 5   0  0.3495279E-06  0.1900026E+04  0.7818609E-02  0.8654843E-01
       -1   -1    0    0    0  501  0.00000000000E+00  0.00000000000E+00  0.52549420462E+03  0.52549420465E+03  0.50400001928E-02 0.  1.
        1   -1    0    0  501    0  0.00000000000E+00  0.00000000000E+00 -0.17174787076E+04  0.17174787076E+04  0.50400001928E-02 0. -1.
    10030    2    1    2    0    0  0.00000000000E+00  0.00000000000E+00 -0.11919845030E+04  0.22429729123E+04  0.19000264287E+04 0.  0.
        2    1    3    3  502    0  0.63811834775E+03 -0.64433594246E+03 -0.93022322574E+03  0.12991070326E+04  0.25500000920E-02 0. -1.
       -2    1    3    3    0  502 -0.63811834775E+03  0.64433594246E+03 -0.26176127724E+03  0.94386587965E+03  0.25500000920E-02 0.  1.
</event>
<event>
 5   0  0.3379108E-06  0.1900873E+04  0.7818609E-02  0.8654422E-01
       -1   -1    0    0    0  501  0.00000000000E+00  0.00000000000E+00  0.66271795842E+03  0.66271795844E+03  0.50400001928E-02 0. -1.
        1   -1    0    0  501    0  0.00000000000E+00  0.00000000000E+00 -0.13630683971E+04  0.13630683971E+04  0.50400001928E-02 0.  1.
    10030    2    1    2    0    0  0.00000000000E+00  0.00000000000E+00 -0.70035043863E+03  0.20257863555E+04  0.19008733838E+04 0.  0.
        4    1    3    3  502    0  0.77186359785E+03 -0.20791371131E+03 -0.89808748698E+03  0.12023162114E+04  0.12699999809E+01 0.  1.
       -4    1    3    3    0  502 -0.77186359785E+03  0.20791371131E+03  0.19773704834E+03  0.82347014410E+03  0.12699999809E+01 0. -1.
</event>
<event>
 5   0  0.3211263E-06  0.1899887E+04  0.7818609E-02  0.8654913E-01
       -1   -1    0    0    0  501  0.00000000000E+00  0.00000000000E+00  0.62768007209E+03  0.62768007211E+03  0.50400001928E-02 0.  1.
        1   -1    0    0  501    0  0.00000000000E+00  0.00000000000E+00 -0.14376632038E+04  0.14376632038E+04  0.50400001928E-02 0. -1.
    10030    2    1    2    0    0  0.00000000000E+00  0.00000000000E+00 -0.80998313167E+03  0.20653432759E+04  0.18998868844E+04 0.  0.
        5    1    3    3  502    0 -0.30747404277E+03 -0.47943600109E+03  0.42146042910E+03  0.70855497276E+03  0.46999998093E+01 0.  1.
       -5    1    3    3    0  502  0.30747404277E+03  0.47943600109E+03 -0.12314435608E+04  0.13567883031E+04  0.46999998093E+01 0. -1.
</event>
<event>
 5   0  0.6862201E-06  0.1899802E+04  0.7818609E-02  0.8654955E-01
       -2   -1    0    0    0  501  0.00000000000E+00  0.00000000000E+00  0.48935084058E+03  0.48935084058E+03  0.25500000920E-02 0. -1.
        2   -1    0    0  501    0  0.00000000000E+00  0.00000000000E+00 -0.18438964507E+04  0.18438964507E+04  0.25500000920E-02 0.  1.
    10030    2    1    2    0    0  0.00000000000E+00  0.00000000000E+00 -0.13545456101E+04  0.23332472912E+04  0.18998023877E+04 0.  0.
        3    1    3    3  502    0  0.68245242529E+03 -0.47606971680E+03 -0.12399873295E+04  0.14933024729E+04  0.10100000352E+00 0. -1.
       -3    1    3    3    0  502 -0.68245242529E+03  0.47606971680E+03 -0.11455828060E+03  0.83994481836E+03  0.10100000352E+00 0.  1.
</event>
<event>
 5   0  0.2527750E-06  0.1900093E+04  0.7818609E-02  0.8654810E-01
        3   -1    0    0  501    0  0.00000000000E+00  0.00000000000E+00  0.54032189080E+03  0.54032190024E+03  0.10100000352E+00 0. -1.
       -3   -1    0    0    0  501  0.00000000000E+00  0.00000000000E+00 -0.16704644924E+04  0.16704644954E+04  0.10100000352E+00 0.  1.
    10030    2    1    2    0    0  0.00000000000E+00  0.00000000000E+00 -0.11301426016E+04  0.22107863957E+04  0.19000932049E+04 0.  0.
        5    1    3    3  502    0 -0.76802460934E+03 -0.62090957781E+01 -0.12156686347E+04  0.14379751990E+04  0.46999998093E+01 0.  1.
       -5    1    3    3    0  502  0.76802460934E+03  0.62090957781E+01  0.85526033134E+02  0.77281119671E+03  0.46999998093E+01 0. -1.
</event>
<event>
 5   0  0.6862201E-06  0.1900317E+04  0.7818609E-02  0.8654699E-01
       -2   -1    0    0    0  501  0.00000000000E+00  0.00000000000E+00  0.44049994866E+03  0.44049994867E+03  0.25500000920E-02 0.  1.
        2   -1    0    0  501    0  0.00000000000E+00  0.00000000000E+00 -0.20494910461E+04  0.20494910461E+04  0.25500000920E-02 0. -1.
    10030    2    1    2    0    0  0.00000000000E+00  0.00000000000E+00 -0.16089910974E+04  0.24899909948E+04  0.19003165006E+04 0.  0.
        3    1    3    3  502    0 -0.46469839642E+03  0.73602826174E+03 -0.13036480026E+04  0.15675395773E+04  0.10100000352E+00 0. -1.
       -3    1    3    3    0  502  0.46469839642E+03 -0.73602826174E+03 -0.30534309485E+03  0.92245141741E+03  0.10100000352E+00 0.  1.
</event>
<event>
 5   0  0.3236653E-06  0.1899738E+04  0.7818609E-02  0.8654987E-01
        1   -1    0    0  501    0  0.00000000000E+00  0.00000000000E+00  0.61802138103E+03  0.61802138105E+03  0.50400001928E-02 0.  1.
       -1   -1    0    0    0  501  0.00000000000E+00  0.00000000000E+00 -0.14599020500E+04  0.14599020500E+04  0.50400001928E-02 0. -1.
    10030    2    1    2    0    0  0.00000000000E+00  0.00000000000E+00 -0.84188066896E+03  0.20779234311E+04  0.18997375410E+04 0.  0.
        3    1    3    3  502    0  0.34492682927E+03 -0.16174413876E+03  0.53079645397E+03  0.65336097964E+03  0.10100000352E+00 0.  1.
       -3    1    3    3    0  502 -0.34492682927E+03  0.16174413876E+03 -0.13726771229E+04  0.14245624514E+04  0.10100000352E+00 0. -1.
</event>
<event>
 5   0  0.3379108E-06  0.1900634E+04  0.7818609E-02  0.8654541E-01
       -1   -1    0    0    0  501  0.00000000000E+00  0.00000000000E+00  0.73295050012E+03  0.73295050014E+03  0.50400001928E-02 0. -1.
        1   -1    0    0  501    0  0.00000000000E+00  0.00000000000E+00 -0.12321459601E+04  0.12321459601E+04  0.50400001928E-02 0.  1.
    10030    2    1    2    0    0  0.00000000000E+00  0.00000000000E+00 -0.49919546001E+03  0.19650964603E+04  0.19006335762E+04 0.  0.
        4    1    3    3  502    0  0.27187057795E+03 -0.80828280788E+03  0.18398903714E+03  0.87240374102E+03  0.12699999809E+01 0. -1.
       -4    1    3    3    0  502 -0.27187057795E+03  0.80828280788E+03 -0.68318449715E+03  0.10926927193E+04  0.12699999809E+01 0.  1.
</event>
<event>
 5   0  0.3211263E-06  0.1904711E+04  0.7818609E-02  0.8652515E-01
        1   -1    0    0  501    0  0.00000000000E+00  0.00000000000E+00  0.14537390921E+04  0.14537390921E+04  0.50400001928E-02 0. -1.
       -1   -1    0    0    0  501  0.00000000000E+00  0.00000000000E+00 -0.62389546107E+03  0.62389546109E+03  0.50400001928E-02 0.  1.
    10030    2    1    2    0    0  0.00000000000E+00  0.00000000000E+00  0.82984363106E+03  0.20776345532E+04  0.19047112340E+04 0.  0.
        5    1    3    3  502    0 -0.67702692365E+03 -0.42101208857E+03  0.98311880051E+03  0.12657651046E+04  0.46999998093E+01 0. -1.
       -5    1    3    3    0  502  0.67702692365E+03  0.42101208857E+03 -0.15327516945E+03  0.81186944864E+03  0.46999998093E+01 0.  1.
</event>
<event>
 5   0  0.7207648E-06  0.1899522E+04  0.7818609E-02  0.8655094E-01
       -2   -1    0    0    0  501  0.00000000000E+00  0.00000000000E+00  0.67722809573E+03  0.67722809574E+03  0.25500000920E-02 0. -1.
        2   -1    0    0  501    0  0.00000000000E+00  0.00000000000E+00 -0.13319681162E+04  0.13319681162E+04  0.25500000920E-02 0.  1.
    10030    2    1    2    0    0  0.00000000000E+00  0.00000000000E+00 -0.65474002048E+03  0.20091962119E+04  0.18995222883E+04 0.  0.
        4    1    3    3  502    0  0.32621651869E+03 -0.24480197921E+03  0.57988245186E+03  0.70895027821E+03  0.12699999809E+01 0. -1.
       -4    1    3    3    0  502 -0.32621651869E+03  0.24480197921E+03 -0.12346224723E+04  0.13002459337E+04  0.12699999809E+01 0.  1.
</event>
<event>
 5   0  0.7207648E-06  0.1902543E+04  0.7818609E-02  0.8653592E-01
        2   -1    0    0  501    0  0.00000000000E+00  0.00000000000E+00  0.91948929761E+03  0.91948929762E+03  0.25500000920E-02 0. -1.
       -2   -1    0    0    0  501  0.00000000000E+00  0.00000000000E+00 -0.98415214624E+03  0.98415214624E+03  0.25500000920E-02 0.  1.
    10030    2    1    2    0    0  0.00000000000E+00  0.00000000000E+00 -0.64662848628E+02  0.19036414439E+04  0.19025428938E+04 0.  0.
        4    1    3    3  502    0  0.80453244690E+03 -0.48299853785E+03 -0.18848468802E+03  0.95712493239E+03  0.12699999809E+01 0.  1.
       -4    1    3    3    0  502 -0.80453244690E+03  0.48299853785E+03  0.12382183940E+03  0.94651651147E+03  0.12699999809E+01 0. -1.
</event>
<event>
 5   0  0.6862201E-06  0.1898970E+04  0.7818609E-02  0.8655369E-01
       -2   -1    0    0    0  501  0.00000000000E+00  0.00000000000E+00  0.67419561303E+03  0.67419561303E+03  0.25500000920E-02 0. -1.
        2   -1    0    0  501    0  0.00000000000E+00  0.00000000000E+00 -0.13371818229E+04  0.13371818229E+04  0.25500000920E-02 0.  1.
    10030    2    1    2    0    0  0.00000000000E+00  0.00000000000E+00 -0.66298620987E+03  0.20113774359E+04  0.18989703724E+04 0.  0.
        3    1    3    3  502    0 -0.62318910274E+03  0.65987053495E+03 -0.36192016567E+02  0.90835216350E+03  0.10100000352E+00 0. -1.
       -3    1    3    3    0  502  0.62318910274E+03 -0.65987053495E+03 -0.62679419330E+03  0.11030252724E+04  0.10100000352E+00 0.  1.
</event>
<event>
 5   0  0.3398807E-06  0.1899229E+04  0.7818609E-02  0.8655240E-01
       -1   -1    0    0    0  501  0.00000000000E+00  0.00000000000E+00  0.51745924768E+03  0.51745924771E+03  0.50400001928E-02 0.  1.
        1   -1    0    0  501    0  0.00000000000E+00  0.00000000000E+00 -0.17426840256E+04  0.17426840256E+04  0.50400001928E-02 0. -1.
    10030    2    1    2    0    0  0.00000000000E+00  0.00000000000E+00 -0.12252247779E+04  0.22601432733E+04  0.18992292804E+04 0.  0.
        1    1    3    3  502    0 -0.72663511205E+03 -0.38909366183E+03 -0.11737922060E+04  0.14342874909E+04  0.50400001928E-02 0. -1.
       -1    1    3    3    0  502  0.72663511205E+03  0.38909366183E+03 -0.51432571860E+02  0.82585578233E+03  0.50400001928E-02 0.  1.
</event>
<event>
 5   0  0.7207648E-06  0.1900758E+04  0.7818609E-02  0.8654479E-01
        2   -1    0    0  501    0  0.00000000000E+00  0.00000000000E+00  0.73764666394E+03  0.73764666395E+03  0.25500000920E-02 0. -1.
       -2   -1    0    0    0  501  0.00000000000E+00  0.00000000000E+00 -0.12244612881E+04  0.12244612881E+04  0.25500000920E-02 0.  1.
    10030    2    1    2    0    0  0.00000000000E+00  0.00000000000E+00 -0.48681462419E+03  0.19621079521E+04  0.19007575167E+04 0.  0.
        4    1    3    3  502    0 -0.88290691159E+03 -0.33211652210E+03 -0.36286708944E+03  0.10106928991E+04  0.12699999809E+01 0.  1.
       -4    1    3    3    0  502  0.88290691159E+03  0.33211652210E+03 -0.12394753475E+03  0.95141505299E+03  0.12699999809E+01 0. -1.
</event>
<event>
 5   0  0.3379108E-06  0.1900155E+04  0.7818609E-02  0.8654779E-01
       -1   -1    0    0    0  501  0.00000000000E+00  0.00000000000E+00  0.32847224094E+03  0.32847224098E+03  0.50400001928E-02 0. -1.
        1   -1    0    0  501    0  0.00000000000E+00  0.00000000000E+00 -0.27480165477E+04  0.27480165477E+04  0.50400001928E-02 0.  1.
    10030    2    1    2    0    0  0.00000000000E+00  0.00000000000E+00 -0.24195443068E+04  0.30764887887E+04  0.19001548922E+04 0.  0.
        4    1    3    3  502    0  0.63331076093E+03 -0.22469857970E+03 -0.12237041571E+03  0.68304326596E+03  0.12699999809E+01 0. -1.
       -4    1    3    3    0  502 -0.63331076093E+03  0.22469857970E+03 -0.22971738911E+04  0.23934455228E+04  0.12699999809E+01 0.  1.
</event>
<event>
 5   0  0.6870370E-06  0.1899590E+04  0.7818609E-02  0.8655060E-01
        2   -1    0    0  501    0  0.00000000000E+00  0.00000000000E+00  0.16676876295E+04  0.16676876295E+04  0.25500000920E-02 0.  1.
       -2   -1    0    0    0  501  0.00000000000E+00  0.00000000000E+00 -0.54093519835E+03  0.54093519835E+03  0.25500000920E-02 0. -1.
    10030    2    1    2    0    0  0.00000000000E+00  0.00000000000E+00  0.11267524311E+04  0.22086228278E+04  0.18995904176E+04 0.  0.
        1    1    3    3  502    0 -0.28586304305E+03  0.27470353110E+03  0.15668815308E+04  0.16162603259E+04  0.50400001928E-02 0.  1.
       -1    1    3    3    0  502  0.28586304305E+03 -0.27470353110E+03 -0.44012909965E+03  0.59236250199E+03  0.50400001928E-02 0. -1.
</event>
<event>
 5   0  0.7577180E-06  0.1901238E+04  0.7818609E-02  0.8654240E-01
       -2   -1    0    0    0  501  0.00000000000E+00  0.00000000000E+00  0.73329762593E+03  0.73329762594E+03  0.25500000920E-02 0.  1.
        2   -1    0    0  501    0  0.00000000000E+00  0.00000000000E+00 -0.12323462802E+04  0.12323462802E+04  0.25500000920E-02 0. -1.
    10030    2    1    2    0    0  0.00000000000E+00  0.00000000000E+00 -0.49904865425E+03  0.19656439061E+04  0.19012381246E+04 0.  0.
        5    1    3    3  502    0 -0.75486639419E+03 -0.46674163130E+03 -0.60162464145E+03  0.10722151476E+04  0.46999998093E+01 0.  1.
       -5    1    3    3    0  502  0.75486639419E+03  0.46674163130E+03  0.10257598719E+03  0.89342875856E+03  0.46999998093E+01 0. -1.
</event>
<event>
 5   0  0.3398807E-06  0.1898396E+04  0.7818609E-02  0.8655655E-01
        1   -1    0    0  501    0  0.00000000000E+00  0.00000000000E+00  0.18686661679E+04  0.18686661679E+04  0.50400001928E-02 0. -1.
       -1   -1    0    0    0  501  0.00000000000E+00  0.00000000000E+00 -0.48214963062E+03  0.48214963065E+03  0.50400001928E-02 0.  1.
    10030    2    1    2    0    0  0.00000000000E+00  0.00000000000E+00  0.13865165373E+04  0.23508157986E+04  0.18983958519E+04 0.  0.
        1    1    3    3  502    0  0.70231360168E+03  0.17942292949E+03 -0.65598414868E+02  0.72783249089E+03  0.50400001928E-02 0.  1.
       -1    1    3    3    0  502 -0.70231360168E+03 -0.17942292949E+03  0.14521149522E+04  0.16229833077E+04  0.50400001928E-02 0. -1.
</event>
<event>
 5   0  0.3398807E-06  0.1899236E+04  0.7818609E-02  0.8655237E-01
       -1   -1    0    0    0  501  0.00000000000E+00  0.00000000000E+00  0.13984935988E+04  0.13984935988E+04  0.50400001928E-02 0. -1.
        1   -1    0    0  501    0  0.00000000000E+00  0.00000000000E+00 -0.64481806573E+03  0.64481806575E+03  0.50400001928E-02 0.  1.
    10030    2    1    2    0    0  0.00000000000E+00  0.00000000000E+00  0.75367553310E+03  0.20433116646E+04  0.18992355698E+04 0.  0.
        1    1    3    3  502    0  0.88613237887E+03 -0.14762005820E+03  0.70800640241E+03  0.11438073878E+04  0.50400001928E-02 0. -1.
       -1    1    3    3    0  502 -0.88613237887E+03  0.14762005820E+03  0.45669130693E+02  0.89950427681E+03  0.50400001928E-02 0.  1.
</event>
<event>
 5   0  0.3379108E-06  0.1899608E+04  0.7818609E-02  0.8655051E-01
        1   -1    0    0  501    0  0.00000000000E+00  0.00000000000E+00  0.69669314257E+03  0.69669314259E+03  0.50400001928E-02 0. -1.
       -1   -1    0    0    0  501  0.00000000000E+00  0.00000000000E+00 -0.12948714249E+04  0.12948714249E+04  0.50400001928E-02 0.  1.
    10030    2    1    2    0    0  0.00000000000E+00  0.00000000000E+00 -0.59817828230E+03  0.19915645675E+04  0.18996084252E+04 0.  0.
        4    1    3    3  502    0 -0.86008062050E+03  0.16451494379E+02 -0.72121768762E+03  0.11225711074E+04  0.12699999809E+01 0.  1.
       -4    1    3    3    0  502  0.86008062050E+03 -0.16451494379E+02  0.12303940532E+03  0.86899346004E+03  0.12699999809E+01 0. -1.
</event>
<event>
 5   0  0.7207648E-06  0.1898697E+04  0.7818609E-02  0.8655505E-01
       -2   -1    0    0    0  501  0.00000000000E+00  0.00000000000E+00  0.13525784482E+04  0.13525784482E+04  0.25500000920E-02 0. -1.
        2   -1    0    0  501    0  0.00000000000E+00  0.00000000000E+00 -0.66632920536E+03  0.66632920537E+03  0.25500000920E-02 0.  1.
    10030    2    1    2    0    0  0.00000000000E+00  0.00000000000E+00  0.68624924286E+03  0.20189076536E+04  0.18986969454E+04 0.  0.
        4    1    3    3  502    0 -0.18711336558E+03  0.86827964855E+03 -0.13267353245E+02  0.88831221720E+03  0.12699999809E+01 0.  1.
       -4    1    3    3    0  502  0.18711336558E+03 -0.86827964855E+03  0.69951659611E+03  0.11305954364E+04  0.12699999809E+01 0. -1.
</event>
<event>
 5   0  0.3398807E-06  0.1900833E+04  0.7818609E-02  0.8654442E-01
        1   -1    0    0  501    0  0.00000000000E+00  0.00000000000E+00  0.90957002156E+03  0.90957002158E+03  0.50400001928E-02 0. -1.
       -1   -1    0    0    0  501  0.00000000000E+00  0.00000000000E+00 -0.99309730955E+03  0.99309730957E+03  0.50400001928E-02 0.  1.
    10030    2    1    2    0    0  0.00000000000E+00  0.00000000000E+00 -0.83527287993E+02  0.19026673311E+04  0.19008330187E+04 0.  0.
        1    1    3    3  502    0  0.63381264729E+03  0.63396271224E+03 -0.35776490157E+03  0.96520615269E+03  0.50400001928E-02 0.  1.
       -1    1    3    3    0  502 -0.63381264729E+03 -0.63396271224E+03  0.27423761358E+03  0.93746117845E+03  0.50400001928E-02 0. -1.
</event>
<event>
 5   0  0.6870370E-06  0.1900296E+04  0.7818609E-02  0.8654709E-01
       -2   -1    0    0    0  501  0.00000000000E+00  0.00000000000E+00  0.60468709757E+03  0.60468709757E+03  0.25500000920E-02 0.  1.
        2   -1    0    0  501    0  0.00000000000E+00  0.00000000000E+00 -0.14929723576E+04  0.14929723576E+04  0.25500000920E-02 0. -1.
    10030    2    1    2    0    0  0.00000000000E+00  0.00000000000E+00 -0.88828525999E+03  0.20976594551E+04  0.19002958945E+04 0.  0.
        1    1    3    3  502    0  0.14153399480E+03  0.21067833830E+03 -0.14548607119E+04  0.14768334114E+04  0.50400001928E-02 0. -1.
       -1    1    3    3    0  502 -0.14153399480E+03 -0.21067833830E+03  0.56657545189E+03  0.62082604377E+03  0.50400001928E-02 0.  1.
</event>
<event>
 5   0  0.2527750E-06  0.1900346E+04  0.7818609E-02  0.8654684E-01
        3   -1    0    0  501    0  0.00000000000E+00  0.00000000000E+00  0.58880053854E+03  0.58880054721E+03  0.10100000352E+00 0. -1.
       -3   -1    0    0    0  501  0.00000000000E+00  0.00000000000E+00 -0.15333358916E+04  0.15333358950E+04  0.10100000352E+00 0.  1.
    10030    2    1    2    0    0  0.00000000000E+00  0.00000000000E+00 -0.94453535310E+03  0.21221364422E+04  0.19003462963E+04 0.  0.
        1    1    3    3  502    0  0.38552180873E+03 -0.86109103181E+03 -0.34630105536E+03  0.10050021149E+04  0.50400001928E-02 0. -1.
       -1    1    3    3    0  502 -0.38552180873E+03  0.86109103181E+03 -0.59823429774E+03  0.11171343272E+04  0.50400001928E-02 0.  1.
</event>
<event>
 5   0  0.3211263E-06  0.1899984E+04  0.7818609E-02  0.8654864E-01
        1   -1    0    0  501    0  0.00000000000E+00  0.00000000000E+00  0.95113229137E+03  0.95113229138E+03  0.50400001928E-02 0.  1.
       -1   -1    0    0    0  501  0.00000000000E+00  0.00000000000E+00 -0.94885311214E+03  0.94885311215E+03  0.50400001928E-02 0. -1.
    10030    2    1    2    0    0  0.00000000000E+00  0.00000000000E+00  0.22791792278E+01  0.18999854035E+04  0.18999840365E+04 0.  0.
        5    1    3    3  502    0  0.49178921918E+03 -0.79519572571E+03  0.16927616248E+03  0.95019439457E+03  0.46999998093E+01 0.  1.
       -5    1    3    3    0  502 -0.49178921918E+03  0.79519572571E+03 -0.16699698326E+03  0.94979100896E+03  0.46999998093E+01 0. -1.
</event>
<event>
 5   0  0.6862201E-06  0.1903093E+04  0.7818609E-02  0.8653318E-01
        2   -1    0    0  501    0  0.00000000000E+00  0.00000000000E+00  0.83512453246E+03  0.83512453247E+03  0.25500000920E-02 0. -1.
       -2   -1    0    0    0  501  0.00000000000E+00  0.00000000000E+00 -0.10841988161E+04  0.10841988161E+04  0.25500000920E-02 0.  1.
    10030    2    1    2    0    0  0.00000000000E+00  0.00000000000E+00 -0.24907428360E+03  0.19193233485E+04  0.19030933024E+04 0.  0.
        3    1    3    3  502    0  0.10650647956E+03 -0.71511837130E+03 -0.74844299218E+03  0.10406271368E+04  0.10100000352E+00 0.  1.
       -3    1    3    3    0  502 -0.10650647956E+03  0.71511837130E+03  0.49936870858E+03  0.87869621171E+03  0.10100000352E+00 0. -1.
</event>
<event>
 5   0  0.3398807E-06  0.1900037E+04  0.7818609E-02  0.8654838E-01
        1   -1    0    0  501    0  0.00000000000E+00  0.00000000000E+00  0.71390402033E+03  0.71390402035E+03  0.50400001928E-02 0. -1.
       -1   -1    0    0    0  501  0.00000000000E+00  0.00000000000E+00 -0.12642241568E+04  0.12642241568E+04  0.50400001928E-02 0.  1.
    10030    2    1    2    0    0  0.00000000000E+00  0.00000000000E+00 -0.55032013648E+03  0.19781281772E+04  0.19000365346E+04 0.  0.
        1    1    3    3  502    0  0.86104243440E+03  0.39797320296E+03 -0.22048532188E+03  0.97385343934E+03  0.50400001928E-02 0. -1.
       -1    1    3    3    0  502 -0.86104243440E+03 -0.39797320296E+03 -0.32983481460E+03  0.10042747378E+04  0.50400001928E-02 0.  1.
</event>
<event>
 5   0  0.3211263E-06  0.1900125E+04  0.7818609E-02  0.8654794E-01
       -1   -1    0    0    0  501  0.00000000000E+00  0.00000000000E+00  0.10403787227E+04  0.10403787227E+04  0.50400001928E-02 0. -1.
        1   -1    0    0  501    0  0.00000000000E+00  0.00000000000E+00 -0.86758645253E+03  0.86758645254E+03  0.50400001928E-02 0.  1.
    10030    2    1    2    0    0  0.00000000000E+00  0.00000000000E+00  0.17279227014E+03  0.19079651752E+04  0.19001247173E+04 0.  0.
        5    1    3    3  502    0 -0.14948697620E+03 -0.42773100307E+03 -0.75209214026E+03  0.87804603779E+03  0.46999998093E+01 0.  1.
       -5    1    3    3    0  502  0.14948697620E+03  0.42773100307E+03  0.92488441040E+03  0.10299191374E+04  0.46999998093E+01 0. -1.
</event>
<event>
 5   0  0.7577180E-06  0.1900241E+04  0.7818609E-02  0.8654736E-01
       -2   -1    0    0    0  501  0.00000000000E+00  0.00000000000E+00  0.77412273184E+03  0.77412273184E+03  0.25500000920E-02 0.  1.
        2   -1    0    0  501    0  0.00000000000E+00  0.00000000000E+00 -0.11661321269E+04  0.11661321269E+04  0.25500000920E-02 0. -1.
    10030    2    1    2    0    0  0.00000000000E+00  0.00000000000E+00 -0.39200939502E+03  0.19402548587E+04  0.19002414454E+04 0.  0.
        5    1    3    3  502    0 -0.40841450281E+01  0.35193079470E+03 -0.10971043381E+04  0.11521857416E+04  0.46999998093E+01 0. -1.
       -5    1    3    3    0  502  0.40841450281E+01 -0.35193079470E+03  0.70509494310E+03  0.78806911707E+03  0.46999998093E+01 0.  1.
</event>
<event>
 5   0  0.3398807E-06  0.1900093E+04  0.7818609E-02  0.8654810E-01
       -1   -1    0    0    0  501  0.00000000000E+00  0.00000000000E+00  0.44311002109E+03  0.44311002111E+03  0.50400001928E-02 0. -1.
        1   -1    0    0  501    0  0.00000000000E+00  0.00000000000E+00 -0.20369404025E+04  0.20369404025E+04  0.50400001928E-02 0.  1.
    10030    2    1    2    0    0  0.00000000000E+00  0.00000000000E+00 -0.15938303814E+04  0.24800504236E+04  0.19000933711E+04 0.  0.
        1    1    3    3  502    0 -0.84045549151E+03 -0.84488084359E+02 -0.13644782843E+04  0.16047755787E+04  0.50400001928E-02 0. -1.
       -1    1    3    3    0  502  0.84045549151E+03  0.84488084359E+02 -0.22935209704E+03  0.87527484486E+03  0.50400001928E-02 0.  1.
</event>
<event>
 5   0  0.3211263E-06  0.1901872E+04  0.7818609E-02  0.8653925E-01
        1   -1    0    0  501    0  0.00000000000E+00  0.00000000000E+00  0.88316044183E+03  0.88316044185E+03  0.50400001928E-02 0.  1.
       -1   -1    0    0    0  501  0.00000000000E+00  0.00000000000E+00 -0.10239127763E+04  0.10239127764E+04  0.50400001928E-02 0. -1.
    10030    2    1    2    0    0  0.00000000000E+00  0.00000000000E+00 -0.14075233451E+03  0.19070732182E+04  0.19018719831E+04 0.  0.
        5    1    3    3  502    0  0.66540387957E+03 -0.58251596835E+02 -0.74905919718E+03  0.10036270933E+04  0.46999998093E+01 0. -1.
       -5    1    3    3    0  502 -0.66540387957E+03  0.58251596835E+02  0.60830686267E+03  0.90344612493E+03  0.46999998093E+01 0.  1.
</event>
<event>
 5   0  0.3236653E-06  0.1898583E+04  0.7818609E-02  0.8655562E-01
        1   -1    0    0  501    0  0.00000000000E+00  0.00000000000E+00  0.82995873987E+03  0.82995873988E+03  0.50400001928E-02 0.  1.
       -1   -1    0    0    0  501  0.00000000000E+00  0.00000000000E+00 -0.10857820918E+04  0.10857820918E+04  0.50400001928E-02 0. -1.
    10030    2    1    2    0    0  0.00000000000E+00  0.00000000000E+00 -0.25582335194E+03  0.19157408317E+04  0.18985829839E+04 0.  0.
        3    1    3    3  502    0 -0.10288926621E+03  0.93462044372E+03 -0.25967799216E+03  0.97546616791E+03  0.10100000352E+00 0.  1.
       -3    1    3    3    0  502  0.10288926621E+03 -0.93462044372E+03  0.38546402170E+01  0.94027466379E+03  0.10100000352E+00 0. -1.
</event>
<event>
 5   0  0.7207648E-06  0.1899450E+04  0.7818609E-02  0.8655130E-01
        2   -1    0    0  501    0  0.00000000000E+00  0.00000000000E+00  0.17565532628E+04  0.17565532628E+04  0.25500000920E-02 0. -1.
       -2   -1    0    0    0  501  0.00000000000E+00  0.00000000000E+00 -0.51349295040E+03  0.51349295041E+03  0.25500000920E-02 0.  1.
    10030    2    1    2    0    0  0.00000000000E+00  0.00000000000E+00  0.12430603124E+04  0.22700462132E+04  0.18994501493E+04 0.  0.
        4    1    3    3  502    0  0.45152069890E+03 -0.20401716501E+03 -0.34678841813E+03  0.60477910430E+03  0.12699999809E+01 0.  1.
       -4    1    3    3    0  502 -0.45152069890E+03  0.20401716501E+03  0.15898487305E+04  0.16652671089E+04  0.12699999809E+01 0. -1.
</event>
<event>
 5   0  0.3495279E-06  0.1899612E+04  0.7818609E-02  0.8655050E-01
        1   -1    0    0  501    0  0.00000000000E+00  0.00000000000E+00  0.72612608881E+03  0.72612608883E+03  0.50400001928E-02 0. -1.
       -1   -1    0    0    0  501  0.00000000000E+00  0.00000000000E+00 -0.12423891930E+04  0.12423891930E+04  0.50400001928E-02 0.  1.
    10030    2    1    2    0    0  0.00000000000E+00  0.00000000000E+00 -0.51626310416E+03  0.19685152818E+04  0.18996117556E+04 0.  0.
        2    1    3    3  502    0 -0.51910841014E+03 -0.78617375142E+03 -0.13296761621E+03  0.95143212888E+03  0.25500000920E-02 0. -1.
       -2    1    3    3    0  502  0.51910841014E+03  0.78617375142E+03 -0.38329548795E+03  0.10170831529E+04  0.25500000920E-02 0.  1.
</event>
<event>
 5   0  0.2527750E-06  0.1900143E+04  0.7818609E-02  0.8654785E-01
        3   -1    0    0  501    0  0.00000000000E+00  0.00000000000E+00  0.94665121567E+03  0.94665122106E+03  0.10100000352E+00 0.  1.
       -3   -1    0    0    0  501  0.00000000000E+00  0.00000000000E+00 -0.95350397632E+03  0.95350398167E+03  0.10100000352E+00 0. -1.
    10030    2    1    2    0    0  0.00000000000E+00  0.00000000000E+00 -0.68527606479E+01  0.19001552027E+04  0.19001428457E+04 0.  0.
        4    1    3    3  502    0 -0.51562623019E+03 -0.79275902173E+03  0.87661092685E+02  0.94974910154E+03  0.12699999809E+01 0.  1.
       -4    1    3    3    0  502  0.51562623019E+03  0.79275902173E+03 -0.94513853333E+02  0.95040610119E+03  0.12699999809E+01 0. -1.
</event>
<event>
 5   0  0.6870370E-06  0.1903520E+04  0.7818609E-02  0.8653106E-01
       -2   -1    0    0    0  501  0.00000000000E+00  0.00000000000E+00  0.10714715174E+04  0.10714715174E+04  0.25500000920E-02 0.  1.
        2   -1    0    0  501    0  0.00000000000E+00  0.00000000000E+00 -0.84542309121E+03  0.84542309122E+03  0.25500000920E-02 0. -1.
    10030    2    1    2    0    0  0.00000000000E+00  0.00000000000E+00  0.22604842621E+03  0.19168946086E+04  0.19035196478E+04 0.  0.
        1    1    3    3  502    0 -0.73139073670E+03  0.52164830472E+03  0.42955330174E+03  0.99577377079E+03  0.50400001928E-02 0. -1.
       -1    1    3    3    0  502  0.73139073670E+03 -0.52164830472E+03 -0.20350487552E+03  0.92112083785E+03  0.50400001928E-02 0.  1.
</event>
<event>
 5   0  0.7207648E-06  0.1899337E+04  0.7818609E-02  0.8655187E-01
        2   -1    0    0  501    0  0.00000000000E+00  0.00000000000E+00  0.10311538264E+04  0.10311538264E+04  0.25500000920E-02 0. -1.
       -2   -1    0    0    0  501  0.00000000000E+00  0.00000000000E+00 -0.87462216514E+03  0.87462216514E+03  0.25500000920E-02 0.  1.
    10030    2    1    2    0    0  0.00000000000E+00  0.00000000000E+00  0.15653166124E+03  0.19057759915E+04  0.18993367181E+04 0.  0.
        4    1    3    3  502    0 -0.26356893235E+03  0.64855166309E+03 -0.56561099678E+03  0.90000291909E+03  0.12699999809E+01 0.  1.
       -4    1    3    3    0  502  0.26356893235E+03 -0.64855166309E+03  0.72214265801E+03  0.10057730724E+04  0.12699999809E+01 0. -1.
</event>
<event>
 5   0  0.7207648E-06  0.1899810E+04  0.7818609E-02  0.8654951E-01
       -2   -1    0    0    0  501  0.00000000000E+00  0.00000000000E+00  0.19413395341E+04  0.19413395341E+04  0.25500000920E-02 0. -1.
        2   -1    0    0  501    0  0.00000000000E+00  0.00000000000E+00 -0.46479233323E+03  0.46479233324E+03  0.25500000920E-02 0.  1.
    10030    2    1    2    0    0  0.00000000000E+00  0.00000000000E+00  0.14765472009E+04  0.24061318673E+04  0.18998102344E+04 0.  0.
        4    1    3    3  502    0 -0.32530721769E+03 -0.86163070783E+03  0.44372900607E+03  0.10223156588E+04  0.12699999809E+01 0. -1.
       -4    1    3    3    0  502  0.32530721769E+03  0.86163070783E+03  0.10328181948E+04  0.13838162085E+04  0.12699999809E+01 0.  1.
</event>
<event>
 5   0  0.6984466E-06  0.1898988E+04  0.7818609E-02  0.8655360E-01
        2   -1    0    0  501    0  0.00000000000E+00  0.00000000000E+00  0.13979159296E+04  0.13979159296E+04  0.25500000920E-02 0.  1.
       -2   -1    0    0    0  501  0.00000000000E+00  0.00000000000E+00 -0.64491658581E+03  0.64491658581E+03  0.25500000920E-02 0. -1.
    10030    2    1    2    0    0  0.00000000000E+00  0.00000000000E+00  0.75299934382E+03  0.20428325154E+04  0.18989883292E+04 0.  0.
        2    1    3    3  502    0 -0.61029247002E+03 -0.32774035889E+03  0.10750473597E+04  0.12789047922E+04  0.25500000920E-02 0.  1.
       -2    1    3    3    0  502  0.61029247002E+03  0.32774035889E+03 -0.32204801592E+03  0.76392772326E+03  0.25500000920E-02 0. -1.
</event>
<event>
 5   0  0.6862201E-06  0.1904740E+04  0.7818609E-02  0.8652500E-01
        2   -1    0    0  501    0  0.00000000000E+00  0.00000000000E+00  0.14456271320E+04  0.14456271320E+04  0.25500000920E-02 0.  1.
       -2   -1    0    0    0  501  0.00000000000E+00  0.00000000000E+00 -0.62741547852E+03  0.62741547852E+03  0.25500000920E-02 0. -1.
    10030    2    1    2    0    0  0.00000000000E+00  0.00000000000E+00  0.81821165346E+03  0.20730426105E+04  0.19047402330E+04 0.  0.
        3    1    3    3  502    0  0.14055440590E+03  0.46910393326E+02 -0.61479298717E+03  0.63239746465E+03  0.10100000352E+00 0. -1.
       -3    1    3    3    0  502 -0.14055440590E+03 -0.46910393326E+02  0.14330046406E+04  0.14406451459E+04  0.10100000352E+00 0.  1.
</event>
<event>
 5   0  0.3236653E-06  0.1903172E+04  0.7818609E-02  0.8653279E-01
        1   -1    0    0  501    0  0.00000000000E+00  0.00000000000E+00  0.10379452991E+04  0.10379452992E+04  0.50400001928E-02 0. -1.
       -1   -1    0    0    0  501  0.00000000000E+00  0.00000000000E+00 -0.87241211129E+03  0.87241211130E+03  0.50400001928E-02 0.  1.
    10030    2    1    2    0    0  0.00000000000E+00  0.00000000000E+00  0.16553318786E+03  0.19103574105E+04  0.19031721413E+04 0.  0.
        3    1    3    3  502    0 -0.20196642878E+03  0.33704855628E+03  0.95271267880E+03  0.10305598606E+04  0.10100000352E+00 0. -1.
       -3    1    3    3    0  502  0.20196642878E+03 -0.33704855628E+03 -0.78717949094E+03  0.87979754990E+03  0.10100000352E+00 0.  1.
</event>
<event>
 5   0  0.3379108E-06  0.1899724E+04  0.7818609E-02  0.8654994E-01
       -1   -1    0    0    0  501  0.00000000000E+00  0.00000000000E+00  0.72072347306E+03  0.72072347308E+03  0.50400001928E-02 0. -1.
        1   -1    0    0  501    0  0.00000000000E+00  0.00000000000E+00 -0.12518505617E+04  0.12518505617E+04  0.50400001928E-02 0.  1.
    10030    2    1    2    0    0  0.00000000000E+00  0.00000000000E+00 -0.53112708865E+03  0.19725740348E+04  0.18997242796E+04 0.  0.
        4    1    3    3  502    0  0.25883514873E+03 -0.90730380928E+03 -0.37950124149E+03  0.10169654083E+04  0.12699999809E+01 0.  1.
       -4    1    3    3    0  502 -0.25883514873E+03  0.90730380928E+03 -0.15162584715E+03  0.95560862646E+03  0.12699999809E+01 0. -1.
</event>
<event>
 5   0  0.6862201E-06  0.1897083E+04  0.7818609E-02  0.8656310E-01
        2   -1    0    0  501    0  0.00000000000E+00  0.00000000000E+00  0.16626485586E+04  0.16626485586E+04  0.25500000920E-02 0. -1.
       -2   -1    0    0    0  501  0.00000000000E+00  0.00000000000E+00 -0.54114295040E+03  0.54114295040E+03  0.25500000920E-02 0.  1.
    10030    2    1    2    0    0  0.00000000000E+00  0.00000000000E+00  0.11215056082E+04  0.22037915091E+04  0.18970825459E+04 0.  0.
        3    1    3    3  502    0  0.72886664970E+03  0.52818524838E+03  0.21321168528E+03  0.92503269272E+03  0.10100000352E+00 0.  1.
       -3    1    3    3    0  502 -0.72886664970E+03 -0.52818524838E+03  0.90829392297E+03  0.12787588163E+04  0.10100000352E+00 0. -1.
</event>
<event>
 5   0  0.6984466E-06  0.1898797E+04  0.7818609E-02  0.8655456E-01
       -2   -1    0    0    0  501  0.00000000000E+00  0.00000000000E+00  0.99898756404E+03  0.99898756404E+03  0.25500000920E-02 0.  1.
        2   -1    0    0  501    0  0.00000000000E+00  0.00000000000E+00 -0.90227066734E+03  0.90227066734E+03  0.25500000920E-02 0. -1.
    10030    2    1    2    0    0  0.00000000000E+00  0.00000000000E+00  0.96716896699E+02  0.19012582314E+04  0.18987966464E+04 0.  0.
        2    1    3    3  502    0 -0.57258788126E+03 -0.21334912461E+03  0.77592444345E+03  0.98764035595E+03  0.25500000920E-02 0.  1.
       -2    1    3    3    0  502  0.57258788126E+03  0.21334912461E+03 -0.67920754675E+03  0.91361787544E+03  0.25500000920E-02 0. -1.
</event>
<event>
 5   0  0.3398807E-06  0.1899804E+04  0.7818609E-02  0.8654954E-01
       -1   -1    0    0    0  501  0.00000000000E+00  0.00000000000E+00  0.78467927036E+03  0.78467927037E+03  0.50400001928E-02 0. -1.
        1   -1    0    0  501    0  0.00000000000E+00  0.00000000000E+00 -0.11499142820E+04  0.11499142820E+04  0.50400001928E-02 0.  1.
    10030    2    1    2    0    0  0.00000000000E+00  0.00000000000E+00 -0.36523501161E+03  0.19345935524E+04  0.18998040949E+04 0.  0.
        1    1    3    3  502    0  0.40396323409E+03 -0.37850232310E+03  0.60344004423E+03  0.81889571381E+03  0.50400001928E-02 0. -1.
       -1    1    3    3    0  502 -0.40396323409E+03  0.37850232310E+03 -0.96867505584E+03  0.11156978385E+04  0.50400001928E-02 0.  1.
</event>
<event>
 5   0  0.6870370E-06  0.1899633E+04  0.7818609E-02  0.8655039E-01
       -2   -1    0    0    0  501  0.00000000000E+00  0.00000000000E+00  0.32773277628E+03  0.32773277629E+03  0.25500000920E-02 0. -1.
        2   -1    0    0  501    0  0.00000000000E+00  0.00000000000E+00 -0.27527050146E+04  0.27527050146E+04  0.25500000920E-02 0.  1.
    10030    2    1    2    0    0  0.00000000000E+00  0.00000000000E+00 -0.24249722383E+04  0.30804377909E+04  0.18996332875E+04 0.  0.
        1    1    3    3  502    0  0.27377110519E+03  0.74188414148E+03 -0.20656505535E+04  0.22118442320E+04  0.50400001928E-02 0.  1.
       -1    1    3    3    0  502 -0.27377110519E+03 -0.74188414148E+03 -0.35932168488E+03  0.86859355896E+03  0.50400001928E-02 0. -1.
</event>
<event>
 5   0  0.3495279E-06  0.1900017E+04  0.7818609E-02  0.8654848E-01
        1   -1    0    0  501    0  0.00000000000E+00  0.00000000000E+00  0.90158880812E+03  0.90158880813E+03  0.50400001928E-02 0. -1.
       -1   -1    0    0    0  501  0.00000000000E+00  0.00000000000E+00 -0.10010281490E+04  0.10010281490E+04  0.50400001928E-02 0.  1.
    10030    2    1    2    0    0  0.00000000000E+00  0.00000000000E+00 -0.99439340894E+02  0.19026169572E+04  0.19000166060E+04 0.  0.
        2    1    3    3  502    0  0.59992555417E+03 -0.44849577501E+03  0.53542297502E+03  0.92072628557E+03  0.25500000920E-02 0. -1.
       -2    1    3    3    0  502 -0.59992555417E+03  0.44849577501E+03 -0.63486231592E+03  0.98189067158E+03  0.25500000920E-02 0.  1.
</event>
<event>
 5   0  0.7577180E-06  0.1900320E+04  0.7818609E-02  0.8654697E-01
        2   -1    0    0  501    0  0.00000000000E+00  0.00000000000E+00  0.10649700829E+04  0.10649700829E+04  0.25500000920E-02 0. -1.
       -2   -1    0    0    0  501  0.00000000000E+00  0.00000000000E+00 -0.84772756288E+03  0.84772756289E+03  0.25500000920E-02 0.  1.
    10030    2    1    2    0    0  0.00000000000E+00  0.00000000000E+00  0.21724252003E+03  0.19126976458E+04  0.19003204919E+04 0.  0.
        5    1    3    3  502    0  0.14280910386E+03  0.24397505135E+03 -0.80440556879E+03  0.85264803696E+03  0.46999998093E+01 0.  1.
       -5    1    3    3    0  502 -0.14280910386E+03 -0.24397505135E+03  0.10216480888E+04  0.10600496088E+04  0.46999998093E+01 0. -1.
</event>
<event>
 5   0  0.3495279E-06  0.1899192E+04  0.7818609E-02  0.8655259E-01
        1   -1    0    0  501    0  0.00000000000E+00  0.00000000000E+00  0.89126405893E+03  0.89126405895E+03  0.50400001928E-02 0.  1.
       -1   -1    0    0    0  501  0.00000000000E+00  0.00000000000E+00 -0.10117456216E+04  0.10117456216E+04  0.50400001928E-02 0. -1.
    10030    2    1    2    0    0  0.00000000000E+00  0.00000000000E+00 -0.12048156267E+03  0.19030096806E+04  0.18991919433E+04 0.  0.
        2    1    3    3  502    0 -0.15690296343E+03  0.92439847445E+03  0.90399145392E+02  0.94196766664E+03  0.25500000920E-02 0. -1.
       -2    1    3    3    0  502  0.15690296343E+03 -0.92439847445E+03 -0.21088070806E+03  0.96104201393E+03  0.25500000920E-02 0.  1.
</event>
<event>
 5   0  0.3236653E-06  0.1899864E+04  0.7818609E-02  0.8654924E-01
       -1   -1    0    0    0  501  0.00000000000E+00  0.00000000000E+00  0.69455029112E+03  0.69455029114E+03  0.50400001928E-02 0.  1.
        1   -1    0    0  501    0  0.00000000000E+00  0.00000000000E+00 -0.12992165589E+04  0.12992165589E+04  0.50400001928E-02 0. -1.
    10030    2    1    2    0    0  0.00000000000E+00  0.00000000000E+00 -0.60466626777E+03  0.19937668500E+04  0.18998644575E+04 0.  0.
        3    1    3    3  502    0 -0.75445184851E+03 -0.34373358767E+03  0.18428921195E+03  0.84930141578E+03  0.10100000352E+00 0.  1.
       -3    1    3    3    0  502  0.75445184851E+03  0.34373358767E+03 -0.78895547972E+03  0.11444654342E+04  0.10100000352E+00 0. -1.
</event>
<event>
 5   0  0.3211263E-06  0.1900701E+04  0.7818609E-02  0.8654507E-01
       -1   -1    0    0    0  501  0.00000000000E+00  0.00000000000E+00  0.48718499661E+03  0.48718499663E+03  0.50400001928E-02 0.  1.
        1   -1    0    0  501    0  0.00000000000E+00  0.00000000000E+00 -0.18538464862E+04  0.18538464862E+04  0.50400001928E-02 0. -1.
    10030    2    1    2    0    0  0.00000000000E+00  0.00000000000E+00 -0.13666614896E+04  0.23410314829E+04  0.19007011276E+04 0.  0.
        5    1    3    3  502    0  0.40075829327E+03 -0.25886969945E+03  0.32897945336E+03  0.57954318360E+03  0.46999998093E+01 0.  1.
       -5    1    3    3    0  502 -0.40075829327E+03  0.25886969945E+03 -0.16956409430E+04  0.17614882993E+04  0.46999998093E+01 0. -1.
</event>
<event>
 5   0  0.6870370E-06  0.1900980E+04  0.7818609E-02  0.8654369E-01
       -2   -1    0    0    0  501  0.00000000000E+00  0.00000000000E+00  0.12109160890E+04  0.12109160890E+04  0.25500000920E-02 0. -1.
        2   -1    0    0  501    0  0.00000000000E+00  0.00000000000E+00 -0.74607260845E+03  0.74607260845E+03  0.25500000920E-02 0.  1.
    10030    2    1    2    0    0  0.00000000000E+00  0.00000000000E+00  0.46484348051E+03  0.19569886974E+04  0.19009800894E+04 0.  0.
        1    1    3    3  502    0  0.53372893201E+02  0.35010248776E+03 -0.67561535780E+03  0.76280831759E+03  0.50400001928E-02 0.  1.
       -1    1    3    3    0  502 -0.53372893201E+02 -0.35010248776E+03  0.11404588383E+04  0.11941803798E+04  0.50400001928E-02 0. -1.
</event>
<event>
 5   0  0.3236653E-06  0.1900223E+04  0.7818609E-02  0.8654745E-01
        1   -1    0    0  501    0  0.00000000000E+00  0.00000000000E+00  0.72793326328E+03  0.72793326330E+03  0.50400001928E-02 0. -1.
       -1   -1    0    0    0  501  0.00000000000E+00  0.00000000000E+00 -0.12401029085E+04  0.12401029085E+04  0.50400001928E-02 0.  1.
    10030    2    1    2    0    0  0.00000000000E+00  0.00000000000E+00 -0.51216964524E+03  0.19680361718E+04  0.19002233101E+04 0.  0.
        3    1    3    3  502    0  0.63892874650E+02 -0.92327855646E+03 -0.33504781641E+02  0.92609296123E+03  0.10100000352E+00 0.  1.
       -3    1    3    3    0  502 -0.63892874650E+02  0.92327855646E+03 -0.47866486360E+03  0.10419432106E+04  0.10100000352E+00 0. -1.
</event>
<event>
 5   0  0.6984466E-06  0.1899699E+04  0.7818609E-02  0.8655006E-01
       -2   -1    0    0    0  501  0.00000000000E+00  0.00000000000E+00  0.48757840104E+03  0.48757840104E+03  0.25500000920E-02 0. -1.
        2   -1    0    0  501    0  0.00000000000E+00  0.00000000000E+00 -0.18503975350E+04  0.18503975350E+04  0.25500000920E-02 0.  1.
    10030    2    1    2    0    0  0.00000000000E+00  0.00000000000E+00 -0.13628191339E+04  0.23379759360E+04  0.18996987881E+04 0.  0.
        2    1    3    3  502    0  0.59842185010E+03 -0.11737568835E+03 -0.15776563591E+04  0.16914151916E+04  0.25500000920E-02 0.  1.
       -2    1    3    3    0  502 -0.59842185010E+03  0.11737568835E+03  0.21483722518E+03  0.64656074442E+03  0.25500000920E-02 0. -1.
</event>
<event>
 5   0  0.3379108E-06  0.1899939E+04  0.7818609E-02  0.8654887E-01
        1   -1    0    0  501    0  0.00000000000E+00  0.00000000000E+00  0.10861121385E+04  0.10861121385E+04  0.50400001928E-02 0. -1.
       -1   -1    0    0    0  501  0.00000000000E+00  0.00000000000E+00 -0.83089249702E+03  0.83089249703E+03  0.50400001928E-02 0.  1.
    10030    2    1    2    0    0  0.00000000000E+00  0.00000000000E+00  0.25521964148E+03  0.19170046355E+04  0.18999393957E+04 0.  0.
        4    1    3    3  502    0  0.31003620716E+03  0.25568151048E+03 -0.74090352722E+03  0.84287314235E+03  0.12699999809E+01 0.  1.
       -4    1    3    3    0  502 -0.31003620716E+03 -0.25568151048E+03  0.99612316869E+03  0.10741314932E+04  0.12699999809E+01 0. -1.
</event>
<event>
 5   0  0.3211263E-06  0.1899829E+04  0.7818609E-02  0.8654941E-01
       -1   -1    0    0    0  501  0.00000000000E+00  0.00000000000E+00  0.13356640640E+04  0.13356640640E+04  0.50400001928E-02 0.  1.
        1   -1    0    0  501    0  0.00000000000E+00  0.00000000000E+00 -0.67557251831E+03  0.67557251833E+03  0.50400001928E-02 0. -1.
    10030    2    1    2    0    0  0.00000000000E+00  0.00000000000E+00  0.66009154570E+03  0.20112365824E+04  0.18998293980E+04 0.  0.
        5    1    3    3  502    0  0.62783512569E+03  0.65544901013E+03  0.33389252235E+02  0.90825507545E+03  0.46999998093E+01 0. -1.
       -5    1    3    3    0  502 -0.62783512569E+03 -0.65544901013E+03  0.62670229346E+03  0.11029815069E+04  0.46999998093E+01 0.  1.
</event>
<event>
 5   0  0.7577180E-06  0.1900209E+04  0.7818609E-02  0.8654752E-01
       -2   -1    0    0    0  501  0.00000000000E+00  0.00000000000E+00  0.53194796054E+03  0.53194796055E+03  0.25500000920E-02 0. -1.
        2   -1    0    0  501    0  0.00000000000E+00  0.00000000000E+00 -0.16969675104E+04  0.16969675104E+04  0.25500000920E-02 0.  1.
    10030    2    1    2    0    0  0.00000000000E+00  0.00000000000E+00 -0.11650195499E+04  0.22289154710E+04  0.19002088372E+04 0.  0.
        5    1    3    3  502    0  0.46404377819E+03 -0.43231434099E+03 -0.14123032356E+04  0.15481779087E+04  0.46999998093E+01 0.  1.
       -5    1    3    3    0  502 -0.46404377819E+03  0.43231434099E+03  0.24728368574E+03  0.68073756231E+03  0.46999998093E+01 0. -1.
</event>
<event>
 5   0  0.3211263E-06  0.1898548E+04  0.7818609E-02  0.8655579E-01
       -1   -1    0    0    0  501  0.00000000000E+00  0.00000000000E+00  0.63234297472E+03  0.63234297474E+03  0.50400001928E-02 0. -1.
        1   -1    0    0  501    0  0.00000000000E+00  0.00000000000E+00 -0.14250512041E+04  0.14250512041E+04  0.50400001928E-02 0.  1.
    10030    2    1    2    0    0  0.00000000000E+00  0.00000000000E+00 -0.79270822935E+03  0.20573941788E+04  0.18985479900E+04 0.  0.
        5    1    3    3  502    0 -0.58446511097E+03  0.24878268492E+02  0.41377727078E+03  0.71655572986E+03  0.46999998093E+01 0. -1.
       -5    1    3    3    0  502  0.58446511097E+03 -0.24878268492E+02 -0.12064855001E+04  0.13408384490E+04  0.46999998093E+01 0.  1.
</event>
<event>
 5   0  0.3495279E-06  0.1899840E+04  0.7818609E-02  0.8654936E-01
        1   -1    0    0  501    0  0.00000000000E+00  0.00000000000E+00  0.11266052909E+04  0.11266052910E+04  0.50400001928E-02 0. -1.
       -1   -1    0    0    0  501  0.00000000000E+00  0.00000000000E+00 -0.80094396247E+03  0.80094396249E+03  0.50400001928E-02 0.  1.
    10030    2    1    2    0    0  0.00000000000E+00  0.00000000000E+00  0.32566132847E+03  0.19275492534E+04  0.18998396837E+04 0.  0.
        2    1    3    3  502    0  0.56800901070E+03  0.18461086350E+03  0.91227358986E+03  0.10903937408E+04  0.25500000920E-02 0. -1.
       -2    1    3    3    0  502 -0.56800901070E+03 -0.18461086350E+03 -0.58661226139E+03  0.83715551266E+03  0.25500000920E-02 0.  1.
</event>
<event>
 5   0  0.6870370E-06  0.1899838E+04  0.7818609E-02  0.8654937E-01
       -2   -1    0    0    0  501  0.00000000000E+00  0.00000000000E+00  0.61617210905E+03  0.61617210905E+03  0.25500000920E-02 0. -1.
        2   -1    0    0  501    0  0.00000000000E+00  0.00000000000E+00 -0.14644380630E+04  0.14644380630E+04  0.25500000920E-02 0.  1.
    10030    2    1    2    0    0  0.00000000000E+00  0.00000000000E+00 -0.84826595394E+03  0.20806101720E+04  0.18998377719E+04 0.  0.
        1    1    3    3  502    0 -0.67273345322E+02 -0.23178004267E+03  0.58203545224E+03  0.63008964351E+03  0.50400001928E-02 0. -1.
       -1    1    3    3    0  502  0.67273345322E+02  0.23178004267E+03 -0.14303014062E+04  0.14505205285E+04  0.50400001928E-02 0.  1.
</event>
<event>
 5   0  0.3379108E-06  0.1899618E+04  0.7818609E-02  0.8655047E-01
       -1   -1    0    0    0  501  0.00000000000E+00  0.00000000000E+00  0.58880521130E+03  0.58880521132E+03  0.50400001928E-02 0. -1.
        1   -1    0    0  501    0  0.00000000000E+00  0.00000000000E+00 -0.15321482480E+04  0.15321482480E+04  0.50400001928E-02 0.  1.
    10030    2    1    2    0    0  0.00000000000E+00  0.00000000000E+00 -0.94334303672E+03  0.21209534593E+04  0.18996177225E+04 0.  0.
        4    1    3    3  502    0 -0.86241116192E+03 -0.95654963862E+02 -0.40354640826E+02  0.86863858667E+03  0.12699999809E+01 0.  1.
       -4    1    3    3    0  502  0.86241116192E+03  0.95654963862E+02 -0.90298839589E+03  0.12523148727E+04  0.12699999809E+01 0. -1.
</event>
<event>
 5   0  0.6870370E-06  0.1899869E+04  0.7818609E-02  0.8654922E-01
        2   -1    0    0  501    0  0.00000000000E+00  0.00000000000E+00  0.10125298133E+04  0.10125298133E+04  0.25500000920E-02 0. -1.
       -2   -1    0    0    0  501  0.00000000000E+00  0.00000000000E+00 -0.89120870767E+03  0.89120870767E+03  0.25500000920E-02 0.  1.
    10030    2    1    2    0    0  0.00000000000E+00  0.00000000000E+00  0.12132110563E+03  0.19037385210E+04  0.18998688232E+04 0.  0.
        1    1    3    3  502    0  0.87161446071E+03 -0.32840697344E+03  0.24762160816E+03  0.96378388095E+03  0.50400001928E-02 0. -1.
       -1    1    3    3    0  502 -0.87161446071E+03  0.32840697344E+03 -0.12630050254E+03  0.93995464002E+03  0.50400001928E-02 0.  1.
</event>
<event>
 5   0  0.6870370E-06  0.1900150E+04  0.7818609E-02  0.8654782E-01
        2   -1    0    0  501    0  0.00000000000E+00  0.00000000000E+00  0.21539567121E+04  0.21539567121E+04  0.25500000920E-02 0. -1.
       -2   -1    0    0    0  501  0.00000000000E+00  0.00000000000E+00 -0.41906237361E+03  0.41906237361E+03  0.25500000920E-02 0.  1.
    10030    2    1    2    0    0  0.00000000000E+00  0.00000000000E+00  0.17348943385E+04  0.25730190857E+04  0.19001496914E+04 0.  0.
        1    1    3    3  502    0  0.20769396755E+03  0.89619125751E+03  0.54601504810E+03  0.10697794104E+04  0.50400001928E-02 0.  1.
       -1    1    3    3    0  502 -0.20769396755E+03 -0.89619125751E+03  0.11888792904E+04  0.15032396753E+04  0.50400001928E-02 0. -1.
</event>
<event>
 5   0  0.3379108E-06  0.1899662E+04  0.7818609E-02  0.8655025E-01
       -1   -1    0    0    0  501  0.00000000000E+00  0.00000000000E+00  0.50367869310E+03  0.50367869312E+03  0.50400001928E-02 0. -1.
        1   -1    0    0  501    0  0.00000000000E+00  0.00000000000E+00 -0.17911789948E+04  0.17911789948E+04  0.50400001928E-02 0.  1.
    10030    2    1    2    0    0  0.00000000000E+00  0.00000000000E+00 -0.12875003017E+04  0.22948576879E+04  0.18996617544E+04 0.  0.
        4    1    3    3  502    0  0.10549196172E+03  0.20783011903E+03  0.46859692058E+03  0.52336086904E+03  0.12699999809E+01 0. -1.
       -4    1    3    3    0  502 -0.10549196172E+03 -0.20783011903E+03 -0.17560972223E+04  0.17714968189E+04  0.12699999809E+01 0.  1.
</event>
<event>
 5   0  0.3236653E-06  0.1900202E+04  0.7818609E-02  0.8654756E-01
        1   -1    0    0  501    0  0.00000000000E+00  0.00000000000E+00  0.24478186355E+04  0.24478186355E+04  0.50400001928E-02 0.  1.
       -1   -1    0    0    0  501  0.00000000000E+00  0.00000000000E+00 -0.36877408954E+03  0.36877408957E+03  0.50400001928E-02 0. -1.
    10030    2    1    2    0    0  0.00000000000E+00  0.00000000000E+00  0.20790445460E+04  0.28165927251E+04  0.19002021879E+04 0.  0.
        3    1    3    3  502    0  0.12548033142E+03 -0.66682519765E+03  0.20252982982E+04  0.21359387549E+04  0.10100000352E+00 0.  1.
       -3    1    3    3    0  502 -0.12548033142E+03  0.66682519765E+03  0.53746247785E+02  0.68065397020E+03  0.10100000352E+00 0. -1.
</event>
<event>
 5   0  0.7207648E-06  0.1900215E+04  0.7818609E-02  0.8654749E-01
        2   -1    0    0  501    0  0.00000000000E+00  0.00000000000E+00  0.10828331487E+04  0.10828331487E+04  0.25500000920E-02 0. -1.
       -2   -1    0    0    0  501  0.00000000000E+00  0.00000000000E+00 -0.83365031711E+03  0.83365031711E+03  0.25500000920E-02 0.  1.
    10030    2    1    2    0    0  0.00000000000E+00  0.00000000000E+00  0.24918283161E+03  0.19164834658E+04  0.19002149329E+04 0.  0.
        4    1    3    3  502    0  0.36170653557E+03 -0.19705343165E+03  0.98809959797E+03  0.10705158108E+04  0.12699999809E+01 0. -1.
       -4    1    3    3    0  502 -0.36170653557E+03  0.19705343165E+03 -0.73891676637E+03  0.84596765501E+03  0.12699999809E+01 0.  1.
</event>
<event>
 5   0  0.3379108E-06  0.1899903E+04  0.7818609E-02  0.8654905E-01
        1   -1    0    0  501    0  0.00000000000E+00  0.00000000000E+00  0.17553117692E+04  0.17553117692E+04  0.50400001928E-02 0.  1.
       -1   -1    0    0    0  501  0.00000000000E+00  0.00000000000E+00 -0.51410122088E+03  0.51410122090E+03  0.50400001928E-02 0. -1.
    10030    2    1    2    0    0  0.00000000000E+00  0.00000000000E+00  0.12412105483E+04  0.22694129901E+04  0.18999030750E+04 0.  0.
        4    1    3    3  502    0 -0.74301836003E+03 -0.22925361746E+03 -0.31210111800E+02  0.77820896193E+03  0.12699999809E+01 0. -1.
       -4    1    3    3    0  502  0.74301836003E+03  0.22925361746E+03  0.12724206601E+04  0.14912040282E+04  0.12699999809E+01 0.  1.
</event>
<event>
 5   0  0.3398807E-06  0.1900025E+04  0.7818609E-02  0.8654844E-01
        1   -1    0    0  501    0  0.00000000000E+00  0.00000000000E+00  0.11129029141E+04  0.11129029141E+04  0.50400001928E-02 0. -1.
       -1   -1    0    0    0  501  0.00000000000E+00  0.00000000000E+00 -0.81096369749E+03  0.81096369751E+03  0.50400001928E-02 0.  1.
    10030    2    1    2    0    0  0.00000000000E+00  0.00000000000E+00  0.30193921661E+03  0.19238666116E+04  0.19000251179E+04 0.  0.
        1    1    3    3  502    0 -0.33004648257E+03 -0.14996829351E+03 -0.73817361967E+03  0.82238765951E+03  0.50400001928E-02 0.  1.
       -1    1    3    3    0  502  0.33004648257E+03  0.14996829351E+03  0.10401128363E+04  0.11014789521E+04  0.50400001928E-02 0. -1.
</event>
<event>
 5   0  0.3211263E-06  0.1900095E+04  0.7818609E-02  0.8654809E-01
       -1   -1    0    0    0  501  0.00000000000E+00  0.00000000000E+00  0.82003016092E+03  0.82003016094E+03  0.50400001928E-02 0. -1.
        1   -1    0    0  501    0  0.00000000000E+00  0.00000000000E+00 -0.11006788882E+04  0.11006788882E+04  0.50400001928E-02 0.  1.
    10030    2    1    2    0    0  0.00000000000E+00  0.00000000000E+00 -0.28064872732E+03  0.19207090492E+04  0.19000946143E+04 0.  0.
        5    1    3    3  502    0 -0.24578561717E+03 -0.37321307712E+03  0.70714424382E+03  0.83652474088E+03  0.46999998093E+01 0. -1.
       -5    1    3    3    0  502  0.24578561717E+03  0.37321307712E+03 -0.98779297114E+03  0.10841843083E+04  0.46999998093E+01 0.  1.
</event>
<event>
 5   0  0.7207648E-06  0.1897498E+04  0.7818609E-02  0.8656103E-01
        2   -1    0    0  501    0  0.00000000000E+00  0.00000000000E+00  0.92136549497E+03  0.92136549498E+03  0.25500000920E-02 0.  1.
       -2   -1    0    0    0  501  0.00000000000E+00  0.00000000000E+00 -0.97694623644E+03  0.97694623644E+03  0.25500000920E-02 0. -1.
    10030    2    1    2    0    0  0.00000000000E+00  0.00000000000E+00 -0.55580741465E+02  0.18983117314E+04  0.18974978816E+04 0.  0.
        4    1    3    3  502    0  0.42029567866E+03 -0.44413017682E+03 -0.75351371079E+03  0.97040434701E+03  0.12699999809E+01 0. -1.
       -4    1    3    3    0  502 -0.42029567866E+03  0.44413017682E+03  0.69793296932E+03  0.92790738440E+03  0.12699999809E+01 0.  1.
</event>
<event>
 5   0  0.6984466E-06  0.1900557E+04  0.7818609E-02  0.8654579E-01
        2   -1    0    0  501    0  0.00000000000E+00  0.00000000000E+00  0.21016021362E+04  0.21016021362E+04  0.25500000920E-02 0. -1.
       -2   -1    0    0    0  501  0.00000000000E+00  0.00000000000E+00 -0.42968621316E+03  0.42968621317E+03  0.25500000920E-02 0.  1.
    10030    2    1    2    0    0  0.00000000000E+00  0.00000000000E+00  0.16719159230E+04  0.25312883493E+04  0.19005572483E+04 0.  0.
        2    1    3    3  502    0 -0.62549104338E+03 -0.55583124752E+02 -0.11397275712E+03  0.63821494693E+03  0.25500000920E-02 0.  1.
       -2    1    3    3    0  502  0.62549104338E+03  0.55583124752E+02  0.17858886801E+04  0.18930734024E+04  0.25500000920E-02 0. -1.
</event>
<event>
 5   0  0.3211263E-06  0.1900969E+04  0.7818609E-02  0.8654374E-01
       -1   -1    0    0    0  501  0.00000000000E+00  0.00000000000E+00  0.38969574497E+03  0.38969574500E+03  0.50400001928E-02 0. -1.
        1   -1    0    0  501    0  0.00000000000E+00  0.00000000000E+00 -0.23182732489E+04  0.23182732489E+04  0.50400001928E-02 0.  1.
    10030    2    1    2    0    0  0.00000000000E+00  0.00000000000E+00 -0.19285775039E+04  0.27079689939E+04  0.19009694588E+04 0.  0.
        5    1    3    3  502    0 -0.38667241335E+03 -0.50034599653E+03  0.46555951922E+02  0.63407508873E+03  0.46999998093E+01 0. -1.
       -5    1    3    3    0  502  0.38667241335E+03  0.50034599653E+03 -0.19751334558E+04  0.20738939052E+04  0.46999998093E+01 0.  1.
</event>
<event>
 5   0  0.3398807E-06  0.1900542E+04  0.7818609E-02  0.8654587E-01
        1   -1    0    0  501    0  0.00000000000E+00  0.00000000000E+00  0.78640949705E+03  0.78640949707E+03  0.50400001928E-02 0.  1.
       -1   -1    0    0    0  501  0.00000000000E+00  0.00000000000E+00 -0.11482752699E+04  0.11482752699E+04  0.50400001928E-02 0. -1.
    10030    2    1    2    0    0  0.00000000000E+00  0.00000000000E+00 -0.36186577285E+03  0.19346847670E+04  0.19005415833E+04 0.  0.
        1    1    3    3  502    0  0.77248423863E+03 -0.35788532624E+03 -0.61065492392E+03  0.10477181118E+04  0.50400001928E-02 0. -1.
       -1    1    3    3    0  502 -0.77248423863E+03  0.35788532624E+03  0.24878915107E+03  0.88696665517E+03  0.50400001928E-02 0.  1.
</event>
<event>
 5   0  0.6862201E-06  0.1905102E+04  0.7818609E-02  0.8652321E-01
        2   -1    0    0  501    0  0.00000000000E+00  0.00000000000E+00  0.16512648681E+04  0.16512648681E+04  0.25500000920E-02 0. -1.
       -2   -1    0    0    0  501  0.00000000000E+00  0.00000000000E+00 -0.54948984888E+03  0.54948984889E+03  0.25500000920E-02 0.  1.
    10030    2    1    2    0    0  0.00000000000E+00  0.00000000000E+00  0.11017750192E+04  0.22007547170E+04  0.19051018690E+04 0.  0.
        3    1    3    3  502    0 -0.55706132767E+03  0.54898737424E+03 -0.77230879141E+02  0.78591925715E+03  0.10100000352E+00 0.  1.
       -3    1    3    3    0  502  0.55706132767E+03 -0.54898737424E+03  0.11790058984E+04  0.14148354599E+04  0.10100000352E+00 0. -1.
</event>
<event>
 5   0  0.7207648E-06  0.1899548E+04  0.7818609E-02  0.8655082E-01
        2   -1    0    0  501    0  0.00000000000E+00  0.00000000000E+00  0.13193256541E+04  0.13193256541E+04  0.25500000920E-02 0.  1.
       -2   -1    0    0    0  501  0.00000000000E+00  0.00000000000E+00 -0.68373593389E+03  0.68373593389E+03  0.25500000920E-02 0. -1.
    10030    2    1    2    0    0  0.00000000000E+00  0.00000000000E+00  0.63558972021E+03  0.20030615880E+04  0.18995476916E+04 0.  0.
        4    1    3    3  502    0 -0.41416267166E+03  0.51323498412E+03  0.10385072599E+04  0.12302194151E+04  0.12699999809E+01 0.  1.
       -4    1    3    3    0  502  0.41416267166E+03 -0.51323498412E+03 -0.40291753969E+03  0.77284217290E+03  0.12699999809E+01 0. -1.
</event>
<event>
 5   0  0.7207648E-06  0.1899245E+04  0.7818609E-02  0.8655232E-01
        2   -1    0    0  501    0  0.00000000000E+00  0.00000000000E+00  0.74500198834E+03  0.74500198834E+03  0.25500000920E-02 0.  1.
       -2   -1    0    0    0  501  0.00000000000E+00  0.00000000000E+00 -0.12104439180E+04  0.12104439180E+04  0.25500000920E-02 0. -1.
    10030    2    1    2    0    0  0.00000000000E+00  0.00000000000E+00 -0.46544192962E+03  0.19554459063E+04  0.18992452455E+04 0.  0.
        4    1    3    3  502    0  0.33135477592E+03  0.56789410021E+03  0.47274188207E+03  0.80980627099E+03  0.12699999809E+01 0.  1.
       -4    1    3    3    0  502 -0.33135477592E+03 -0.56789410021E+03 -0.93818381169E+03  0.11456396353E+04  0.12699999809E+01 0. -1.
</event>
<event>
 5   0  0.3236653E-06  0.1900041E+04  0.7818609E-02  0.8654836E-01
        1   -1    0    0  501    0  0.00000000000E+00  0.00000000000E+00  0.10333237688E+04  0.10333237688E+04  0.50400001928E-02 0. -1.
       -1   -1    0    0    0  501  0.00000000000E+00  0.00000000000E+00 -0.87343318823E+03  0.87343318824E+03  0.50400001928E-02 0.  1.
    10030    2    1    2    0    0  0.00000000000E+00  0.00000000000E+00  0.15989058059E+03  0.19067569571E+04  0.19000413405E+04 0.  0.
        3    1    3    3  502    0 -0.13912817620E+03 -0.80812239145E+03 -0.40145931525E+03  0.91301042764E+03  0.10100000352E+00 0.  1.
       -3    1    3    3    0  502  0.13912817620E+03  0.80812239145E+03  0.56134989584E+03  0.99374652942E+03  0.10100000352E+00 0. -1.
</event>
<event>
 5   0  0.3236653E-06  0.1900132E+04  0.7818609E-02  0.8654790E-01
       -1   -1    0    0    0  501  0.00000000000E+00  0.00000000000E+00  0.44932010647E+03  0.44932010650E+03  0.50400001928E-02 0. -1.
        1   -1    0    0  501    0  0.00000000000E+00  0.00000000000E+00 -0.20088702980E+04  0.20088702980E+04  0.50400001928E-02 0.  1.
    10030    2    1    2    0    0  0.00000000000E+00  0.00000000000E+00 -0.15595501915E+04  0.24581904045E+04  0.19001324335E+04 0.  0.
        3    1    3    3  502    0  0.86928154724E+03 -0.18809798868E+03 -0.12119436165E+04  0.15032759565E+04  0.10100000352E+00 0.  1.
       -3    1    3    3    0  502 -0.86928154724E+03  0.18809798868E+03 -0.34760657503E+03  0.95491444796E+03  0.10100000352E+00 0. -1.
</event>
<event>
 5   0  0.3236653E-06  0.1899334E+04  0.7818609E-02  0.8655188E-01
        1   -1    0    0  501    0  0.00000000000E+00  0.00000000000E+00  0.17050997850E+04  0.17050997850E+04  0.50400001928E-02 0.  1.
       -1   -1    0    0    0  501  0.00000000000E+00  0.00000000000E+00 -0.52892375755E+03  0.52892375757E+03  0.50400001928E-02 0. -1.
    10030    2    1    2    0    0  0.00000000000E+00  0.00000000000E+00  0.11761760275E+04  0.22340235426E+04  0.18993343943E+04 0.  0.
        3    1    3    3  502    0 -0.43022972531E+03  0.40546775534E+03  0.14622658771E+04  0.15772517943E+04  0.10100000352E+00 0.  1.
       -3    1    3    3    0  502  0.43022972531E+03 -0.40546775534E+03 -0.28608984958E+03  0.65677174832E+03  0.10100000352E+00 0. -1.
</event>
<event>
 5   0  0.3495279E-06  0.1898814E+04  0.7818609E-02  0.8655447E-01
        1   -1    0    0  501    0  0.00000000000E+00  0.00000000000E+00  0.78676463519E+03  0.78676463520E+03  0.50400001928E-02 0. -1.
       -1   -1    0    0    0  501  0.00000000000E+00  0.00000000000E+00 -0.11456708661E+04  0.11456708661E+04  0.50400001928E-02 0.  1.
    10030    2    1    2    0    0  0.00000000000E+00  0.00000000000E+00 -0.35890623089E+03  0.19324355013E+04  0.18988136518E+04 0.  0.
        2    1    3    3  502    0  0.25071065729E+03  0.19235496408E+03 -0.10905803869E+04  0.11354390544E+04  0.25500000920E-02 0.  1.
       -2    1    3    3    0  502 -0.25071065729E+03 -0.19235496408E+03  0.73167415599E+03  0.79699644694E+03  0.25500000920E-02 0. -1.
</event>
<event>
 5   0  0.6862201E-06  0.1899084E+04  0.7818609E-02  0.8655313E-01
        2   -1    0    0  501    0  0.00000000000E+00  0.00000000000E+00  0.21147886002E+04  0.21147886002E+04  0.25500000920E-02 0. -1.
       -2   -1    0    0    0  501  0.00000000000E+00  0.00000000000E+00 -0.42634501564E+03  0.42634501565E+03  0.25500000920E-02 0.  1.
    10030    2    1    2    0    0  0.00000000000E+00  0.00000000000E+00  0.16884435845E+04  0.25411336158E+04  0.18990835462E+04 0.  0.
        3    1    3    3  502    0  0.25389325728E+03  0.91358478228E+03  0.77690900172E+03  0.12258411592E+04  0.10100000352E+00 0. -1.
       -3    1    3    3    0  502 -0.25389325728E+03 -0.91358478228E+03  0.91153458281E+03  0.13152924566E+04  0.10100000352E+00 0.  1.
</event>
<event>
 5   0  0.6862201E-06  0.1897974E+04  0.7818609E-02  0.8655866E-01
       -2   -1    0    0    0  501  0.00000000000E+00  0.00000000000E+00  0.18870600188E+04  0.18870600188E+04  0.25500000920E-02 0. -1.
        2   -1    0    0  501    0  0.00000000000E+00  0.00000000000E+00 -0.47723758439E+03  0.47723758440E+03  0.25500000920E-02 0.  1.
    10030    2    1    2    0    0  0.00000000000E+00  0.00000000000E+00  0.14098224345E+04  0.23642976032E+04  0.18979736194E+04 0.  0.
        3    1    3    3  502    0 -0.64761536024E+02 -0.14178267281E+03 -0.46118212014E+03  0.48681140187E+03  0.10100000352E+00 0.  1.
       -3    1    3    3    0  502  0.64761536024E+02  0.14178267281E+03  0.18710045546E+04  0.18774862014E+04  0.10100000352E+00 0. -1.
</event>
<event>
 5   0  0.3236653E-06  0.1899541E+04  0.7818609E-02  0.8655085E-01
        1   -1    0    0  501    0  0.00000000000E+00  0.00000000000E+00  0.84420900198E+03  0.84420900200E+03  0.50400001928E-02 0.  1.
       -1   -1    0    0    0  501  0.00000000000E+00  0.00000000000E+00 -0.10685321207E+04  0.10685321207E+04  0.50400001928E-02 0. -1.
    10030    2    1    2    0    0  0.00000000000E+00  0.00000000000E+00 -0.22432311867E+03  0.19127411227E+04  0.18995414554E+04 0.  0.
        3    1    3    3  502    0 -0.10855385795E+03  0.31163332336E+03  0.78462529368E+03  0.85119688086E+03  0.10100000352E+00 0.  1.
       -3    1    3    3    0  502  0.10855385795E+03 -0.31163332336E+03 -0.10089484124E+04  0.10615442418E+04  0.10100000352E+00 0. -1.
</event>
<event>
 5   0  0.6984466E-06  0.1900905E+04  0.7818609E-02  0.8654406E-01
       -2   -1    0    0    0  501  0.00000000000E+00  0.00000000000E+00  0.10915047773E+04  0.10915047773E+04  0.25500000920E-02 0. -1.
        2   -1    0    0  501    0  0.00000000000E+00  0.00000000000E+00 -0.82762804137E+03  0.82762804138E+03  0.25500000920E-02 0.  1.
    10030    2    1    2    0    0  0.00000000000E+00  0.00000000000E+00  0.26387673588E+03  0.19191328186E+04  0.19009050065E+04 0.  0.
        2    1    3    3  502    0 -0.62918275183E+03  0.70472820689E+03  0.26789876922E+02  0.94510871242E+03  0.25500000920E-02 0. -1.
       -2    1    3    3    0  502  0.62918275183E+03 -0.70472820689E+03  0.23708685896E+03  0.97402410621E+03  0.25500000920E-02 0.  1.
</event>
<event>
 5   0  0.6870370E-06  0.1900245E+04  0.7818609E-02  0.8654735E-01
       -2   -1    0    0    0  501  0.00000000000E+00  0.00000000000E+00  0.66768502190E+03  0.66768502190E+03  0.25500000920E-02 0. -1.
        2   -1    0    0  501    0  0.00000000000E+00  0.00000000000E+00 -0.13520334271E+04  0.13520334271E+04  0.25500000920E-02 0.  1.
    10030    2    1    2    0    0  0.00000000000E+00  0.00000000000E+00 -0.68434840519E+03  0.20197184490E+04  0.19002446878E+04 0.  0.
        1    1    3    3  502    0  0.29745354763E+03  0.28732651806E+03 -0.12513482701E+04  0.13179179162E+04  0.50400001928E-02 0.  1.
       -1    1    3    3    0  502 -0.29745354763E+03 -0.28732651806E+03  0.56699986486E+03  0.70180053274E+03  0.50400001928E-02 0. -1.
</event>
<event>
 5   0  0.7207648E-06  0.1899881E+04  0.7818609E-02  0.8654915E-01
        2   -1    0    0  501    0  0.00000000000E+00  0.00000000000E+00  0.14850020846E+04  0.14850020846E+04  0.25500000920E-02 0.  1.
       -2   -1    0    0    0  501  0.00000000000E+00  0.00000000000E+00 -0.60766742446E+03  0.60766742446E+03  0.25500000920E-02 0. -1.
    10030    2    1    2    0    0  0.00000000000E+00  0.00000000000E+00  0.87733466018E+03  0.20926695091E+04  0.18998814617E+04 0.  0.
        4    1    3    3  502    0  0.43184589661E+02  0.61968222090E+03 -0.35295043714E+03  0.71445544834E+03  0.12699999809E+01 0. -1.
       -4    1    3    3    0  502 -0.43184589661E+02 -0.61968222090E+03  0.12302850973E+04  0.13782140608E+04  0.12699999809E+01 0.  1.
</event>
<event>
 5   0  0.3211263E-06  0.1899298E+04  0.7818609E-02  0.8655206E-01
        1   -1    0    0  501    0  0.00000000000E+00  0.00000000000E+00  0.17855951499E+04  0.17855951499E+04  0.50400001928E-02 0. -1.
       -1   -1    0    0    0  501  0.00000000000E+00  0.00000000000E+00 -0.50506039066E+03  0.50506039068E+03  0.50400001928E-02 0.  1.
    10030    2    1    2    0    0  0.00000000000E+00  0.00000000000E+00  0.12805347593E+04  0.22906555406E+04  0.18992981693E+04 0.  0.
        5    1    3    3  502    0 -0.83704143695E+03  0.26427301837E+03  0.10773394660E+04  0.13896621929E+04  0.46999998093E+01 0. -1.
       -5    1    3    3    0  502  0.83704143695E+03 -0.26427301837E+03  0.20319529326E+03  0.90099334770E+03  0.46999998093E+01 0.  1.
</event>
<event>
 5   0  0.6870370E-06  0.1899103E+04  0.7818609E-02  0.8655303E-01
       -2   -1    0    0    0  501  0.00000000000E+00  0.00000000000E+00  0.77575108086E+03  0.77575108086E+03  0.25500000920E-02 0. -1.
        2   -1    0    0  501    0  0.00000000000E+00  0.00000000000E+00 -0.11622898680E+04  0.11622898680E+04  0.25500000920E-02 0.  1.
    10030    2    1    2    0    0  0.00000000000E+00  0.00000000000E+00 -0.38653878718E+03  0.19380409489E+04  0.18991025474E+04 0.  0.
        1    1    3    3  502    0 -0.39323005898E+03  0.24990584787E+03 -0.10376180521E+04  0.11374242982E+04  0.50400001928E-02 0.  1.
       -1    1    3    3    0  502  0.39323005898E+03 -0.24990584787E+03  0.65107926493E+03  0.80061665068E+03  0.50400001928E-02 0. -1.
</event>
<event>
 5   0  0.6862201E-06  0.1900087E+04  0.7818609E-02  0.8654813E-01
       -2   -1    0    0    0  501  0.00000000000E+00  0.00000000000E+00  0.12062552192E+04  0.12062552192E+04  0.25500000920E-02 0. -1.
        2   -1    0    0  501    0  0.00000000000E+00  0.00000000000E+00 -0.74825167005E+03  0.74825167006E+03  0.25500000920E-02 0.  1.
    10030    2    1    2    0    0  0.00000000000E+00  0.00000000000E+00  0.45800354912E+03  0.19545068892E+04  0.19000868215E+04 0.  0.
        3    1    3    3  502    0  0.74945415899E+03 -0.48468802628E+03 -0.10586537646E+03  0.89878334840E+03  0.10100000352E+00 0. -1.
       -3    1    3    3    0  502 -0.74945415899E+03  0.48468802628E+03  0.56386892558E+03  0.10557235408E+04  0.10100000352E+00 0.  1.
</event>
<event>
 5   0  0.3379108E-06  0.1897437E+04  0.7818609E-02  0.8656133E-01
       -1   -1    0    0    0  501  0.00000000000E+00  0.00000000000E+00  0.11532316084E+04  0.11532316084E+04  0.50400001928E-02 0. -1.
        1   -1    0    0  501    0  0.00000000000E+00  0.00000000000E+00 -0.78047372855E+03  0.78047372857E+03  0.50400001928E-02 0.  1.
    10030    2    1    2    0    0  0.00000000000E+00  0.00000000000E+00  0.37275787986E+03  0.19337053370E+04  0.18974371909E+04 0.  0.
        4    1    3    3  502    0 -0.14403746023E+03 -0.77625479462E+03  0.72250188971E+03  0.10702003970E+04  0.12699999809E+01 0. -1.
       -4    1    3    3    0  502  0.14403746023E+03  0.77625479462E+03 -0.34974400985E+03  0.86350494003E+03  0.12699999809E+01 0.  1.
</event>
<event>
 5   0  0.7577180E-06  0.1911939E+04  0.7818609E-02  0.8648936E-01
       -2   -1    0    0    0  501  0.00000000000E+00  0.00000000000E+00  0.12378096437E+04  0.12378096437E+04  0.25500000920E-02 0.  1.
        2   -1    0    0  501    0  0.00000000000E+00  0.00000000000E+00 -0.73830225635E+03  0.73830225636E+03  0.25500000920E-02 0. -1.
    10030    2    1    2    0    0  0.00000000000E+00  0.00000000000E+00  0.49950738734E+03  0.19761119001E+04  0.19119389665E+04 0.  0.
        5    1    3    3  502    0 -0.51585400837E+03  0.49237027465E+03  0.90777119718E+03  0.11543848932E+04  0.46999998093E+01 0.  1.
       -5    1    3    3    0  502  0.51585400837E+03 -0.49237027465E+03 -0.40826380983E+03  0.82172700682E+03  0.46999998093E+01 0. -1.
</event>
<event>
 5   0  0.6984466E-06  0.1901124E+04  0.7818609E-02  0.8654297E-01
       -2   -1    0    0    0  501  0.00000000000E+00  0.00000000000E+00  0.49404335860E+03  0.49404335861E+03  0.25500000920E-02 0. -1.
        2   -1    0    0  501    0  0.00000000000E+00  0.00000000000E+00 -0.18289245857E+04  0.18289245857E+04  0.25500000920E-02 0.  1.
    10030    2    1    2    0    0  0.00000000000E+00  0.00000000000E+00 -0.13348812271E+04  0.23229679443E+04  0.19011239254E+04 0.  0.
        2    1    3    3  502    0 -0.20396742218E+03 -0.17054305403E+02  0.46679794309E+03  0.50969979235E+03  0.25500000920E-02 0. -1.
       -2    1    3    3    0  502  0.20396742218E+03  0.17054305403E+02 -0.18016791702E+04  0.18132681520E+04  0.25500000920E-02 0.  1.
</event>
<event>
 5   0  0.6984466E-06  0.1899576E+04  0.7818609E-02  0.8655067E-01
       -2   -1    0    0    0  501  0.00000000000E+00  0.00000000000E+00  0.57286678420E+03  0.57286678421E+03  0.25500000920E-02 0. -1.
        2   -1    0    0  501    0  0.00000000000E+00  0.00000000000E+00 -0.15747074436E+04  0.15747074436E+04  0.25500000920E-02 0.  1.
    10030    2    1    2    0    0  0.00000000000E+00  0.00000000000E+00 -0.10018406594E+04  0.21475742278E+04  0.18995763626E+04 0.  0.
        2    1    3    3  502    0 -0.12227583509E+02  0.92840423541E+03 -0.72706977017E+03  0.11792855417E+04  0.25500000920E-02 0. -1.
       -2    1    3    3    0  502  0.12227583509E+02 -0.92840423541E+03 -0.27477088925E+03  0.96828868614E+03  0.25500000920E-02 0.  1.
</event>
<event>
 5   0  0.3236653E-06  0.1900081E+04  0.7818609E-02  0.8654816E-01
        1   -1    0    0  501    0  0.00000000000E+00  0.00000000000E+00  0.11678176202E+04  0.11678176202E+04  0.50400001928E-02 0. -1.
       -1   -1    0    0    0  501  0.00000000000E+00  0.00000000000E+00 -0.77287507498E+03  0.77287507500E+03  0.50400001928E-02 0.  1.
    10030    2    1    2    0    0  0.00000000000E+00  0.00000000000E+00  0.39494254526E+03  0.19406926952E+04  0.19000811886E+04 0.  0.
        3    1    3    3  502    0 -0.68844608688E+02 -0.81522137074E+03 -0.29581267373E+03  0.86996012069E+03  0.10100000352E+00 0.  1.
       -3    1    3    3    0  502  0.68844608688E+02  0.81522137074E+03  0.69075521898E+03  0.10707325746E+04  0.10100000352E+00 0. -1.
</event>
<event>
 5   0  0.3495279E-06  0.1900140E+04  0.7818609E-02  0.8654787E-01
        1   -1    0    0  501    0  0.00000000000E+00  0.00000000000E+00  0.88433617348E+03  0.88433617350E+03  0.50400001928E-02 0. -1.
       -1   -1    0    0    0  501  0.00000000000E+00  0.00000000000E+00 -0.10206899070E+04  0.10206899070E+04  0.50400001928E-02 0.  1.
    10030    2    1    2    0    0  0.00000000000E+00  0.00000000000E+00 -0.13635373354E+03  0.19050260805E+04  0.19001400019E+04 0.  0.
        2    1    3    3  502    0 -0.67536983198E+03  0.86865384655E+02 -0.73242337993E+03  0.10000570046E+04  0.25500000920E-02 0.  1.
       -2    1    3    3    0  502  0.67536983198E+03 -0.86865384655E+02  0.59606964639E+03  0.90496907591E+03  0.25500000920E-02 0. -1.
</event>
<event>
 5   0  0.6870370E-06  0.1899584E+04  0.7818609E-02  0.8655063E-01
       -2   -1    0    0    0  501  0.00000000000E+00  0.00000000000E+00  0.10444694080E+04  0.10444694080E+04  0.25500000920E-02 0. -1.
        2   -1    0    0  501    0  0.00000000000E+00  0.00000000000E+00 -0.86369673168E+03  0.86369673168E+03  0.25500000920E-02 0.  1.
    10030    2    1    2    0    0  0.00000000000E+00  0.00000000000E+00  0.18077267631E+03  0.19081661397E+04  0.18995839692E+04 0.  0.
        1    1    3    3  502    0 -0.77969920172E+03 -0.54163427514E+03  0.11890970956E+03  0.95678526965E+03  0.50400001928E-02 0.  1.
       -1    1    3    3    0  502  0.77969920172E+03  0.54163427514E+03  0.61862966745E+02  0.95138087002E+03  0.50400001928E-02 0. -1.
</event>
<event>
 5   0  0.3495279E-06  0.1900183E+04  0.7818609E-02  0.8654765E-01
        1   -1    0    0  501    0  0.00000000000E+00  0.00000000000E+00  0.81090965245E+03  0.81090965246E+03  0.50400001928E-02 0. -1.
       -1   -1    0    0    0  501  0.00000000000E+00  0.00000000000E+00 -0.11131624730E+04  0.11131624730E+04  0.50400001928E-02 0.  1.
    10030    2    1    2    0    0  0.00000000000E+00  0.00000000000E+00 -0.30225282059E+03  0.19240721255E+04  0.19001833534E+04 0.  0.
        2    1    3    3  502    0 -0.27721842009E+03 -0.85259635090E+03 -0.46956955041E+03  0.10120603503E+04  0.25500000920E-02 0.  1.
       -2    1    3    3    0  502  0.27721842009E+03  0.85259635090E+03  0.16731672982E+03  0.91201177519E+03  0.25500000920E-02 0. -1.
</event>
<event>
 5   0  0.3211263E-06  0.1897680E+04  0.7818609E-02  0.8656012E-01
       -1   -1    0    0    0  501  0.00000000000E+00  0.00000000000E+00  0.17768085188E+04  0.17768085188E+04  0.50400001928E-02 0. -1.
        1   -1    0    0  501    0  0.00000000000E+00  0.00000000000E+00 -0.50669331499E+03  0.50669331501E+03  0.50400001928E-02 0.  1.
    10030    2    1    2    0    0  0.00000000000E+00  0.00000000000E+00  0.12701152038E+04  0.22835018338E+04  0.18976796342E+04 0.  0.
        5    1    3    3  502    0  0.66476625777E+03  0.91174427623E+02  0.14423072496E+04  0.15907543009E+04  0.46999998093E+01 0. -1.
       -5    1    3    3    0  502 -0.66476625777E+03 -0.91174427623E+02 -0.17219204576E+03  0.69274753290E+03  0.46999998093E+01 0.  1.
</event>
<event>
 5   0  0.7577180E-06  0.1900210E+04  0.7818609E-02  0.8654752E-01
       -2   -1    0    0    0  501  0.00000000000E+00  0.00000000000E+00  0.51719318743E+03  0.51719318743E+03  0.25500000920E-02 0. -1.
        2   -1    0    0  501    0  0.00000000000E+00  0.00000000000E+00 -0.17453816930E+04  0.17453816930E+04  0.25500000920E-02 0.  1.
    10030    2    1    2    0    0  0.00000000000E+00  0.00000000000E+00 -0.12281885056E+04  0.22625748804E+04  0.19002100106E+04 0.  0.
        5    1    3    3  502    0 -0.18203187202E+02  0.44442399697E+02 -0.17439216355E+04  0.17445891332E+04  0.46999998093E+01 0.  1.
       -5    1    3    3    0  502  0.18203187202E+02 -0.44442399697E+02  0.51573312999E+03  0.51798574718E+03  0.46999998093E+01 0. -1.
</event>
<event>
 5   0  0.3495279E-06  0.1900466E+04  0.7818609E-02  0.8654624E-01
       -1   -1    0    0    0  501  0.00000000000E+00  0.00000000000E+00  0.64541256019E+03  0.64541256021E+03  0.50400001928E-02 0. -1.
        1   -1    0    0  501    0  0.00000000000E+00  0.00000000000E+00 -0.13990171098E+04  0.13990171098E+04  0.50400001928E-02 0.  1.
    10030    2    1    2    0    0  0.00000000000E+00  0.00000000000E+00 -0.75360454960E+03  0.20444296700E+04  0.19004664844E+04 0.  0.
        2    1    3    3  502    0  0.66232923357E+03 -0.33417031908E+01  0.35617222809E+03  0.75203047591E+03  0.25500000920E-02 0. -1.
       -2    1    3    3    0  502 -0.66232923357E+03  0.33417031908E+01 -0.11097767777E+04  0.12923991941E+04  0.25500000920E-02 0.  1.
</event>
<event>
 5   0  0.3236653E-06  0.1900045E+04  0.7818609E-02  0.8654834E-01
       -1   -1    0    0    0  501  0.00000000000E+00  0.00000000000E+00  0.13001766557E+04  0.13001766557E+04  0.50400001928E-02 0. -1.
        1   -1    0    0  501    0  0.00000000000E+00  0.00000000000E+00 -0.69416956619E+03  0.69416956621E+03  0.50400001928E-02 0.  1.
    10030    2    1    2    0    0  0.00000000000E+00  0.00000000000E+00  0.60600708952E+03  0.19943462219E+04  0.19000453311E+04 0.  0.
        3    1    3    3  502    0  0.25525961373E+03 -0.31724539940E+03 -0.59793256641E+03  0.72341238448E+03  0.10100000352E+00 0.  1.
       -3    1    3    3    0  502 -0.25525961373E+03  0.31724539940E+03  0.12039396559E+04  0.12709338374E+04  0.10100000352E+00 0. -1.
</event>
<event>
 5   0  0.3211263E-06  0.1899608E+04  0.7818609E-02  0.8655051E-01
       -1   -1    0    0    0  501  0.00000000000E+00  0.00000000000E+00  0.14131793692E+04  0.14131793693E+04  0.50400001928E-02 0.  1.
        1   -1    0    0  501    0  0.00000000000E+00  0.00000000000E+00 -0.63836764516E+03  0.63836764518E+03  0.50400001928E-02 0. -1.
    10030    2    1    2    0    0  0.00000000000E+00  0.00000000000E+00  0.77481172408E+03  0.20515470144E+04  0.18996083661E+04 0.  0.
        5    1    3    3  502    0  0.40283877915E+03  0.40181235790E+03  0.12087433531E+04  0.13359696241E+04  0.46999998093E+01 0.  1.
       -5    1    3    3    0  502 -0.40283877915E+03 -0.40181235790E+03 -0.43393162898E+03  0.71557739034E+03  0.46999998093E+01 0. -1.
</event>
<event>
 5   0  0.6984466E-06  0.1900326E+04  0.7818609E-02  0.8654694E-01
       -2   -1    0    0    0  501  0.00000000000E+00  0.00000000000E+00  0.87054665920E+03  0.87054665920E+03  0.25500000920E-02 0. -1.
        2   -1    0    0  501    0  0.00000000000E+00  0.00000000000E+00 -0.10370604937E+04  0.10370604937E+04  0.25500000920E-02 0.  1.
    10030    2    1    2    0    0  0.00000000000E+00  0.00000000000E+00 -0.16651383447E+03  0.19076071529E+04  0.19003258122E+04 0.  0.
        2    1    3    3  502    0  0.36677128382E+03  0.12966944730E+03 -0.95345458392E+03  0.10297625861E+04  0.25500000920E-02 0.  1.
       -2    1    3    3    0  502 -0.36677128382E+03 -0.12966944730E+03  0.78694074945E+03  0.87784456674E+03  0.25500000920E-02 0. -1.
</event>
<event>
 5   0  0.6870370E-06  0.1900463E+04  0.7818609E-02  0.8654626E-01
        2   -1    0    0  501    0  0.00000000000E+00  0.00000000000E+00  0.30908103473E+04  0.30908103473E+04  0.25500000920E-02 0.  1.
       -2   -1    0    0    0  501  0.00000000000E+00  0.00000000000E+00 -0.29213680537E+03  0.29213680538E+03  0.25500000920E-02 0. -1.
    10030    2    1    2    0    0  0.00000000000E+00  0.00000000000E+00  0.27986735419E+04  0.33829471526E+04  0.19004625341E+04 0.  0.
        1    1    3    3  502    0 -0.28901246126E+03  0.26408651211E+03  0.29405787984E+04  0.29665255027E+04  0.50400001928E-02 0.  1.
       -1    1    3    3    0  502  0.28901246126E+03 -0.26408651211E+03 -0.14190525654E+03  0.41642164989E+03  0.50400001928E-02 0. -1.
</event>
<event>
 5   0  0.3236653E-06  0.1899950E+04  0.7818609E-02  0.8654881E-01
        1   -1    0    0  501    0  0.00000000000E+00  0.00000000000E+00  0.13532764583E+04  0.13532764583E+04  0.50400001928E-02 0. -1.
       -1   -1    0    0    0  501  0.00000000000E+00  0.00000000000E+00 -0.66686476409E+03  0.66686476411E+03  0.50400001928E-02 0.  1.
    10030    2    1    2    0    0  0.00000000000E+00  0.00000000000E+00  0.68641169422E+03  0.20201412224E+04  0.18999498795E+04 0.  0.
        3    1    3    3  502    0  0.41442148106E+03 -0.25752154144E+03 -0.52345881084E+03  0.71559181460E+03  0.10100000352E+00 0.  1.
       -3    1    3    3    0  502 -0.41442148106E+03  0.25752154144E+03  0.12098705051E+04  0.13045494078E+04  0.10100000352E+00 0. -1.
</event>
<event>
 5   0  0.6870370E-06  0.1899248E+04  0.7818609E-02  0.8655231E-01
       -2   -1    0    0    0  501  0.00000000000E+00  0.00000000000E+00  0.49486710531E+03  0.49486710532E+03  0.25500000920E-02 0.  1.
        2   -1    0    0  501    0  0.00000000000E+00  0.00000000000E+00 -0.18222788961E+04  0.18222788961E+04  0.25500000920E-02 0. -1.
    10030    2    1    2    0    0  0.00000000000E+00  0.00000000000E+00 -0.13274117908E+04  0.23171460015E+04  0.18992481485E+04 0.  0.
        1    1    3    3  502    0  0.83265308799E+03  0.26350019887E+03 -0.20877518318E+03  0.89795912873E+03  0.50400001928E-02 0.  1.
       -1    1    3    3    0  502 -0.83265308799E+03 -0.26350019887E+03 -0.11186366077E+04  0.14191868727E+04  0.50400001928E-02 0. -1.
</event>
<event>
 5   0  0.6870370E-06  0.1898805E+04  0.7818609E-02  0.8655451E-01
        2   -1    0    0  501    0  0.00000000000E+00  0.00000000000E+00  0.14298869284E+04  0.14298869284E+04  0.25500000920E-02 0.  1.
       -2   -1    0    0    0  501  0.00000000000E+00  0.00000000000E+00 -0.63037509567E+03  0.63037509567E+03  0.25500000920E-02 0. -1.
    10030    2    1    2    0    0  0.00000000000E+00  0.00000000000E+00  0.79951183269E+03  0.20602620240E+04  0.18988050024E+04 0.  0.
        1    1    3    3  502    0 -0.69210905179E+03  0.27277776010E+03  0.10397792493E+04  0.12785005019E+04  0.50400001928E-02 0.  1.
       -1    1    3    3    0  502  0.69210905179E+03 -0.27277776010E+03 -0.24026741664E+03  0.78176152214E+03  0.50400001928E-02 0. -1.
</event>
<event>
 5   0  0.7577180E-06  0.1900396E+04  0.7818609E-02  0.8654659E-01
        2   -1    0    0  501    0  0.00000000000E+00  0.00000000000E+00  0.12776787987E+04  0.12776787987E+04  0.25500000920E-02 0.  1.
       -2   -1    0    0    0  501  0.00000000000E+00  0.00000000000E+00 -0.70665369973E+03  0.70665369973E+03  0.25500000920E-02 0. -1.
    10030    2    1    2    0    0  0.00000000000E+00  0.00000000000E+00  0.57102509897E+03  0.19843324984E+04  0.19003962220E+04 0.  0.
        5    1    3    3  502    0 -0.47213912241E+03 -0.29849596492E+03 -0.51709811452E+03  0.76120151210E+03  0.46999998093E+01 0. -1.
       -5    1    3    3    0  502  0.47213912241E+03  0.29849596492E+03  0.10881232135E+04  0.12231309863E+04  0.46999998093E+01 0.  1.
</event>
<event>
 5   0  0.6862201E-06  0.1899871E+04  0.7818609E-02  0.8654921E-01
       -2   -1    0    0    0  501  0.00000000000E+00  0.00000000000E+00  0.47849166892E+03  0.47849166893E+03  0.25500000920E-02 0.  1.
        2   -1    0    0  501    0  0.00000000000E+00  0.00000000000E+00 -0.18858784626E+04  0.18858784626E+04  0.25500000920E-02 0. -1.
    10030    2    1    2    0    0  0.00000000000E+00  0.00000000000E+00 -0.14073867937E+04  0.23643701316E+04  0.18998706619E+04 0.  0.
        3    1    3    3  502    0 -0.80374838603E+03 -0.31461126325E+03 -0.11974053703E+04  0.14760661727E+04  0.10100000352E+00 0. -1.
       -3    1    3    3    0  502  0.80374838603E+03  0.31461126325E+03 -0.20998142339E+03  0.88830395889E+03  0.10100000352E+00 0.  1.
</event>
<event>
 5   0  0.3398807E-06  0.1899898E+04  0.7818609E-02  0.8654907E-01
        1   -1    0    0  501    0  0.00000000000E+00  0.00000000000E+00  0.26611394510E+04  0.26611394510E+04  0.50400001928E-02 0. -1.
       -1   -1    0    0    0  501  0.00000000000E+00  0.00000000000E+00 -0.33910419727E+03  0.33910419731E+03  0.50400001928E-02 0.  1.
    10030    2    1    2    0    0  0.00000000000E+00  0.00000000000E+00  0.23220352538E+04  0.30002436483E+04  0.18998984788E+04 0.  0.
        1    1    3    3  502    0 -0.36284818496E+03 -0.58959994356E+03  0.13381483250E+03  0.70511935741E+03  0.50400001928E-02 0.  1.
       -1    1    3    3    0  502  0.36284818496E+03  0.58959994356E+03  0.21882204213E+04  0.22951242909E+04  0.50400001928E-02 0. -1.
</event>
<event>
 5   0  0.3398807E-06  0.1899561E+04  0.7818609E-02  0.8655075E-01
        1   -1    0    0  501    0  0.00000000000E+00  0.00000000000E+00  0.11799571816E+04  0.11799571816E+04  0.50400001928E-02 0. -1.
       -1   -1    0    0    0  501  0.00000000000E+00  0.00000000000E+00 -0.76450519218E+03  0.76450519220E+03  0.50400001928E-02 0.  1.
    10030    2    1    2    0    0  0.00000000000E+00  0.00000000000E+00  0.41545198945E+03  0.19444623738E+04  0.18995614146E+04 0.  0.
        1    1    3    3  502    0 -0.85022220771E+03  0.42024824765E+03  0.25989134891E+03  0.98337678710E+03  0.50400001928E-02 0. -1.
       -1    1    3    3    0  502  0.85022220771E+03 -0.42024824765E+03  0.15556064055E+03  0.96108558675E+03  0.50400001928E-02 0.  1.
</event>
<event>
 5   0  0.3398807E-06  0.1898831E+04  0.7818609E-02  0.8655438E-01
        1   -1    0    0  501    0  0.00000000000E+00  0.00000000000E+00  0.75252031803E+03  0.75252031804E+03  0.50400001928E-02 0. -1.
       -1   -1    0    0    0  501  0.00000000000E+00  0.00000000000E+00 -0.11978281735E+04  0.11978281735E+04  0.50400001928E-02 0.  1.
    10030    2    1    2    0    0  0.00000000000E+00  0.00000000000E+00 -0.44530785551E+03  0.19503484916E+04  0.18988312596E+04 0.  0.
        1    1    3    3  502    0  0.58095748080E+02  0.31977725051E+03 -0.11389085907E+04  0.11843755249E+04  0.50400001928E-02 0.  1.
       -1    1    3    3    0  502 -0.58095748080E+02 -0.31977725051E+03  0.69360073519E+03  0.76597296673E+03  0.50400001928E-02 0. -1.
</event>
<event>
 5   0  0.7577180E-06  0.1898577E+04  0.7818609E-02  0.8655565E-01
        2   -1    0    0  501    0  0.00000000000E+00  0.00000000000E+00  0.67661774247E+03  0.67661774247E+03  0.25500000920E-02 0.  1.
       -2   -1    0    0    0  501  0.00000000000E+00  0.00000000000E+00 -0.13318425765E+04  0.13318425765E+04  0.25500000920E-02 0. -1.
    10030    2    1    2    0    0  0.00000000000E+00  0.00000000000E+00 -0.65522483405E+03  0.20084603190E+04  0.18985766431E+04 0.  0.
        5    1    3    3  502    0  0.71525438841E+03 -0.59850062348E+03 -0.51487273282E+03  0.10653205421E+04  0.46999998093E+01 0. -1.
       -5    1    3    3    0  502 -0.71525438841E+03  0.59850062348E+03 -0.14035210124E+03  0.94313977689E+03  0.46999998093E+01 0.  1.
</event>
<event>
 5   0  0.6870370E-06  0.1893843E+04  0.7818609E-02  0.8657927E-01
       -2   -1    0    0    0  501  0.00000000000E+00  0.00000000000E+00  0.18780626310E+04  0.18780626310E+04  0.25500000920E-02 0.  1.
        2   -1    0    0  501    0  0.00000000000E+00  0.00000000000E+00 -0.47743902667E+03  0.47743902668E+03  0.25500000920E-02 0. -1.
    10030    2    1    2    0    0  0.00000000000E+00  0.00000000000E+00  0.14006236043E+04  0.23555016577E+04  0.18938430712E+04 0.  0.
        1    1    3    3  502    0  0.57498466941E+03 -0.35408301537E+03 -0.12534626639E+03  0.68679970760E+03  0.50400001928E-02 0. -1.
       -1    1    3    3    0  502 -0.57498466941E+03  0.35408301537E+03  0.15259698707E+04  0.16687019501E+04  0.50400001928E-02 0.  1.
</event>
<event>
 5   0  0.3211263E-06  0.1900397E+04  0.7818609E-02  0.8654659E-01
        1   -1    0    0  501    0  0.00000000000E+00  0.00000000000E+00  0.10358365519E+04  0.10358365519E+04  0.50400001928E-02 0.  1.
       -1   -1    0    0    0  501  0.00000000000E+00  0.00000000000E+00 -0.87164082417E+03  0.87164082419E+03  0.50400001928E-02 0. -1.
    10030    2    1    2    0    0  0.00000000000E+00  0.00000000000E+00  0.16419572776E+03  0.19074773761E+04  0.19003972489E+04 0.  0.
        5    1    3    3  502    0 -0.20206186026E+03 -0.76322792577E+03 -0.44855836814E+03  0.90805977869E+03  0.46999998093E+01 0. -1.
       -5    1    3    3    0  502  0.20206186026E+03  0.76322792577E+03  0.61275409591E+03  0.99941759745E+03  0.46999998093E+01 0.  1.
</event>
<event>
 5   0  0.3236653E-06  0.1900563E+04  0.7818609E-02  0.8654576E-01
        1   -1    0    0  501    0  0.00000000000E+00  0.00000000000E+00  0.17631857702E+04  0.17631857702E+04  0.50400001928E-02 0. -1.
       -1   -1    0    0    0  501  0.00000000000E+00  0.00000000000E+00 -0.51216070199E+03  0.51216070202E+03  0.50400001928E-02 0.  1.
    10030    2    1    2    0    0  0.00000000000E+00  0.00000000000E+00  0.12510250682E+04  0.22753464722E+04  0.19005625081E+04 0.  0.
        3    1    3    3  502    0 -0.84361416215E+03 -0.43238785261E+03  0.70483835098E+03  0.11812879500E+04  0.10100000352E+00 0.  1.
       -3    1    3    3    0  502  0.84361416215E+03  0.43238785261E+03  0.54618671718E+03  0.10940585222E+04  0.10100000352E+00 0. -1.
</event>
<event>
 5   0  0.6870370E-06  0.1895292E+04  0.7818609E-02  0.8657203E-01
       -2   -1    0    0    0  501  0.00000000000E+00  0.00000000000E+00  0.52043089171E+03  0.52043089171E+03  0.25500000920E-02 0. -1.
        2   -1    0    0  501    0  0.00000000000E+00  0.00000000000E+00 -0.17255569913E+04  0.17255569913E+04  0.25500000920E-02 0.  1.
    10030    2    1    2    0    0  0.00000000000E+00  0.00000000000E+00 -0.12051260996E+04  0.22459878830E+04  0.18952922347E+04 0.  0.
        1    1    3    3  502    0 -0.74109147445E+03 -0.25269279939E+03 -0.12351575569E+04  0.14624241570E+04  0.50400001928E-02 0.  1.
       -1    1    3    3    0  502  0.74109147445E+03  0.25269279939E+03  0.30031457328E+02  0.78356372607E+03  0.50400001928E-02 0. -1.
</event>
<event>
 5   0  0.3236653E-06  0.1899811E+04  0.7818609E-02  0.8654950E-01
        1   -1    0    0  501    0  0.00000000000E+00  0.00000000000E+00  0.80191904998E+03  0.80191905000E+03  0.50400001928E-02 0.  1.
       -1   -1    0    0    0  501  0.00000000000E+00  0.00000000000E+00 -0.11252019659E+04  0.11252019659E+04  0.50400001928E-02 0. -1.
    10030    2    1    2    0    0  0.00000000000E+00  0.00000000000E+00 -0.32328291588E+03  0.19271210159E+04  0.18998114554E+04 0.  0.
        3    1    3    3  502    0 -0.17151651798E+03 -0.22774192219E+03  0.75749446376E+03  0.80937146718E+03  0.10100000352E+00 0.  1.
       -3    1    3    3    0  502  0.17151651798E+03  0.22774192219E+03 -0.10807773796E+04  0.11177495487E+04  0.10100000352E+00 0. -1.
</event>
<event>
 5   0  0.3495279E-06  0.1899899E+04  0.7818609E-02  0.8654906E-01
       -1   -1    0    0    0  501  0.00000000000E+00  0.00000000000E+00  0.71188972300E+03  0.71188972302E+03  0.50400001928E-02 0.  1.
        1   -1    0    0  501    0  0.00000000000E+00  0.00000000000E+00 -0.12676183013E+04  0.12676183014E+04  0.50400001928E-02 0. -1.
    10030    2    1    2    0    0  0.00000000000E+00  0.00000000000E+00 -0.55572857834E+03  0.19795080244E+04  0.18998994094E+04 0.  0.
        2    1    3    3  502    0  0.16488147640E+03 -0.12606355810E+03 -0.12437055759E+04  0.12609050247E+04  0.25500000920E-02 0. -1.
       -2    1    3    3    0  502 -0.16488147640E+03  0.12606355810E+03  0.68797699754E+03  0.71860299964E+03  0.25500000920E-02 0.  1.
</event>
<event>
 5   0  0.3379108E-06  0.1901072E+04  0.7818609E-02  0.8654323E-01
        1   -1    0    0  501    0  0.00000000000E+00  0.00000000000E+00  0.13016421114E+04  0.13016421114E+04  0.50400001928E-02 0. -1.
       -1   -1    0    0    0  501  0.00000000000E+00  0.00000000000E+00 -0.69413744820E+03  0.69413744822E+03  0.50400001928E-02 0.  1.
    10030    2    1    2    0    0  0.00000000000E+00  0.00000000000E+00  0.60750466321E+03  0.19957795596E+04  0.19010718384E+04 0.  0.
        4    1    3    3  502    0  0.76468305708E+03 -0.34459282556E+03  0.77328342040E+03  0.11408125413E+04  0.12699999809E+01 0. -1.
       -4    1    3    3    0  502 -0.76468305708E+03  0.34459282556E+03 -0.16577875719E+03  0.85496701834E+03  0.12699999809E+01 0.  1.
</event>
<event>
 5   0  0.3379108E-06  0.1900180E+04  0.7818609E-02  0.8654767E-01
        1   -1    0    0  501    0  0.00000000000E+00  0.00000000000E+00  0.13625625090E+04  0.13625625090E+04  0.50400001928E-02 0. -1.
       -1   -1    0    0    0  501  0.00000000000E+00  0.00000000000E+00 -0.66248054358E+03  0.66248054360E+03  0.50400001928E-02 0.  1.
    10030    2    1    2    0    0  0.00000000000E+00  0.00000000000E+00  0.70008196537E+03  0.20250430526E+04  0.19001801511E+04 0.  0.
        4    1    3    3  502    0 -0.87917189782E+03 -0.21383504161E+02  0.73320681619E+03  0.11449866062E+04  0.12699999809E+01 0. -1.
       -4    1    3    3    0  502  0.87917189782E+03  0.21383504161E+02 -0.33124850819E+02  0.88005644637E+03  0.12699999809E+01 0.  1.
</event>
<event>
 5   0  0.3398807E-06  0.1899324E+04  0.7818609E-02  0.8655193E-01
        1   -1    0    0  501    0  0.00000000000E+00  0.00000000000E+00  0.13911368763E+04  0.13911368763E+04  0.50400001928E-02 0.  1.
       -1   -1    0    0    0  501  0.00000000000E+00  0.00000000000E+00 -0.64828855803E+03  0.64828855805E+03  0.50400001928E-02 0. -1.
    10030    2    1    2    0    0  0.00000000000E+00  0.00000000000E+00  0.74284831830E+03  0.20394254344E+04  0.18993242162E+04 0.  0.
        1    1    3    3  502    0  0.60170902989E+03 -0.30343452024E+03 -0.34706086931E+03  0.75800891272E+03  0.50400001928E-02 0. -1.
       -1    1    3    3    0  502 -0.60170902989E+03  0.30343452024E+03  0.10899091876E+04  0.12814165217E+04  0.50400001928E-02 0.  1.
</event>
<event>
 5   0  0.3236653E-06  0.1899409E+04  0.7818609E-02  0.8655151E-01
       -1   -1    0    0    0  501  0.00000000000E+00  0.00000000000E+00  0.72436410282E+03  0.72436410284E+03  0.50400001928E-02 0. -1.
        1   -1    0    0  501    0  0.00000000000E+00  0.00000000000E+00 -0.12451455315E+04  0.12451455315E+04  0.50400001928E-02 0.  1.
    10030    2    1    2    0    0  0.00000000000E+00  0.00000000000E+00 -0.52078142868E+03  0.19695096344E+04  0.18994090932E+04 0.  0.
        3    1    3    3  502    0 -0.84053797153E+03 -0.35053359031E+03  0.18922019803E+02  0.91089842054E+03  0.10100000352E+00 0.  1.
       -3    1    3    3    0  502  0.84053797153E+03  0.35053359031E+03 -0.53970344849E+03  0.10586112138E+04  0.10100000352E+00 0. -1.
</event>
<event>
 5   0  0.3379108E-06  0.1900955E+04  0.7818609E-02  0.8654381E-01
        1   -1    0    0  501    0  0.00000000000E+00  0.00000000000E+00  0.10274728472E+04  0.10274728472E+04  0.50400001928E-02 0.  1.
       -1   -1    0    0    0  501  0.00000000000E+00  0.00000000000E+00 -0.87925236391E+03  0.87925236393E+03  0.50400001928E-02 0. -1.
    10030    2    1    2    0    0  0.00000000000E+00  0.00000000000E+00  0.14822048324E+03  0.19067252111E+04  0.19009554753E+04 0.  0.
        4    1    3    3  502    0  0.80234571156E+03  0.35808042000E+03 -0.28951745583E+03  0.92509577784E+03  0.12699999809E+01 0. -1.
       -4    1    3    3    0  502 -0.80234571156E+03 -0.35808042000E+03  0.43773793907E+03  0.98162943326E+03  0.12699999809E+01 0.  1.
</event>
<event>
 5   0  0.6862201E-06  0.1899555E+04  0.7818609E-02  0.8655078E-01
       -2   -1    0    0    0  501  0.00000000000E+00  0.00000000000E+00  0.80361379680E+03  0.80361379681E+03  0.25500000920E-02 0. -1.
        2   -1    0    0  501    0  0.00000000000E+00  0.00000000000E+00 -0.11225263086E+04  0.11225263086E+04  0.25500000920E-02 0.  1.
    10030    2    1    2    0    0  0.00000000000E+00  0.00000000000E+00 -0.31891251178E+03  0.19261401054E+04  0.18995553468E+04 0.  0.
        3    1    3    3  502    0  0.82776813130E+03  0.22083531268E+03  0.25629330319E+03  0.89423407561E+03  0.10100000352E+00 0. -1.
       -3    1    3    3    0  502 -0.82776813130E+03 -0.22083531268E+03 -0.57520581497E+03  0.10319060298E+04  0.10100000352E+00 0.  1.
</event>
<event>
 5   0  0.3495279E-06  0.1900267E+04  0.7818609E-02  0.8654723E-01
        1   -1    0    0  501    0  0.00000000000E+00  0.00000000000E+00  0.62284881824E+03  0.62284881826E+03  0.50400001928E-02 0.  1.
       -1   -1    0    0    0  501  0.00000000000E+00  0.00000000000E+00 -0.14493951275E+04  0.14493951275E+04  0.50400001928E-02 0. -1.
    10030    2    1    2    0    0  0.00000000000E+00  0.00000000000E+00 -0.82654630927E+03  0.20722439458E+04  0.19002673942E+04 0.  0.
        2    1    3    3  502    0  0.26740954932E+03 -0.41989881199E+03  0.46924569598E+03  0.68411578156E+03  0.25500000920E-02 0.  1.
       -2    1    3    3    0  502 -0.26740954932E+03  0.41989881199E+03 -0.12957920053E+04  0.13881281642E+04  0.25500000920E-02 0. -1.
</event>
<event>
 5   0  0.3236653E-06  0.1901390E+04  0.7818609E-02  0.8654165E-01
       -1   -1    0    0    0  501  0.00000000000E+00  0.00000000000E+00  0.76624589288E+03  0.76624589290E+03  0.50400001928E-02 0. -1.
        1   -1    0    0  501    0  0.00000000000E+00  0.00000000000E+00 -0.11795447401E+04  0.11795447401E+04  0.50400001928E-02 0.  1.
    10030    2    1    2    0    0  0.00000000000E+00  0.00000000000E+00 -0.41329884719E+03  0.19457906330E+04  0.19013903466E+04 0.  0.
        3    1    3    3  502    0  0.24669453705E+03 -0.90732920284E+02 -0.11416201266E+04  0.11714893004E+04  0.10100000352E+00 0.  1.
       -3    1    3    3    0  502 -0.24669453705E+03  0.90732920284E+02  0.72832127937E+03  0.77430133257E+03  0.10100000352E+00 0. -1.
</event>
<event>
 5   0  0.3495279E-06  0.1900041E+04  0.7818609E-02  0.8654836E-01
       -1   -1    0    0    0  501  0.00000000000E+00  0.00000000000E+00  0.16101636339E+04  0.16101636339E+04  0.50400001928E-02 0.  1.
        1   -1    0    0  501    0  0.00000000000E+00  0.00000000000E+00 -0.56052603762E+03  0.56052603765E+03  0.50400001928E-02 0. -1.
    10030    2    1    2    0    0  0.00000000000E+00  0.00000000000E+00  0.10496375963E+04  0.21706896715E+04  0.19000406750E+04 0.  0.
        2    1    3    3  502    0 -0.66307642268E+03 -0.56907824969E+03  0.98856910887E+02  0.87937084636E+03  0.25500000920E-02 0. -1.
       -2    1    3    3    0  502  0.66307642268E+03  0.56907824969E+03  0.95078068537E+03  0.12913188252E+04  0.25500000920E-02 0.  1.
</event>
<event>
 5   0  0.6870370E-06  0.1899716E+04  0.7818609E-02  0.8654998E-01
       -2   -1    0    0    0  501  0.00000000000E+00  0.00000000000E+00  0.64063155230E+03  0.64063155231E+03  0.25500000920E-02 0. -1.
        2   -1    0    0  501    0  0.00000000000E+00  0.00000000000E+00 -0.14083454783E+04  0.14083454783E+04  0.25500000920E-02 0.  1.
    10030    2    1    2    0    0  0.00000000000E+00  0.00000000000E+00 -0.76771392598E+03  0.20489770306E+04  0.18997163472E+04 0.  0.
        1    1    3    3  502    0  0.28682589262E+03  0.64437460134E+03  0.30232281053E+03  0.76738960204E+03  0.50400001928E-02 0. -1.
       -1    1    3    3    0  502 -0.28682589262E+03 -0.64437460134E+03 -0.10700367365E+04  0.12815874286E+04  0.50400001928E-02 0.  1.
</event>
<event>
 5   0  0.3398807E-06  0.1900154E+04  0.7818609E-02  0.8654780E-01
        1   -1    0    0  501    0  0.00000000000E+00  0.00000000000E+00  0.13335505705E+04  0.13335505705E+04  0.50400001928E-02 0. -1.
       -1   -1    0    0    0  501  0.00000000000E+00  0.00000000000E+00 -0.67687475500E+03  0.67687475502E+03  0.50400001928E-02 0.  1.
    10030    2    1    2    0    0  0.00000000000E+00  0.00000000000E+00  0.65667581547E+03  0.20104253255E+04  0.19001544313E+04 0.  0.
        1    1    3    3  502    0  0.77312444853E+02  0.19642967058E+03 -0.65174806599E+03  0.68508201783E+03  0.50400001928E-02 0.  1.
       -1    1    3    3    0  502 -0.77312444853E+02 -0.19642967058E+03  0.13084238815E+04  0.13253433077E+04  0.50400001928E-02 0. -1.
</event>
<event>
 5   0  0.6984466E-06  0.1895567E+04  0.7818609E-02  0.8657066E-01
       -2   -1    0    0    0  501  0.00000000000E+00  0.00000000000E+00  0.52632014288E+03  0.52632014289E+03  0.25500000920E-02 0. -1.
        2   -1    0    0  501    0  0.00000000000E+00  0.00000000000E+00 -0.17067430505E+04  0.17067430506E+04  0.25500000920E-02 0.  1.
    10030    2    1    2    0    0  0.00000000000E+00  0.00000000000E+00 -0.11804229077E+04  0.22330631934E+04  0.18955666659E+04 0.  0.
        2    1    3    3  502    0 -0.15424460110E+03  0.93364808797E+03 -0.52784069598E+03  0.10835616962E+04  0.25500000920E-02 0. -1.
       -2    1    3    3    0  502  0.15424460110E+03 -0.93364808797E+03 -0.65258221169E+03  0.11495014972E+04  0.25500000920E-02 0.  1.
</event>
<event>
 5   0  0.3211263E-06  0.1900154E+04  0.7818609E-02  0.8654780E-01
       -1   -1    0    0    0  501  0.00000000000E+00  0.00000000000E+00  0.98101864426E+03  0.98101864428E+03  0.50400001928E-02 0. -1.
        1   -1    0    0  501    0  0.00000000000E+00  0.00000000000E+00 -0.92011163125E+03  0.92011163127E+03  0.50400001928E-02 0.  1.
    10030    2    1    2    0    0  0.00000000000E+00  0.00000000000E+00  0.60907013009E+02  0.19011302755E+04  0.19001543780E+04 0.  0.
        5    1    3    3  502    0 -0.12117991821E+03  0.64482126145E+03 -0.65702787136E+03  0.92854011520E+03  0.46999998093E+01 0.  1.
       -5    1    3    3    0  502  0.12117991821E+03 -0.64482126145E+03  0.71793488437E+03  0.97259016034E+03  0.46999998093E+01 0. -1.
</event>
<event>
 5   0  0.3398807E-06  0.1898827E+04  0.7818609E-02  0.8655441E-01
        1   -1    0    0  501    0  0.00000000000E+00  0.00000000000E+00  0.66895315115E+03  0.66895315116E+03  0.50400001928E-02 0.  1.
       -1   -1    0    0    0  501  0.00000000000E+00  0.00000000000E+00 -0.13474570431E+04  0.13474570432E+04  0.50400001928E-02 0. -1.
    10030    2    1    2    0    0  0.00000000000E+00  0.00000000000E+00 -0.67850389200E+03  0.20164101943E+04  0.18988266220E+04 0.  0.
        1    1    3    3  502    0  0.66116346429E+03  0.50322748742E+03  0.14855245384E+03  0.84406330460E+03  0.50400001928E-02 0.  1.
       -1    1    3    3    0  502 -0.66116346429E+03 -0.50322748742E+03 -0.82705634585E+03  0.11723468897E+04  0.50400001928E-02 0. -1.
</event>
<event>
 5   0  0.3236653E-06  0.1900228E+04  0.7818609E-02  0.8654743E-01
        1   -1    0    0  501    0  0.00000000000E+00  0.00000000000E+00  0.15165647147E+04  0.15165647147E+04  0.50400001928E-02 0. -1.
       -1   -1    0    0    0  501  0.00000000000E+00  0.00000000000E+00 -0.59523760202E+03  0.59523760204E+03  0.50400001928E-02 0.  1.
    10030    2    1    2    0    0  0.00000000000E+00  0.00000000000E+00  0.92132711267E+03  0.21118023167E+04  0.19002277170E+04 0.  0.
        3    1    3    3  502    0 -0.56262124098E+03 -0.73131929207E+03  0.71248918844E+03  0.11657664524E+04  0.10100000352E+00 0. -1.
       -3    1    3    3    0  502  0.56262124098E+03  0.73131929207E+03  0.20883792423E+03  0.94603586431E+03  0.10100000352E+00 0.  1.
</event>
<event>
 5   0  0.2527750E-06  0.1898986E+04  0.7818609E-02  0.8655361E-01
        3   -1    0    0  501    0  0.00000000000E+00  0.00000000000E+00  0.66025739606E+03  0.66025740379E+03  0.10100000352E+00 0. -1.
       -3   -1    0    0    0  501  0.00000000000E+00  0.00000000000E+00 -0.13654323792E+04  0.13654323830E+04  0.10100000352E+00 0.  1.
    10030    2    1    2    0    0  0.00000000000E+00  0.00000000000E+00 -0.70517498316E+03  0.20256897868E+04  0.18989858755E+04 0.  0.
        5    1    3    3  502    0 -0.58687298264E+03 -0.24158554306E+03  0.40074119613E+03  0.75059913978E+03  0.46999998093E+01 0. -1.
       -5    1    3    3    0  502  0.58687298264E+03  0.24158554306E+03 -0.11059161793E+04  0.12750906470E+04  0.46999998093E+01 0.  1.
</event>
<event>
 5   0  0.6862201E-06  0.1901447E+04  0.7818609E-02  0.8654137E-01
       -2   -1    0    0    0  501  0.00000000000E+00  0.00000000000E+00  0.57801352938E+03  0.57801352939E+03  0.25500000920E-02 0.  1.
        2   -1    0    0  501    0  0.00000000000E+00  0.00000000000E+00 -0.15637608610E+04  0.15637608610E+04  0.25500000920E-02 0. -1.
    10030    2    1    2    0    0  0.00000000000E+00  0.00000000000E+00 -0.98574733165E+03  0.21417743904E+04  0.19014467486E+04 0.  0.
        3    1    3    3  502    0 -0.45334107385E+03 -0.23002198992E+03  0.41206623881E+03  0.65439043426E+03  0.10100000352E+00 0.  1.
       -3    1    3    3    0  502  0.45334107385E+03  0.23002198992E+03 -0.13978135705E+04  0.14873839562E+04  0.10100000352E+00 0. -1.
</event>
<event>
 5   0  0.7207648E-06  0.1897898E+04  0.7818609E-02  0.8655904E-01
        2   -1    0    0  501    0  0.00000000000E+00  0.00000000000E+00  0.78953939817E+03  0.78953939817E+03  0.25500000920E-02 0.  1.
       -2   -1    0    0    0  501  0.00000000000E+00  0.00000000000E+00 -0.11405431363E+04  0.11405431363E+04  0.25500000920E-02 0. -1.
    10030    2    1    2    0    0  0.00000000000E+00  0.00000000000E+00 -0.35100373817E+03  0.19300825345E+04  0.18978975119E+04 0.  0.
        4    1    3    3  502    0 -0.19576358196E+03  0.18233305494E+03  0.75039570292E+03  0.79665804886E+03  0.12699999809E+01 0.  1.
       -4    1    3    3    0  502  0.19576358196E+03 -0.18233305494E+03 -0.11013994411E+04  0.11334244857E+04  0.12699999809E+01 0. -1.
</event>
<event>
 5   0  0.3398807E-06  0.1900169E+04  0.7818609E-02  0.8654772E-01
        1   -1    0    0  501    0  0.00000000000E+00  0.00000000000E+00  0.57227098781E+03  0.57227098783E+03  0.50400001928E-02 0. -1.
       -1   -1    0    0    0  501  0.00000000000E+00  0.00000000000E+00 -0.15773302931E+04  0.15773302931E+04  0.50400001928E-02 0.  1.
    10030    2    1    2    0    0  0.00000000000E+00  0.00000000000E+00 -0.10050593053E+04  0.21496012809E+04  0.19001687977E+04 0.  0.
        1    1    3    3  502    0  0.23601420714E+03 -0.25348214491E+03  0.49831030177E+03  0.60685176167E+03  0.50400001928E-02 0. -1.
       -1    1    3    3    0  502 -0.23601420714E+03  0.25348214491E+03 -0.15033696071E+04  0.15427495193E+04  0.50400001928E-02 0.  1.
</event>
<event>
 5   0  0.3211263E-06  0.1898857E+04  0.7818609E-02  0.8655426E-01
       -1   -1    0    0    0  501  0.00000000000E+00  0.00000000000E+00  0.84414875361E+03  0.84414875362E+03  0.50400001928E-02 0.  1.
        1   -1    0    0  501    0  0.00000000000E+00  0.00000000000E+00 -0.10678380434E+04  0.10678380434E+04  0.50400001928E-02 0. -1.
    10030    2    1    2    0    0  0.00000000000E+00  0.00000000000E+00 -0.22368928976E+03  0.19119867970E+04  0.18988566596E+04 0.  0.
        5    1    3    3  502    0  0.71619309933E+03 -0.21843895183E+03 -0.69961377412E+03  0.10247583394E+04  0.46999998093E+01 0. -1.
       -5    1    3    3    0  502 -0.71619309933E+03  0.21843895183E+03  0.47592448436E+03  0.88722845762E+03  0.46999998093E+01 0.  1.
</event>
<event>
 5   0  0.6862201E-06  0.1900466E+04  0.7818609E-02  0.8654624E-01
        2   -1    0    0  501    0  0.00000000000E+00  0.00000000000E+00  0.27141099427E+04  0.27141099427E+04  0.25500000920E-02 0. -1.
       -2   -1    0    0    0  501  0.00000000000E+00  0.00000000000E+00 -0.33268480631E+03  0.33268480632E+03  0.25500000920E-02 0.  1.
    10030    2    1    2    0    0  0.00000000000E+00  0.00000000000E+00  0.23814251364E+04  0.30467947491E+04  0.19004664066E+04 0.  0.
        3    1    3    3  502    0  0.35476560927E+03  0.18561359138E+03  0.25722729042E+04  0.26032477690E+04  0.10100000352E+00 0. -1.
       -3    1    3    3    0  502 -0.35476560927E+03 -0.18561359138E+03 -0.19084776781E+03  0.44354698004E+03  0.10100000352E+00 0.  1.
</event>
<event>
 5   0  0.3379108E-06  0.1899962E+04  0.7818609E-02  0.8654875E-01
        1   -1    0    0  501    0  0.00000000000E+00  0.00000000000E+00  0.88183585794E+03  0.88183585796E+03  0.50400001928E-02 0.  1.
       -1   -1    0    0    0  501  0.00000000000E+00  0.00000000000E+00 -0.10233920814E+04  0.10233920814E+04  0.50400001928E-02 0. -1.
    10030    2    1    2    0    0  0.00000000000E+00  0.00000000000E+00 -0.14155622346E+03  0.19052279394E+04  0.18999619303E+04 0.  0.
        4    1    3    3  502    0 -0.47873611066E+03 -0.48467175905E+03 -0.73470627262E+03  0.10019430611E+04  0.12699999809E+01 0. -1.
       -4    1    3    3    0  502  0.47873611066E+03  0.48467175905E+03  0.59315004916E+03  0.90328487832E+03  0.12699999809E+01 0.  1.
</event>
<event>
 5   0  0.6862201E-06  0.1900010E+04  0.7818609E-02  0.8654851E-01
       -2   -1    0    0    0  501  0.00000000000E+00  0.00000000000E+00  0.49016926709E+03  0.49016926710E+03  0.25500000920E-02 0.  1.
        2   -1    0    0  501    0  0.00000000000E+00  0.00000000000E+00 -0.18412205798E+04  0.18412205798E+04  0.25500000920E-02 0. -1.
    10030    2    1    2    0    0  0.00000000000E+00  0.00000000000E+00 -0.13510513128E+04  0.23313898469E+04  0.19000102549E+04 0.  0.
        3    1    3    3  502    0  0.62850350738E+03 -0.64804358239E+03 -0.10385567648E+04  0.13760731475E+04  0.10100000352E+00 0. -1.
       -3    1    3    3    0  502 -0.62850350738E+03  0.64804358239E+03 -0.31249454798E+03  0.95531669942E+03  0.10100000352E+00 0.  1.
</event>
<event>
 5   0  0.3211263E-06  0.1900575E+04  0.7818609E-02  0.8654570E-01
       -1   -1    0    0    0  501  0.00000000000E+00  0.00000000000E+00  0.78995462695E+03  0.78995462697E+03  0.50400001928E-02 0. -1.
        1   -1    0    0  501    0  0.00000000000E+00  0.00000000000E+00 -0.11431622556E+04  0.11431622556E+04  0.50400001928E-02 0.  1.
    10030    2    1    2    0    0  0.00000000000E+00  0.00000000000E+00 -0.35320762868E+03  0.19331168826E+04  0.19005749795E+04 0.  0.
        5    1    3    3  502    0 -0.32605826889E+03 -0.58552954396E+03  0.50862660657E+03  0.84135721098E+03  0.46999998093E+01 0. -1.
       -5    1    3    3    0  502  0.32605826889E+03  0.58552954396E+03 -0.86183423525E+03  0.10917596716E+04  0.46999998093E+01 0.  1.
</event>
<event>
 5   0  0.3495279E-06  0.1898922E+04  0.7818609E-02  0.8655393E-01
        1   -1    0    0  501    0  0.00000000000E+00  0.00000000000E+00  0.12954213774E+04  0.12954213775E+04  0.50400001928E-02 0.  1.
       -1   -1    0    0    0  501  0.00000000000E+00  0.00000000000E+00 -0.69589409040E+03  0.69589409042E+03  0.50400001928E-02 0. -1.
    10030    2    1    2    0    0  0.00000000000E+00  0.00000000000E+00  0.59952728704E+03  0.19913154679E+04  0.18989218848E+04 0.  0.
        2    1    3    3  502    0 -0.47305911314E+03 -0.40701379883E+03  0.10501433201E+04  0.12215752739E+04  0.25500000920E-02 0.  1.
       -2    1    3    3    0  502  0.47305911314E+03  0.40701379883E+03 -0.45061603309E+03  0.76974019399E+03  0.25500000920E-02 0. -1.
</event>
<event>
 5   0  0.7577180E-06  0.1900319E+04  0.7818609E-02  0.8654698E-01
       -2   -1    0    0    0  501  0.00000000000E+00  0.00000000000E+00  0.10236053590E+04  0.10236053590E+04  0.25500000920E-02 0. -1.
        2   -1    0    0  501    0  0.00000000000E+00  0.00000000000E+00 -0.88198356112E+03  0.88198356112E+03  0.25500000920E-02 0.  1.
    10030    2    1    2    0    0  0.00000000000E+00  0.00000000000E+00  0.14162179789E+03  0.19055889201E+04  0.19003190256E+04 0.  0.
        5    1    3    3  502    0  0.20501883400E+03 -0.88191902896E+03  0.35964980650E+03  0.97426072960E+03  0.46999998093E+01 0.  1.
       -5    1    3    3    0  502 -0.20501883400E+03  0.88191902896E+03 -0.21802800861E+03  0.93132819053E+03  0.46999998093E+01 0. -1.
</event>
<event>
 5   0  0.3398807E-06  0.1899450E+04  0.7818609E-02  0.8655130E-01
        1   -1    0    0  501    0  0.00000000000E+00  0.00000000000E+00  0.13266571600E+04  0.13266571600E+04  0.50400001928E-02 0. -1.
       -1   -1    0    0    0  501  0.00000000000E+00  0.00000000000E+00 -0.67988763749E+03  0.67988763751E+03  0.50400001928E-02 0.  1.
    10030    2    1    2    0    0  0.00000000000E+00  0.00000000000E+00  0.64676952254E+03  0.20065447976E+04  0.18994502387E+04 0.  0.
        1    1    3    3  502    0 -0.73272342252E+02 -0.12255683366E+03 -0.66848344372E+03  0.68356355094E+03  0.50400001928E-02 0.  1.
       -1    1    3    3    0  502  0.73272342252E+02  0.12255683366E+03  0.13152529663E+04  0.13229812466E+04  0.50400001928E-02 0. -1.
</event>
<event>
 5   0  0.3398807E-06  0.1900797E+04  0.7818609E-02  0.8654460E-01
       -1   -1    0    0    0  501  0.00000000000E+00  0.00000000000E+00  0.82456185401E+03  0.82456185403E+03  0.50400001928E-02 0.  1.
        1   -1    0    0  501    0  0.00000000000E+00  0.00000000000E+00 -0.10954392117E+04  0.10954392117E+04  0.50400001928E-02 0. -1.
    10030    2    1    2    0    0  0.00000000000E+00  0.00000000000E+00 -0.27087735766E+03  0.19200010657E+04  0.19007970827E+04 0.  0.
        1    1    3    3  502    0  0.16056656902E+03  0.48179120380E+03 -0.94689356502E+03  0.10744821128E+04  0.50400001928E-02 0. -1.
       -1    1    3    3    0  502 -0.16056656902E+03 -0.48179120380E+03  0.67601620736E+03  0.84551895294E+03  0.50400001928E-02 0.  1.
</event>
<event>
 5   0  0.6862201E-06  0.1900008E+04  0.7818609E-02  0.8654852E-01
        2   -1    0    0  501    0  0.00000000000E+00  0.00000000000E+00  0.43383398770E+03  0.43383398771E+03  0.25500000920E-02 0.  1.
       -2   -1    0    0    0  501  0.00000000000E+00  0.00000000000E+00 -0.20803069248E+04  0.20803069248E+04  0.25500000920E-02 0. -1.
    10030    2    1    2    0    0  0.00000000000E+00  0.00000000000E+00 -0.16464729371E+04  0.25141409125E+04  0.19000082619E+04 0.  0.
        3    1    3    3  502    0 -0.51751015016E+02 -0.15906234074E+03  0.41419510977E+03  0.44669519245E+03  0.10100000352E+00 0.  1.
       -3    1    3    3    0  502  0.51751015016E+02  0.15906234074E+03 -0.20606680468E+04  0.20674457200E+04  0.10100000352E+00 0. -1.
</event>
<event>
 5   0  0.3379108E-06  0.1899375E+04  0.7818609E-02  0.8655168E-01
       -1   -1    0    0    0  501  0.00000000000E+00  0.00000000000E+00  0.52144925222E+03  0.52144925224E+03  0.50400001928E-02 0.  1.
        1   -1    0    0  501    0  0.00000000000E+00  0.00000000000E+00 -0.17296146345E+04  0.17296146345E+04  0.50400001928E-02 0. -1.
    10030    2    1    2    0    0  0.00000000000E+00  0.00000000000E+00 -0.12081653823E+04  0.22510638868E+04  0.18993749054E+04 0.  0.
        4    1    3    3  502    0 -0.50181254610E+03 -0.24387955862E+03  0.30672796240E+03  0.63669201844E+03  0.12699999809E+01 0.  1.
       -4    1    3    3    0  502  0.50181254610E+03  0.24387955862E+03 -0.15148933447E+04  0.16143718683E+04  0.12699999809E+01 0. -1.
</event>
<event>
 5   0  0.3398807E-06  0.1901088E+04  0.7818609E-02  0.8654315E-01
        1   -1    0    0  501    0  0.00000000000E+00  0.00000000000E+00  0.16053244979E+04  0.16053244979E+04  0.50400001928E-02 0.  1.
       -1   -1    0    0    0  501  0.00000000000E+00  0.00000000000E+00 -0.56283563879E+03  0.56283563882E+03  0.50400001928E-02 0. -1.
    10030    2    1    2    0    0  0.00000000000E+00  0.00000000000E+00  0.10424888591E+04  0.21681601367E+04  0.19010879404E+04 0.  0.
        1    1    3    3  502    0 -0.16771839324E+03 -0.52517138165E+03  0.14043644759E+04  0.15086994467E+04  0.50400001928E-02 0.  1.
       -1    1    3    3    0  502  0.16771839324E+03  0.52517138165E+03 -0.36187561678E+03  0.65946068995E+03  0.50400001928E-02 0. -1.
</event>
<event>
 5   0  0.7577180E-06  0.1900145E+04  0.7818609E-02  0.8654784E-01
        2   -1    0    0  501    0  0.00000000000E+00  0.00000000000E+00  0.99153807159E+03  0.99153807159E+03  0.25500000920E-02 0.  1.
       -2   -1    0    0    0  501  0.00000000000E+00  0.00000000000E+00 -0.91034146966E+03  0.91034146966E+03  0.25500000920E-02 0. -1.
    10030    2    1    2    0    0  0.00000000000E+00  0.00000000000E+00  0.81196601929E+02  0.19018795412E+04  0.19001454948E+04 0.  0.
        5    1    3    3  502    0  0.68477888524E+03  0.64610831611E+03  0.16814322743E+03  0.95638502328E+03  0.46999998093E+01 0. -1.
       -5    1    3    3    0  502 -0.68477888524E+03 -0.64610831611E+03 -0.86946625497E+02  0.94549451797E+03  0.46999998093E+01 0.  1.
</event>
<event>
 5   0  0.3211263E-06  0.1900161E+04  0.7818609E-02  0.8654776E-01
       -1   -1    0    0    0  501  0.00000000000E+00  0.00000000000E+00  0.10022266096E+04  0.10022266096E+04  0.50400001928E-02 0.  1.
        1   -1    0    0  501    0  0.00000000000E+00  0.00000000000E+00 -0.90064743869E+03  0.90064743870E+03  0.50400001928E-02 0. -1.
    10030    2    1    2    0    0  0.00000000000E+00  0.00000000000E+00  0.10157917089E+03  0.19028740483E+04  0.19001608657E+04 0.  0.
        5    1    3    3  502    0  0.52353777247E+03 -0.26486136291E+03 -0.69753063061E+03  0.91149021465E+03  0.46999998093E+01 0. -1.
       -5    1    3    3    0  502 -0.52353777247E+03  0.26486136291E+03  0.79910980150E+03  0.99138383364E+03  0.46999998093E+01 0.  1.
</event>
<event>
 5   0  0.6862201E-06  0.1907656E+04  0.7818609E-02  0.8651055E-01
        2   -1    0    0  501    0  0.00000000000E+00  0.00000000000E+00  0.31948864684E+03  0.31948864685E+03  0.25500000920E-02 0. -1.
       -2   -1    0    0    0  501  0.00000000000E+00  0.00000000000E+00 -0.28476361348E+04  0.28476361348E+04  0.25500000920E-02 0.  1.
    10030    2    1    2    0    0  0.00000000000E+00  0.00000000000E+00 -0.25281474880E+04  0.31671247817E+04  0.19076555406E+04 0.  0.
        3    1    3    3  502    0  0.28230050808E+03  0.42167891246E+03  0.76783332119E+02  0.51322740804E+03  0.10100000352E+00 0. -1.
       -3    1    3    3    0  502 -0.28230050808E+03 -0.42167891246E+03 -0.26049308201E+04  0.26538973736E+04  0.10100000352E+00 0.  1.
</event>
<event>
 5   0  0.3495279E-06  0.1898754E+04  0.7818609E-02  0.8655477E-01
        1   -1    0    0  501    0  0.00000000000E+00  0.00000000000E+00  0.22612029555E+04  0.22612029555E+04  0.50400001928E-02 0. -1.
       -1   -1    0    0    0  501  0.00000000000E+00  0.00000000000E+00 -0.39860054560E+03  0.39860054563E+03  0.50400001928E-02 0.  1.
    10030    2    1    2    0    0  0.00000000000E+00  0.00000000000E+00  0.18626024099E+04  0.26598035011E+04  0.18987540460E+04 0.  0.
        2    1    3    3  502    0  0.99195952414E+02 -0.53411635877E+02  0.22518056966E+04  0.22546222599E+04  0.25500000920E-02 0. -1.
       -2    1    3    3    0  502 -0.99195952414E+02  0.53411635877E+02 -0.38920328670E+03  0.40518124118E+03  0.25500000920E-02 0.  1.
</event>
<event>
 5   0  0.3379108E-06  0.1893348E+04  0.7818609E-02  0.8658175E-01
        1   -1    0    0  501    0  0.00000000000E+00  0.00000000000E+00  0.86245213487E+03  0.86245213488E+03  0.50400001928E-02 0. -1.
       -1   -1    0    0    0  501  0.00000000000E+00  0.00000000000E+00 -0.10391201704E+04  0.10391201704E+04  0.50400001928E-02 0.  1.
    10030    2    1    2    0    0  0.00000000000E+00  0.00000000000E+00 -0.17666803549E+03  0.19015723053E+04  0.18933477328E+04 0.  0.
        4    1    3    3  502    0 -0.98860861507E+02 -0.76441144511E+03 -0.64035004889E+03  0.10020719163E+04  0.12699999809E+01 0.  1.
       -4    1    3    3    0  502  0.98860861507E+02  0.76441144511E+03  0.46368201340E+03  0.89950038899E+03  0.12699999809E+01 0. -1.
</event>
<event>
 5   0  0.3398807E-06  0.1901311E+04  0.7818609E-02  0.8654204E-01
       -1   -1    0    0    0  501  0.00000000000E+00  0.00000000000E+00  0.86164900092E+03  0.86164900094E+03  0.50400001928E-02 0.  1.
        1   -1    0    0  501    0  0.00000000000E+00  0.00000000000E+00 -0.10488560496E+04  0.10488560496E+04  0.50400001928E-02 0. -1.
    10030    2    1    2    0    0  0.00000000000E+00  0.00000000000E+00 -0.18720704868E+03  0.19105050506E+04  0.19013108818E+04 0.  0.
        1    1    3    3  502    0 -0.21101274974E+03  0.88336478395E+03 -0.37582830766E+03  0.98290723822E+03  0.50400001928E-02 0.  1.
       -1    1    3    3    0  502  0.21101274974E+03 -0.88336478395E+03  0.18862125898E+03  0.92759781233E+03  0.50400001928E-02 0. -1.
</event>
<event>
 5   0  0.3379108E-06  0.1899799E+04  0.7818609E-02  0.8654957E-01
        1   -1    0    0  501    0  0.00000000000E+00  0.00000000000E+00  0.73766713888E+03  0.73766713890E+03  0.50400001928E-02 0.  1.
       -1   -1    0    0    0  501  0.00000000000E+00  0.00000000000E+00 -0.12231924042E+04  0.12231924042E+04  0.50400001928E-02 0. -1.
    10030    2    1    2    0    0  0.00000000000E+00  0.00000000000E+00 -0.48552526527E+03  0.19608595431E+04  0.18997987694E+04 0.  0.
        4    1    3    3  502    0 -0.39370128832E+03 -0.72265972187E+03 -0.73242548613E+03  0.11016744000E+04  0.12699999809E+01 0. -1.
       -4    1    3    3    0  502  0.39370128832E+03  0.72265972187E+03  0.24690022086E+03  0.85918514303E+03  0.12699999809E+01 0.  1.
</event>
<event>
 5   0  0.6984466E-06  0.1899293E+04  0.7818609E-02  0.8655208E-01
       -2   -1    0    0    0  501  0.00000000000E+00  0.00000000000E+00  0.42742875696E+03  0.42742875697E+03  0.25500000920E-02 0. -1.
        2   -1    0    0  501    0  0.00000000000E+00  0.00000000000E+00 -0.21098915170E+04  0.21098915170E+04  0.25500000920E-02 0.  1.
    10030    2    1    2    0    0  0.00000000000E+00  0.00000000000E+00 -0.16824627600E+04  0.25373202740E+04  0.18992928247E+04 0.  0.
        2    1    3    3  502    0 -0.14274856641E+03 -0.10285146155E+03 -0.20879277886E+04  0.20953276657E+04  0.25500000920E-02 0.  1.
       -2    1    3    3    0  502  0.14274856641E+03  0.10285146155E+03  0.40546502856E+03  0.44199260825E+03  0.25500000920E-02 0. -1.
</event>
<event>
 5   0  0.6870370E-06  0.1899965E+04  0.7818609E-02  0.8654874E-01
       -2   -1    0    0    0  501  0.00000000000E+00  0.00000000000E+00  0.12247004854E+04  0.12247004854E+04  0.25500000920E-02 0. -1.
        2   -1    0    0  501    0  0.00000000000E+00  0.00000000000E+00 -0.73688774393E+03  0.73688774394E+03  0.25500000920E-02 0.  1.
    10030    2    1    2    0    0  0.00000000000E+00  0.00000000000E+00  0.48781274149E+03  0.19615882294E+04  0.18999650288E+04 0.  0.
        1    1    3    3  502    0  0.73415793365E+03  0.56144700128E+03  0.47070408246E+03  0.10371947455E+04  0.50400001928E-02 0. -1.
       -1    1    3    3    0  502 -0.73415793365E+03 -0.56144700128E+03  0.17108659025E+02  0.92439348387E+03  0.50400001928E-02 0.  1.
</event>
<event>
 5   0  0.6862201E-06  0.1900023E+04  0.7818609E-02  0.8654845E-01
        2   -1    0    0  501    0  0.00000000000E+00  0.00000000000E+00  0.44630002999E+03  0.44630003000E+03  0.25500000920E-02 0. -1.
       -2   -1    0    0    0  501  0.00000000000E+00  0.00000000000E+00 -0.20222309288E+04  0.20222309288E+04  0.25500000920E-02 0.  1.
    10030    2    1    2    0    0  0.00000000000E+00  0.00000000000E+00 -0.15759308988E+04  0.24685309588E+04  0.19000228674E+04 0.  0.
        3    1    3    3  502    0 -0.37803656373E+03  0.48814870869E+03  0.15009823257E+03  0.63539774545E+03  0.10100000352E+00 0. -1.
       -3    1    3    3    0  502  0.37803656373E+03 -0.48814870869E+03 -0.17260291314E+04  0.18331332134E+04  0.10100000352E+00 0.  1.
</event>
<event>
 5   0  0.6870370E-06  0.1900548E+04  0.7818609E-02  0.8654584E-01
       -2   -1    0    0    0  501  0.00000000000E+00  0.00000000000E+00  0.13825425081E+04  0.13825425081E+04  0.25500000920E-02 0.  1.
        2   -1    0    0  501    0  0.00000000000E+00  0.00000000000E+00 -0.65315951220E+03  0.65315951221E+03  0.25500000920E-02 0. -1.
    10030    2    1    2    0    0  0.00000000000E+00  0.00000000000E+00  0.72938299588E+03  0.20357020203E+04  0.19005481211E+04 0.  0.
        1    1    3    3  502    0  0.67066693016E+03  0.10167363582E+03  0.10775163760E+04  0.12732529992E+04  0.50400001928E-02 0.  1.
       -1    1    3    3    0  502 -0.67066693016E+03 -0.10167363582E+03 -0.34813338009E+03  0.76244902111E+03  0.50400001928E-02 0. -1.
</event>
<event>
 5   0  0.7207648E-06  0.1900822E+04  0.7818609E-02  0.8654447E-01
       -2   -1    0    0    0  501  0.00000000000E+00  0.00000000000E+00  0.63574389226E+03  0.63574389227E+03  0.25500000920E-02 0. -1.
        2   -1    0    0  501    0  0.00000000000E+00  0.00000000000E+00 -0.14208250789E+04  0.14208250789E+04  0.25500000920E-02 0.  1.
    10030    2    1    2    0    0  0.00000000000E+00  0.00000000000E+00 -0.78508118665E+03  0.20565689712E+04  0.19008217864E+04 0.  0.
        4    1    3    3  502    0  0.29464764630E+03 -0.87209740544E+03 -0.13671771993E+03  0.93062584742E+03  0.12699999809E+01 0. -1.
       -4    1    3    3    0  502 -0.29464764630E+03  0.87209740544E+03 -0.64836346672E+03  0.11259431238E+04  0.12699999809E+01 0.  1.
</event>
<event>
 5   0  0.3236653E-06  0.1900772E+04  0.7818609E-02  0.8654472E-01
       -1   -1    0    0    0  501  0.00000000000E+00  0.00000000000E+00  0.94736215822E+03  0.94736215824E+03  0.50400001928E-02 0.  1.
        1   -1    0    0  501    0  0.00000000000E+00  0.00000000000E+00 -0.95341942889E+03  0.95341942890E+03  0.50400001928E-02 0. -1.
    10030    2    1    2    0    0  0.00000000000E+00  0.00000000000E+00 -0.60572706626E+01  0.19007815871E+04  0.19007719357E+04 0.  0.
        3    1    3    3  502    0  0.53639342374E+03 -0.32369353241E+03 -0.71769167231E+03  0.95266822906E+03  0.10100000352E+00 0. -1.
       -3    1    3    3    0  502 -0.53639342374E+03  0.32369353241E+03  0.71163440165E+03  0.94811335808E+03  0.10100000352E+00 0.  1.
</event>
<event>
 5   0  0.3398807E-06  0.1899885E+04  0.7818609E-02  0.8654914E-01
        1   -1    0    0  501    0  0.00000000000E+00  0.00000000000E+00  0.79854046153E+03  0.79854046154E+03  0.50400001928E-02 0. -1.
       -1   -1    0    0    0  501  0.00000000000E+00  0.00000000000E+00 -0.11300500766E+04  0.11300500766E+04  0.50400001928E-02 0.  1.
    10030    2    1    2    0    0  0.00000000000E+00  0.00000000000E+00 -0.33150961508E+03  0.19285905382E+04  0.18998849541E+04 0.  0.
        1    1    3    3  502    0  0.33559027990E+02  0.57847694299E+03 -0.92987574458E+03  0.10956416761E+04  0.50400001928E-02 0.  1.
       -1    1    3    3    0  502 -0.33559027990E+02 -0.57847694299E+03  0.59836612949E+03  0.83294886211E+03  0.50400001928E-02 0. -1.
</event>
<event>
 5   0  0.3211263E-06  0.1900569E+04  0.7818609E-02  0.8654573E-01
        1   -1    0    0  501    0  0.00000000000E+00  0.00000000000E+00  0.92561173405E+03  0.92561173406E+03  0.50400001928E-02 0.  1.
       -1   -1    0    0    0  501  0.00000000000E+00  0.00000000000E+00 -0.97561487150E+03  0.97561487151E+03  0.50400001928E-02 0. -1.
    10030    2    1    2    0    0  0.00000000000E+00  0.00000000000E+00 -0.50003137448E+02  0.19012266056E+04  0.19005689390E+04 0.  0.
        5    1    3    3  502    0  0.64098039368E+02 -0.94247035776E+03 -0.12828238764E+03  0.95332963601E+03  0.46999998093E+01 0. -1.
       -5    1    3    3    0  502 -0.64098039368E+02  0.94247035776E+03  0.78279250190E+02  0.94789696957E+03  0.46999998093E+01 0.  1.
</event>
<event>
 5   0  0.3398807E-06  0.1900060E+04  0.7818609E-02  0.8654826E-01
       -1   -1    0    0    0  501  0.00000000000E+00  0.00000000000E+00  0.60757184643E+03  0.60757184645E+03  0.50400001928E-02 0. -1.
        1   -1    0    0  501    0  0.00000000000E+00  0.00000000000E+00 -0.14855149894E+04  0.14855149894E+04  0.50400001928E-02 0.  1.
    10030    2    1    2    0    0  0.00000000000E+00  0.00000000000E+00 -0.87794314294E+03  0.20930868358E+04  0.19000600885E+04 0.  0.
        1    1    3    3  502    0 -0.25880239328E+02 -0.34275882034E+03  0.53666871387E+03  0.63731209323E+03  0.50400001928E-02 0. -1.
       -1    1    3    3    0  502  0.25880239328E+02  0.34275882034E+03 -0.14146118568E+04  0.14557747426E+04  0.50400001928E-02 0.  1.
</event>
<event>
 5   0  0.3379108E-06  0.1900191E+04  0.7818609E-02  0.8654761E-01
       -1   -1    0    0    0  501  0.00000000000E+00  0.00000000000E+00  0.81553818986E+03  0.81553818987E+03  0.50400001928E-02 0.  1.
        1   -1    0    0  501    0  0.00000000000E+00  0.00000000000E+00 -0.11068535121E+04  0.11068535121E+04  0.50400001928E-02 0. -1.
    10030    2    1    2    0    0  0.00000000000E+00  0.00000000000E+00 -0.29131532223E+03  0.19223917020E+04  0.19001908427E+04 0.  0.
        4    1    3    3  502    0 -0.68329084345E+02 -0.45766548177E+03  0.69382821513E+03  0.83398187150E+03  0.12699999809E+01 0.  1.
       -4    1    3    3    0  502  0.68329084345E+02  0.45766548177E+03 -0.98514353736E+03  0.10884098305E+04  0.12699999809E+01 0. -1.
</event>
<event>
 5   0  0.3236653E-06  0.1900539E+04  0.7818609E-02  0.8654588E-01
        1   -1    0    0  501    0  0.00000000000E+00  0.00000000000E+00  0.10568548081E+04  0.10568548081E+04  0.50400001928E-02 0.  1.
       -1   -1    0    0    0  501  0.00000000000E+00  0.00000000000E+00 -0.85443336705E+03  0.85443336706E+03  0.50400001928E-02 0. -1.
    10030    2    1    2    0    0  0.00000000000E+00  0.00000000000E+00  0.20242144101E+03  0.19112881751E+04  0.19005388837E+04 0.  0.
        3    1    3    3  502    0  0.48745302791E+03 -0.56309235453E+03  0.69474245999E+03  0.10185040746E+04  0.10100000352E+00 0.  1.
       -3    1    3    3    0  502 -0.48745302791E+03  0.56309235453E+03 -0.49232101898E+03  0.89278410049E+03  0.10100000352E+00 0. -1.
</event>
<event>
 5   0  0.7207648E-06  0.1899479E+04  0.7818609E-02  0.8655116E-01
        2   -1    0    0  501    0  0.00000000000E+00  0.00000000000E+00  0.82289691394E+03  0.82289691394E+03  0.25500000920E-02 0.  1.
       -2   -1    0    0    0  501  0.00000000000E+00  0.00000000000E+00 -0.10961341629E+04  0.10961341629E+04  0.25500000920E-02 0. -1.
    10030    2    1    2    0    0  0.00000000000E+00  0.00000000000E+00 -0.27323724897E+03  0.19190310769E+04  0.18994793181E+04 0.  0.
        4    1    3    3  502    0 -0.46247935848E+03  0.67950839832E+03 -0.61731544496E+03  0.10279585555E+04  0.12699999809E+01 0. -1.
       -4    1    3    3    0  502  0.46247935848E+03 -0.67950839832E+03  0.34407819599E+03  0.89107252132E+03  0.12699999809E+01 0.  1.
</event>
<event>
 5   0  0.3495279E-06  0.1900110E+04  0.7818609E-02  0.8654802E-01
       -1   -1    0    0    0  501  0.00000000000E+00  0.00000000000E+00  0.86126734783E+03  0.86126734784E+03  0.50400001928E-02 0. -1.
        1   -1    0    0  501    0  0.00000000000E+00  0.00000000000E+00 -0.10479958172E+04  0.10479958172E+04  0.50400001928E-02 0.  1.
    10030    2    1    2    0    0  0.00000000000E+00  0.00000000000E+00 -0.18672846933E+03  0.19092631650E+04  0.19001100789E+04 0.  0.
        2    1    3    3  502    0 -0.34033878227E+03  0.14148650498E+02 -0.98452652297E+03  0.10417884360E+04  0.25500000920E-02 0.  1.
       -2    1    3    3    0  502  0.34033878227E+03 -0.14148650498E+02  0.79779805363E+03  0.86747472898E+03  0.25500000920E-02 0. -1.
</event>
<event>
 5   0  0.3236653E-06  0.1899924E+04  0.7818609E-02  0.8654894E-01
       -1   -1    0    0    0  501  0.00000000000E+00  0.00000000000E+00  0.74052303172E+03  0.74052303174E+03  0.50400001928E-02 0.  1.
        1   -1    0    0  501    0  0.00000000000E+00  0.00000000000E+00 -0.12186358139E+04  0.12186358139E+04  0.50400001928E-02 0. -1.
    10030    2    1    2    0    0  0.00000000000E+00  0.00000000000E+00 -0.47811278221E+03  0.19591588457E+04  0.18999240906E+04 0.  0.
        3    1    3    3  502    0 -0.39227282181E+03 -0.98096468805E+02  0.64735262690E+03  0.76326032104E+03  0.10100000352E+00 0.  1.
       -3    1    3    3    0  502  0.39227282181E+03  0.98096468805E+02 -0.11254654091E+04  0.11958985246E+04  0.10100000352E+00 0. -1.
</event>
<event>
 5   0  0.7577180E-06  0.1900148E+04  0.7818609E-02  0.8654783E-01
       -2   -1    0    0    0  501  0.00000000000E+00  0.00000000000E+00  0.47214425681E+03  0.47214425682E+03  0.25500000920E-02 0.  1.
        2   -1    0    0  501    0  0.00000000000E+00  0.00000000000E+00 -0.19117901484E+04  0.19117901484E+04  0.25500000920E-02 0. -1.
    10030    2    1    2    0    0  0.00000000000E+00  0.00000000000E+00 -0.14396458915E+04  0.23839344052E+04  0.19001481403E+04 0.  0.
        5    1    3    3  502    0 -0.26013107319E+03 -0.86281978279E+03 -0.10972327032E+04  0.14198830402E+04  0.46999998093E+01 0. -1.
       -5    1    3    3    0  502  0.26013107319E+03  0.86281978279E+03 -0.34241318833E+03  0.96405136499E+03  0.46999998093E+01 0.  1.
</event>
<event>
 5   0  0.3495279E-06  0.1899246E+04  0.7818609E-02  0.8655232E-01
        1   -1    0    0  501    0  0.00000000000E+00  0.00000000000E+00  0.95527880058E+03  0.95527880060E+03  0.50400001928E-02 0. -1.
       -1   -1    0    0    0  501  0.00000000000E+00  0.00000000000E+00 -0.94400059684E+03  0.94400059685E+03  0.50400001928E-02 0.  1.
    10030    2    1    2    0    0  0.00000000000E+00  0.00000000000E+00  0.11278203744E+02  0.18992793975E+04  0.18992459113E+04 0.  0.
        2    1    3    3  502    0 -0.83578807102E+03 -0.36521238863E+03  0.26995791123E+03  0.95120926316E+03  0.25500000920E-02 0. -1.
       -2    1    3    3    0  502  0.83578807102E+03  0.36521238863E+03 -0.25867970749E+03  0.94807013430E+03  0.25500000920E-02 0.  1.
</event>
<event>
 5   0  0.3211263E-06  0.1899190E+04  0.7818609E-02  0.8655260E-01
        1   -1    0    0  501    0  0.00000000000E+00  0.00000000000E+00  0.18613214766E+04  0.18613214766E+04  0.50400001928E-02 0. -1.
       -1   -1    0    0    0  501  0.00000000000E+00  0.00000000000E+00 -0.48445707072E+03  0.48445707075E+03  0.50400001928E-02 0.  1.
    10030    2    1    2    0    0  0.00000000000E+00  0.00000000000E+00  0.13768644059E+04  0.23457785473E+04  0.18991896696E+04 0.  0.
        5    1    3    3  502    0  0.93183166973E+03 -0.67948915539E+02  0.47889015148E+03  0.10498977012E+04  0.46999998093E+01 0.  1.
       -5    1    3    3    0  502 -0.93183166973E+03  0.67948915539E+02  0.89797425439E+03  0.12958808461E+04  0.46999998093E+01 0. -1.
</event>
<event>
 5   0  0.3211263E-06  0.1899676E+04  0.7818609E-02  0.8655018E-01
       -1   -1    0    0    0  501  0.00000000000E+00  0.00000000000E+00  0.70337457458E+03  0.70337457459E+03  0.50400001928E-02 0. -1.
        1   -1    0    0  501    0  0.00000000000E+00  0.00000000000E+00 -0.12826620995E+04  0.12826620995E+04  0.50400001928E-02 0.  1.
    10030    2    1    2    0    0  0.00000000000E+00  0.00000000000E+00 -0.57928752493E+03  0.19860366741E+04  0.18996756656E+04 0.  0.
        5    1    3    3  502    0 -0.86919997810E+02  0.51722087248E+03 -0.11175387828E+04  0.12344989016E+04  0.46999998093E+01 0.  1.
       -5    1    3    3    0  502  0.86919997810E+02 -0.51722087248E+03  0.53825125786E+03  0.75153777253E+03  0.46999998093E+01 0. -1.
</event>
<event>
 5   0  0.6984466E-06  0.1898593E+04  0.7818609E-02  0.8655557E-01
       -2   -1    0    0    0  501  0.00000000000E+00  0.00000000000E+00  0.41729766160E+03  0.41729766161E+03  0.25500000920E-02 0. -1.
        2   -1    0    0  501    0  0.00000000000E+00  0.00000000000E+00 -0.21595225711E+04  0.21595225711E+04  0.25500000920E-02 0.  1.
    10030    2    1    2    0    0  0.00000000000E+00  0.00000000000E+00 -0.17422249095E+04  0.25768202327E+04  0.18985928674E+04 0.  0.
        2    1    3    3  502    0 -0.55720677505E+03 -0.61217815239E+03 -0.15017806993E+04  0.17148139110E+04  0.25500000920E-02 0.  1.
       -2    1    3    3    0  502  0.55720677505E+03  0.61217815239E+03 -0.24044421013E+03  0.86200632168E+03  0.25500000920E-02 0. -1.
</event>
<event>
 5   0  0.6984466E-06  0.1900224E+04  0.7818609E-02  0.8654745E-01
       -2   -1    0    0    0  501  0.00000000000E+00  0.00000000000E+00  0.12817177695E+04  0.12817177695E+04  0.25500000920E-02 0. -1.
        2   -1    0    0  501    0  0.00000000000E+00  0.00000000000E+00 -0.70429915453E+03  0.70429915454E+03  0.25500000920E-02 0.  1.
    10030    2    1    2    0    0  0.00000000000E+00  0.00000000000E+00  0.57741861500E+03  0.19860169241E+04  0.19002239252E+04 0.  0.
        2    1    3    3  502    0 -0.53391956120E+03 -0.65501073091E+03  0.74260194285E+03  0.11249741335E+04  0.25500000920E-02 0. -1.
       -2    1    3    3    0  502  0.53391956120E+03  0.65501073091E+03 -0.16518332785E+03  0.86104279060E+03  0.25500000920E-02 0.  1.
</event>
<event>
 5   0  0.7577180E-06  0.1898932E+04  0.7818609E-02  0.8655388E-01
        2   -1    0    0  501    0  0.00000000000E+00  0.00000000000E+00  0.14648723874E+04  0.14648723874E+04  0.25500000920E-02 0.  1.
       -2   -1    0    0    0  501  0.00000000000E+00  0.00000000000E+00 -0.61540189821E+03  0.61540189821E+03  0.25500000920E-02 0. -1.
    10030    2    1    2    0    0  0.00000000000E+00  0.00000000000E+00  0.84947048924E+03  0.20802742857E+04  0.18989315394E+04 0.  0.
        5    1    3    3  502    0 -0.58821406097E+03  0.26005309282E+03 -0.34042058606E+03  0.72768925925E+03  0.46999998093E+01 0. -1.
       -5    1    3    3    0  502  0.58821406097E+03 -0.26005309282E+03  0.11898910753E+04  0.13525850264E+04  0.46999998093E+01 0.  1.
</event>
<event>
 5   0  0.7207648E-06  0.1901469E+04  0.7818609E-02  0.8654125E-01
        2   -1    0    0  501    0  0.00000000000E+00  0.00000000000E+00  0.14407186384E+04  0.14407186384E+04  0.25500000920E-02 0.  1.
       -2   -1    0    0    0  501  0.00000000000E+00  0.00000000000E+00 -0.62739273627E+03  0.62739273627E+03  0.25500000920E-02 0. -1.
    10030    2    1    2    0    0  0.00000000000E+00  0.00000000000E+00  0.81332590216E+03  0.20681113747E+04  0.19014693358E+04 0.  0.
        4    1    3    3  502    0  0.43444640093E+03 -0.84532486382E+03  0.43278881727E+03  0.10443302035E+04  0.12699999809E+01 0. -1.
       -4    1    3    3    0  502 -0.43444640093E+03  0.84532486382E+03  0.38053708489E+03  0.10237811712E+04  0.12699999809E+01 0.  1.
</event>
<event>
 5   0  0.3398807E-06  0.1900420E+04  0.7818609E-02  0.8654647E-01
        1   -1    0    0  501    0  0.00000000000E+00  0.00000000000E+00  0.56830772165E+03  0.56830772167E+03  0.50400001928E-02 0. -1.
       -1   -1    0    0    0  501  0.00000000000E+00  0.00000000000E+00 -0.15887501489E+04  0.15887501489E+04  0.50400001928E-02 0.  1.
    10030    2    1    2    0    0  0.00000000000E+00  0.00000000000E+00 -0.10204424273E+04  0.21570578706E+04  0.19004199298E+04 0.  0.
        1    1    3    3  502    0  0.49240274990E+03 -0.36045602177E+03 -0.13369422598E+04  0.14696270335E+04  0.50400001928E-02 0.  1.
       -1    1    3    3    0  502 -0.49240274990E+03  0.36045602177E+03  0.31649983250E+03  0.68743083705E+03  0.50400001928E-02 0. -1.
</event>
<event>
 5   0  0.7207648E-06  0.1898355E+04  0.7818609E-02  0.8655676E-01
       -2   -1    0    0    0  501  0.00000000000E+00  0.00000000000E+00  0.73780509928E+03  0.73780509929E+03  0.25500000920E-02 0. -1.
        2   -1    0    0  501    0  0.00000000000E+00  0.00000000000E+00 -0.12211056677E+04  0.12211056677E+04  0.25500000920E-02 0.  1.
    10030    2    1    2    0    0  0.00000000000E+00  0.00000000000E+00 -0.48330056842E+03  0.19589107670E+04  0.18983550652E+04 0.  0.
        4    1    3    3  502    0 -0.34719642607E+03  0.88328617144E+03 -0.25611736771E+03  0.98302468834E+03  0.12699999809E+01 0.  1.
       -4    1    3    3    0  502  0.34719642607E+03 -0.88328617144E+03 -0.22718320071E+03  0.97588607866E+03  0.12699999809E+01 0. -1.
</event>
<event>
 5   0  0.3379108E-06  0.1900015E+04  0.7818609E-02  0.8654849E-01
        1   -1    0    0  501    0  0.00000000000E+00  0.00000000000E+00  0.17925770537E+04  0.17925770537E+04  0.50400001928E-02 0. -1.
       -1   -1    0    0    0  501  0.00000000000E+00  0.00000000000E+00 -0.50347314913E+03  0.50347314915E+03  0.50400001928E-02 0.  1.
    10030    2    1    2    0    0  0.00000000000E+00  0.00000000000E+00  0.12891039046E+04  0.22960502029E+04  0.19000151729E+04 0.  0.
        4    1    3    3  502    0  0.32293642635E+03 -0.73838211770E+03  0.36698459872E+02  0.80674932728E+03  0.12699999809E+01 0.  1.
       -4    1    3    3    0  502 -0.32293642635E+03  0.73838211770E+03  0.12524054447E+04  0.14893008756E+04  0.12699999809E+01 0. -1.
</event>
<event>
 5   0  0.6870370E-06  0.1902110E+04  0.7818609E-02  0.8653807E-01
       -2   -1    0    0    0  501  0.00000000000E+00  0.00000000000E+00  0.11986466938E+04  0.11986466938E+04  0.25500000920E-02 0.  1.
        2   -1    0    0  501    0  0.00000000000E+00  0.00000000000E+00 -0.75460589031E+03  0.75460589031E+03  0.25500000920E-02 0. -1.
    10030    2    1    2    0    0  0.00000000000E+00  0.00000000000E+00  0.44404080349E+03  0.19532525841E+04  0.19021102550E+04 0.  0.
        1    1    3    3  502    0 -0.11310144406E+03 -0.68775465143E+03 -0.44245371567E+03  0.82556870565E+03  0.50400001928E-02 0. -1.
       -1    1    3    3    0  502  0.11310144406E+03  0.68775465143E+03  0.88649451916E+03  0.11276838785E+04  0.50400001928E-02 0.  1.
</event>
<event>
 5   0  0.3236653E-06  0.1899231E+04  0.7818609E-02  0.8655239E-01
       -1   -1    0    0    0  501  0.00000000000E+00  0.00000000000E+00  0.64999494369E+03  0.64999494371E+03  0.50400001928E-02 0.  1.
        1   -1    0    0  501    0  0.00000000000E+00  0.00000000000E+00 -0.13873492763E+04  0.13873492763E+04  0.50400001928E-02 0. -1.
    10030    2    1    2    0    0  0.00000000000E+00  0.00000000000E+00 -0.73735433264E+03  0.20373442200E+04  0.18992314391E+04 0.  0.
        3    1    3    3  502    0  0.48778971468E+03 -0.71911949317E+03  0.42187827358E+02  0.86997211115E+03  0.10100000352E+00 0.  1.
       -3    1    3    3    0  502 -0.48778971468E+03  0.71911949317E+03 -0.77954215999E+03  0.11673721089E+04  0.10100000352E+00 0. -1.
</event>
<event>
 5   0  0.6862201E-06  0.1900191E+04  0.7818609E-02  0.8654761E-01
        2   -1    0    0  501    0  0.00000000000E+00  0.00000000000E+00  0.13008088923E+04  0.13008088923E+04  0.25500000920E-02 0.  1.
       -2   -1    0    0    0  501  0.00000000000E+00  0.00000000000E+00 -0.69393865089E+03  0.69393865089E+03  0.25500000920E-02 0. -1.
    10030    2    1    2    0    0  0.00000000000E+00  0.00000000000E+00  0.60687024137E+03  0.19947475432E+04  0.19001911144E+04 0.  0.
        3    1    3    3  502    0  0.98123266204E+02  0.80172603670E+02 -0.68502880124E+03  0.69664933106E+03  0.10100000352E+00 0. -1.
       -3    1    3    3    0  502 -0.98123266204E+02 -0.80172603670E+02  0.12918990426E+04  0.12980982121E+04  0.10100000352E+00 0.  1.
</event>
<event>
 5   0  0.3211263E-06  0.1899886E+04  0.7818609E-02  0.8654913E-01
        1   -1    0    0  501    0  0.00000000000E+00  0.00000000000E+00  0.20414901085E+04  0.20414901085E+04  0.50400001928E-02 0.  1.
       -1   -1    0    0    0  501  0.00000000000E+00  0.00000000000E+00 -0.44202578001E+03  0.44202578004E+03  0.50400001928E-02 0. -1.
    10030    2    1    2    0    0  0.00000000000E+00  0.00000000000E+00  0.15994643285E+04  0.24835158885E+04  0.18998855309E+04 0.  0.
        5    1    3    3  502    0  0.69579612744E+03  0.38153159042E+02 -0.44172904836E+02  0.69825586287E+03  0.46999998093E+01 0. -1.
       -5    1    3    3    0  502 -0.69579612744E+03 -0.38153159042E+02  0.16436372333E+04  0.17852600257E+04  0.46999998093E+01 0.  1.
</event>
<event>
 5   0  0.6870370E-06  0.1904663E+04  0.7818609E-02  0.8652539E-01
       -2   -1    0    0    0  501  0.00000000000E+00  0.00000000000E+00  0.86134487709E+03  0.86134487710E+03  0.25500000920E-02 0.  1.
        2   -1    0    0  501    0  0.00000000000E+00  0.00000000000E+00 -0.10529292180E+04  0.10529292180E+04  0.25500000920E-02 0. -1.
    10030    2    1    2    0    0  0.00000000000E+00  0.00000000000E+00 -0.19158434094E+03  0.19142740951E+04  0.19046628971E+04 0.  0.
        1    1    3    3  502    0 -0.21463232800E+03  0.91911731167E+03 -0.22328463666E+03  0.96989674597E+03  0.50400001928E-02 0. -1.
       -1    1    3    3    0  502  0.21463232800E+03 -0.91911731167E+03  0.31700295718E+02  0.94437734917E+03  0.50400001928E-02 0.  1.
</event>
<event>
 5   0  0.6862201E-06  0.1900255E+04  0.7818609E-02  0.8654729E-01
       -2   -1    0    0    0  501  0.00000000000E+00  0.00000000000E+00  0.48736898424E+03  0.48736898424E+03  0.25500000920E-02 0. -1.
        2   -1    0    0  501    0  0.00000000000E+00  0.00000000000E+00 -0.18522772905E+04  0.18522772905E+04  0.25500000920E-02 0.  1.
    10030    2    1    2    0    0  0.00000000000E+00  0.00000000000E+00 -0.13649083062E+04  0.23396462747E+04  0.19002552477E+04 0.  0.
        3    1    3    3  502    0  0.13956852702E+03 -0.93666747921E+03 -0.58774442507E+03  0.11145711551E+04  0.10100000352E+00 0.  1.
       -3    1    3    3    0  502 -0.13956852702E+03  0.93666747921E+03 -0.77716388116E+03  0.12250751196E+04  0.10100000352E+00 0. -1.
</event>
<event>
 5   0  0.3211263E-06  0.1899706E+04  0.7818609E-02  0.8655003E-01
       -1   -1    0    0    0  501  0.00000000000E+00  0.00000000000E+00  0.16625483852E+04  0.16625483852E+04  0.50400001928E-02 0. -1.
        1   -1    0    0  501    0  0.00000000000E+00  0.00000000000E+00 -0.54267324510E+03  0.54267324513E+03  0.50400001928E-02 0.  1.
    10030    2    1    2    0    0  0.00000000000E+00  0.00000000000E+00  0.11198751401E+04  0.22052216303E+04  0.18997057955E+04 0.  0.
        5    1    3    3  502    0  0.49590084157E+03  0.15522308312E+03 -0.36303444821E+03  0.63389900677E+03  0.46999998093E+01 0.  1.
       -5    1    3    3    0  502 -0.49590084157E+03 -0.15522308312E+03  0.14829095883E+04  0.15713226235E+04  0.46999998093E+01 0. -1.
</event>
<event>
 5   0  0.3379108E-06  0.1899274E+04  0.7818609E-02  0.8655218E-01
       -1   -1    0    0    0  501  0.00000000000E+00  0.00000000000E+00  0.11015224551E+04  0.11015224551E+04  0.50400001928E-02 0. -1.
        1   -1    0    0  501    0  0.00000000000E+00  0.00000000000E+00 -0.81869453206E+03  0.81869453208E+03  0.50400001928E-02 0.  1.
    10030    2    1    2    0    0  0.00000000000E+00  0.00000000000E+00  0.28282792306E+03  0.19202169872E+04  0.18992739781E+04 0.  0.
        4    1    3    3  502    0  0.65702753349E+03  0.51012657693E+03 -0.32178034473E+03  0.89188480613E+03  0.12699999809E+01 0. -1.
       -4    1    3    3    0  502 -0.65702753349E+03 -0.51012657693E+03  0.60460826778E+03  0.10283321811E+04  0.12699999809E+01 0.  1.
</event>
<event>
 5   0  0.3495279E-06  0.1900199E+04  0.7818609E-02  0.8654757E-01
       -1   -1    0    0    0  501  0.00000000000E+00  0.00000000000E+00  0.41075156563E+03  0.41075156566E+03  0.50400001928E-02 0.  1.
        1   -1    0    0  501    0  0.00000000000E+00  0.00000000000E+00 -0.21976528196E+04  0.21976528197E+04  0.50400001928E-02 0. -1.
    10030    2    1    2    0    0  0.00000000000E+00  0.00000000000E+00 -0.17869012540E+04  0.26084043853E+04  0.19001992911E+04 0.  0.
        2    1    3    3  502    0 -0.41392148649E+03  0.39934049636E+03 -0.19315294117E+04  0.20153435680E+04  0.25500000920E-02 0. -1.
       -2    1    3    3    0  502  0.41392148649E+03 -0.39934049636E+03  0.14462815766E+03  0.59306081729E+03  0.25500000920E-02 0.  1.
</event>
<event>
 5   0  0.7207648E-06  0.1899865E+04  0.7818609E-02  0.8654923E-01
       -2   -1    0    0    0  501  0.00000000000E+00  0.00000000000E+00  0.42243230306E+03  0.42243230306E+03  0.25500000920E-02 0.  1.
        2   -1    0    0  501    0  0.00000000000E+00  0.00000000000E+00 -0.21361341134E+04  0.21361341134E+04  0.25500000920E-02 0. -1.
    10030    2    1    2    0    0  0.00000000000E+00  0.00000000000E+00 -0.17137018103E+04  0.25585664165E+04  0.18998653144E+04 0.  0.
        4    1    3    3  502    0 -0.61708574704E+03 -0.64379259804E+03 -0.12975906586E+04  0.15744862206E+04  0.12699999809E+01 0. -1.
       -4    1    3    3    0  502  0.61708574704E+03  0.64379259804E+03 -0.41611115172E+03  0.98408019591E+03  0.12699999809E+01 0.  1.
</event>
<event>
 5   0  0.6870370E-06  0.1900031E+04  0.7818609E-02  0.8654841E-01
        2   -1    0    0  501    0  0.00000000000E+00  0.00000000000E+00  0.96381619879E+03  0.96381619880E+03  0.25500000920E-02 0. -1.
       -2   -1    0    0    0  501  0.00000000000E+00  0.00000000000E+00 -0.93641248362E+03  0.93641248362E+03  0.25500000920E-02 0.  1.
    10030    2    1    2    0    0  0.00000000000E+00  0.00000000000E+00  0.27403715176E+02  0.19002286824E+04  0.19000310739E+04 0.  0.
        1    1    3    3  502    0 -0.58366896088E+03 -0.72870615048E+03  0.18935443388E+03  0.95264747483E+03  0.50400001928E-02 0. -1.
       -1    1    3    3    0  502  0.58366896088E+03  0.72870615048E+03 -0.16195071870E+03  0.94758120758E+03  0.50400001928E-02 0.  1.
</event>
<event>
 5   0  0.3398807E-06  0.1900545E+04  0.7818609E-02  0.8654585E-01
        1   -1    0    0  501    0  0.00000000000E+00  0.00000000000E+00  0.12146890152E+04  0.12146890152E+04  0.50400001928E-02 0.  1.
       -1   -1    0    0    0  501  0.00000000000E+00  0.00000000000E+00 -0.74341463089E+03  0.74341463091E+03  0.50400001928E-02 0. -1.
    10030    2    1    2    0    0  0.00000000000E+00  0.00000000000E+00  0.47127438429E+03  0.19581036461E+04  0.19005447492E+04 0.  0.
        1    1    3    3  502    0  0.19012090566E+03 -0.41637981100E+03  0.10936240711E+04  0.11855512282E+04  0.50400001928E-02 0.  1.
       -1    1    3    3    0  502 -0.19012090566E+03  0.41637981100E+03 -0.62234968679E+03  0.77255241793E+03  0.50400001928E-02 0. -1.
</event>
<event>
 5   0  0.7577180E-06  0.1900294E+04  0.7818609E-02  0.8654710E-01
        2   -1    0    0  501    0  0.00000000000E+00  0.00000000000E+00  0.85739080343E+03  0.85739080343E+03  0.25500000920E-02 0.  1.
       -2   -1    0    0    0  501  0.00000000000E+00  0.00000000000E+00 -0.10529374828E+04  0.10529374828E+04  0.25500000920E-02 0. -1.
    10030    2    1    2    0    0  0.00000000000E+00  0.00000000000E+00 -0.19554667938E+03  0.19103282862E+04  0.19002935714E+04 0.  0.
        5    1    3    3  502    0 -0.34385740150E+03 -0.83959104785E+03  0.18586152880E+03  0.92613046494E+03  0.46999998093E+01 0.  1.
       -5    1    3    3    0  502  0.34385740150E+03  0.83959104785E+03 -0.38140820818E+03  0.98419782130E+03  0.46999998093E+01 0. -1.
</event>
<event>
 5   0  0.3379108E-06  0.1899975E+04  0.7818609E-02  0.8654869E-01
        1   -1    0    0  501    0  0.00000000000E+00  0.00000000000E+00  0.94262108572E+03  0.94262108573E+03  0.50400001928E-02 0. -1.
       -1   -1    0    0    0  501  0.00000000000E+00  0.00000000000E+00 -0.95741126371E+03  0.95741126373E+03  0.50400001928E-02 0.  1.
    10030    2    1    2    0    0  0.00000000000E+00  0.00000000000E+00 -0.14790177994E+02  0.19000323495E+04  0.18999747839E+04 0.  0.
        4    1    3    3  502    0 -0.63687584475E+03  0.62300314935E+03 -0.33714841351E+03  0.95258303122E+03  0.12699999809E+01 0. -1.
       -4    1    3    3    0  502  0.63687584475E+03 -0.62300314935E+03  0.32235823552E+03  0.94744931824E+03  0.12699999809E+01 0.  1.
</event>
<event>
 5   0  0.3236653E-06  0.1899856E+04  0.7818609E-02  0.8654928E-01
        1   -1    0    0  501    0  0.00000000000E+00  0.00000000000E+00  0.23326760494E+04  0.23326760494E+04  0.50400001928E-02 0. -1.
       -1   -1    0    0    0  501  0.00000000000E+00  0.00000000000E+00 -0.38683591456E+03  0.38683591459E+03  0.50400001928E-02 0.  1.
    10030    2    1    2    0    0  0.00000000000E+00  0.00000000000E+00  0.19458401348E+04  0.27195119640E+04  0.18998556503E+04 0.  0.
        3    1    3    3  502    0 -0.52185665449E+03 -0.76362634561E+03  0.12829274707E+04  0.15815696218E+04  0.10100000352E+00 0. -1.
       -3    1    3    3    0  502  0.52185665449E+03  0.76362634561E+03  0.66291266417E+03  0.11379423421E+04  0.10100000352E+00 0.  1.
</event>
<event>
 5   0  0.3495279E-06  0.1897710E+04  0.7818609E-02  0.8655997E-01
       -1   -1    0    0    0  501  0.00000000000E+00  0.00000000000E+00  0.53728083224E+03  0.53728083226E+03  0.50400001928E-02 0.  1.
        1   -1    0    0  501    0  0.00000000000E+00  0.00000000000E+00 -0.16757076252E+04  0.16757076252E+04  0.50400001928E-02 0. -1.
    10030    2    1    2    0    0  0.00000000000E+00  0.00000000000E+00 -0.11384267929E+04  0.22129884574E+04  0.18977097644E+04 0.  0.
        2    1    3    3  502    0  0.52911093394E+03  0.31313576018E+02  0.34854904945E+03  0.63437005000E+03  0.25500000920E-02 0.  1.
       -2    1    3    3    0  502 -0.52911093394E+03 -0.31313576018E+02 -0.14869758424E+04  0.15786184074E+04  0.25500000920E-02 0. -1.
</event>
<event>
 5   0  0.7207648E-06  0.1900575E+04  0.7818609E-02  0.8654570E-01
       -2   -1    0    0    0  501  0.00000000000E+00  0.00000000000E+00  0.11111712925E+04  0.11111712925E+04  0.25500000920E-02 0. -1.
        2   -1    0    0  501    0  0.00000000000E+00  0.00000000000E+00 -0.81269763797E+03  0.81269763797E+03  0.25500000920E-02 0.  1.
    10030    2    1    2    0    0  0.00000000000E+00  0.00000000000E+00  0.29847365454E+03  0.19238689305E+04  0.19005749497E+04 0.  0.
        4    1    3    3  502    0 -0.19038404822E+03 -0.57988251019E+03  0.88654227570E+03  0.10763218064E+04  0.12699999809E+01 0. -1.
       -4    1    3    3    0  502  0.19038404822E+03  0.57988251019E+03 -0.58806862116E+03  0.84754712408E+03  0.12699999809E+01 0.  1.
</event>
<event>
 5   0  0.3398807E-06  0.1899692E+04  0.7818609E-02  0.8655010E-01
       -1   -1    0    0    0  501  0.00000000000E+00  0.00000000000E+00  0.93191261816E+03  0.93191261817E+03  0.50400001928E-02 0.  1.
        1   -1    0    0  501    0  0.00000000000E+00  0.00000000000E+00 -0.96812471770E+03  0.96812471772E+03  0.50400001928E-02 0. -1.
    10030    2    1    2    0    0  0.00000000000E+00  0.00000000000E+00 -0.36212099545E+02  0.19000373359E+04  0.18996922281E+04 0.  0.
        1    1    3    3  502    0  0.75334629233E+03 -0.56127738992E+03  0.12207894920E+03  0.94734693458E+03  0.50400001928E-02 0.  1.
       -1    1    3    3    0  502 -0.75334629233E+03  0.56127738992E+03 -0.15829104874E+03  0.95269040131E+03  0.50400001928E-02 0. -1.
</event>
<event>
 5   0  0.3236653E-06  0.1899940E+04  0.7818609E-02  0.8654886E-01
        1   -1    0    0  501    0  0.00000000000E+00  0.00000000000E+00  0.28381902489E+04  0.28381902489E+04  0.50400001928E-02 0.  1.
       -1   -1    0    0    0  501  0.00000000000E+00  0.00000000000E+00 -0.31796431996E+03  0.31796432000E+03  0.50400001928E-02 0. -1.
    10030    2    1    2    0    0  0.00000000000E+00  0.00000000000E+00  0.25202259289E+04  0.31561545689E+04  0.18999402438E+04 0.  0.
        3    1    3    3  502    0  0.12922489158E+03  0.35656182870E+03  0.27069745212E+04  0.27334129726E+04  0.10100000352E+00 0.  1.
       -3    1    3    3    0  502 -0.12922489158E+03 -0.35656182870E+03 -0.18674859228E+03  0.42274159626E+03  0.10100000352E+00 0. -1.
</event>
<event>
 5   0  0.6984466E-06  0.1899567E+04  0.7818609E-02  0.8655072E-01
        2   -1    0    0  501    0  0.00000000000E+00  0.00000000000E+00  0.54553770001E+03  0.54553770002E+03  0.25500000920E-02 0.  1.
       -2   -1    0    0    0  501  0.00000000000E+00  0.00000000000E+00 -0.16535771845E+04  0.16535771845E+04  0.25500000920E-02 0. -1.
    10030    2    1    2    0    0  0.00000000000E+00  0.00000000000E+00 -0.11080394845E+04  0.21991148845E+04  0.18995669970E+04 0.  0.
        2    1    3    3  502    0  0.12047294733E+03  0.77754589439E+03 -0.11698832668E+04  0.14098646059E+04  0.25500000920E-02 0. -1.
       -2    1    3    3    0  502 -0.12047294733E+03 -0.77754589439E+03  0.61843782324E+02  0.78925027865E+03  0.25500000920E-02 0.  1.
</event>
<event>
 5   0  0.7207648E-06  0.1900321E+04  0.7818609E-02  0.8654697E-01
       -2   -1    0    0    0  501  0.00000000000E+00  0.00000000000E+00  0.43184957634E+03  0.43184957635E+03  0.25500000920E-02 0. -1.
        2   -1    0    0  501    0  0.00000000000E+00  0.00000000000E+00 -0.20905547342E+04  0.20905547342E+04  0.25500000920E-02 0.  1.
    10030    2    1    2    0    0  0.00000000000E+00  0.00000000000E+00 -0.16587051578E+04  0.25224043105E+04  0.19003212110E+04 0.  0.
        4    1    3    3  502    0  0.14171857900E+03 -0.35531325070E+03 -0.19838263876E+04  0.20203713547E+04  0.12699999809E+01 0.  1.
       -4    1    3    3    0  502 -0.14171857900E+03  0.35531325070E+03  0.32512122981E+03  0.50203295582E+03  0.12699999809E+01 0. -1.
</event>
<event>
 5   0  0.3211263E-06  0.1898962E+04  0.7818609E-02  0.8655373E-01
        1   -1    0    0  501    0  0.00000000000E+00  0.00000000000E+00  0.33145497111E+04  0.33145497111E+04  0.50400001928E-02 0. -1.
       -1   -1    0    0    0  501  0.00000000000E+00  0.00000000000E+00 -0.27198698343E+03  0.27198698348E+03  0.50400001928E-02 0.  1.
    10030    2    1    2    0    0  0.00000000000E+00  0.00000000000E+00  0.30425627276E+04  0.35865366946E+04  0.18989622192E+04 0.  0.
        5    1    3    3  502    0 -0.65216999975E+03  0.13766453246E+03  0.27983646336E+04  0.28766549923E+04  0.46999998093E+01 0. -1.
       -5    1    3    3    0  502  0.65216999975E+03 -0.13766453246E+03  0.24419809403E+03  0.70988170226E+03  0.46999998093E+01 0.  1.
</event>
<event>
 5   0  0.7207648E-06  0.1900022E+04  0.7818609E-02  0.8654846E-01
       -2   -1    0    0    0  501  0.00000000000E+00  0.00000000000E+00  0.63175394053E+03  0.63175394053E+03  0.25500000920E-02 0.  1.
        2   -1    0    0  501    0  0.00000000000E+00  0.00000000000E+00 -0.14285951480E+04  0.14285951480E+04  0.25500000920E-02 0. -1.
    10030    2    1    2    0    0  0.00000000000E+00  0.00000000000E+00 -0.79684120743E+03  0.20603490885E+04  0.19000216990E+04 0.  0.
        4    1    3    3  502    0 -0.37869522605E+02  0.42794095345E+03  0.52039801022E+03  0.67482091130E+03  0.12699999809E+01 0. -1.
       -4    1    3    3    0  502  0.37869522605E+02 -0.42794095345E+03 -0.13172392177E+04  0.13855281772E+04  0.12699999809E+01 0.  1.
</event>
<event>
 5   0  0.3495279E-06  0.1899012E+04  0.7818609E-02  0.8655348E-01
       -1   -1    0    0    0  501  0.00000000000E+00  0.00000000000E+00  0.71057426515E+03  0.71057426517E+03  0.50400001928E-02 0.  1.
        1   -1    0    0  501    0  0.00000000000E+00  0.00000000000E+00 -0.12687792015E+04  0.12687792015E+04  0.50400001928E-02 0. -1.
    10030    2    1    2    0    0  0.00000000000E+00  0.00000000000E+00 -0.55820493637E+03  0.19793534667E+04  0.18990122156E+04 0.  0.
        2    1    3    3  502    0  0.83924241599E+02  0.90829733592E+03 -0.42919431770E+01  0.91217638073E+03  0.25500000920E-02 0.  1.
       -2    1    3    3    0  502 -0.83924241599E+02 -0.90829733592E+03 -0.55391299319E+03  0.10671770860E+04  0.25500000920E-02 0. -1.
</event>
<event>
 5   0  0.7577180E-06  0.1898032E+04  0.7818609E-02  0.8655837E-01
       -2   -1    0    0    0  501  0.00000000000E+00  0.00000000000E+00  0.41799517526E+03  0.41799517527E+03  0.25500000920E-02 0. -1.
        2   -1    0    0  501    0  0.00000000000E+00  0.00000000000E+00 -0.21546442379E+04  0.21546442379E+04  0.25500000920E-02 0.  1.
    10030    2    1    2    0    0  0.00000000000E+00  0.00000000000E+00 -0.17366490627E+04  0.25726394132E+04  0.18980315022E+04 0.  0.
        5    1    3    3  502    0  0.71553292061E+03  0.58199308663E+03 -0.11711202119E+04  0.14907206157E+04  0.46999998093E+01 0.  1.
       -5    1    3    3    0  502 -0.71553292061E+03 -0.58199308663E+03 -0.56552885082E+03  0.10819187975E+04  0.46999998093E+01 0. -1.
</event>
<event>
 5   0  0.3379108E-06  0.1888363E+04  0.7818609E-02  0.8660671E-01
        1   -1    0    0  501    0  0.00000000000E+00  0.00000000000E+00  0.11133446019E+04  0.11133446019E+04  0.50400001928E-02 0.  1.
       -1   -1    0    0    0  501  0.00000000000E+00  0.00000000000E+00 -0.80072134710E+03  0.80072134712E+03  0.50400001928E-02 0. -1.
    10030    2    1    2    0    0  0.00000000000E+00  0.00000000000E+00  0.31262325479E+03  0.19140659490E+04  0.18883630895E+04 0.  0.
        4    1    3    3  502    0 -0.93868475138E+03  0.14902040251E+02  0.25830953991E+03  0.97369223299E+03  0.12699999809E+01 0.  1.
       -4    1    3    3    0  502  0.93868475138E+03 -0.14902040251E+02  0.54313714885E+02  0.94037371603E+03  0.12699999809E+01 0. -1.
</event>
<event>
 5   0  0.6862201E-06  0.1899616E+04  0.7818609E-02  0.8655047E-01
        2   -1    0    0  501    0  0.00000000000E+00  0.00000000000E+00  0.13197618028E+04  0.13197618028E+04  0.25500000920E-02 0. -1.
       -2   -1    0    0    0  501  0.00000000000E+00  0.00000000000E+00 -0.68355922461E+03  0.68355922462E+03  0.25500000920E-02 0.  1.
    10030    2    1    2    0    0  0.00000000000E+00  0.00000000000E+00  0.63620257820E+03  0.20033210274E+04  0.18996161240E+04 0.  0.
        3    1    3    3  502    0 -0.26940018733E+03  0.52257819281E+03  0.11047954699E+04  0.12514940947E+04  0.10100000352E+00 0. -1.
       -3    1    3    3    0  502  0.26940018733E+03 -0.52257819281E+03 -0.46859289166E+03  0.75182693278E+03  0.10100000352E+00 0.  1.
</event>
<event>
 5   0  0.3495279E-06  0.1894929E+04  0.7818609E-02  0.8657385E-01
       -1   -1    0    0    0  501  0.00000000000E+00  0.00000000000E+00  0.64131030230E+03  0.64131030232E+03  0.50400001928E-02 0.  1.
        1   -1    0    0  501    0  0.00000000000E+00  0.00000000000E+00 -0.13997724687E+04  0.13997724687E+04  0.50400001928E-02 0. -1.
    10030    2    1    2    0    0  0.00000000000E+00  0.00000000000E+00 -0.75846216637E+03  0.20410827710E+04  0.18949285000E+04 0.  0.
        2    1    3    3  502    0  0.30953955623E+03  0.75874312232E+03 -0.89149931725E+03  0.12108992093E+04  0.25500000920E-02 0. -1.
       -2    1    3    3    0  502 -0.30953955623E+03 -0.75874312232E+03  0.13303715088E+03  0.83018356166E+03  0.25500000920E-02 0.  1.
</event>
<event>
 5   0  0.6984466E-06  0.1900042E+04  0.7818609E-02  0.8654835E-01
        2   -1    0    0  501    0  0.00000000000E+00  0.00000000000E+00  0.81894161687E+03  0.81894161687E+03  0.25500000920E-02 0.  1.
       -2   -1    0    0    0  501  0.00000000000E+00  0.00000000000E+00 -0.11020812938E+04  0.11020812938E+04  0.25500000920E-02 0. -1.
    10030    2    1    2    0    0  0.00000000000E+00  0.00000000000E+00 -0.28313967691E+03  0.19210229107E+04  0.19000423539E+04 0.  0.
        2    1    3    3  502    0  0.25419676164E+03  0.80797050603E+03 -0.57656231394E+03  0.10246250212E+04  0.25500000920E-02 0. -1.
       -2    1    3    3    0  502 -0.25419676164E+03 -0.80797050603E+03  0.29342263703E+03  0.89639788943E+03  0.25500000920E-02 0.  1.
</event>
<event>
 5   0  0.2527750E-06  0.1898339E+04  0.7818609E-02  0.8655684E-01
       -3   -1    0    0    0  501  0.00000000000E+00  0.00000000000E+00  0.92795366719E+03  0.92795367269E+03  0.10100000352E+00 0. -1.
        3   -1    0    0  501    0  0.00000000000E+00  0.00000000000E+00 -0.97087002622E+03  0.97087003147E+03  0.10100000352E+00 0.  1.
    10030    2    1    2    0    0  0.00000000000E+00  0.00000000000E+00 -0.42916359029E+02  0.18988237042E+04  0.18983386541E+04 0.  0.
        4    1    3    3  502    0 -0.10081123700E+03  0.43436347375E+03 -0.85957815646E+03  0.96835466271E+03  0.12699999809E+01 0.  1.
       -4    1    3    3    0  502  0.10081123700E+03 -0.43436347375E+03  0.81666179743E+03  0.93046904146E+03  0.12699999809E+01 0. -1.
</event>
<event>
 5   0  0.7207648E-06  0.1900857E+04  0.7818609E-02  0.8654430E-01
        2   -1    0    0  501    0  0.00000000000E+00  0.00000000000E+00  0.19701040123E+04  0.19701040123E+04  0.25500000920E-02 0.  1.
       -2   -1    0    0    0  501  0.00000000000E+00  0.00000000000E+00 -0.45851094991E+03  0.45851094992E+03  0.25500000920E-02 0. -1.
    10030    2    1    2    0    0  0.00000000000E+00  0.00000000000E+00  0.15115930624E+04  0.24286149623E+04  0.19008569248E+04 0.  0.
        4    1    3    3  502    0  0.10949868920E+03 -0.12422772439E+03  0.19515291052E+04  0.19585428134E+04  0.12699999809E+01 0.  1.
       -4    1    3    3    0  502 -0.10949868920E+03  0.12422772439E+03 -0.43993604282E+03  0.47007214884E+03  0.12699999809E+01 0. -1.
</event>
<event>
 5   0  0.7577180E-06  0.1899680E+04  0.7818609E-02  0.8655016E-01
       -2   -1    0    0    0  501  0.00000000000E+00  0.00000000000E+00  0.82643140084E+03  0.82643140084E+03  0.25500000920E-02 0. -1.
        2   -1    0    0  501    0  0.00000000000E+00  0.00000000000E+00 -0.10916766031E+04  0.10916766031E+04  0.25500000920E-02 0.  1.
    10030    2    1    2    0    0  0.00000000000E+00  0.00000000000E+00 -0.26524520227E+03  0.19181080040E+04  0.18996797882E+04 0.  0.
        5    1    3    3  502    0  0.77715142646E+03  0.44053333496E+03 -0.45846003302E+03  0.10041123696E+04  0.46999998093E+01 0.  1.
       -5    1    3    3    0  502 -0.77715142646E+03 -0.44053333496E+03  0.19321483074E+03  0.91399563438E+03  0.46999998093E+01 0. -1.
</event>
<event>
 5   0  0.3398807E-06  0.1900702E+04  0.7818609E-02  0.8654507E-01
        1   -1    0    0  501    0  0.00000000000E+00  0.00000000000E+00  0.70788249304E+03  0.70788249305E+03  0.50400001928E-02 0.  1.
       -1   -1    0    0    0  501  0.00000000000E+00  0.00000000000E+00 -0.12758712890E+04  0.12758712890E+04  0.50400001928E-02 0. -1.
    10030    2    1    2    0    0  0.00000000000E+00  0.00000000000E+00 -0.56798879595E+03  0.19837537821E+04  0.19007019218E+04 0.  0.
        1    1    3    3  502    0  0.16414690751E+03  0.62513581794E+03 -0.10111647163E+04  0.12000804480E+04  0.50400001928E-02 0. -1.
       -1    1    3    3    0  502 -0.16414690751E+03 -0.62513581794E+03  0.44317592036E+03  0.78367333406E+03  0.50400001928E-02 0.  1.
</event>
<event>
 5   0  0.3495279E-06  0.1900537E+04  0.7818609E-02  0.8654589E-01
        1   -1    0    0  501    0  0.00000000000E+00  0.00000000000E+00  0.13864816175E+04  0.13864816175E+04  0.50400001928E-02 0. -1.
       -1   -1    0    0    0  501  0.00000000000E+00  0.00000000000E+00 -0.65129592759E+03  0.65129592761E+03  0.50400001928E-02 0.  1.
    10030    2    1    2    0    0  0.00000000000E+00  0.00000000000E+00  0.73518568989E+03  0.20377775451E+04  0.19005365886E+04 0.  0.
        2    1    3    3  502    0  0.80293065150E+03  0.50355853728E+03  0.29376579824E+03  0.99225358443E+03  0.25500000920E-02 0.  1.
       -2    1    3    3    0  502 -0.80293065150E+03 -0.50355853728E+03  0.44141989164E+03  0.10455239607E+04  0.25500000920E-02 0. -1.
</event>
<event>
 5   0  0.7577180E-06  0.1899692E+04  0.7818609E-02  0.8655010E-01
       -2   -1    0    0    0  501  0.00000000000E+00  0.00000000000E+00  0.36823921695E+03  0.36823921696E+03  0.25500000920E-02 0. -1.
        2   -1    0    0  501    0  0.00000000000E+00  0.00000000000E+00 -0.24500585497E+04  0.24500585497E+04  0.25500000920E-02 0.  1.
    10030    2    1    2    0    0  0.00000000000E+00  0.00000000000E+00 -0.20818193327E+04  0.28182977666E+04  0.18996922296E+04 0.  0.
        5    1    3    3  502    0 -0.50369474861E+03  0.25412768368E+03  0.92720728118E+02  0.57175913006E+03  0.46999998093E+01 0. -1.
       -5    1    3    3    0  502  0.50369474861E+03 -0.25412768368E+03 -0.21745400608E+04  0.22465386366E+04  0.46999998093E+01 0.  1.
</event>
<event>
 5   0  0.3236653E-06  0.1899755E+04  0.7818609E-02  0.8654978E-01
       -1   -1    0    0    0  501  0.00000000000E+00  0.00000000000E+00  0.30254481014E+04  0.30254481014E+04  0.50400001928E-02 0.  1.
        1   -1    0    0  501    0  0.00000000000E+00  0.00000000000E+00 -0.29822605134E+03  0.29822605138E+03  0.50400001928E-02 0. -1.
    10030    2    1    2    0    0  0.00000000000E+00  0.00000000000E+00  0.27272220500E+04  0.33236741528E+04  0.18997551852E+04 0.  0.
        3    1    3    3  502    0 -0.16378555297E+03  0.88040552549E+03  0.19177663609E+04  0.21165461067E+04  0.10100000352E+00 0.  1.
       -3    1    3    3    0  502  0.16378555297E+03 -0.88040552549E+03  0.80945568914E+03  0.12071280460E+04  0.10100000352E+00 0. -1.
</event>
<event>
 5   0  0.6870370E-06  0.1900269E+04  0.7818609E-02  0.8654723E-01
        2   -1    0    0  501    0  0.00000000000E+00  0.00000000000E+00  0.16576252336E+04  0.16576252336E+04  0.25500000920E-02 0.  1.
       -2   -1    0    0    0  501  0.00000000000E+00  0.00000000000E+00 -0.54460748873E+03  0.54460748873E+03  0.25500000920E-02 0. -1.
    10030    2    1    2    0    0  0.00000000000E+00  0.00000000000E+00  0.11130177449E+04  0.22022327224E+04  0.19002685239E+04 0.  0.
        1    1    3    3  502    0 -0.58675257255E+03 -0.34645403269E+03  0.13238816011E+04  0.14889497883E+04  0.50400001928E-02 0.  1.
       -1    1    3    3    0  502  0.58675257255E+03  0.34645403269E+03 -0.21086385624E+03  0.71328293408E+03  0.50400001928E-02 0. -1.
</event>
<event>
 5   0  0.3398807E-06  0.1899524E+04  0.7818609E-02  0.8655094E-01
        1   -1    0    0  501    0  0.00000000000E+00  0.00000000000E+00  0.74336679001E+03  0.74336679002E+03  0.50400001928E-02 0.  1.
       -1   -1    0    0    0  501  0.00000000000E+00  0.00000000000E+00 -0.12134621583E+04  0.12134621583E+04  0.50400001928E-02 0. -1.
    10030    2    1    2    0    0  0.00000000000E+00  0.00000000000E+00 -0.47009536829E+03  0.19568289483E+04  0.18995235923E+04 0.  0.
        1    1    3    3  502    0  0.52909675107E+03  0.75495398610E+03 -0.47029755877E+03  0.10349293149E+04  0.50400001928E-02 0.  1.
       -1    1    3    3    0  502 -0.52909675107E+03 -0.75495398610E+03  0.20219047967E+00  0.92189963338E+03  0.50400001928E-02 0. -1.
</event>
<event>
 5   0  0.6870370E-06  0.1898773E+04  0.7818609E-02  0.8655467E-01
        2   -1    0    0  501    0  0.00000000000E+00  0.00000000000E+00  0.94633973171E+03  0.94633973171E+03  0.25500000920E-02 0. -1.
       -2   -1    0    0    0  501  0.00000000000E+00  0.00000000000E+00 -0.95244317880E+03  0.95244317880E+03  0.25500000920E-02 0.  1.
    10030    2    1    2    0    0  0.00000000000E+00  0.00000000000E+00 -0.61034470918E+01  0.18987829105E+04  0.18987731010E+04 0.  0.
        1    1    3    3  502    0 -0.28383014756E+03  0.90111548411E+03  0.90576501257E+02  0.94909049673E+03  0.50400001928E-02 0. -1.
       -1    1    3    3    0  502  0.28383014756E+03 -0.90111548411E+03 -0.96679948349E+02  0.94969241379E+03  0.50400001928E-02 0.  1.
</event>
<event>
 5   0  0.6870370E-06  0.1903060E+04  0.7818609E-02  0.8653335E-01
        2   -1    0    0  501    0  0.00000000000E+00  0.00000000000E+00  0.13480049852E+04  0.13480049852E+04  0.25500000920E-02 0. -1.
       -2   -1    0    0    0  501  0.00000000000E+00  0.00000000000E+00 -0.67166595514E+03  0.67166595514E+03  0.25500000920E-02 0.  1.
    10030    2    1    2    0    0  0.00000000000E+00  0.00000000000E+00  0.67633903010E+03  0.20196709404E+04  0.19030597005E+04 0.  0.
        1    1    3    3  502    0  0.14754755787E+03 -0.71364338444E+03  0.98750363125E+03  0.12272817866E+04  0.50400001928E-02 0. -1.
       -1    1    3    3    0  502 -0.14754755787E+03  0.71364338444E+03 -0.31116460115E+03  0.79238915377E+03  0.50400001928E-02 0.  1.
</event>
<event>
 5   0  0.7577180E-06  0.1899945E+04  0.7818609E-02  0.8654884E-01
       -2   -1    0    0    0  501  0.00000000000E+00  0.00000000000E+00  0.48814591992E+03  0.48814591993E+03  0.25500000920E-02 0. -1.
        2   -1    0    0  501    0  0.00000000000E+00  0.00000000000E+00 -0.18487248976E+04  0.18487248976E+04  0.25500000920E-02 0.  1.
    10030    2    1    2    0    0  0.00000000000E+00  0.00000000000E+00 -0.13605789777E+04  0.23368708175E+04  0.18999447527E+04 0.  0.
        5    1    3    3  502    0 -0.39924694829E+03 -0.20598453176E+03 -0.17097935824E+04  0.17678359476E+04  0.46999998093E+01 0.  1.
       -5    1    3    3    0  502  0.39924694829E+03  0.20598453176E+03  0.34921460476E+03  0.56903486995E+03  0.46999998093E+01 0. -1.
</event>
<event>
 5   0  0.6862201E-06  0.1899087E+04  0.7818609E-02  0.8655311E-01
       -2   -1    0    0    0  501  0.00000000000E+00  0.00000000000E+00  0.50197469696E+03  0.50197469697E+03  0.25500000920E-02 0.  1.
        2   -1    0    0  501    0  0.00000000000E+00  0.00000000000E+00 -0.17961714672E+04  0.17961714672E+04  0.25500000920E-02 0. -1.
    10030    2    1    2    0    0  0.00000000000E+00  0.00000000000E+00 -0.12941967702E+04  0.22981461641E+04  0.18990867573E+04 0.  0.
        3    1    3    3  502    0 -0.64093476585E+03  0.42858509396E+03 -0.13177672486E+04  0.15267590146E+04  0.10100000352E+00 0. -1.
       -3    1    3    3    0  502  0.64093476585E+03 -0.42858509396E+03  0.23570478433E+02  0.77138714955E+03  0.10100000352E+00 0.  1.
</event>
<event>
 5   0  0.3495279E-06  0.1900660E+04  0.7818609E-02  0.8654528E-01
        1   -1    0    0  501    0  0.00000000000E+00  0.00000000000E+00  0.12532640477E+04  0.12532640477E+04  0.50400001928E-02 0.  1.
       -1   -1    0    0    0  501  0.00000000000E+00  0.00000000000E+00 -0.72062034520E+03  0.72062034522E+03  0.50400001928E-02 0. -1.
    10030    2    1    2    0    0  0.00000000000E+00  0.00000000000E+00  0.53264370253E+03  0.19738843930E+04  0.19006604860E+04 0.  0.
        2    1    3    3  502    0  0.77858652973E+02 -0.16128880314E+02  0.12498035644E+04  0.12523302521E+04  0.25500000920E-02 0.  1.
       -2    1    3    3    0  502 -0.77858652973E+02  0.16128880314E+02 -0.71715986192E+03  0.72155414085E+03  0.25500000920E-02 0. -1.
</event>
<event>
 5   0  0.3236653E-06  0.1902500E+04  0.7818609E-02  0.8653613E-01
        1   -1    0    0  501    0  0.00000000000E+00  0.00000000000E+00  0.15714453409E+04  0.15714453409E+04  0.50400001928E-02 0.  1.
       -1   -1    0    0    0  501  0.00000000000E+00  0.00000000000E+00 -0.57582448465E+03  0.57582448467E+03  0.50400001928E-02 0. -1.
    10030    2    1    2    0    0  0.00000000000E+00  0.00000000000E+00  0.99562085628E+03  0.21472698256E+04  0.19025001484E+04 0.  0.
        3    1    3    3  502    0 -0.86693599645E+02  0.46449391345E+03  0.14296233431E+04  0.15056869825E+04  0.10100000352E+00 0.  1.
       -3    1    3    3    0  502  0.86693599645E+02 -0.46449391345E+03 -0.43400248682E+03  0.64158284314E+03  0.10100000352E+00 0. -1.
</event>
<event>
 5   0  0.2527750E-06  0.1900203E+04  0.7818609E-02  0.8654755E-01
       -3   -1    0    0    0  501  0.00000000000E+00  0.00000000000E+00  0.18016918704E+04  0.18016918733E+04  0.10100000352E+00 0.  1.
        3   -1    0    0  501    0  0.00000000000E+00  0.00000000000E+00 -0.50102517433E+03  0.50102518451E+03  0.10100000352E+00 0. -1.
    10030    2    1    2    0    0  0.00000000000E+00  0.00000000000E+00  0.13006666961E+04  0.23027170578E+04  0.19002031454E+04 0.  0.
        1    1    3    3  502    0 -0.70220681733E+03  0.37028353397E+03  0.17754326970E+02  0.79405259649E+03  0.50400001928E-02 0. -1.
       -1    1    3    3    0  502  0.70220681733E+03 -0.37028353397E+03  0.12829123691E+04  0.15086644613E+04  0.50400001928E-02 0.  1.
</event>
<event>
 5   0  0.3495279E-06  0.1899278E+04  0.7818609E-02  0.8655216E-01
       -1   -1    0    0    0  501  0.00000000000E+00  0.00000000000E+00  0.52288493943E+03  0.52288493945E+03  0.50400001928E-02 0.  1.
        1   -1    0    0  501    0  0.00000000000E+00  0.00000000000E+00 -0.17246896631E+04  0.17246896631E+04  0.50400001928E-02 0. -1.
    10030    2    1    2    0    0  0.00000000000E+00  0.00000000000E+00 -0.12018047237E+04  0.22475746025E+04  0.18992780208E+04 0.  0.
        2    1    3    3  502    0  0.70148454971E+03  0.11741720687E+03  0.14373364717E+03  0.72562161992E+03  0.25500000920E-02 0.  1.
       -2    1    3    3    0  502 -0.70148454971E+03 -0.11741720687E+03 -0.13455383708E+04  0.15219529826E+04  0.25500000920E-02 0. -1.
</event>
<event>
 5   0  0.3398807E-06  0.1903652E+04  0.7818609E-02  0.8653041E-01
        1   -1    0    0  501    0  0.00000000000E+00  0.00000000000E+00  0.18571890078E+04  0.18571890078E+04  0.50400001928E-02 0. -1.
       -1   -1    0    0    0  501  0.00000000000E+00  0.00000000000E+00 -0.48781925187E+03  0.48781925189E+03  0.50400001928E-02 0.  1.
    10030    2    1    2    0    0  0.00000000000E+00  0.00000000000E+00  0.13693697559E+04  0.23450082597E+04  0.19036518089E+04 0.  0.
        1    1    3    3  502    0 -0.45654287945E+03 -0.94549235715E+02  0.17068966371E+04  0.17694256381E+04  0.50400001928E-02 0. -1.
       -1    1    3    3    0  502  0.45654287945E+03  0.94549235715E+02 -0.33752688121E+03  0.57558262162E+03  0.50400001928E-02 0.  1.
</event>
<event>
 5   0  0.6870370E-06  0.1899977E+04  0.7818609E-02  0.8654868E-01
       -2   -1    0    0    0  501  0.00000000000E+00  0.00000000000E+00  0.87286899714E+03  0.87286899715E+03  0.25500000920E-02 0. -1.
        2   -1    0    0  501    0  0.00000000000E+00  0.00000000000E+00 -0.10339212244E+04  0.10339212244E+04  0.25500000920E-02 0.  1.
    10030    2    1    2    0    0  0.00000000000E+00  0.00000000000E+00 -0.16105222727E+03  0.19067902216E+04  0.18999766128E+04 0.  0.
        1    1    3    3  502    0  0.22209991017E+02  0.75561929984E+03 -0.65793622378E+03  0.10021645995E+04  0.50400001928E-02 0.  1.
       -1    1    3    3    0  502 -0.22209991017E+02 -0.75561929984E+03  0.49688399651E+03  0.90462562201E+03  0.50400001928E-02 0. -1.
</event>
<event>
 5   0  0.3236653E-06  0.1900261E+04  0.7818609E-02  0.8654726E-01
       -1   -1    0    0    0  501  0.00000000000E+00  0.00000000000E+00  0.11346746034E+04  0.11346746034E+04  0.50400001928E-02 0. -1.
        1   -1    0    0  501    0  0.00000000000E+00  0.00000000000E+00 -0.79560075158E+03  0.79560075159E+03  0.50400001928E-02 0.  1.
    10030    2    1    2    0    0  0.00000000000E+00  0.00000000000E+00  0.33907385183E+03  0.19302753550E+04  0.19002610003E+04 0.  0.
        3    1    3    3  502    0 -0.43518802838E+03 -0.68421218835E+03  0.67254826141E+03  0.10534970873E+04  0.10100000352E+00 0. -1.
       -3    1    3    3    0  502  0.43518802838E+03  0.68421218835E+03 -0.33347440958E+03  0.87677826774E+03  0.10100000352E+00 0.  1.
</event>
<event>
 5   0  0.6984466E-06  0.1898833E+04  0.7818609E-02  0.8655438E-01
       -2   -1    0    0    0  501  0.00000000000E+00  0.00000000000E+00  0.31793116886E+03  0.31793116887E+03  0.25500000920E-02 0. -1.
        2   -1    0    0  501    0  0.00000000000E+00  0.00000000000E+00 -0.28351778900E+04  0.28351778900E+04  0.25500000920E-02 0.  1.
    10030    2    1    2    0    0  0.00000000000E+00  0.00000000000E+00 -0.25172467211E+04  0.31531090588E+04  0.18988327156E+04 0.  0.
        2    1    3    3  502    0 -0.76005749593E+03  0.13740262522E+03 -0.34181777300E+03  0.84463380733E+03  0.25500000920E-02 0. -1.
       -2    1    3    3    0  502  0.76005749593E+03 -0.13740262522E+03 -0.21754289481E+04  0.23084752515E+04  0.25500000920E-02 0.  1.
</event>
<event>
 5   0  0.3211263E-06  0.1900252E+04  0.7818609E-02  0.8654731E-01
       -1   -1    0    0    0  501  0.00000000000E+00  0.00000000000E+00  0.13024341876E+04  0.13024341876E+04  0.50400001928E-02 0.  1.
        1   -1    0    0  501    0  0.00000000000E+00  0.00000000000E+00 -0.69311737314E+03  0.69311737316E+03  0.50400001928E-02 0. -1.
    10030    2    1    2    0    0  0.00000000000E+00  0.00000000000E+00  0.60931681446E+03  0.19955515608E+04  0.19002523652E+04 0.  0.
        5    1    3    3  502    0  0.61531628917E+03  0.78598929728E+02  0.10604210511E+04  0.12285384907E+04  0.46999998093E+01 0.  1.
       -5    1    3    3    0  502 -0.61531628917E+03 -0.78598929728E+02 -0.45110423660E+03  0.76701307013E+03  0.46999998093E+01 0. -1.
</event>
<event>
 5   0  0.7207648E-06  0.1899242E+04  0.7818609E-02  0.8655234E-01
       -2   -1    0    0    0  501  0.00000000000E+00  0.00000000000E+00  0.52587936893E+03  0.52587936894E+03  0.25500000920E-02 0.  1.
        2   -1    0    0  501    0  0.00000000000E+00  0.00000000000E+00 -0.17148046827E+04  0.17148046827E+04  0.25500000920E-02 0. -1.
    10030    2    1    2    0    0  0.00000000000E+00  0.00000000000E+00 -0.11889253137E+04  0.22406840516E+04  0.18992423799E+04 0.  0.
        4    1    3    3  502    0  0.35389773147E+03  0.42572299284E+02  0.44395818299E+03  0.56934742131E+03  0.12699999809E+01 0.  1.
       -4    1    3    3    0  502 -0.35389773147E+03 -0.42572299284E+02 -0.16328834967E+04  0.16713366303E+04  0.12699999809E+01 0. -1.
</event>
<event>
 5   0  0.6870370E-06  0.1901688E+04  0.7818609E-02  0.8654017E-01
       -2   -1    0    0    0  501  0.00000000000E+00  0.00000000000E+00  0.66433311599E+03  0.66433311600E+03  0.25500000920E-02 0. -1.
        2   -1    0    0  501    0  0.00000000000E+00  0.00000000000E+00 -0.13609204113E+04  0.13609204113E+04  0.25500000920E-02 0.  1.
    10030    2    1    2    0    0  0.00000000000E+00  0.00000000000E+00 -0.69658729531E+03  0.20252535273E+04  0.19016881947E+04 0.  0.
        1    1    3    3  502    0 -0.71633828876E+03 -0.30612048616E+03  0.23234252429E+03  0.81291656682E+03  0.50400001928E-02 0. -1.
       -1    1    3    3    0  502  0.71633828876E+03  0.30612048616E+03 -0.92892981960E+03  0.12123369605E+04  0.50400001928E-02 0.  1.
</event>
<event>
 5   0  0.6870370E-06  0.1905624E+04  0.7818609E-02  0.8652062E-01
       -2   -1    0    0    0  501  0.00000000000E+00  0.00000000000E+00  0.63362390933E+03  0.63362390934E+03  0.25500000920E-02 0. -1.
        2   -1    0    0  501    0  0.00000000000E+00  0.00000000000E+00 -0.14327916287E+04  0.14327916287E+04  0.25500000920E-02 0.  1.
    10030    2    1    2    0    0  0.00000000000E+00  0.00000000000E+00 -0.79916771938E+03  0.20664155381E+04  0.19056243418E+04 0.  0.
        1    1    3    3  502    0 -0.25576509114E+03  0.76341226182E+03  0.15295602523E+03  0.81951791257E+03  0.50400001928E-02 0. -1.
       -1    1    3    3    0  502  0.25576509114E+03 -0.76341226182E+03 -0.95212374461E+03  0.12468976255E+04  0.50400001928E-02 0.  1.
</event>
<event>
 5   0  0.3379108E-06  0.1898708E+04  0.7818609E-02  0.8655500E-01
       -1   -1    0    0    0  501  0.00000000000E+00  0.00000000000E+00  0.13356063752E+04  0.13356063752E+04  0.50400001928E-02 0.  1.
        1   -1    0    0  501    0  0.00000000000E+00  0.00000000000E+00 -0.67480434651E+03  0.67480434653E+03  0.50400001928E-02 0. -1.
    10030    2    1    2    0    0  0.00000000000E+00  0.00000000000E+00  0.66080202868E+03  0.20104107217E+04  0.18987079683E+04 0.  0.
        4    1    3    3  502    0  0.70175958750E+03  0.10153088190E+03  0.99880462134E+03  0.12249029852E+04  0.12699999809E+01 0.  1.
       -4    1    3    3    0  502 -0.70175958750E+03 -0.10153088190E+03 -0.33800259266E+03  0.78550773654E+03  0.12699999809E+01 0. -1.
</event>
<event>
 5   0  0.7207648E-06  0.1900622E+04  0.7818609E-02  0.8654547E-01
       -2   -1    0    0    0  501  0.00000000000E+00  0.00000000000E+00  0.78268064781E+03  0.78268064782E+03  0.25500000920E-02 0. -1.
        2   -1    0    0  501    0  0.00000000000E+00  0.00000000000E+00 -0.11538429465E+04  0.11538429465E+04  0.25500000920E-02 0.  1.
    10030    2    1    2    0    0  0.00000000000E+00  0.00000000000E+00 -0.37116229865E+03  0.19365235943E+04  0.19006215245E+04 0.  0.
        4    1    3    3  502    0 -0.19528172751E+03  0.90751391911E+03 -0.39282557135E+03  0.10079831392E+04  0.12699999809E+01 0. -1.
       -4    1    3    3    0  502  0.19528172751E+03 -0.90751391911E+03  0.21663272704E+02  0.92854045510E+03  0.12699999809E+01 0.  1.
</event>
<event>
 5   0  0.7207648E-06  0.1900101E+04  0.7818609E-02  0.8654806E-01
        2   -1    0    0  501    0  0.00000000000E+00  0.00000000000E+00  0.13089081014E+04  0.13089081014E+04  0.25500000920E-02 0.  1.
       -2   -1    0    0    0  501  0.00000000000E+00  0.00000000000E+00 -0.68957948961E+03  0.68957948961E+03  0.25500000920E-02 0. -1.
    10030    2    1    2    0    0  0.00000000000E+00  0.00000000000E+00  0.61932861177E+03  0.19984875910E+04  0.19001012399E+04 0.  0.
        4    1    3    3  502    0 -0.12313244669E+03 -0.14709020793E+03 -0.66899800372E+03  0.69595766436E+03  0.12699999809E+01 0. -1.
       -4    1    3    3    0  502  0.12313244669E+03  0.14709020793E+03  0.12883266155E+04  0.13025299266E+04  0.12699999809E+01 0.  1.
</event>
<event>
 5   0  0.3495279E-06  0.1900625E+04  0.7818609E-02  0.8654545E-01
       -1   -1    0    0    0  501  0.00000000000E+00  0.00000000000E+00  0.59878452922E+03  0.59878452924E+03  0.50400001928E-02 0.  1.
        1   -1    0    0  501    0  0.00000000000E+00  0.00000000000E+00 -0.15082113371E+04  0.15082113371E+04  0.50400001928E-02 0. -1.
    10030    2    1    2    0    0  0.00000000000E+00  0.00000000000E+00 -0.90942680787E+03  0.21069958663E+04  0.19006247557E+04 0.  0.
        2    1    3    3  502    0 -0.26058442360E+03  0.57564580681E+03  0.33216124709E+03  0.71386513488E+03  0.25500000920E-02 0.  1.
       -2    1    3    3    0  502  0.26058442360E+03 -0.57564580681E+03 -0.12415880550E+04  0.13931307315E+04  0.25500000920E-02 0. -1.
</event>
<event>
 5   0  0.6870370E-06  0.1898829E+04  0.7818609E-02  0.8655440E-01
       -2   -1    0    0    0  501  0.00000000000E+00  0.00000000000E+00  0.57198122850E+03  0.57198122850E+03  0.25500000920E-02 0.  1.
        2   -1    0    0  501    0  0.00000000000E+00  0.00000000000E+00 -0.15759041397E+04  0.15759041397E+04  0.25500000920E-02 0. -1.
    10030    2    1    2    0    0  0.00000000000E+00  0.00000000000E+00 -0.10039229112E+04  0.21478853682E+04  0.18988286767E+04 0.  0.
        1    1    3    3  502    0  0.31245721913E+03 -0.39962611008E+03  0.40583291412E+03  0.64963905044E+03  0.50400001928E-02 0.  1.
       -1    1    3    3    0  502 -0.31245721913E+03  0.39962611008E+03 -0.14097558254E+04  0.14982463178E+04  0.50400001928E-02 0. -1.
</event>
<event>
 5   0  0.3211263E-06  0.1904731E+04  0.7818609E-02  0.8652505E-01
       -1   -1    0    0    0  501  0.00000000000E+00  0.00000000000E+00  0.53694455612E+03  0.53694455614E+03  0.50400001928E-02 0.  1.
        1   -1    0    0  501    0  0.00000000000E+00  0.00000000000E+00 -0.16891874297E+04  0.16891874297E+04  0.50400001928E-02 0. -1.
    10030    2    1    2    0    0  0.00000000000E+00  0.00000000000E+00 -0.11522428735E+04  0.22261319858E+04  0.19047309465E+04 0.  0.
        5    1    3    3  502    0 -0.90457678710E+03  0.29548046528E+03 -0.62000807353E+03  0.11357816561E+04  0.46999998093E+01 0.  1.
       -5    1    3    3    0  502  0.90457678710E+03 -0.29548046528E+03 -0.53223480001E+03  0.10903503297E+04  0.46999998093E+01 0. -1.
</event>
<event>
 5   0  0.3211263E-06  0.1900201E+04  0.7818609E-02  0.8654757E-01
       -1   -1    0    0    0  501  0.00000000000E+00  0.00000000000E+00  0.91017727515E+03  0.91017727516E+03  0.50400001928E-02 0. -1.
        1   -1    0    0  501    0  0.00000000000E+00  0.00000000000E+00 -0.99177448008E+03  0.99177448009E+03  0.50400001928E-02 0.  1.
    10030    2    1    2    0    0  0.00000000000E+00  0.00000000000E+00 -0.81597204930E+02  0.19019517553E+04  0.19002006145E+04 0.  0.
        5    1    3    3  502    0  0.48085902059E+03 -0.80468162324E+03  0.11403911412E+03  0.94433305672E+03  0.46999998093E+01 0. -1.
       -5    1    3    3    0  502 -0.48085902059E+03  0.80468162324E+03 -0.19563631905E+03  0.95761869854E+03  0.46999998093E+01 0.  1.
</event>
<event>
 5   0  0.3211263E-06  0.1900355E+04  0.7818609E-02  0.8654680E-01
        1   -1    0    0  501    0  0.00000000000E+00  0.00000000000E+00  0.10016573655E+04  0.10016573655E+04  0.50400001928E-02 0.  1.
       -1   -1    0    0    0  501  0.00000000000E+00  0.00000000000E+00 -0.90134372342E+03  0.90134372344E+03  0.50400001928E-02 0. -1.
    10030    2    1    2    0    0  0.00000000000E+00  0.00000000000E+00  0.10031364211E+03  0.19030010890E+04  0.19003553136E+04 0.  0.
        5    1    3    3  502    0  0.12327141356E+03 -0.34204248882E+02  0.99298223452E+03  0.10012000700E+04  0.46999998093E+01 0.  1.
       -5    1    3    3    0  502 -0.12327141356E+03  0.34204248882E+02 -0.89266859240E+03  0.90180101902E+03  0.46999998093E+01 0. -1.
</event>
<event>
 5   0  0.3495279E-06  0.1903155E+04  0.7818609E-02  0.8653287E-01
        1   -1    0    0  501    0  0.00000000000E+00  0.00000000000E+00  0.63742613447E+03  0.63742613449E+03  0.50400001928E-02 0. -1.
       -1   -1    0    0    0  501  0.00000000000E+00  0.00000000000E+00 -0.14205566822E+04  0.14205566822E+04  0.50400001928E-02 0.  1.
    10030    2    1    2    0    0  0.00000000000E+00  0.00000000000E+00 -0.78313054776E+03  0.20579828167E+04  0.19031552273E+04 0.  0.
        2    1    3    3  502    0  0.72902867325E+03  0.42304990930E+03 -0.86913410013E+03  0.12107221466E+04  0.25500000920E-02 0.  1.
       -2    1    3    3    0  502 -0.72902867325E+03 -0.42304990930E+03  0.86003552371E+02  0.84726067016E+03  0.25500000920E-02 0. -1.
</event>
<event>
 5   0  0.6862201E-06  0.1900598E+04  0.7818609E-02  0.8654559E-01
       -2   -1    0    0    0  501  0.00000000000E+00  0.00000000000E+00  0.13000424239E+04  0.13000424239E+04  0.25500000920E-02 0.  1.
        2   -1    0    0  501    0  0.00000000000E+00  0.00000000000E+00 -0.69464542726E+03  0.69464542727E+03  0.25500000920E-02 0. -1.
    10030    2    1    2    0    0  0.00000000000E+00  0.00000000000E+00  0.60539699662E+03  0.19946878512E+04  0.19005983532E+04 0.  0.
        3    1    3    3  502    0 -0.88742723716E+03  0.13052038644E+03  0.63209242569E+03  0.10973165074E+04  0.10100000352E+00 0. -1.
       -3    1    3    3    0  502  0.88742723716E+03 -0.13052038644E+03 -0.26695429064E+02  0.89737134379E+03  0.10100000352E+00 0.  1.
</event>
<event>
 5   0  0.7577180E-06  0.1897454E+04  0.7818609E-02  0.8656125E-01
        2   -1    0    0  501    0  0.00000000000E+00  0.00000000000E+00  0.19551949862E+04  0.19551949862E+04  0.25500000920E-02 0. -1.
       -2   -1    0    0    0  501  0.00000000000E+00  0.00000000000E+00 -0.46035472071E+03  0.46035472072E+03  0.25500000920E-02 0.  1.
    10030    2    1    2    0    0  0.00000000000E+00  0.00000000000E+00  0.14948402655E+04  0.24155497069E+04  0.18974543386E+04 0.  0.
        5    1    3    3  502    0 -0.34950273307E+03 -0.25805200574E+02  0.18697566096E+04  0.19023222487E+04  0.46999998093E+01 0. -1.
       -5    1    3    3    0  502  0.34950273307E+03  0.25805200574E+02 -0.37491634410E+03  0.51322745822E+03  0.46999998093E+01 0.  1.
</event>
<event>
 5   0  0.6984466E-06  0.1900420E+04  0.7818609E-02  0.8654647E-01
       -2   -1    0    0    0  501  0.00000000000E+00  0.00000000000E+00  0.29433802099E+03  0.29433802100E+03  0.25500000920E-02 0.  1.
        2   -1    0    0  501    0  0.00000000000E+00  0.00000000000E+00 -0.30675574412E+04  0.30675574412E+04  0.25500000920E-02 0. -1.
    10030    2    1    2    0    0  0.00000000000E+00  0.00000000000E+00 -0.27732194202E+04  0.33618954622E+04  0.19004197289E+04 0.  0.
        2    1    3    3  502    0  0.26626810596E+02 -0.30571948016E+03 -0.29774816291E+04  0.29932541221E+04  0.25500000920E-02 0. -1.
       -2    1    3    3    0  502 -0.26626810596E+02  0.30571948016E+03  0.20426220896E+03  0.36864134007E+03  0.25500000920E-02 0.  1.
</event>
<event>
 5   0  0.3379108E-06  0.1900512E+04  0.7818609E-02  0.8654602E-01
       -1   -1    0    0    0  501  0.00000000000E+00  0.00000000000E+00  0.57043376359E+03  0.57043376361E+03  0.50400001928E-02 0. -1.
        1   -1    0    0  501    0  0.00000000000E+00  0.00000000000E+00 -0.15829816395E+04  0.15829816395E+04  0.50400001928E-02 0.  1.
    10030    2    1    2    0    0  0.00000000000E+00  0.00000000000E+00 -0.10125478759E+04  0.21534154031E+04  0.19005116935E+04 0.  0.
        4    1    3    3  502    0 -0.18294505059E+03  0.13308029673E+03  0.53947501693E+03  0.58499073814E+03  0.12699999809E+01 0. -1.
       -4    1    3    3    0  502  0.18294505059E+03 -0.13308029673E+03 -0.15520228928E+04  0.15684246650E+04  0.12699999809E+01 0.  1.
</event>
<event>
 5   0  0.6870370E-06  0.1901077E+04  0.7818609E-02  0.8654320E-01
       -2   -1    0    0    0  501  0.00000000000E+00  0.00000000000E+00  0.43693897257E+03  0.43693897258E+03  0.25500000920E-02 0.  1.
        2   -1    0    0  501    0  0.00000000000E+00  0.00000000000E+00 -0.20678481230E+04  0.20678481230E+04  0.25500000920E-02 0. -1.
    10030    2    1    2    0    0  0.00000000000E+00  0.00000000000E+00 -0.16309091504E+04  0.25047870955E+04  0.19010769940E+04 0.  0.
        1    1    3    3  502    0  0.19910966850E+03 -0.37928328921E+03  0.30255180978E+03  0.52444072228E+03  0.50400001928E-02 0.  1.
       -1    1    3    3    0  502 -0.19910966850E+03  0.37928328921E+03 -0.19334609602E+04  0.19803463733E+04  0.50400001928E-02 0. -1.
</event>
<event>
 5   0  0.2527750E-06  0.1899200E+04  0.7818609E-02  0.8655254E-01
        3   -1    0    0  501    0  0.00000000000E+00  0.00000000000E+00  0.18963359958E+04  0.18963359985E+04  0.10100000352E+00 0.  1.
       -3   -1    0    0    0  501  0.00000000000E+00  0.00000000000E+00 -0.47551727266E+03  0.47551728338E+03  0.10100000352E+00 0. -1.
    10030    2    1    2    0    0  0.00000000000E+00  0.00000000000E+00  0.14208187232E+04  0.23718532819E+04  0.18992003967E+04 0.  0.
        3    1    3    3  502    0  0.62275654982E+03  0.54450685638E+03  0.12807307222E+03  0.83708790399E+03  0.10100000352E+00 0. -1.
       -3    1    3    3    0  502 -0.62275654982E+03 -0.54450685638E+03  0.12927456510E+04  0.15347653779E+04  0.10100000352E+00 0.  1.
</event>
<event>
 5   0  0.3495279E-06  0.1898125E+04  0.7818609E-02  0.8655790E-01
        1   -1    0    0  501    0  0.00000000000E+00  0.00000000000E+00  0.10753212271E+04  0.10753212271E+04  0.50400001928E-02 0.  1.
       -1   -1    0    0    0  501  0.00000000000E+00  0.00000000000E+00 -0.83762842674E+03  0.83762842676E+03  0.50400001928E-02 0. -1.
    10030    2    1    2    0    0  0.00000000000E+00  0.00000000000E+00  0.23769280039E+03  0.19129496539E+04  0.18981249988E+04 0.  0.
        2    1    3    3  502    0  0.45223351714E+03 -0.55136017373E+03 -0.51230868737E+03  0.87805090192E+03  0.25500000920E-02 0. -1.
       -2    1    3    3    0  502 -0.45223351714E+03  0.55136017373E+03  0.75000148777E+03  0.10348987520E+04  0.25500000920E-02 0.  1.
</event>
<event>
 5   0  0.3398807E-06  0.1901210E+04  0.7818609E-02  0.8654254E-01
        1   -1    0    0  501    0  0.00000000000E+00  0.00000000000E+00  0.29113614852E+04  0.29113614852E+04  0.50400001928E-02 0.  1.
       -1   -1    0    0    0  501  0.00000000000E+00  0.00000000000E+00 -0.31038743769E+03  0.31038743773E+03  0.50400001928E-02 0. -1.
    10030    2    1    2    0    0  0.00000000000E+00  0.00000000000E+00  0.26009740475E+04  0.32217489229E+04  0.19012101742E+04 0.  0.
        1    1    3    3  502    0 -0.29654827846E+03  0.45532236061E+03  0.26222477545E+04  0.26779549324E+04  0.50400001928E-02 0.  1.
       -1    1    3    3    0  502  0.29654827846E+03 -0.45532236061E+03 -0.21273707038E+02  0.54379399056E+03  0.50400001928E-02 0. -1.
</event>
<event>
 5   0  0.3236653E-06  0.1900781E+04  0.7818609E-02  0.8654468E-01
       -1   -1    0    0    0  501  0.00000000000E+00  0.00000000000E+00  0.10521786933E+04  0.10521786933E+04  0.50400001928E-02 0. -1.
        1   -1    0    0  501    0  0.00000000000E+00  0.00000000000E+00 -0.85844893695E+03  0.85844893696E+03  0.50400001928E-02 0.  1.
    10030    2    1    2    0    0  0.00000000000E+00  0.00000000000E+00  0.19372975638E+03  0.19106276303E+04  0.19007805563E+04 0.  0.
        3    1    3    3  502    0 -0.34789281160E+03 -0.84599707836E+03  0.35607910430E+03  0.98159706788E+03  0.10100000352E+00 0. -1.
       -3    1    3    3    0  502  0.34789281160E+03  0.84599707836E+03 -0.16234934791E+03  0.92903056243E+03  0.10100000352E+00 0.  1.
</event>
<event>
 5   0  0.3495279E-06  0.1900236E+04  0.7818609E-02  0.8654739E-01
        1   -1    0    0  501    0  0.00000000000E+00  0.00000000000E+00  0.53691189892E+03  0.53691189895E+03  0.50400001928E-02 0.  1.
       -1   -1    0    0    0  501  0.00000000000E+00  0.00000000000E+00 -0.16813266261E+04  0.16813266261E+04  0.50400001928E-02 0. -1.
    10030    2    1    2    0    0  0.00000000000E+00  0.00000000000E+00 -0.11444147272E+04  0.22182385251E+04  0.19002360607E+04 0.  0.
        2    1    3    3  502    0  0.34663612666E+03  0.23401105631E+03  0.42367639791E+03  0.59533139421E+03  0.25500000920E-02 0.  1.
       -2    1    3    3    0  502 -0.34663612666E+03 -0.23401105631E+03 -0.15680911251E+04  0.16229071309E+04  0.25500000920E-02 0. -1.
</event>
<event>
 5   0  0.3236653E-06  0.1890707E+04  0.7818609E-02  0.8659496E-01
       -1   -1    0    0    0  501  0.00000000000E+00  0.00000000000E+00  0.16216747855E+04  0.16216747855E+04  0.50400001928E-02 0.  1.
        1   -1    0    0  501    0  0.00000000000E+00  0.00000000000E+00 -0.55109261158E+03  0.55109261160E+03  0.50400001928E-02 0. -1.
    10030    2    1    2    0    0  0.00000000000E+00  0.00000000000E+00  0.10705821739E+04  0.21727673971E+04  0.18907067384E+04 0.  0.
        3    1    3    3  502    0 -0.28421496062E+03 -0.55911998763E+03 -0.27754724445E+03  0.68587592720E+03  0.10100000352E+00 0. -1.
       -3    1    3    3    0  502  0.28421496062E+03  0.55911998763E+03  0.13481294184E+04  0.14868914699E+04  0.10100000352E+00 0.  1.
</event>
<event>
 5   0  0.3398807E-06  0.1899754E+04  0.7818609E-02  0.8654979E-01
        1   -1    0    0  501    0  0.00000000000E+00  0.00000000000E+00  0.11707866792E+04  0.11707866793E+04  0.50400001928E-02 0.  1.
       -1   -1    0    0    0  501  0.00000000000E+00  0.00000000000E+00 -0.77064964289E+03  0.77064964291E+03  0.50400001928E-02 0. -1.
    10030    2    1    2    0    0  0.00000000000E+00  0.00000000000E+00  0.40013703636E+03  0.19414363222E+04  0.18997540223E+04 0.  0.
        1    1    3    3  502    0  0.34055401169E+02 -0.92815752390E+03 -0.33726226000E+01  0.92878820736E+03  0.50400001928E-02 0.  1.
       -1    1    3    3    0  502 -0.34055401169E+02  0.92815752390E+03  0.40350965896E+03  0.10126481148E+04  0.50400001928E-02 0. -1.
</event>
<event>
 5   0  0.3495279E-06  0.1900013E+04  0.7818609E-02  0.8654850E-01
        1   -1    0    0  501    0  0.00000000000E+00  0.00000000000E+00  0.10617617686E+04  0.10617617686E+04  0.50400001928E-02 0. -1.
       -1   -1    0    0    0  501  0.00000000000E+00  0.00000000000E+00 -0.85001362664E+03  0.85001362665E+03  0.50400001928E-02 0.  1.
    10030    2    1    2    0    0  0.00000000000E+00  0.00000000000E+00  0.21174814197E+03  0.19117753953E+04  0.19000126016E+04 0.  0.
        2    1    3    3  502    0  0.27219867437E+03  0.60073865377E+03  0.79387097817E+03  0.10320901988E+04  0.25500000920E-02 0.  1.
       -2    1    3    3    0  502 -0.27219867437E+03 -0.60073865377E+03 -0.58212283620E+03  0.87968519647E+03  0.25500000920E-02 0. -1.
</event>
<event>
 5   0  0.6984466E-06  0.1903368E+04  0.7818609E-02  0.8653182E-01
       -2   -1    0    0    0  501  0.00000000000E+00  0.00000000000E+00  0.11250681742E+04  0.11250681742E+04  0.25500000920E-02 0. -1.
        2   -1    0    0  501    0  0.00000000000E+00  0.00000000000E+00 -0.80502006664E+03  0.80502006664E+03  0.25500000920E-02 0.  1.
    10030    2    1    2    0    0  0.00000000000E+00  0.00000000000E+00  0.32004810758E+03  0.19300882409E+04  0.19033680218E+04 0.  0.
        2    1    3    3  502    0 -0.76304862477E+03 -0.56844173844E+03  0.14151284443E+03  0.96197458330E+03  0.25500000920E-02 0.  1.
       -2    1    3    3    0  502  0.76304862477E+03  0.56844173844E+03  0.17853526315E+03  0.96811365756E+03  0.25500000920E-02 0. -1.
</event>
<event>
 5   0  0.3495279E-06  0.1900047E+04  0.7818609E-02  0.8654833E-01
        1   -1    0    0  501    0  0.00000000000E+00  0.00000000000E+00  0.91621449035E+03  0.91621449036E+03  0.50400001928E-02 0. -1.
       -1   -1    0    0    0  501  0.00000000000E+00  0.00000000000E+00 -0.98507973572E+03  0.98507973573E+03  0.50400001928E-02 0.  1.
    10030    2    1    2    0    0  0.00000000000E+00  0.00000000000E+00 -0.68865245370E+02  0.19012942261E+04  0.19000466605E+04 0.  0.
        2    1    3    3  502    0 -0.39550482825E+03  0.82951339933E+03  0.20661510286E+03  0.94191631771E+03  0.25500000920E-02 0. -1.
       -2    1    3    3    0  502  0.39550482825E+03 -0.82951339933E+03 -0.27548034823E+03  0.95937790839E+03  0.25500000920E-02 0.  1.
</event>
<event>
 5   0  0.3211263E-06  0.1900295E+04  0.7818609E-02  0.8654710E-01
       -1   -1    0    0    0  501  0.00000000000E+00  0.00000000000E+00  0.52680147123E+03  0.52680147125E+03  0.50400001928E-02 0. -1.
        1   -1    0    0  501    0  0.00000000000E+00  0.00000000000E+00 -0.17137012585E+04  0.17137012585E+04  0.50400001928E-02 0.  1.
    10030    2    1    2    0    0  0.00000000000E+00  0.00000000000E+00 -0.11868997872E+04  0.22405027297E+04  0.19002950763E+04 0.  0.
        5    1    3    3  502    0 -0.31771044644E+03 -0.45785801978E+03  0.31385426392E+03  0.63960963332E+03  0.46999998093E+01 0. -1.
       -5    1    3    3    0  502  0.31771044644E+03  0.45785801978E+03 -0.15007540512E+04  0.16008930964E+04  0.46999998093E+01 0.  1.
</event>
<event>
 5   0  0.2527750E-06  0.1900316E+04  0.7818609E-02  0.8654699E-01
       -3   -1    0    0    0  501  0.00000000000E+00  0.00000000000E+00  0.12191808012E+04  0.12191808053E+04  0.10100000352E+00 0.  1.
        3   -1    0    0  501    0  0.00000000000E+00  0.00000000000E+00 -0.74049735977E+03  0.74049736665E+03  0.10100000352E+00 0. -1.
    10030    2    1    2    0    0  0.00000000000E+00  0.00000000000E+00  0.47868344139E+03  0.19596781720E+04  0.19003159476E+04 0.  0.
        4    1    3    3  502    0  0.75899155172E+02  0.72576237948E+03 -0.38819596908E+03  0.82655274274E+03  0.12699999809E+01 0. -1.
       -4    1    3    3    0  502 -0.75899155172E+02 -0.72576237948E+03  0.86687941047E+03  0.11331254292E+04  0.12699999809E+01 0.  1.
</event>
<event>
 5   0  0.6862201E-06  0.1896113E+04  0.7818609E-02  0.8656794E-01
        2   -1    0    0  501    0  0.00000000000E+00  0.00000000000E+00  0.62143768348E+03  0.62143768348E+03  0.25500000920E-02 0.  1.
       -2   -1    0    0    0  501  0.00000000000E+00  0.00000000000E+00 -0.14463409127E+04  0.14463409127E+04  0.25500000920E-02 0. -1.
    10030    2    1    2    0    0  0.00000000000E+00  0.00000000000E+00 -0.82490322925E+03  0.20677785962E+04  0.18961125983E+04 0.  0.
        3    1    3    3  502    0  0.20243222019E+03 -0.91311457238E+03 -0.58158562545E+03  0.11013622819E+04  0.10100000352E+00 0. -1.
       -3    1    3    3    0  502 -0.20243222019E+03  0.91311457238E+03 -0.24331760380E+03  0.96641631432E+03  0.10100000352E+00 0.  1.
</event>
<event>
 5   0  0.6862201E-06  0.1898171E+04  0.7818609E-02  0.8655767E-01
       -2   -1    0    0    0  501  0.00000000000E+00  0.00000000000E+00  0.13936277052E+04  0.13936277052E+04  0.25500000920E-02 0. -1.
        2   -1    0    0  501    0  0.00000000000E+00  0.00000000000E+00 -0.64634413954E+03  0.64634413955E+03  0.25500000920E-02 0.  1.
    10030    2    1    2    0    0  0.00000000000E+00  0.00000000000E+00  0.74728356567E+03  0.20399718448E+04  0.18981708037E+04 0.  0.
        3    1    3    3  502    0 -0.91891303726E+03  0.23223831100E+03  0.32069380042E+03  0.10005899894E+04  0.10100000352E+00 0.  1.
       -3    1    3    3    0  502  0.91891303726E+03 -0.23223831100E+03  0.42658976525E+03  0.10393818553E+04  0.10100000352E+00 0. -1.
</event>
<event>
 5   0  0.7207648E-06  0.1899928E+04  0.7818609E-02  0.8654892E-01
        2   -1    0    0  501    0  0.00000000000E+00  0.00000000000E+00  0.18746638475E+04  0.18746638475E+04  0.25500000920E-02 0. -1.
       -2   -1    0    0    0  501  0.00000000000E+00  0.00000000000E+00 -0.48138333335E+03  0.48138333335E+03  0.25500000920E-02 0.  1.
    10030    2    1    2    0    0  0.00000000000E+00  0.00000000000E+00  0.13932805142E+04  0.23560471809E+04  0.18999283480E+04 0.  0.
        4    1    3    3  502    0 -0.67980041896E+03 -0.41000509708E+03  0.49663244605E+02  0.79542494304E+03  0.12699999809E+01 0.  1.
       -4    1    3    3    0  502  0.67980041896E+03  0.41000509708E+03  0.13436172696E+04  0.15606222379E+04  0.12699999809E+01 0. -1.
</event>
<event>
 5   0  0.6862201E-06  0.1899401E+04  0.7818609E-02  0.8655155E-01
        2   -1    0    0  501    0  0.00000000000E+00  0.00000000000E+00  0.20558566714E+04  0.20558566714E+04  0.25500000920E-02 0.  1.
       -2   -1    0    0    0  501  0.00000000000E+00  0.00000000000E+00 -0.43871279222E+03  0.43871279223E+03  0.25500000920E-02 0. -1.
    10030    2    1    2    0    0  0.00000000000E+00  0.00000000000E+00  0.16171438792E+04  0.24945694636E+04  0.18994005588E+04 0.  0.
        3    1    3    3  502    0 -0.47286680302E+03  0.64756741934E+03  0.14769397669E+04  0.16805646852E+04  0.10100000352E+00 0.  1.
       -3    1    3    3    0  502  0.47286680302E+03 -0.64756741934E+03  0.14020411232E+03  0.81400477843E+03  0.10100000352E+00 0. -1.
</event>
<event>
 5   0  0.6870370E-06  0.1899449E+04  0.7818609E-02  0.8655131E-01
       -2   -1    0    0    0  501  0.00000000000E+00  0.00000000000E+00  0.72790035986E+03  0.72790035986E+03  0.25500000920E-02 0. -1.
        2   -1    0    0  501    0  0.00000000000E+00  0.00000000000E+00 -0.12391482318E+04  0.12391482318E+04  0.25500000920E-02 0.  1.
    10030    2    1    2    0    0  0.00000000000E+00  0.00000000000E+00 -0.51124787192E+03  0.19670485916E+04  0.18994488083E+04 0.  0.
        1    1    3    3  502    0  0.49212140537E+03  0.72899199500E+03  0.11540561645E+03  0.88709146244E+03  0.50400001928E-02 0.  1.
       -1    1    3    3    0  502 -0.49212140537E+03 -0.72899199500E+03 -0.62665348836E+03  0.10799571292E+04  0.50400001928E-02 0. -1.
</event>
<event>
 5   0  0.6862201E-06  0.1900481E+04  0.7818609E-02  0.8654617E-01
       -2   -1    0    0    0  501  0.00000000000E+00  0.00000000000E+00  0.52146461935E+03  0.52146461936E+03  0.25500000920E-02 0.  1.
        2   -1    0    0  501    0  0.00000000000E+00  0.00000000000E+00 -0.17315783507E+04  0.17315783507E+04  0.25500000920E-02 0. -1.
    10030    2    1    2    0    0  0.00000000000E+00  0.00000000000E+00 -0.12101137313E+04  0.22530429701E+04  0.19004808292E+04 0.  0.
        3    1    3    3  502    0 -0.14779686095E+03  0.22437637792E+03  0.47549571379E+03  0.54615460733E+03  0.10100000352E+00 0.  1.
       -3    1    3    3    0  502  0.14779686095E+03 -0.22437637792E+03 -0.16856094451E+04  0.17068883627E+04  0.10100000352E+00 0. -1.
</event>
<event>
 5   0  0.7577180E-06  0.1899622E+04  0.7818609E-02  0.8655045E-01
        2   -1    0    0  501    0  0.00000000000E+00  0.00000000000E+00  0.13989111814E+04  0.13989111814E+04  0.25500000920E-02 0.  1.
       -2   -1    0    0    0  501  0.00000000000E+00  0.00000000000E+00 -0.64488768792E+03  0.64488768793E+03  0.25500000920E-02 0. -1.
    10030    2    1    2    0    0  0.00000000000E+00  0.00000000000E+00  0.75402349345E+03  0.20437988693E+04  0.18996216438E+04 0.  0.
        5    1    3    3  502    0  0.62580817379E+03  0.52332499353E+03  0.90036012906E+03  0.12149795765E+04  0.46999998093E+01 0.  1.
       -5    1    3    3    0  502 -0.62580817379E+03 -0.52332499353E+03 -0.14633663561E+03  0.82881929283E+03  0.46999998093E+01 0. -1.
</event>
<event>
 5   0  0.3236653E-06  0.1899690E+04  0.7818609E-02  0.8655011E-01
       -1   -1    0    0    0  501  0.00000000000E+00  0.00000000000E+00  0.69193922865E+03  0.69193922867E+03  0.50400001928E-02 0.  1.
        1   -1    0    0  501    0  0.00000000000E+00  0.00000000000E+00 -0.13038801283E+04  0.13038801283E+04  0.50400001928E-02 0. -1.
    10030    2    1    2    0    0  0.00000000000E+00  0.00000000000E+00 -0.61194089962E+03  0.19958193570E+04  0.18996903013E+04 0.  0.
        3    1    3    3  502    0  0.73440193119E+02 -0.39730273616E+03  0.59715843958E+03  0.72100009590E+03  0.10100000352E+00 0.  1.
       -3    1    3    3    0  502 -0.73440193119E+02  0.39730273616E+03 -0.12090993392E+04  0.12748192611E+04  0.10100000352E+00 0. -1.
</event>
<event>
 5   0  0.3398807E-06  0.1899523E+04  0.7818609E-02  0.8655094E-01
       -1   -1    0    0    0  501  0.00000000000E+00  0.00000000000E+00  0.10844999373E+04  0.10844999373E+04  0.50400001928E-02 0.  1.
        1   -1    0    0  501    0  0.00000000000E+00  0.00000000000E+00 -0.83176257465E+03  0.83176257466E+03  0.50400001928E-02 0. -1.
    10030    2    1    2    0    0  0.00000000000E+00  0.00000000000E+00  0.25273736265E+03  0.19162625120E+04  0.18995225296E+04 0.  0.
        1    1    3    3  502    0 -0.12847772966E+03 -0.35179891301E+03  0.10068590569E+04  0.10742598208E+04  0.50400001928E-02 0.  1.
       -1    1    3    3    0  502  0.12847772966E+03  0.35179891301E+03 -0.75412169421E+03  0.84200269115E+03  0.50400001928E-02 0. -1.
</event>
<event>
 5   0  0.3236653E-06  0.1899741E+04  0.7818609E-02  0.8654985E-01
        1   -1    0    0  501    0  0.00000000000E+00  0.00000000000E+00  0.11003980841E+04  0.11003980841E+04  0.50400001928E-02 0. -1.
       -1   -1    0    0    0  501  0.00000000000E+00  0.00000000000E+00 -0.81993415847E+03  0.81993415849E+03  0.50400001928E-02 0.  1.
    10030    2    1    2    0    0  0.00000000000E+00  0.00000000000E+00  0.28046392567E+03  0.19203322426E+04  0.18997410109E+04 0.  0.
        3    1    3    3  502    0 -0.91812993362E+03  0.24320602089E+03  0.15228696787E+03  0.96192675105E+03  0.10100000352E+00 0.  1.
       -3    1    3    3    0  502  0.91812993362E+03 -0.24320602089E+03  0.12817695780E+03  0.95840549159E+03  0.10100000352E+00 0. -1.
</event>
<event>
 5   0  0.3398807E-06  0.1900682E+04  0.7818609E-02  0.8654517E-01
        1   -1    0    0  501    0  0.00000000000E+00  0.00000000000E+00  0.18708960789E+04  0.18708960789E+04  0.50400001928E-02 0.  1.
       -1   -1    0    0    0  501  0.00000000000E+00  0.00000000000E+00 -0.48273546955E+03  0.48273546957E+03  0.50400001928E-02 0. -1.
    10030    2    1    2    0    0  0.00000000000E+00  0.00000000000E+00  0.13881606094E+04  0.23536315485E+04  0.19006818747E+04 0.  0.
        1    1    3    3  502    0  0.92079944038E+03  0.23433394532E+03  0.67045845023E+03  0.11628837177E+04  0.50400001928E-02 0. -1.
       -1    1    3    3    0  502 -0.92079944038E+03 -0.23433394532E+03  0.71770215916E+03  0.11907478308E+04  0.50400001928E-02 0.  1.
</event>
<event>
 5   0  0.3379108E-06  0.1901434E+04  0.7818609E-02  0.8654143E-01
       -1   -1    0    0    0  501  0.00000000000E+00  0.00000000000E+00  0.72456086897E+03  0.72456086899E+03  0.50400001928E-02 0. -1.
        1   -1    0    0  501    0  0.00000000000E+00  0.00000000000E+00 -0.12474623526E+04  0.12474623526E+04  0.50400001928E-02 0.  1.
    10030    2    1    2    0    0  0.00000000000E+00  0.00000000000E+00 -0.52290148366E+03  0.19720232216E+04  0.19014335710E+04 0.  0.
        4    1    3    3  502    0 -0.53028046395E+03  0.78420851527E+03 -0.35234230317E+03  0.10101124083E+04  0.12699999809E+01 0.  1.
       -4    1    3    3    0  502  0.53028046395E+03 -0.78420851527E+03 -0.17055918048E+03  0.96191081334E+03  0.12699999809E+01 0. -1.
</event>
<event>
 5   0  0.7207648E-06  0.1900444E+04  0.7818609E-02  0.8654635E-01
        2   -1    0    0  501    0  0.00000000000E+00  0.00000000000E+00  0.13309658296E+04  0.13309658296E+04  0.25500000920E-02 0. -1.
       -2   -1    0    0    0  501  0.00000000000E+00  0.00000000000E+00 -0.67839590872E+03  0.67839590872E+03  0.25500000920E-02 0.  1.
    10030    2    1    2    0    0  0.00000000000E+00  0.00000000000E+00  0.65256992088E+03  0.20093617383E+04  0.19004439202E+04 0.  0.
        4    1    3    3  502    0  0.24489691811E+03  0.79722019863E+03  0.80778062835E+03  0.11610537033E+04  0.12699999809E+01 0. -1.
       -4    1    3    3    0  502 -0.24489691811E+03 -0.79722019863E+03 -0.15521070747E+03  0.84830803498E+03  0.12699999809E+01 0.  1.
</event>
<event>
 5   0  0.7577180E-06  0.1900278E+04  0.7818609E-02  0.8654718E-01
        2   -1    0    0  501    0  0.00000000000E+00  0.00000000000E+00  0.11931120576E+04  0.11931120576E+04  0.25500000920E-02 0. -1.
       -2   -1    0    0    0  501  0.00000000000E+00  0.00000000000E+00 -0.75664644469E+03  0.75664644469E+03  0.25500000920E-02 0.  1.
    10030    2    1    2    0    0  0.00000000000E+00  0.00000000000E+00  0.43646561287E+03  0.19497585023E+04  0.19002778707E+04 0.  0.
        5    1    3    3  502    0  0.65166112133E+03  0.51442736803E+03 -0.25579723192E+03  0.86876466772E+03  0.46999998093E+01 0.  1.
       -5    1    3    3    0  502 -0.65166112133E+03 -0.51442736803E+03  0.69226284479E+03  0.10809938345E+04  0.46999998093E+01 0. -1.
</event>
<event>
 5   0  0.3398807E-06  0.1899607E+04  0.7818609E-02  0.8655052E-01
       -1   -1    0    0    0  501  0.00000000000E+00  0.00000000000E+00  0.61452283091E+03  0.61452283093E+03  0.50400001928E-02 0.  1.
        1   -1    0    0  501    0  0.00000000000E+00  0.00000000000E+00 -0.14680115420E+04  0.14680115420E+04  0.50400001928E-02 0. -1.
    10030    2    1    2    0    0  0.00000000000E+00  0.00000000000E+00 -0.85348871113E+03  0.20825343730E+04  0.18996069158E+04 0.  0.
        1    1    3    3  502    0  0.81684382113E+03 -0.35976682189E+03 -0.78276369071E+03  0.11871752144E+04  0.50400001928E-02 0. -1.
       -1    1    3    3    0  502 -0.81684382113E+03  0.35976682189E+03 -0.70725020427E+02  0.89535915854E+03  0.50400001928E-02 0.  1.
</event>
<event>
 5   0  0.6862201E-06  0.1899767E+04  0.7818609E-02  0.8654972E-01
        2   -1    0    0  501    0  0.00000000000E+00  0.00000000000E+00  0.59998195474E+03  0.59998195475E+03  0.25500000920E-02 0. -1.
       -2   -1    0    0    0  501  0.00000000000E+00  0.00000000000E+00 -0.15038433509E+04  0.15038433509E+04  0.25500000920E-02 0.  1.
    10030    2    1    2    0    0  0.00000000000E+00  0.00000000000E+00 -0.90386139617E+03  0.21038253057E+04  0.18997672208E+04 0.  0.
        3    1    3    3  502    0 -0.73511818757E+02 -0.11629392573E+03  0.58888980438E+03  0.60474744858E+03  0.10100000352E+00 0. -1.
       -3    1    3    3    0  502  0.73511818757E+02  0.11629392573E+03 -0.14927512006E+04  0.14990778571E+04  0.10100000352E+00 0.  1.
</event>
<event>
 5   0  0.6870370E-06  0.1901479E+04  0.7818609E-02  0.8654121E-01
        2   -1    0    0  501    0  0.00000000000E+00  0.00000000000E+00  0.97608246849E+03  0.97608246850E+03  0.25500000920E-02 0. -1.
       -2   -1    0    0    0  501  0.00000000000E+00  0.00000000000E+00 -0.92605447837E+03  0.92605447838E+03  0.25500000920E-02 0.  1.
    10030    2    1    2    0    0  0.00000000000E+00  0.00000000000E+00  0.50027990119E+02  0.19021369469E+04  0.19014789415E+04 0.  0.
        1    1    3    3  502    0  0.80248228644E+03  0.14518384926E+02 -0.48478667036E+03  0.93766023661E+03  0.50400001928E-02 0. -1.
       -1    1    3    3    0  502 -0.80248228644E+03 -0.14518384926E+02  0.53481466048E+03  0.96447671026E+03  0.50400001928E-02 0.  1.
</event>
<event>
 5   0  0.6984466E-06  0.1900099E+04  0.7818609E-02  0.8654807E-01
        2   -1    0    0  501    0  0.00000000000E+00  0.00000000000E+00  0.10726910031E+04  0.10726910031E+04  0.25500000920E-02 0.  1.
       -2   -1    0    0    0  501  0.00000000000E+00  0.00000000000E+00 -0.84142942701E+03  0.84142942702E+03  0.25500000920E-02 0. -1.
    10030    2    1    2    0    0  0.00000000000E+00  0.00000000000E+00  0.23126157606E+03  0.19141204301E+04  0.19000987091E+04 0.  0.
        2    1    3    3  502    0  0.32142132335E+03 -0.43030065906E+03  0.90507407652E+03  0.10524397409E+04  0.25500000920E-02 0.  1.
       -2    1    3    3    0  502 -0.32142132335E+03  0.43030065906E+03 -0.67381250046E+03  0.86168068916E+03  0.25500000920E-02 0. -1.
</event>
<event>
 5   0  0.3495279E-06  0.1899780E+04  0.7818609E-02  0.8654966E-01
        1   -1    0    0  501    0  0.00000000000E+00  0.00000000000E+00  0.79673386018E+03  0.79673386020E+03  0.50400001928E-02 0. -1.
       -1   -1    0    0    0  501  0.00000000000E+00  0.00000000000E+00 -0.11324877485E+04  0.11324877485E+04  0.50400001928E-02 0.  1.
    10030    2    1    2    0    0  0.00000000000E+00  0.00000000000E+00 -0.33575388834E+03  0.19292216087E+04  0.18997803405E+04 0.  0.
        2    1    3    3  502    0  0.45462339716E+02  0.61605242962E+03 -0.90065785975E+03  0.10921410169E+04  0.25500000920E-02 0.  1.
       -2    1    3    3    0  502 -0.45462339716E+02 -0.61605242962E+03  0.56490397140E+03  0.83708059187E+03  0.25500000920E-02 0. -1.
</event>
<event>
 5   0  0.3379108E-06  0.1899934E+04  0.7818609E-02  0.8654889E-01
        1   -1    0    0  501    0  0.00000000000E+00  0.00000000000E+00  0.15307998336E+04  0.15307998336E+04  0.50400001928E-02 0.  1.
       -1   -1    0    0    0  501  0.00000000000E+00  0.00000000000E+00 -0.58951985718E+03  0.58951985720E+03  0.50400001928E-02 0. -1.
    10030    2    1    2    0    0  0.00000000000E+00  0.00000000000E+00  0.94127997641E+03  0.21203196908E+04  0.18999335771E+04 0.  0.
        4    1    3    3  502    0 -0.16113096362E+03 -0.11875641763E+03  0.15069972617E+04  0.15202330854E+04  0.12699999809E+01 0.  1.
       -4    1    3    3    0  502  0.16113096362E+03  0.11875641763E+03 -0.56571728533E+03  0.60008660540E+03  0.12699999809E+01 0. -1.
</event>
<event>
 5   0  0.7577180E-06  0.1900535E+04  0.7818609E-02  0.8654590E-01
        2   -1    0    0  501    0  0.00000000000E+00  0.00000000000E+00  0.18948341272E+04  0.18948341272E+04  0.25500000920E-02 0.  1.
       -2   -1    0    0    0  501  0.00000000000E+00  0.00000000000E+00 -0.47656324082E+03  0.47656324083E+03  0.25500000920E-02 0. -1.
    10030    2    1    2    0    0  0.00000000000E+00  0.00000000000E+00  0.14182708863E+04  0.23713973680E+04  0.19005349694E+04 0.  0.
        5    1    3    3  502    0 -0.71912518996E+03  0.61199148162E+03  0.84184136323E+03  0.12650666319E+04  0.46999998093E+01 0.  1.
       -5    1    3    3    0  502  0.71912518996E+03 -0.61199148162E+03  0.57642952311E+03  0.11063307360E+04  0.46999998093E+01 0. -1.
</event>
<event>
 5   0  0.3495279E-06  0.1896794E+04  0.7818609E-02  0.8656454E-01
       -1   -1    0    0    0  501  0.00000000000E+00  0.00000000000E+00  0.31175228071E+03  0.31175228076E+03  0.50400001928E-02 0.  1.
        1   -1    0    0  501    0  0.00000000000E+00  0.00000000000E+00 -0.28851638396E+04  0.28851638396E+04  0.50400001928E-02 0. -1.
    10030    2    1    2    0    0  0.00000000000E+00  0.00000000000E+00 -0.25734115588E+04  0.31969161203E+04  0.18967935125E+04 0.  0.
        2    1    3    3  502    0  0.41635762210E+03  0.85060392375E+03 -0.13722437718E+04  0.16673133100E+04  0.25500000920E-02 0. -1.
       -2    1    3    3    0  502 -0.41635762210E+03 -0.85060392375E+03 -0.12011677870E+04  0.15296028103E+04  0.25500000920E-02 0.  1.
</event>
<event>
 5   0  0.3211263E-06  0.1903553E+04  0.7818609E-02  0.8653090E-01
        1   -1    0    0  501    0  0.00000000000E+00  0.00000000000E+00  0.68959379703E+03  0.68959379705E+03  0.50400001928E-02 0. -1.
       -1   -1    0    0    0  501  0.00000000000E+00  0.00000000000E+00 -0.13136401914E+04  0.13136401915E+04  0.50400001928E-02 0.  1.
    10030    2    1    2    0    0  0.00000000000E+00  0.00000000000E+00 -0.62404639441E+03  0.20032339885E+04  0.19035526025E+04 0.  0.
        5    1    3    3  502    0 -0.21884662930E+03 -0.39669542699E+02  0.66184955629E+03  0.69823666828E+03  0.46999998093E+01 0. -1.
       -5    1    3    3    0  502  0.21884662930E+03  0.39669542699E+02 -0.12858959507E+04  0.13049973202E+04  0.46999998093E+01 0.  1.
</event>
<event>
 5   0  0.3379108E-06  0.1898944E+04  0.7818609E-02  0.8655382E-01
        1   -1    0    0  501    0  0.00000000000E+00  0.00000000000E+00  0.18969581610E+04  0.18969581610E+04  0.50400001928E-02 0.  1.
       -1   -1    0    0    0  501  0.00000000000E+00  0.00000000000E+00 -0.47523290646E+03  0.47523290649E+03  0.50400001928E-02 0. -1.
    10030    2    1    2    0    0  0.00000000000E+00  0.00000000000E+00  0.14217252545E+04  0.23721910675E+04  0.18989438542E+04 0.  0.
        4    1    3    3  502    0 -0.40789276256E+03  0.46387418308E+03 -0.18990749968E+03  0.64623698038E+03  0.12699999809E+01 0. -1.
       -4    1    3    3    0  502  0.40789276256E+03 -0.46387418308E+03  0.16116327542E+04  0.17259540871E+04  0.12699999809E+01 0.  1.
</event>
<event>
 5   0  0.3236653E-06  0.1900212E+04  0.7818609E-02  0.8654751E-01
       -1   -1    0    0    0  501  0.00000000000E+00  0.00000000000E+00  0.89043255196E+03  0.89043255197E+03  0.50400001928E-02 0. -1.
        1   -1    0    0  501    0  0.00000000000E+00  0.00000000000E+00 -0.10137790016E+04  0.10137790016E+04  0.50400001928E-02 0.  1.
    10030    2    1    2    0    0  0.00000000000E+00  0.00000000000E+00 -0.12334644965E+03  0.19042115536E+04  0.19002124340E+04 0.  0.
        3    1    3    3  502    0 -0.18481332057E+03  0.43016877386E+03 -0.89015415144E+03  0.10057711275E+04  0.10100000352E+00 0.  1.
       -3    1    3    3    0  502  0.18481332057E+03 -0.43016877386E+03  0.76680770179E+03  0.89844042606E+03  0.10100000352E+00 0. -1.
</event>
<event>
 5   0  0.3211263E-06  0.1899951E+04  0.7818609E-02  0.8654881E-01
        1   -1    0    0  501    0  0.00000000000E+00  0.00000000000E+00  0.12527433706E+04  0.12527433706E+04  0.50400001928E-02 0.  1.
       -1   -1    0    0    0  501  0.00000000000E+00  0.00000000000E+00 -0.72038191712E+03  0.72038191713E+03  0.50400001928E-02 0. -1.
    10030    2    1    2    0    0  0.00000000000E+00  0.00000000000E+00  0.53236145352E+03  0.19731252878E+04  0.18999512320E+04 0.  0.
        5    1    3    3  502    0  0.33925654218E+03  0.69143611397E+03  0.84370327472E+03  0.11423818131E+04  0.46999998093E+01 0.  1.
       -5    1    3    3    0  502 -0.33925654218E+03 -0.69143611397E+03 -0.31134182120E+03  0.83074347469E+03  0.46999998093E+01 0. -1.
</event>
<event>
 5   0  0.3398807E-06  0.1899959E+04  0.7818609E-02  0.8654877E-01
       -1   -1    0    0    0  501  0.00000000000E+00  0.00000000000E+00  0.52310095106E+03  0.52310095109E+03  0.50400001928E-02 0.  1.
        1   -1    0    0  501    0  0.00000000000E+00  0.00000000000E+00 -0.17252140323E+04  0.17252140323E+04  0.50400001928E-02 0. -1.
    10030    2    1    2    0    0  0.00000000000E+00  0.00000000000E+00 -0.12021130812E+04  0.22483149834E+04  0.18999590534E+04 0.  0.
        1    1    3    3  502    0 -0.43521063540E+03 -0.52922601231E+02 -0.15983412185E+04  0.16573785776E+04  0.50400001928E-02 0. -1.
       -1    1    3    3    0  502  0.43521063540E+03  0.52922601231E+02  0.39622813724E+03  0.59093640576E+03  0.50400001928E-02 0.  1.
</event>
<event>
 5   0  0.2527750E-06  0.1900375E+04  0.7818609E-02  0.8654670E-01
       -3   -1    0    0    0  501  0.00000000000E+00  0.00000000000E+00  0.86069510099E+03  0.86069510692E+03  0.10100000352E+00 0.  1.
        3   -1    0    0  501    0  0.00000000000E+00  0.00000000000E+00 -0.10489855038E+04  0.10489855087E+04  0.10100000352E+00 0. -1.
    10030    2    1    2    0    0  0.00000000000E+00  0.00000000000E+00 -0.18829040283E+03  0.19096806156E+04  0.19003754308E+04 0.  0.
        4    1    3    3  502    0 -0.70292678613E+03  0.63900879143E+03 -0.73630063410E+02  0.95281755931E+03  0.12699999809E+01 0.  1.
       -4    1    3    3    0  502  0.70292678613E+03 -0.63900879143E+03 -0.11466033942E+03  0.95686305631E+03  0.12699999809E+01 0. -1.
</event>
<event>
 5   0  0.6870370E-06  0.1899741E+04  0.7818609E-02  0.8654985E-01
        2   -1    0    0  501    0  0.00000000000E+00  0.00000000000E+00  0.17668859567E+04  0.17668859567E+04  0.25500000920E-02 0.  1.
       -2   -1    0    0    0  501  0.00000000000E+00  0.00000000000E+00 -0.51064627265E+03  0.51064627265E+03  0.25500000920E-02 0. -1.
    10030    2    1    2    0    0  0.00000000000E+00  0.00000000000E+00  0.12562396840E+04  0.22775322293E+04  0.18997407486E+04 0.  0.
        1    1    3    3  502    0  0.24675554458E+03 -0.41359936688E+03  0.16096533368E+04  0.16801596947E+04  0.50400001928E-02 0.  1.
       -1    1    3    3    0  502 -0.24675554458E+03  0.41359936688E+03 -0.35341365280E+03  0.59737253458E+03  0.50400001928E-02 0. -1.
</event>
<event>
 5   0  0.3398807E-06  0.1900426E+04  0.7818609E-02  0.8654644E-01
       -1   -1    0    0    0  501  0.00000000000E+00  0.00000000000E+00  0.72227692079E+03  0.72227692080E+03  0.50400001928E-02 0. -1.
        1   -1    0    0  501    0  0.00000000000E+00  0.00000000000E+00 -0.12500813678E+04  0.12500813678E+04  0.50400001928E-02 0.  1.
    10030    2    1    2    0    0  0.00000000000E+00  0.00000000000E+00 -0.52780444701E+03  0.19723582886E+04  0.19004261849E+04 0.  0.
        1    1    3    3  502    0 -0.37631764351E+03 -0.34317766951E+03 -0.10964621518E+04  0.12089727590E+04  0.50400001928E-02 0.  1.
       -1    1    3    3    0  502  0.37631764351E+03  0.34317766951E+03  0.56865770475E+03  0.76338552964E+03  0.50400001928E-02 0. -1.
</event>
<event>
 5   0  0.7207648E-06  0.1900338E+04  0.7818609E-02  0.8654688E-01
       -2   -1    0    0    0  501  0.00000000000E+00  0.00000000000E+00  0.75297048390E+03  0.75297048390E+03  0.25500000920E-02 0. -1.
        2   -1    0    0  501    0  0.00000000000E+00  0.00000000000E+00 -0.11990122335E+04  0.11990122335E+04  0.25500000920E-02 0.  1.
    10030    2    1    2    0    0  0.00000000000E+00  0.00000000000E+00 -0.44604174961E+03  0.19519827174E+04  0.19003376770E+04 0.  0.
        4    1    3    3  502    0 -0.31993910679E+03 -0.75702165106E+03 -0.71281985770E+03  0.10879138636E+04  0.12699999809E+01 0.  1.
       -4    1    3    3    0  502  0.31993910679E+03  0.75702165106E+03  0.26677810809E+03  0.86406885379E+03  0.12699999809E+01 0. -1.
</event>
<event>
 5   0  0.7577180E-06  0.1899674E+04  0.7818609E-02  0.8655019E-01
       -2   -1    0    0    0  501  0.00000000000E+00  0.00000000000E+00  0.51412320568E+03  0.51412320568E+03  0.25500000920E-02 0.  1.
        2   -1    0    0  501    0  0.00000000000E+00  0.00000000000E+00 -0.17548140190E+04  0.17548140190E+04  0.25500000920E-02 0. -1.
    10030    2    1    2    0    0  0.00000000000E+00  0.00000000000E+00 -0.12406908133E+04  0.22689372247E+04  0.18996742972E+04 0.  0.
        5    1    3    3  502    0  0.62690582445E+03 -0.75795754985E+02  0.22708760607E+03  0.67107881805E+03  0.46999998093E+01 0.  1.
       -5    1    3    3    0  502 -0.62690582445E+03  0.75795754985E+02 -0.14677784194E+04  0.15978584066E+04  0.46999998093E+01 0. -1.
</event>
<event>
 5   0  0.3495279E-06  0.1899495E+04  0.7818609E-02  0.8655108E-01
        1   -1    0    0  501    0  0.00000000000E+00  0.00000000000E+00  0.15804278114E+04  0.15804278114E+04  0.50400001928E-02 0.  1.
       -1   -1    0    0    0  501  0.00000000000E+00  0.00000000000E+00 -0.57074423858E+03  0.57074423860E+03  0.50400001928E-02 0. -1.
    10030    2    1    2    0    0  0.00000000000E+00  0.00000000000E+00  0.10096835728E+04  0.21511720500E+04  0.18994947411E+04 0.  0.
        2    1    3    3  502    0 -0.51822997192E+02 -0.83885828384E+03  0.39102934692E+01  0.84046661671E+03  0.25500000920E-02 0. -1.
       -2    1    3    3    0  502  0.51822997192E+02  0.83885828384E+03  0.10057732794E+04  0.13107054333E+04  0.25500000920E-02 0.  1.
</event>
<event>
 5   0  0.3398807E-06  0.1901234E+04  0.7818609E-02  0.8654242E-01
       -1   -1    0    0    0  501  0.00000000000E+00  0.00000000000E+00  0.15172426085E+04  0.15172426085E+04  0.50400001928E-02 0.  1.
        1   -1    0    0  501    0  0.00000000000E+00  0.00000000000E+00 -0.59560213066E+03  0.59560213068E+03  0.50400001928E-02 0. -1.
    10030    2    1    2    0    0  0.00000000000E+00  0.00000000000E+00  0.92164047782E+03  0.21128447392E+04  0.19012342626E+04 0.  0.
        1    1    3    3  502    0 -0.13644889640E+03  0.21179379867E+03 -0.55782457389E+03  0.61208101567E+03  0.50400001928E-02 0. -1.
       -1    1    3    3    0  502  0.13644889640E+03 -0.21179379867E+03  0.14794650517E+04  0.15007637235E+04  0.50400001928E-02 0.  1.
</event>
<event>
 5   0  0.6984466E-06  0.1902160E+04  0.7818609E-02  0.8653782E-01
       -2   -1    0    0    0  501  0.00000000000E+00  0.00000000000E+00  0.39024721005E+03  0.39024721006E+03  0.25500000920E-02 0.  1.
        2   -1    0    0  501    0  0.00000000000E+00  0.00000000000E+00 -0.23178968109E+04  0.23178968109E+04  0.25500000920E-02 0. -1.
    10030    2    1    2    0    0  0.00000000000E+00  0.00000000000E+00 -0.19276496009E+04  0.27081440210E+04  0.19021595765E+04 0.  0.
        2    1    3    3  502    0 -0.53709897955E+03  0.10369026159E+03  0.14386815458E+03  0.56561915640E+03  0.25500000920E-02 0.  1.
       -2    1    3    3    0  502  0.53709897955E+03 -0.10369026159E+03 -0.20715177555E+04  0.21425248646E+04  0.25500000920E-02 0. -1.
</event>
<event>
 5   0  0.3236653E-06  0.1900193E+04  0.7818609E-02  0.8654760E-01
        1   -1    0    0  501    0  0.00000000000E+00  0.00000000000E+00  0.23702771242E+04  0.23702771242E+04  0.50400001928E-02 0.  1.
       -1   -1    0    0    0  501  0.00000000000E+00  0.00000000000E+00 -0.38083462750E+03  0.38083462753E+03  0.50400001928E-02 0. -1.
    10030    2    1    2    0    0  0.00000000000E+00  0.00000000000E+00  0.19894424967E+04  0.27511117518E+04  0.19001932594E+04 0.  0.
        3    1    3    3  502    0  0.93873302453E+03  0.14199481491E+03  0.94249221651E+03  0.13377869065E+04  0.10100000352E+00 0.  1.
       -3    1    3    3    0  502 -0.93873302453E+03 -0.14199481491E+03  0.10469502802E+04  0.14133248453E+04  0.10100000352E+00 0. -1.
</event>
<event>
 5   0  0.3236653E-06  0.1899860E+04  0.7818609E-02  0.8654926E-01
       -1   -1    0    0    0  501  0.00000000000E+00  0.00000000000E+00  0.10449923911E+04  0.10449923911E+04  0.50400001928E-02 0.  1.
        1   -1    0    0  501    0  0.00000000000E+00  0.00000000000E+00 -0.86351562491E+03  0.86351562493E+03  0.50400001928E-02 0. -1.
    10030    2    1    2    0    0  0.00000000000E+00  0.00000000000E+00  0.18147676621E+03  0.19085080161E+04  0.18998602661E+04 0.  0.
        3    1    3    3  502    0  0.42638776341E+02 -0.86775362326E+03  0.47661290328E+03  0.99094615682E+03  0.10100000352E+00 0. -1.
       -3    1    3    3    0  502 -0.42638776341E+02  0.86775362326E+03 -0.29513613708E+03  0.91756185925E+03  0.10100000352E+00 0.  1.
</event>
<event>
 5   0  0.6984466E-06  0.1899711E+04  0.7818609E-02  0.8655000E-01
        2   -1    0    0  501    0  0.00000000000E+00  0.00000000000E+00  0.16047230170E+04  0.16047230170E+04  0.25500000920E-02 0.  1.
       -2   -1    0    0    0  501  0.00000000000E+00  0.00000000000E+00 -0.56223143976E+03  0.56223143977E+03  0.25500000920E-02 0. -1.
    10030    2    1    2    0    0  0.00000000000E+00  0.00000000000E+00  0.10424915773E+04  0.21669544568E+04  0.18997112752E+04 0.  0.
        2    1    3    3  502    0 -0.79289468079E+03 -0.47811425610E+03  0.27940501571E+03  0.96713100432E+03  0.25500000920E-02 0. -1.
       -2    1    3    3    0  502  0.79289468079E+03  0.47811425610E+03  0.76308656157E+03  0.11998234525E+04  0.25500000920E-02 0.  1.
</event>
<event>
 5   0  0.3211263E-06  0.1899692E+04  0.7818609E-02  0.8655010E-01
        1   -1    0    0  501    0  0.00000000000E+00  0.00000000000E+00  0.16674202401E+04  0.16674202401E+04  0.50400001928E-02 0. -1.
       -1   -1    0    0    0  501  0.00000000000E+00  0.00000000000E+00 -0.54107984125E+03  0.54107984128E+03  0.50400001928E-02 0.  1.
    10030    2    1    2    0    0  0.00000000000E+00  0.00000000000E+00  0.11263403988E+04  0.22085000814E+04  0.18996920580E+04 0.  0.
        5    1    3    3  502    0 -0.18039606944E+03 -0.64735931563E+03  0.13435295815E+04  0.15022352185E+04  0.46999998093E+01 0. -1.
       -5    1    3    3    0  502  0.18039606944E+03  0.64735931563E+03 -0.21718918268E+03  0.70626486284E+03  0.46999998093E+01 0.  1.
</event>
<event>
 5   0  0.6862201E-06  0.1903548E+04  0.7818609E-02  0.8653092E-01
       -2   -1    0    0    0  501  0.00000000000E+00  0.00000000000E+00  0.13130631358E+04  0.13130631358E+04  0.25500000920E-02 0. -1.
        2   -1    0    0  501    0  0.00000000000E+00  0.00000000000E+00 -0.68989327005E+03  0.68989327005E+03  0.25500000920E-02 0.  1.
    10030    2    1    2    0    0  0.00000000000E+00  0.00000000000E+00  0.62316986577E+03  0.20029564059E+04  0.19035476569E+04 0.  0.
        3    1    3    3  502    0 -0.80030826163E+03  0.14974727075E+03 -0.20706153500E+03  0.84011430664E+03  0.10100000352E+00 0.  1.
       -3    1    3    3    0  502  0.80030826163E+03 -0.14974727075E+03  0.83023140077E+03  0.11628420992E+04  0.10100000352E+00 0. -1.
</event>
<event>
 5   0  0.6862201E-06  0.1899639E+04  0.7818609E-02  0.8655036E-01
        2   -1    0    0  501    0  0.00000000000E+00  0.00000000000E+00  0.89049303793E+03  0.89049303793E+03  0.25500000920E-02 0.  1.
       -2   -1    0    0    0  501  0.00000000000E+00  0.00000000000E+00 -0.10130988179E+04  0.10130988179E+04  0.25500000920E-02 0. -1.
    10030    2    1    2    0    0  0.00000000000E+00  0.00000000000E+00 -0.12260578000E+03  0.19035918559E+04  0.18996393806E+04 0.  0.
        3    1    3    3  502    0  0.22222025520E+03 -0.72240604463E+03 -0.63774328014E+03  0.98892306916E+03  0.10100000352E+00 0. -1.
       -3    1    3    3    0  502 -0.22222025520E+03  0.72240604463E+03  0.51513750014E+03  0.91466878672E+03  0.10100000352E+00 0.  1.
</event>
<event>
 5   0  0.6984466E-06  0.1898082E+04  0.7818609E-02  0.8655811E-01
       -2   -1    0    0    0  501  0.00000000000E+00  0.00000000000E+00  0.17672985154E+04  0.17672985154E+04  0.25500000920E-02 0.  1.
        2   -1    0    0  501    0  0.00000000000E+00  0.00000000000E+00 -0.50963616046E+03  0.50963616046E+03  0.25500000920E-02 0. -1.
    10030    2    1    2    0    0  0.00000000000E+00  0.00000000000E+00  0.12576623550E+04  0.22769346759E+04  0.18980824321E+04 0.  0.
        2    1    3    3  502    0 -0.16783097113E+03  0.64349905044E+03  0.14410400662E+04  0.15870900211E+04  0.25500000920E-02 0.  1.
       -2    1    3    3    0  502  0.16783097113E+03 -0.64349905044E+03 -0.18337771119E+03  0.68984465480E+03  0.25500000920E-02 0. -1.
</event>
<event>
 5   0  0.3379108E-06  0.1900228E+04  0.7818609E-02  0.8654743E-01
       -1   -1    0    0    0  501  0.00000000000E+00  0.00000000000E+00  0.86045301254E+03  0.86045301256E+03  0.50400001928E-02 0.  1.
        1   -1    0    0  501    0  0.00000000000E+00  0.00000000000E+00 -0.10491182635E+04  0.10491182635E+04  0.50400001928E-02 0. -1.
    10030    2    1    2    0    0  0.00000000000E+00  0.00000000000E+00 -0.18866525094E+03  0.19095712761E+04  0.19002283761E+04 0.  0.
        4    1    3    3  502    0 -0.26627587740E+03 -0.86904686348E+03 -0.37240610951E+03  0.98225924129E+03  0.12699999809E+01 0. -1.
       -4    1    3    3    0  502  0.26627587740E+03  0.86904686348E+03  0.18374085856E+03  0.92731203476E+03  0.12699999809E+01 0.  1.
</event>
<event>
 5   0  0.6870370E-06  0.1900446E+04  0.7818609E-02  0.8654634E-01
        2   -1    0    0  501    0  0.00000000000E+00  0.00000000000E+00  0.20037016589E+04  0.20037016589E+04  0.25500000920E-02 0.  1.
       -2   -1    0    0    0  501  0.00000000000E+00  0.00000000000E+00 -0.45062790929E+03  0.45062790930E+03  0.25500000920E-02 0. -1.
    10030    2    1    2    0    0  0.00000000000E+00  0.00000000000E+00  0.15530737496E+04  0.24543295682E+04  0.19004461470E+04 0.  0.
        1    1    3    3  502    0 -0.32268100719E+03  0.18319142754E+03  0.19062720273E+04  0.19420492202E+04  0.50400001928E-02 0.  1.
       -1    1    3    3    0  502  0.32268100719E+03 -0.18319142754E+03 -0.35319827772E+03  0.51228034799E+03  0.50400001928E-02 0. -1.
</event>
<event>
 5   0  0.6984466E-06  0.1899937E+04  0.7818609E-02  0.8654888E-01
       -2   -1    0    0    0  501  0.00000000000E+00  0.00000000000E+00  0.44696551718E+03  0.44696551719E+03  0.25500000920E-02 0. -1.
        2   -1    0    0  501    0  0.00000000000E+00  0.00000000000E+00 -0.20190371672E+04  0.20190371672E+04  0.25500000920E-02 0.  1.
    10030    2    1    2    0    0  0.00000000000E+00  0.00000000000E+00 -0.15720716500E+04  0.24660026844E+04  0.18999368323E+04 0.  0.
        2    1    3    3  502    0 -0.63153193777E+03  0.55851631693E+03 -0.13542708153E+04  0.15952499822E+04  0.25500000920E-02 0.  1.
       -2    1    3    3    0  502  0.63153193777E+03 -0.55851631693E+03 -0.21780083475E+03  0.87075270216E+03  0.25500000920E-02 0. -1.
</event>
<event>
 5   0  0.6870370E-06  0.1908514E+04  0.7818609E-02  0.8650630E-01
        2   -1    0    0  501    0  0.00000000000E+00  0.00000000000E+00  0.15386458383E+04  0.15386458383E+04  0.25500000920E-02 0. -1.
       -2   -1    0    0    0  501  0.00000000000E+00  0.00000000000E+00 -0.59182298251E+03  0.59182298251E+03  0.25500000920E-02 0.  1.
    10030    2    1    2    0    0  0.00000000000E+00  0.00000000000E+00  0.94682285583E+03  0.21304688209E+04  0.19085135253E+04 0.  0.
        1    1    3    3  502    0 -0.72048745729E+03  0.36102847705E+03 -0.97061613814E+02  0.81170480734E+03  0.50400001928E-02 0. -1.
       -1    1    3    3    0  502  0.72048745729E+03 -0.36102847705E+03  0.10438844696E+04  0.13187640135E+04  0.50400001928E-02 0.  1.
</event>
<event>
 5   0  0.6862201E-06  0.1900402E+04  0.7818609E-02  0.8654656E-01
       -2   -1    0    0    0  501  0.00000000000E+00  0.00000000000E+00  0.85434471181E+03  0.85434471182E+03  0.25500000920E-02 0.  1.
        2   -1    0    0  501    0  0.00000000000E+00  0.00000000000E+00 -0.10568120928E+04  0.10568120928E+04  0.25500000920E-02 0. -1.
    10030    2    1    2    0    0  0.00000000000E+00  0.00000000000E+00 -0.20246738098E+03  0.19111568046E+04  0.19004018763E+04 0.  0.
        3    1    3    3  502    0 -0.60186595487E+03  0.72865722708E+03 -0.21988139640E+01  0.94508667707E+03  0.10100000352E+00 0.  1.
       -3    1    3    3    0  502  0.60186595487E+03 -0.72865722708E+03 -0.20026856702E+03  0.96607012754E+03  0.10100000352E+00 0. -1.
</event>
<event>
 5   0  0.3495279E-06  0.1900195E+04  0.7818609E-02  0.8654760E-01
        1   -1    0    0  501    0  0.00000000000E+00  0.00000000000E+00  0.92417100920E+03  0.92417100921E+03  0.50400001928E-02 0. -1.
       -1   -1    0    0    0  501  0.00000000000E+00  0.00000000000E+00 -0.97675089923E+03  0.97675089925E+03  0.50400001928E-02 0.  1.
    10030    2    1    2    0    0  0.00000000000E+00  0.00000000000E+00 -0.52579890038E+02  0.19009219085E+04  0.19001945840E+04 0.  0.
        2    1    3    3  502    0  0.26850198638E+03 -0.82500831280E+03  0.36109571064E+03  0.93974578750E+03  0.25500000920E-02 0. -1.
       -2    1    3    3    0  502 -0.26850198638E+03  0.82500831280E+03 -0.41367560068E+03  0.96117612095E+03  0.25500000920E-02 0.  1.
</event>
<event>
 5   0  0.6870370E-06  0.1903313E+04  0.7818609E-02  0.8653209E-01
       -2   -1    0    0    0  501  0.00000000000E+00  0.00000000000E+00  0.10808480412E+04  0.10808480412E+04  0.25500000920E-02 0.  1.
        2   -1    0    0  501    0  0.00000000000E+00  0.00000000000E+00 -0.83790732475E+03  0.83790732475E+03  0.25500000920E-02 0. -1.
    10030    2    1    2    0    0  0.00000000000E+00  0.00000000000E+00  0.24294071646E+03  0.19187553660E+04  0.19033134168E+04 0.  0.
        1    1    3    3  502    0 -0.81740880405E+03 -0.48551328833E+03  0.16388527041E+03  0.96474799195E+03  0.50400001928E-02 0.  1.
       -1    1    3    3    0  502  0.81740880405E+03  0.48551328833E+03  0.79055446046E+02  0.95400737401E+03  0.50400001928E-02 0. -1.
</event>
<event>
 5   0  0.7207648E-06  0.1900212E+04  0.7818609E-02  0.8654751E-01
       -2   -1    0    0    0  501  0.00000000000E+00  0.00000000000E+00  0.81963482887E+03  0.81963482888E+03  0.25500000920E-02 0.  1.
        2   -1    0    0  501    0  0.00000000000E+00  0.00000000000E+00 -0.11013461070E+04  0.11013461070E+04  0.25500000920E-02 0. -1.
    10030    2    1    2    0    0  0.00000000000E+00  0.00000000000E+00 -0.28171127812E+03  0.19209809359E+04  0.19002122281E+04 0.  0.
        4    1    3    3  502    0  0.88657328235E+03  0.27354588720E+03 -0.34769016547E+03  0.99082268920E+03  0.12699999809E+01 0. -1.
       -4    1    3    3    0  502 -0.88657328235E+03 -0.27354588720E+03  0.65978887352E+02  0.93015824667E+03  0.12699999809E+01 0.  1.
</event>
<event>
 5   0  0.3398807E-06  0.1900196E+04  0.7818609E-02  0.8654759E-01
        1   -1    0    0  501    0  0.00000000000E+00  0.00000000000E+00  0.11041842869E+04  0.11041842869E+04  0.50400001928E-02 0.  1.
       -1   -1    0    0    0  501  0.00000000000E+00  0.00000000000E+00 -0.81751448336E+03  0.81751448338E+03  0.50400001928E-02 0. -1.
    10030    2    1    2    0    0  0.00000000000E+00  0.00000000000E+00  0.28666980350E+03  0.19216987703E+04  0.19001964602E+04 0.  0.
        1    1    3    3  502    0  0.37085792699E+03 -0.61330439411E+03  0.77409832411E+03  0.10549436465E+04  0.50400001928E-02 0. -1.
       -1    1    3    3    0  502 -0.37085792699E+03  0.61330439411E+03 -0.48742852061E+03  0.86675512376E+03  0.50400001928E-02 0.  1.
</event>
<event>
 5   0  0.3495279E-06  0.1900380E+04  0.7818609E-02  0.8654667E-01
       -1   -1    0    0    0  501  0.00000000000E+00  0.00000000000E+00  0.83508210785E+03  0.83508210787E+03  0.50400001928E-02 0. -1.
        1   -1    0    0  501    0  0.00000000000E+00  0.00000000000E+00 -0.10811639216E+04  0.10811639216E+04  0.50400001928E-02 0.  1.
    10030    2    1    2    0    0  0.00000000000E+00  0.00000000000E+00 -0.24608181370E+03  0.19162460294E+04  0.19003795901E+04 0.  0.
        2    1    3    3  502    0  0.29826616281E+03 -0.64951940460E+03 -0.75438540413E+03  0.10391994509E+04  0.25500000920E-02 0.  1.
       -2    1    3    3    0  502 -0.29826616281E+03  0.64951940460E+03  0.50830359043E+03  0.87704657851E+03  0.25500000920E-02 0. -1.
</event>
<event>
 5   0  0.3211263E-06  0.1899745E+04  0.7818609E-02  0.8654983E-01
       -1   -1    0    0    0  501  0.00000000000E+00  0.00000000000E+00  0.12852692136E+04  0.12852692136E+04  0.50400001928E-02 0.  1.
        1   -1    0    0  501    0  0.00000000000E+00  0.00000000000E+00 -0.70199901264E+03  0.70199901266E+03  0.50400001928E-02 0. -1.
    10030    2    1    2    0    0  0.00000000000E+00  0.00000000000E+00  0.58327020096E+03  0.19872682263E+04  0.18997449502E+04 0.  0.
        5    1    3    3  502    0  0.19673498816E+03  0.92896276125E+03  0.31637112253E+03  0.10008942224E+04  0.46999998093E+01 0. -1.
       -5    1    3    3    0  502 -0.19673498816E+03 -0.92896276125E+03  0.26689907844E+03  0.98637400383E+03  0.46999998093E+01 0.  1.
</event>
<event>
 5   0  0.2527750E-06  0.1888000E+04  0.7818609E-02  0.8660853E-01
       -3   -1    0    0    0  501  0.00000000000E+00  0.00000000000E+00  0.57637502667E+03  0.57637503552E+03  0.10100000352E+00 0. -1.
        3   -1    0    0  501    0  0.00000000000E+00  0.00000000000E+00 -0.15461049504E+04  0.15461049537E+04  0.10100000352E+00 0.  1.
    10030    2    1    2    0    0  0.00000000000E+00  0.00000000000E+00 -0.96972992376E+03  0.21224799892E+04  0.18880003124E+04 0.  0.
        4    1    3    3  502    0 -0.72761730276E+03  0.15825085747E+02  0.19101574300E+03  0.75244003056E+03  0.12699999809E+01 0. -1.
       -4    1    3    3    0  502  0.72761730276E+03 -0.15825085747E+02 -0.11607456668E+04  0.13700399587E+04  0.12699999809E+01 0.  1.
</event>
<event>
 5   0  0.3236653E-06  0.1900271E+04  0.7818609E-02  0.8654721E-01
        1   -1    0    0  501    0  0.00000000000E+00  0.00000000000E+00  0.11757896041E+04  0.11757896041E+04  0.50400001928E-02 0. -1.
       -1   -1    0    0    0  501  0.00000000000E+00  0.00000000000E+00 -0.76778856544E+03  0.76778856546E+03  0.50400001928E-02 0.  1.
    10030    2    1    2    0    0  0.00000000000E+00  0.00000000000E+00  0.40800103865E+03  0.19435781696E+04  0.19002713632E+04 0.  0.
        3    1    3    3  502    0 -0.12613824386E+03  0.12810948737E+03 -0.75023271464E+03  0.77147393581E+03  0.10100000352E+00 0.  1.
       -3    1    3    3    0  502  0.12613824386E+03 -0.12810948737E+03  0.11582337533E+04  0.11721042338E+04  0.10100000352E+00 0. -1.
</event>
<event>
 5   0  0.7207648E-06  0.1900124E+04  0.7818609E-02  0.8654795E-01
       -2   -1    0    0    0  501  0.00000000000E+00  0.00000000000E+00  0.85551921709E+03  0.85551921709E+03  0.25500000920E-02 0.  1.
        2   -1    0    0  501    0  0.00000000000E+00  0.00000000000E+00 -0.10550521516E+04  0.10550521516E+04  0.25500000920E-02 0. -1.
    10030    2    1    2    0    0  0.00000000000E+00  0.00000000000E+00 -0.19953293455E+03  0.19105713687E+04  0.19001235652E+04 0.  0.
        4    1    3    3  502    0 -0.49767718915E+03  0.54666862109E+03 -0.69977751087E+03  0.10179485957E+04  0.12699999809E+01 0. -1.
       -4    1    3    3    0  502  0.49767718915E+03 -0.54666862109E+03  0.50024457632E+03  0.89262277303E+03  0.12699999809E+01 0.  1.
</event>
<event>
 5   0  0.3398807E-06  0.1897675E+04  0.7818609E-02  0.8656015E-01
        1   -1    0    0  501    0  0.00000000000E+00  0.00000000000E+00  0.86302058701E+03  0.86302058703E+03  0.50400001928E-02 0. -1.
       -1   -1    0    0    0  501  0.00000000000E+00  0.00000000000E+00 -0.10431874451E+04  0.10431874451E+04  0.50400001928E-02 0.  1.
    10030    2    1    2    0    0  0.00000000000E+00  0.00000000000E+00 -0.18016685805E+03  0.19062080321E+04  0.18976746204E+04 0.  0.
        1    1    3    3  502    0 -0.94354469127E+03 -0.60608778468E+02 -0.17007968000E+03  0.96066492911E+03  0.50400001928E-02 0.  1.
       -1    1    3    3    0  502  0.94354469127E+03  0.60608778468E+02 -0.10087178048E+02  0.94554310300E+03  0.50400001928E-02 0. -1.
</event>
<event>
 5   0  0.7577180E-06  0.1900777E+04  0.7818609E-02  0.8654470E-01
       -2   -1    0    0    0  501  0.00000000000E+00  0.00000000000E+00  0.69214445229E+03  0.69214445229E+03  0.25500000920E-02 0.  1.
        2   -1    0    0  501    0  0.00000000000E+00  0.00000000000E+00 -0.13049851042E+04  0.13049851042E+04  0.25500000920E-02 0. -1.
    10030    2    1    2    0    0  0.00000000000E+00  0.00000000000E+00 -0.61284065195E+03  0.19971295565E+04  0.19007768940E+04 0.  0.
        5    1    3    3  502    0  0.43063598491E+02  0.93248651609E+03 -0.49387533829E+03  0.10560873619E+04  0.46999998093E+01 0. -1.
       -5    1    3    3    0  502 -0.43063598491E+02 -0.93248651609E+03 -0.11896531365E+03  0.94104219462E+03  0.46999998093E+01 0.  1.
</event>
<event>
 5   0  0.7577180E-06  0.1899661E+04  0.7818609E-02  0.8655025E-01
        2   -1    0    0  501    0  0.00000000000E+00  0.00000000000E+00  0.15150347373E+04  0.15150347373E+04  0.25500000920E-02 0. -1.
       -2   -1    0    0    0  501  0.00000000000E+00  0.00000000000E+00 -0.59548342380E+03  0.59548342381E+03  0.25500000920E-02 0.  1.
    10030    2    1    2    0    0  0.00000000000E+00  0.00000000000E+00  0.91955131353E+03  0.21105181611E+04  0.18996610988E+04 0.  0.
        5    1    3    3  502    0 -0.14809348987E+03 -0.25004543097E+03 -0.54486415333E+03  0.61753820519E+03  0.46999998093E+01 0.  1.
       -5    1    3    3    0  502  0.14809348987E+03  0.25004543097E+03  0.14644154669E+04  0.14929799560E+04  0.46999998093E+01 0. -1.
</event>
<event>
 5   0  0.7577180E-06  0.1898608E+04  0.7818609E-02  0.8655550E-01
        2   -1    0    0  501    0  0.00000000000E+00  0.00000000000E+00  0.77574799356E+03  0.77574799357E+03  0.25500000920E-02 0. -1.
       -2   -1    0    0    0  501  0.00000000000E+00  0.00000000000E+00 -0.11616888482E+04  0.11616888482E+04  0.25500000920E-02 0.  1.
    10030    2    1    2    0    0  0.00000000000E+00  0.00000000000E+00 -0.38594085461E+03  0.19374368417E+04  0.18986076931E+04 0.  0.
        5    1    3    3  502    0  0.49482637224E+03 -0.32844895087E+03  0.56273142142E+03  0.81818127249E+03  0.46999998093E+01 0. -1.
       -5    1    3    3    0  502 -0.49482637224E+03  0.32844895087E+03 -0.94867227603E+03  0.11192555693E+04  0.46999998093E+01 0.  1.
</event>
<event>
 5   0  0.6984466E-06  0.1900021E+04  0.7818609E-02  0.8654846E-01
       -2   -1    0    0    0  501  0.00000000000E+00  0.00000000000E+00  0.65855021248E+03  0.65855021249E+03  0.25500000920E-02 0. -1.
        2   -1    0    0  501    0  0.00000000000E+00  0.00000000000E+00 -0.13704645101E+04  0.13704645102E+04  0.25500000920E-02 0.  1.
    10030    2    1    2    0    0  0.00000000000E+00  0.00000000000E+00 -0.71191429767E+03  0.20290147226E+04  0.19000207308E+04 0.  0.
        2    1    3    3  502    0 -0.68401447260E+03  0.15446038082E+03 -0.10403959403E+04  0.12546543430E+04  0.25500000920E-02 0. -1.
       -2    1    3    3    0  502  0.68401447260E+03 -0.15446038082E+03  0.32848164259E+03  0.77436037961E+03  0.25500000920E-02 0.  1.
</event>
<event>
 5   0  0.3379108E-06  0.1900035E+04  0.7818609E-02  0.8654839E-01
       -1   -1    0    0    0  501  0.00000000000E+00  0.00000000000E+00  0.20592201361E+04  0.20592201361E+04  0.50400001928E-02 0. -1.
        1   -1    0    0  501    0  0.00000000000E+00  0.00000000000E+00 -0.43828892873E+03  0.43828892876E+03  0.50400001928E-02 0.  1.
    10030    2    1    2    0    0  0.00000000000E+00  0.00000000000E+00  0.16209312074E+04  0.24975090649E+04  0.19000351444E+04 0.  0.
        4    1    3    3  502    0 -0.55263485917E+03 -0.66065868867E+03  0.13373249680E+04  0.15906963486E+04  0.12699999809E+01 0. -1.
       -4    1    3    3    0  502  0.55263485917E+03  0.66065868867E+03  0.28360623935E+03  0.90681271626E+03  0.12699999809E+01 0.  1.
</event>
<event>
 5   0  0.6870370E-06  0.1900413E+04  0.7818609E-02  0.8654651E-01
       -2   -1    0    0    0  501  0.00000000000E+00  0.00000000000E+00  0.82427920366E+03  0.82427920367E+03  0.25500000920E-02 0.  1.
        2   -1    0    0  501    0  0.00000000000E+00  0.00000000000E+00 -0.10953722792E+04  0.10953722792E+04  0.25500000920E-02 0. -1.
    10030    2    1    2    0    0  0.00000000000E+00  0.00000000000E+00 -0.27109307555E+03  0.19196514829E+04  0.19004132077E+04 0.  0.
        1    1    3    3  502    0  0.65323608142E+03 -0.16209661007E+03 -0.81308241541E+03  0.10555073204E+04  0.50400001928E-02 0. -1.
       -1    1    3    3    0  502 -0.65323608142E+03  0.16209661007E+03  0.54198933986E+03  0.86414416252E+03  0.50400001928E-02 0.  1.
</event>
<event>
 5   0  0.7577180E-06  0.1900358E+04  0.7818609E-02  0.8654678E-01
       -2   -1    0    0    0  501  0.00000000000E+00  0.00000000000E+00  0.60999403528E+03  0.60999403529E+03  0.25500000920E-02 0. -1.
        2   -1    0    0  501    0  0.00000000000E+00  0.00000000000E+00 -0.14800802575E+04  0.14800802575E+04  0.25500000920E-02 0.  1.
    10030    2    1    2    0    0  0.00000000000E+00  0.00000000000E+00 -0.87008622224E+03  0.20900742928E+04  0.19003579966E+04 0.  0.
        5    1    3    3  502    0  0.22331186857E+03 -0.69842206577E+03 -0.10996514693E+04  0.13217098837E+04  0.46999998093E+01 0.  1.
       -5    1    3    3    0  502 -0.22331186857E+03  0.69842206577E+03  0.22956524706E+03  0.76836440916E+03  0.46999998093E+01 0. -1.
</event>
<event>
 5   0  0.7207648E-06  0.1899401E+04  0.7818609E-02  0.8655154E-01
       -2   -1    0    0    0  501  0.00000000000E+00  0.00000000000E+00  0.92084795553E+03  0.92084795553E+03  0.25500000920E-02 0.  1.
        2   -1    0    0  501    0  0.00000000000E+00  0.00000000000E+00 -0.97945730220E+03  0.97945730220E+03  0.25500000920E-02 0. -1.
    10030    2    1    2    0    0  0.00000000000E+00  0.00000000000E+00 -0.58609346669E+02  0.19003052577E+04  0.18994012259E+04 0.  0.
        4    1    3    3  502    0 -0.59514156574E+02 -0.10939150050E+03  0.91264288482E+03  0.92110101689E+03  0.12699999809E+01 0.  1.
       -4    1    3    3    0  502  0.59514156574E+02  0.10939150050E+03 -0.97125223148E+03  0.97920424084E+03  0.12699999809E+01 0. -1.
</event>
<event>
 5   0  0.6862201E-06  0.1900155E+04  0.7818609E-02  0.8654779E-01
        2   -1    0    0  501    0  0.00000000000E+00  0.00000000000E+00  0.11408984101E+04  0.11408984101E+04  0.25500000920E-02 0.  1.
       -2   -1    0    0    0  501  0.00000000000E+00  0.00000000000E+00 -0.79117250812E+03  0.79117250813E+03  0.25500000920E-02 0. -1.
    10030    2    1    2    0    0  0.00000000000E+00  0.00000000000E+00  0.34972590193E+03  0.19320709182E+04  0.19001552111E+04 0.  0.
        3    1    3    3  502    0 -0.11447595216E+01  0.62496559848E+03  0.90246877487E+03  0.10977400464E+04  0.10100000352E+00 0.  1.
       -3    1    3    3    0  502  0.11447595216E+01 -0.62496559848E+03 -0.55274287294E+03  0.83433087174E+03  0.10100000352E+00 0. -1.
</event>
<event>
 5   0  0.7577180E-06  0.1900476E+04  0.7818609E-02  0.8654620E-01
       -2   -1    0    0    0  501  0.00000000000E+00  0.00000000000E+00  0.69836803446E+03  0.69836803446E+03  0.25500000920E-02 0. -1.
        2   -1    0    0  501    0  0.00000000000E+00  0.00000000000E+00 -0.12929458592E+04  0.12929458592E+04  0.25500000920E-02 0.  1.
    10030    2    1    2    0    0  0.00000000000E+00  0.00000000000E+00 -0.59457782472E+03  0.19913138936E+04  0.19004757913E+04 0.  0.
        5    1    3    3  502    0  0.16678665459E+02 -0.56047831422E+03  0.50652674943E+03  0.75564909613E+03  0.46999998093E+01 0. -1.
       -5    1    3    3    0  502 -0.16678665459E+02  0.56047831422E+03 -0.11011045742E+04  0.12356647975E+04  0.46999998093E+01 0.  1.
</event>
<event>
 5   0  0.3379108E-06  0.1900327E+04  0.7818609E-02  0.8654693E-01
        1   -1    0    0  501    0  0.00000000000E+00  0.00000000000E+00  0.89712785195E+03  0.89712785197E+03  0.50400001928E-02 0.  1.
       -1   -1    0    0    0  501  0.00000000000E+00  0.00000000000E+00 -0.10063349382E+04  0.10063349382E+04  0.50400001928E-02 0. -1.
    10030    2    1    2    0    0  0.00000000000E+00  0.00000000000E+00 -0.10920708627E+03  0.19034627902E+04  0.19003274470E+04 0.  0.
        4    1    3    3  502    0 -0.14130040531E+03  0.58459894543E+03  0.68219677399E+03  0.90945906059E+03  0.12699999809E+01 0.  1.
       -4    1    3    3    0  502  0.14130040531E+03 -0.58459894543E+03 -0.79140386027E+03  0.99400372961E+03  0.12699999809E+01 0. -1.
</event>
<event>
 5   0  0.3236653E-06  0.1902092E+04  0.7818609E-02  0.8653816E-01
       -1   -1    0    0    0  501  0.00000000000E+00  0.00000000000E+00  0.70061738429E+03  0.70061738431E+03  0.50400001928E-02 0.  1.
        1   -1    0    0  501    0  0.00000000000E+00  0.00000000000E+00 -0.12909878098E+04  0.12909878098E+04  0.50400001928E-02 0. -1.
    10030    2    1    2    0    0  0.00000000000E+00  0.00000000000E+00 -0.59037042551E+03  0.19916051941E+04  0.19020920088E+04 0.  0.
        3    1    3    3  502    0 -0.37494555031E+03  0.42503791008E+03  0.50446125629E+03  0.75876383677E+03  0.10100000352E+00 0.  1.
       -3    1    3    3    0  502  0.37494555031E+03 -0.42503791008E+03 -0.10948316818E+04  0.12328413573E+04  0.10100000352E+00 0. -1.
</event>
<event>
 5   0  0.3211263E-06  0.1900329E+04  0.7818609E-02  0.8654693E-01
       -1   -1    0    0    0  501  0.00000000000E+00  0.00000000000E+00  0.57457773233E+03  0.57457773235E+03  0.50400001928E-02 0.  1.
        1   -1    0    0  501    0  0.00000000000E+00  0.00000000000E+00 -0.15712629108E+04  0.15712629108E+04  0.50400001928E-02 0. -1.
    10030    2    1    2    0    0  0.00000000000E+00  0.00000000000E+00 -0.99668517849E+03  0.21458406432E+04  0.19003291086E+04 0.  0.
        5    1    3    3  502    0 -0.89047284188E+03  0.34806528416E+02 -0.87052680866E+03  0.12457898664E+04  0.46999998093E+01 0.  1.
       -5    1    3    3    0  502  0.89047284188E+03 -0.34806528416E+02 -0.12615836983E+03  0.90005077681E+03  0.46999998093E+01 0. -1.
</event>
<event>
 5   0  0.6870370E-06  0.1899933E+04  0.7818609E-02  0.8654890E-01
        2   -1    0    0  501    0  0.00000000000E+00  0.00000000000E+00  0.56977118715E+03  0.56977118716E+03  0.25500000920E-02 0. -1.
       -2   -1    0    0    0  501  0.00000000000E+00  0.00000000000E+00 -0.15838568425E+04  0.15838568425E+04  0.25500000920E-02 0.  1.
    10030    2    1    2    0    0  0.00000000000E+00  0.00000000000E+00 -0.10140856553E+04  0.21536280296E+04  0.18999326235E+04 0.  0.
        1    1    3    3  502    0 -0.58869408114E+03  0.24455200281E+03 -0.13054120705E+04  0.14527446703E+04  0.50400001928E-02 0.  1.
       -1    1    3    3    0  502  0.58869408114E+03 -0.24455200281E+03  0.29132641514E+03  0.70088335937E+03  0.50400001928E-02 0. -1.
</event>
<event>
 5   0  0.7577180E-06  0.1900518E+04  0.7818609E-02  0.8654598E-01
        2   -1    0    0  501    0  0.00000000000E+00  0.00000000000E+00  0.13912457500E+04  0.13912457500E+04  0.25500000920E-02 0. -1.
       -2   -1    0    0    0  501  0.00000000000E+00  0.00000000000E+00 -0.64905309106E+03  0.64905309107E+03  0.25500000920E-02 0.  1.
    10030    2    1    2    0    0  0.00000000000E+00  0.00000000000E+00  0.74219265889E+03  0.20402988410E+04  0.19005181972E+04 0.  0.
        5    1    3    3  502    0 -0.83641714546E+03  0.34877824054E+03  0.67800804180E+03  0.11317936636E+04  0.46999998093E+01 0. -1.
       -5    1    3    3    0  502  0.83641714546E+03 -0.34877824054E+03  0.64184617087E+02  0.90850517739E+03  0.46999998093E+01 0.  1.
</event>
<event>
 5   0  0.3211263E-06  0.1899679E+04  0.7818609E-02  0.8655016E-01
        1   -1    0    0  501    0  0.00000000000E+00  0.00000000000E+00  0.57510425260E+03  0.57510425262E+03  0.50400001928E-02 0.  1.
       -1   -1    0    0    0  501  0.00000000000E+00  0.00000000000E+00 -0.15687506144E+04  0.15687506144E+04  0.50400001928E-02 0. -1.
    10030    2    1    2    0    0  0.00000000000E+00  0.00000000000E+00 -0.99364636183E+03  0.21438548671E+04  0.18996790778E+04 0.  0.
        5    1    3    3  502    0  0.93329151037E+03 -0.46803669026E+02 -0.68883818779E+03  0.11609236692E+04  0.46999998093E+01 0. -1.
       -5    1    3    3    0  502 -0.93329151037E+03  0.46803669026E+02 -0.30480817404E+03  0.98293119785E+03  0.46999998093E+01 0.  1.
</event>
<event>
 5   0  0.3398807E-06  0.1899021E+04  0.7818609E-02  0.8655344E-01
        1   -1    0    0  501    0  0.00000000000E+00  0.00000000000E+00  0.23981742567E+04  0.23981742567E+04  0.50400001928E-02 0. -1.
       -1   -1    0    0    0  501  0.00000000000E+00  0.00000000000E+00 -0.37594037737E+03  0.37594037741E+03  0.50400001928E-02 0.  1.
    10030    2    1    2    0    0  0.00000000000E+00  0.00000000000E+00  0.20222338794E+04  0.27741146342E+04  0.18990213639E+04 0.  0.
        1    1    3    3  502    0 -0.46995437932E+03 -0.72452685047E+03  0.15876741403E+04  0.18073476289E+04  0.50400001928E-02 0. -1.
       -1    1    3    3    0  502  0.46995437932E+03  0.72452685047E+03  0.43455973906E+03  0.96676700530E+03  0.50400001928E-02 0.  1.
</event>
<event>
 5   0  0.7207648E-06  0.1898682E+04  0.7818609E-02  0.8655513E-01
       -2   -1    0    0    0  501  0.00000000000E+00  0.00000000000E+00  0.72595572623E+03  0.72595572623E+03  0.25500000920E-02 0.  1.
        2   -1    0    0  501    0  0.00000000000E+00  0.00000000000E+00 -0.12414651195E+04  0.12414651195E+04  0.25500000920E-02 0. -1.
    10030    2    1    2    0    0  0.00000000000E+00  0.00000000000E+00 -0.51550939328E+03  0.19674208458E+04  0.18986823983E+04 0.  0.
        4    1    3    3  502    0 -0.50891991640E+03  0.32234987334E+03 -0.10180328904E+04  0.11829207500E+04  0.12699999809E+01 0. -1.
       -4    1    3    3    0  502  0.50891991640E+03 -0.32234987334E+03  0.50252349708E+03  0.78450009570E+03  0.12699999809E+01 0.  1.
</event>
<event>
 5   0  0.3398807E-06  0.1898954E+04  0.7818609E-02  0.8655377E-01
        1   -1    0    0  501    0  0.00000000000E+00  0.00000000000E+00  0.98103302294E+03  0.98103302295E+03  0.50400001928E-02 0.  1.
       -1   -1    0    0    0  501  0.00000000000E+00  0.00000000000E+00 -0.91893574382E+03  0.91893574384E+03  0.50400001928E-02 0. -1.
    10030    2    1    2    0    0  0.00000000000E+00  0.00000000000E+00  0.62097279116E+02  0.18999687668E+04  0.18989537232E+04 0.  0.
        1    1    3    3  502    0  0.31483297954E+03  0.15223261642E+02 -0.86506102741E+03  0.92069654820E+03  0.50400001928E-02 0. -1.
       -1    1    3    3    0  502 -0.31483297954E+03 -0.15223261642E+02  0.92715830653E+03  0.97927221858E+03  0.50400001928E-02 0.  1.
</event>
<event>
 5   0  0.7207648E-06  0.1896093E+04  0.7818609E-02  0.8656803E-01
        2   -1    0    0  501    0  0.00000000000E+00  0.00000000000E+00  0.74096447621E+03  0.74096447621E+03  0.25500000920E-02 0.  1.
       -2   -1    0    0    0  501  0.00000000000E+00  0.00000000000E+00 -0.12130033416E+04  0.12130033416E+04  0.25500000920E-02 0. -1.
    10030    2    1    2    0    0  0.00000000000E+00  0.00000000000E+00 -0.47203886539E+03  0.19539678178E+04  0.18960932315E+04 0.  0.
        4    1    3    3  502    0  0.46504292838E+03  0.70882609209E+03  0.20130549021E+03  0.87133510624E+03  0.12699999809E+01 0.  1.
       -4    1    3    3    0  502 -0.46504292838E+03 -0.70882609209E+03 -0.67334435560E+03  0.10826327116E+04  0.12699999809E+01 0. -1.
</event>
<event>
 5   0  0.6870370E-06  0.1901083E+04  0.7818609E-02  0.8654318E-01
        2   -1    0    0  501    0  0.00000000000E+00  0.00000000000E+00  0.13962546590E+04  0.13962546590E+04  0.25500000920E-02 0.  1.
       -2   -1    0    0    0  501  0.00000000000E+00  0.00000000000E+00 -0.64710905461E+03  0.64710905461E+03  0.25500000920E-02 0. -1.
    10030    2    1    2    0    0  0.00000000000E+00  0.00000000000E+00  0.74914560443E+03  0.20433637137E+04  0.19010828834E+04 0.  0.
        1    1    3    3  502    0  0.16560543283E+03 -0.93127049500E+03  0.47562588945E+03  0.10587303155E+04  0.50400001928E-02 0. -1.
       -1    1    3    3    0  502 -0.16560543283E+03  0.93127049500E+03  0.27351971499E+03  0.98463339815E+03  0.50400001928E-02 0.  1.
</event>
<event>
 5   0  0.2527750E-06  0.1900269E+04  0.7818609E-02  0.8654722E-01
        4   -1    0    0  501    0  0.00000000000E+00  0.00000000000E+00  0.15381460674E+04  0.15381465917E+04  0.12699999809E+01 0. -1.
       -4   -1    0    0    0  501  0.00000000000E+00  0.00000000000E+00 -0.58691024172E+03  0.58691161578E+03  0.12699999809E+01 0.  1.
    10030    2    1    2    0    0  0.00000000000E+00  0.00000000000E+00  0.95123582570E+03  0.21250582075E+04  0.19002691360E+04 0.  0.
        5    1    3    3  502    0  0.40769888212E+03  0.26446010077E+03 -0.43740269357E+03  0.65383539956E+03  0.46999998093E+01 0.  1.
       -5    1    3    3    0  502 -0.40769888212E+03 -0.26446010077E+03  0.13886385193E+04  0.14712228079E+04  0.46999998093E+01 0. -1.
</event>
<event>
 5   0  0.3398807E-06  0.1898681E+04  0.7818609E-02  0.8655513E-01
       -1   -1    0    0    0  501  0.00000000000E+00  0.00000000000E+00  0.75875375773E+03  0.75875375775E+03  0.50400001928E-02 0.  1.
        1   -1    0    0  501    0  0.00000000000E+00  0.00000000000E+00 -0.11877998215E+04  0.11877998215E+04  0.50400001928E-02 0. -1.
    10030    2    1    2    0    0  0.00000000000E+00  0.00000000000E+00 -0.42904606373E+03  0.19465535792E+04  0.18986812034E+04 0.  0.
        1    1    3    3  502    0 -0.17551439818E+02 -0.15599725335E+03 -0.11744012351E+04  0.11848465964E+04  0.50400001928E-02 0. -1.
       -1    1    3    3    0  502  0.17551439818E+02  0.15599725335E+03  0.74535517137E+03  0.76170698277E+03  0.50400001928E-02 0.  1.
</event>
<event>
 5   0  0.2527750E-06  0.1900299E+04  0.7818609E-02  0.8654708E-01
        3   -1    0    0  501    0  0.00000000000E+00  0.00000000000E+00  0.61071791059E+03  0.61071791894E+03  0.10100000352E+00 0.  1.
       -3   -1    0    0    0  501  0.00000000000E+00  0.00000000000E+00 -0.14782342360E+04  0.14782342395E+04  0.10100000352E+00 0. -1.
    10030    2    1    2    0    0  0.00000000000E+00  0.00000000000E+00 -0.86751632541E+03  0.20889521584E+04  0.19002990673E+04 0.  0.
        2    1    3    3  502    0  0.54850149586E+03  0.77569204915E+03 -0.41701124229E+03  0.10375212876E+04  0.25500000920E-02 0.  1.
       -2    1    3    3    0  502 -0.54850149586E+03 -0.77569204915E+03 -0.45050508313E+03  0.10514308708E+04  0.25500000920E-02 0. -1.
</event>
<event>
 5   0  0.7207648E-06  0.1899719E+04  0.7818609E-02  0.8654996E-01
       -2   -1    0    0    0  501  0.00000000000E+00  0.00000000000E+00  0.38047969778E+03  0.38047969779E+03  0.25500000920E-02 0.  1.
        2   -1    0    0  501    0  0.00000000000E+00  0.00000000000E+00 -0.23713032654E+04  0.23713032654E+04  0.25500000920E-02 0. -1.
    10030    2    1    2    0    0  0.00000000000E+00  0.00000000000E+00 -0.19908235676E+04  0.27517829632E+04  0.18997186631E+04 0.  0.
        4    1    3    3  502    0 -0.43325874953E+03  0.83065617562E+03 -0.12222721913E+04  0.15400174508E+04  0.12699999809E+01 0.  1.
       -4    1    3    3    0  502  0.43325874953E+03 -0.83065617562E+03 -0.76855137628E+03  0.12117655124E+04  0.12699999809E+01 0. -1.
</event>
<event>
 5   0  0.3379108E-06  0.1893560E+04  0.7818609E-02  0.8658068E-01
       -1   -1    0    0    0  501  0.00000000000E+00  0.00000000000E+00  0.44009317732E+03  0.44009317735E+03  0.50400001928E-02 0. -1.
        1   -1    0    0  501    0  0.00000000000E+00  0.00000000000E+00 -0.20368248312E+04  0.20368248312E+04  0.50400001928E-02 0.  1.
    10030    2    1    2    0    0  0.00000000000E+00  0.00000000000E+00 -0.15967316538E+04  0.24769180085E+04  0.18935603625E+04 0.  0.
        4    1    3    3  502    0 -0.12506639414E+03  0.82685650503E+03 -0.21769593371E+03  0.86413333190E+03  0.12699999809E+01 0. -1.
       -4    1    3    3    0  502  0.12506639414E+03 -0.82685650503E+03 -0.13790357201E+04  0.16127846766E+04  0.12699999809E+01 0.  1.
</event>
<event>
 5   0  0.7207648E-06  0.1900767E+04  0.7818609E-02  0.8654475E-01
        2   -1    0    0  501    0  0.00000000000E+00  0.00000000000E+00  0.16108814685E+04  0.16108814685E+04  0.25500000920E-02 0.  1.
       -2   -1    0    0    0  501  0.00000000000E+00  0.00000000000E+00 -0.56070491356E+03  0.56070491356E+03  0.25500000920E-02 0. -1.
    10030    2    1    2    0    0  0.00000000000E+00  0.00000000000E+00  0.10501765549E+04  0.21715863820E+04  0.19007673761E+04 0.  0.
        4    1    3    3  502    0  0.15779013323E+03  0.22367494599E+03  0.15648690836E+04  0.15886299346E+04  0.12699999809E+01 0.  1.
       -4    1    3    3    0  502 -0.15779013323E+03 -0.22367494599E+03 -0.51469252866E+03  0.58295644740E+03  0.12699999809E+01 0. -1.
</event>
<event>
 5   0  0.3495279E-06  0.1900316E+04  0.7818609E-02  0.8654699E-01
        1   -1    0    0  501    0  0.00000000000E+00  0.00000000000E+00  0.16275331199E+04  0.16275331199E+04  0.50400001928E-02 0. -1.
       -1   -1    0    0    0  501  0.00000000000E+00  0.00000000000E+00 -0.55470484985E+03  0.55470484987E+03  0.50400001928E-02 0.  1.
    10030    2    1    2    0    0  0.00000000000E+00  0.00000000000E+00  0.10728282700E+04  0.21822379698E+04  0.19003163052E+04 0.  0.
        2    1    3    3  502    0 -0.45104295600E+03  0.81328020460E+03  0.31274687677E+03  0.98116005233E+03  0.25500000920E-02 0. -1.
       -2    1    3    3    0  502  0.45104295600E+03 -0.81328020460E+03  0.76008139326E+03  0.12010779174E+04  0.25500000920E-02 0.  1.
</event>
<event>
 5   0  0.6870370E-06  0.1901606E+04  0.7818609E-02  0.8654058E-01
       -2   -1    0    0    0  501  0.00000000000E+00  0.00000000000E+00  0.54669761392E+03  0.54669761392E+03  0.25500000920E-02 0.  1.
        2   -1    0    0  501    0  0.00000000000E+00  0.00000000000E+00 -0.16536124822E+04  0.16536124822E+04  0.25500000920E-02 0. -1.
    10030    2    1    2    0    0  0.00000000000E+00  0.00000000000E+00 -0.11069148683E+04  0.22003100961E+04  0.19016056356E+04 0.  0.
        1    1    3    3  502    0  0.76334977080E+03 -0.41949512662E+03 -0.11232761202E+03  0.87823489244E+03  0.50400001928E-02 0.  1.
       -1    1    3    3    0  502 -0.76334977080E+03  0.41949512662E+03 -0.99458725624E+03  0.13220752037E+04  0.50400001928E-02 0. -1.
</event>
<event>
 5   0  0.3236653E-06  0.1900299E+04  0.7818609E-02  0.8654707E-01
       -1   -1    0    0    0  501  0.00000000000E+00  0.00000000000E+00  0.52100898437E+03  0.52100898440E+03  0.50400001928E-02 0.  1.
        1   -1    0    0  501    0  0.00000000000E+00  0.00000000000E+00 -0.17327612954E+04  0.17327612954E+04  0.50400001928E-02 0. -1.
    10030    2    1    2    0    0  0.00000000000E+00  0.00000000000E+00 -0.12117523110E+04  0.22537702798E+04  0.19002991372E+04 0.  0.
        3    1    3    3  502    0 -0.32757859749E+01  0.67051630692E+03 -0.14042819642E+04  0.15561525290E+04  0.10100000352E+00 0. -1.
       -3    1    3    3    0  502  0.32757859749E+01 -0.67051630692E+03  0.19252965313E+03  0.69761775075E+03  0.10100000352E+00 0.  1.
</event>
<event>
 5   0  0.3398807E-06  0.1899527E+04  0.7818609E-02  0.8655092E-01
        1   -1    0    0  501    0  0.00000000000E+00  0.00000000000E+00  0.65224767183E+03  0.65224767185E+03  0.50400001928E-02 0.  1.
       -1   -1    0    0    0  501  0.00000000000E+00  0.00000000000E+00 -0.13829886599E+04  0.13829886599E+04  0.50400001928E-02 0. -1.
    10030    2    1    2    0    0  0.00000000000E+00  0.00000000000E+00 -0.73074098810E+03  0.20352363318E+04  0.18995274503E+04 0.  0.
        1    1    3    3  502    0  0.58654025554E+03 -0.69124929851E+03 -0.61949368729E+02  0.90867639365E+03  0.50400001928E-02 0. -1.
       -1    1    3    3    0  502 -0.58654025554E+03  0.69124929851E+03 -0.66879161937E+03  0.11265599381E+04  0.50400001928E-02 0.  1.
</event>
<event>
 5   0  0.3236653E-06  0.1899738E+04  0.7818609E-02  0.8654987E-01
        1   -1    0    0  501    0  0.00000000000E+00  0.00000000000E+00  0.10215442925E+04  0.10215442925E+04  0.50400001928E-02 0. -1.
       -1   -1    0    0    0  501  0.00000000000E+00  0.00000000000E+00 -0.88322302509E+03  0.88322302510E+03  0.50400001928E-02 0.  1.
    10030    2    1    2    0    0  0.00000000000E+00  0.00000000000E+00  0.13832126742E+03  0.19047673176E+04  0.18997383402E+04 0.  0.
        3    1    3    3  502    0 -0.42562808323E+02  0.13302557880E+03  0.10111923792E+04  0.10207925525E+04  0.10100000352E+00 0. -1.
       -3    1    3    3    0  502  0.42562808323E+02 -0.13302557880E+03 -0.87287111182E+03  0.88397476509E+03  0.10100000352E+00 0.  1.
</event>
<event>
 5   0  0.6862201E-06  0.1899889E+04  0.7818609E-02  0.8654912E-01
       -2   -1    0    0    0  501  0.00000000000E+00  0.00000000000E+00  0.49673943447E+03  0.49673943448E+03  0.25500000920E-02 0. -1.
        2   -1    0    0  501    0  0.00000000000E+00  0.00000000000E+00 -0.18166351046E+04  0.18166351046E+04  0.25500000920E-02 0.  1.
    10030    2    1    2    0    0  0.00000000000E+00  0.00000000000E+00 -0.13198956702E+04  0.23133745391E+04  0.18998887278E+04 0.  0.
        3    1    3    3  502    0  0.55490018994E+03  0.76643608205E+03 -0.76222785006E+03  0.12150431245E+04  0.10100000352E+00 0.  1.
       -3    1    3    3    0  502 -0.55490018994E+03 -0.76643608205E+03 -0.55766782009E+03  0.10983314147E+04  0.10100000352E+00 0. -1.
</event>
<event>
 5   0  0.6984466E-06  0.1899189E+04  0.7818609E-02  0.8655260E-01
       -2   -1    0    0    0  501  0.00000000000E+00  0.00000000000E+00  0.73851451149E+03  0.73851451149E+03  0.25500000920E-02 0. -1.
        2   -1    0    0  501    0  0.00000000000E+00  0.00000000000E+00 -0.12210051162E+04  0.12210051162E+04  0.25500000920E-02 0.  1.
    10030    2    1    2    0    0  0.00000000000E+00  0.00000000000E+00 -0.48249060472E+03  0.19595196277E+04  0.18991892975E+04 0.  0.
        2    1    3    3  502    0  0.90597103819E+03 -0.28449268005E+03 -0.24457102850E+03  0.98057870415E+03  0.25500000920E-02 0.  1.
       -2    1    3    3    0  502 -0.90597103819E+03  0.28449268005E+03 -0.23791957621E+03  0.97894092355E+03  0.25500000920E-02 0. -1.
</event>
<event>
 5   0  0.3379108E-06  0.1900643E+04  0.7818609E-02  0.8654536E-01
       -1   -1    0    0    0  501  0.00000000000E+00  0.00000000000E+00  0.86835031133E+03  0.86835031134E+03  0.50400001928E-02 0.  1.
        1   -1    0    0  501    0  0.00000000000E+00  0.00000000000E+00 -0.10400311788E+04  0.10400311788E+04  0.50400001928E-02 0. -1.
    10030    2    1    2    0    0  0.00000000000E+00  0.00000000000E+00 -0.17168086747E+03  0.19083814902E+04  0.19006434678E+04 0.  0.
        4    1    3    3  502    0  0.78291382905E+03  0.15891324748E+03  0.43094159631E+03  0.90770025684E+03  0.12699999809E+01 0.  1.
       -4    1    3    3    0  502 -0.78291382905E+03 -0.15891324748E+03 -0.60262246378E+03  0.10006812333E+04  0.12699999809E+01 0. -1.
</event>
<event>
 5   0  0.6870370E-06  0.1899890E+04  0.7818609E-02  0.8654911E-01
        2   -1    0    0  501    0  0.00000000000E+00  0.00000000000E+00  0.10917823062E+04  0.10917823062E+04  0.25500000920E-02 0.  1.
       -2   -1    0    0    0  501  0.00000000000E+00  0.00000000000E+00 -0.82653385771E+03  0.82653385771E+03  0.25500000920E-02 0. -1.
    10030    2    1    2    0    0  0.00000000000E+00  0.00000000000E+00  0.26524844853E+03  0.19183161640E+04  0.18998895140E+04 0.  0.
        1    1    3    3  502    0  0.47890667038E+03  0.77335919190E+03  0.40906604225E+03  0.99738210610E+03  0.50400001928E-02 0.  1.
       -1    1    3    3    0  502 -0.47890667038E+03 -0.77335919190E+03 -0.14381759371E+03  0.92093405785E+03  0.50400001928E-02 0. -1.
</event>
<event>
 5   0  0.7577180E-06  0.1909580E+04  0.7818609E-02  0.8650103E-01
        2   -1    0    0  501    0  0.00000000000E+00  0.00000000000E+00  0.86141795372E+03  0.86141795373E+03  0.25500000920E-02 0.  1.
       -2   -1    0    0    0  501  0.00000000000E+00  0.00000000000E+00 -0.10582825591E+04  0.10582825591E+04  0.25500000920E-02 0. -1.
    10030    2    1    2    0    0  0.00000000000E+00  0.00000000000E+00 -0.19686460535E+03  0.19197005128E+04  0.19095796359E+04 0.  0.
        5    1    3    3  502    0 -0.20487646077E+03 -0.16521743726E+03 -0.10210821801E+04  0.10544676734E+04  0.46999998093E+01 0. -1.
       -5    1    3    3    0  502  0.20487646077E+03  0.16521743726E+03  0.82421757477E+03  0.86523283937E+03  0.46999998093E+01 0.  1.
</event>
<event>
 5   0  0.3379108E-06  0.1899625E+04  0.7818609E-02  0.8655043E-01
        1   -1    0    0  501    0  0.00000000000E+00  0.00000000000E+00  0.11312090865E+04  0.11312090865E+04  0.50400001928E-02 0.  1.
       -1   -1    0    0    0  501  0.00000000000E+00  0.00000000000E+00 -0.79750416540E+03  0.79750416541E+03  0.50400001928E-02 0. -1.
    10030    2    1    2    0    0  0.00000000000E+00  0.00000000000E+00  0.33370492110E+03  0.19287132519E+04  0.18996251824E+04 0.  0.
        4    1    3    3  502    0 -0.91493648481E+03 -0.95302853669E+02 -0.73309069305E+02  0.92280400828E+03  0.12699999809E+01 0. -1.
       -4    1    3    3    0  502  0.91493648481E+03  0.95302853669E+02  0.40701399041E+03  0.10059092436E+04  0.12699999809E+01 0.  1.
</event>
<event>
 5   0  0.6870370E-06  0.1900012E+04  0.7818609E-02  0.8654850E-01
       -2   -1    0    0    0  501  0.00000000000E+00  0.00000000000E+00  0.82860065458E+03  0.82860065459E+03  0.25500000920E-02 0.  1.
        2   -1    0    0  501    0  0.00000000000E+00  0.00000000000E+00 -0.10891999061E+04  0.10891999061E+04  0.25500000920E-02 0. -1.
    10030    2    1    2    0    0  0.00000000000E+00  0.00000000000E+00 -0.26059925155E+03  0.19178005607E+04  0.19000123739E+04 0.  0.
        1    1    3    3  502    0  0.41165940889E+03 -0.82195326070E+03  0.11161296620E+03  0.92602812374E+03  0.50400001928E-02 0.  1.
       -1    1    3    3    0  502 -0.41165940889E+03  0.82195326070E+03 -0.37221221775E+03  0.99177243699E+03  0.50400001928E-02 0. -1.
</event>
<event>
 5   0  0.3398807E-06  0.1897394E+04  0.7818609E-02  0.8656155E-01
        1   -1    0    0  501    0  0.00000000000E+00  0.00000000000E+00  0.19477384711E+04  0.19477384711E+04  0.50400001928E-02 0. -1.
       -1   -1    0    0    0  501  0.00000000000E+00  0.00000000000E+00 -0.46208746318E+03  0.46208746321E+03  0.50400001928E-02 0.  1.
    10030    2    1    2    0    0  0.00000000000E+00  0.00000000000E+00  0.14856510080E+04  0.24098259344E+04  0.18973935060E+04 0.  0.
        1    1    3    3  502    0 -0.11452042185E+02 -0.68663697675E+02 -0.45883938244E+03  0.46408989598E+03  0.50400001928E-02 0.  1.
       -1    1    3    3    0  502  0.11452042185E+02  0.68663697675E+02  0.19444903904E+04  0.19457360384E+04  0.50400001928E-02 0. -1.
</event>
<event>
 5   0  0.6870370E-06  0.1900214E+04  0.7818609E-02  0.8654750E-01
        2   -1    0    0  501    0  0.00000000000E+00  0.00000000000E+00  0.98334975124E+03  0.98334975124E+03  0.25500000920E-02 0. -1.
       -2   -1    0    0    0  501  0.00000000000E+00  0.00000000000E+00 -0.91798757017E+03  0.91798757017E+03  0.25500000920E-02 0.  1.
    10030    2    1    2    0    0  0.00000000000E+00  0.00000000000E+00  0.65362181075E+02  0.19013373214E+04  0.19002135130E+04 0.  0.
        1    1    3    3  502    0  0.51232412129E+02  0.70716997236E+03 -0.60013955922E+03  0.92891421586E+03  0.50400001928E-02 0.  1.
       -1    1    3    3    0  502 -0.51232412129E+02 -0.70716997236E+03  0.66550174029E+03  0.97242310556E+03  0.50400001928E-02 0. -1.
</event>
<event>
 5   0  0.3379108E-06  0.1899690E+04  0.7818609E-02  0.8655011E-01
        1   -1    0    0  501    0  0.00000000000E+00  0.00000000000E+00  0.13830442224E+04  0.13830442225E+04  0.50400001928E-02 0.  1.
       -1   -1    0    0    0  501  0.00000000000E+00  0.00000000000E+00 -0.65233336984E+03  0.65233336986E+03  0.50400001928E-02 0. -1.
    10030    2    1    2    0    0  0.00000000000E+00  0.00000000000E+00  0.73071085260E+03  0.20353775923E+04  0.18996903940E+04 0.  0.
        4    1    3    3  502    0 -0.21079244625E+03  0.50395850638E+03 -0.46718918332E+03  0.71880106946E+03  0.12699999809E+01 0. -1.
       -4    1    3    3    0  502  0.21079244625E+03 -0.50395850638E+03  0.11979000359E+04  0.13165765229E+04  0.12699999809E+01 0.  1.
</event>
<event>
 5   0  0.6984466E-06  0.1900376E+04  0.7818609E-02  0.8654669E-01
       -2   -1    0    0    0  501  0.00000000000E+00  0.00000000000E+00  0.60847358370E+03  0.60847358370E+03  0.25500000920E-02 0.  1.
        2   -1    0    0  501    0  0.00000000000E+00  0.00000000000E+00 -0.14838072263E+04  0.14838072263E+04  0.25500000920E-02 0. -1.
    10030    2    1    2    0    0  0.00000000000E+00  0.00000000000E+00 -0.87533364260E+03  0.20922808100E+04  0.19003762791E+04 0.  0.
        2    1    3    3  502    0  0.50237373240E+03  0.60872401435E+03  0.14484880688E+03  0.80243720596E+03  0.25500000920E-02 0.  1.
       -2    1    3    3    0  502 -0.50237373240E+03 -0.60872401435E+03 -0.10201824495E+04  0.12898436040E+04  0.25500000920E-02 0. -1.
</event>
<event>
 5   0  0.6984466E-06  0.1898134E+04  0.7818609E-02  0.8655786E-01
        2   -1    0    0  501    0  0.00000000000E+00  0.00000000000E+00  0.56398144908E+03  0.56398144908E+03  0.25500000920E-02 0.  1.
       -2   -1    0    0    0  501  0.00000000000E+00  0.00000000000E+00 -0.15970883222E+04  0.15970883222E+04  0.25500000920E-02 0. -1.
    10030    2    1    2    0    0  0.00000000000E+00  0.00000000000E+00 -0.10331068731E+04  0.21610697713E+04  0.18981340166E+04 0.  0.
        2    1    3    3  502    0  0.62742012414E+02 -0.67560099796E+02 -0.15919772774E+04  0.15946449696E+04  0.25500000920E-02 0. -1.
       -2    1    3    3    0  502 -0.62742012414E+02  0.67560099796E+02  0.55887040428E+03  0.56642480171E+03  0.25500000920E-02 0.  1.
</event>
<event>
 5   0  0.3379108E-06  0.1899693E+04  0.7818609E-02  0.8655009E-01
       -1   -1    0    0    0  501  0.00000000000E+00  0.00000000000E+00  0.77312933829E+03  0.77312933831E+03  0.50400001928E-02 0. -1.
        1   -1    0    0  501    0  0.00000000000E+00  0.00000000000E+00 -0.11669569645E+04  0.11669569645E+04  0.50400001928E-02 0.  1.
    10030    2    1    2    0    0  0.00000000000E+00  0.00000000000E+00 -0.39382762617E+03  0.19400863028E+04  0.18996933076E+04 0.  0.
        4    1    3    3  502    0  0.54454464828E+03  0.67014566452E+03 -0.60103332154E+03  0.10520773508E+04  0.12699999809E+01 0.  1.
       -4    1    3    3    0  502 -0.54454464828E+03 -0.67014566452E+03  0.20720569537E+03  0.88800895194E+03  0.12699999809E+01 0. -1.
</event>
<event>
 5   0  0.3211263E-06  0.1900519E+04  0.7818609E-02  0.8654598E-01
        1   -1    0    0  501    0  0.00000000000E+00  0.00000000000E+00  0.13761860744E+04  0.13761860744E+04  0.50400001928E-02 0.  1.
       -1   -1    0    0    0  501  0.00000000000E+00  0.00000000000E+00 -0.65615633268E+03  0.65615633270E+03  0.50400001928E-02 0. -1.
    10030    2    1    2    0    0  0.00000000000E+00  0.00000000000E+00  0.72002974174E+03  0.20323424071E+04  0.19005190951E+04 0.  0.
        5    1    3    3  502    0  0.73984498479E+02  0.26967229641E+03  0.13311780148E+04  0.13602403650E+04  0.46999998093E+01 0.  1.
       -5    1    3    3    0  502 -0.73984498479E+02 -0.26967229641E+03 -0.61114827303E+03  0.67210204217E+03  0.46999998093E+01 0. -1.
</event>
<event>
 5   0  0.3495279E-06  0.1901562E+04  0.7818609E-02  0.8654079E-01
       -1   -1    0    0    0  501  0.00000000000E+00  0.00000000000E+00  0.62502445687E+03  0.62502445689E+03  0.50400001928E-02 0. -1.
        1   -1    0    0  501    0  0.00000000000E+00  0.00000000000E+00 -0.14463186933E+04  0.14463186933E+04  0.50400001928E-02 0.  1.
    10030    2    1    2    0    0  0.00000000000E+00  0.00000000000E+00 -0.82129423645E+03  0.20713431502E+04  0.19015620482E+04 0.  0.
        2    1    3    3  502    0  0.29032652705E+03 -0.90361108693E+03 -0.47209348585E+03  0.10600352580E+04  0.25500000920E-02 0. -1.
       -2    1    3    3    0  502 -0.29032652705E+03  0.90361108693E+03 -0.34920075060E+03  0.10113078923E+04  0.25500000920E-02 0.  1.
</event>
<event>
 5   0  0.6862201E-06  0.1895926E+04  0.7818609E-02  0.8656887E-01
        2   -1    0    0  501    0  0.00000000000E+00  0.00000000000E+00  0.15244256317E+04  0.15244256317E+04  0.25500000920E-02 0. -1.
       -2   -1    0    0    0  501  0.00000000000E+00  0.00000000000E+00 -0.58948987275E+03  0.58948987276E+03  0.25500000920E-02 0.  1.
    10030    2    1    2    0    0  0.00000000000E+00  0.00000000000E+00  0.93493575899E+03  0.21139155045E+04  0.18959256016E+04 0.  0.
        3    1    3    3  502    0  0.11907010561E+03 -0.93548632500E+03  0.57511442152E+03  0.11045673191E+04  0.10100000352E+00 0. -1.
       -3    1    3    3    0  502 -0.11907010561E+03  0.93548632500E+03  0.35982133747E+03  0.10093481854E+04  0.10100000352E+00 0.  1.
</event>
<event>
 5   0  0.3495279E-06  0.1900675E+04  0.7818609E-02  0.8654521E-01
       -1   -1    0    0    0  501  0.00000000000E+00  0.00000000000E+00  0.97765901131E+03  0.97765901132E+03  0.50400001928E-02 0.  1.
        1   -1    0    0  501    0  0.00000000000E+00  0.00000000000E+00 -0.92377925563E+03  0.92377925564E+03  0.50400001928E-02 0. -1.
    10030    2    1    2    0    0  0.00000000000E+00  0.00000000000E+00  0.53879755679E+02  0.19014382670E+04  0.19006747368E+04 0.  0.
        2    1    3    3  502    0  0.63598388227E+03  0.16240625140E+03  0.71444940729E+03  0.97020062079E+03  0.25500000920E-02 0.  1.
       -2    1    3    3    0  502 -0.63598388227E+03 -0.16240625140E+03 -0.66056965161E+03  0.93123764617E+03  0.25500000920E-02 0. -1.
</event>
<event>
 5   0  0.3398807E-06  0.1899113E+04  0.7818609E-02  0.8655298E-01
        1   -1    0    0  501    0  0.00000000000E+00  0.00000000000E+00  0.17267081901E+04  0.17267081901E+04  0.50400001928E-02 0.  1.
       -1   -1    0    0    0  501  0.00000000000E+00  0.00000000000E+00 -0.52218305036E+03  0.52218305038E+03  0.50400001928E-02 0. -1.
    10030    2    1    2    0    0  0.00000000000E+00  0.00000000000E+00  0.12045251398E+04  0.22488912405E+04  0.18991132139E+04 0.  0.
        1    1    3    3  502    0 -0.68459717654E+03 -0.52467754295E+03  0.13201062997E+03  0.87257471007E+03  0.50400001928E-02 0. -1.
       -1    1    3    3    0  502  0.68459717654E+03  0.52467754295E+03  0.10725145098E+04  0.13763165304E+04  0.50400001928E-02 0.  1.
</event>
<event>
 5   0  0.6870370E-06  0.1894016E+04  0.7818609E-02  0.8657841E-01
       -2   -1    0    0    0  501  0.00000000000E+00  0.00000000000E+00  0.19085796814E+04  0.19085796814E+04  0.25500000920E-02 0. -1.
        2   -1    0    0  501    0  0.00000000000E+00  0.00000000000E+00 -0.46989072640E+03  0.46989072641E+03  0.25500000920E-02 0.  1.
    10030    2    1    2    0    0  0.00000000000E+00  0.00000000000E+00  0.14386889550E+04  0.23784704078E+04  0.18940157264E+04 0.  0.
        1    1    3    3  502    0 -0.45005730265E+03 -0.42775123340E+03 -0.17860639656E+03  0.64608276425E+03  0.50400001928E-02 0.  1.
       -1    1    3    3    0  502  0.45005730265E+03  0.42775123340E+03  0.16172953516E+04  0.17323876436E+04  0.50400001928E-02 0. -1.
</event>
<event>
 5   0  0.3211263E-06  0.1895936E+04  0.7818609E-02  0.8656882E-01
       -1   -1    0    0    0  501  0.00000000000E+00  0.00000000000E+00  0.97264595803E+03  0.97264595804E+03  0.50400001928E-02 0.  1.
        1   -1    0    0  501    0  0.00000000000E+00  0.00000000000E+00 -0.92391664512E+03  0.92391664513E+03  0.50400001928E-02 0. -1.
    10030    2    1    2    0    0  0.00000000000E+00  0.00000000000E+00  0.48729312907E+02  0.18965626032E+04  0.18959364868E+04 0.  0.
        5    1    3    3  502    0 -0.85051735904E+03  0.16314228883E+03  0.41001306814E+03  0.95818995532E+03  0.46999998093E+01 0.  1.
       -5    1    3    3    0  502  0.85051735904E+03 -0.16314228883E+03 -0.36128375524E+03  0.93837264785E+03  0.46999998093E+01 0. -1.
</event>
<event>
 5   0  0.3211263E-06  0.1900621E+04  0.7818609E-02  0.8654548E-01
        1   -1    0    0  501    0  0.00000000000E+00  0.00000000000E+00  0.49873480814E+03  0.49873480817E+03  0.50400001928E-02 0.  1.
       -1   -1    0    0    0  501  0.00000000000E+00  0.00000000000E+00 -0.18107612828E+04  0.18107612828E+04  0.50400001928E-02 0. -1.
    10030    2    1    2    0    0  0.00000000000E+00  0.00000000000E+00 -0.13120264746E+04  0.23094960909E+04  0.19006206155E+04 0.  0.
        5    1    3    3  502    0 -0.37697338802E+03 -0.10686835572E+03 -0.17080200898E+04  0.17523939334E+04  0.46999998093E+01 0. -1.
       -5    1    3    3    0  502  0.37697338802E+03  0.10686835572E+03  0.39599361513E+03  0.55710215756E+03  0.46999998093E+01 0.  1.
</event>
<event>
 5   0  0.6984466E-06  0.1899689E+04  0.7818609E-02  0.8655011E-01
        2   -1    0    0  501    0  0.00000000000E+00  0.00000000000E+00  0.20438007115E+04  0.20438007115E+04  0.25500000920E-02 0. -1.
       -2   -1    0    0    0  501  0.00000000000E+00  0.00000000000E+00 -0.44143474392E+03  0.44143474393E+03  0.25500000920E-02 0.  1.
    10030    2    1    2    0    0  0.00000000000E+00  0.00000000000E+00  0.16023659675E+04  0.24852354554E+04  0.18996890732E+04 0.  0.
        2    1    3    3  502    0  0.18113455755E+03 -0.61455799817E+03  0.17185455835E+04  0.18340911056E+04  0.25500000920E-02 0. -1.
       -2    1    3    3    0  502 -0.18113455755E+03  0.61455799817E+03 -0.11617961600E+03  0.65114434977E+03  0.25500000920E-02 0.  1.
</event>
<event>
 5   0  0.6984466E-06  0.1901375E+04  0.7818609E-02  0.8654172E-01
        2   -1    0    0  501    0  0.00000000000E+00  0.00000000000E+00  0.80325287521E+03  0.80325287522E+03  0.25500000920E-02 0. -1.
       -2   -1    0    0    0  501  0.00000000000E+00  0.00000000000E+00 -0.11251837911E+04  0.11251837911E+04  0.25500000920E-02 0.  1.
    10030    2    1    2    0    0  0.00000000000E+00  0.00000000000E+00 -0.32193091592E+03  0.19284366664E+04  0.19013754131E+04 0.  0.
        2    1    3    3  502    0  0.21312972824E+03 -0.47301673771E+03  0.64701441600E+03  0.82933513716E+03  0.25500000920E-02 0. -1.
       -2    1    3    3    0  502 -0.21312972824E+03  0.47301673771E+03 -0.96894533193E+03  0.10991015292E+04  0.25500000920E-02 0.  1.
</event>
<event>
 5   0  0.3236653E-06  0.1899091E+04  0.7818609E-02  0.8655309E-01
        1   -1    0    0  501    0  0.00000000000E+00  0.00000000000E+00  0.13435378154E+04  0.13435378154E+04  0.50400001928E-02 0. -1.
       -1   -1    0    0    0  501  0.00000000000E+00  0.00000000000E+00 -0.67109105177E+03  0.67109105179E+03  0.50400001928E-02 0.  1.
    10030    2    1    2    0    0  0.00000000000E+00  0.00000000000E+00  0.67244676359E+03  0.20146288672E+04  0.18990905251E+04 0.  0.
        3    1    3    3  502    0  0.35778651868E+03 -0.51559845282E+03 -0.41971877577E+03  0.75499458172E+03  0.10100000352E+00 0.  1.
       -3    1    3    3    0  502 -0.35778651868E+03  0.51559845282E+03  0.10921655394E+04  0.12596342854E+04  0.10100000352E+00 0. -1.
</event>
<event>
 5   0  0.7577180E-06  0.1899827E+04  0.7818609E-02  0.8654942E-01
        2   -1    0    0  501    0  0.00000000000E+00  0.00000000000E+00  0.20226335684E+04  0.20226335684E+04  0.25500000920E-02 0. -1.
       -2   -1    0    0    0  501  0.00000000000E+00  0.00000000000E+00 -0.44611932080E+03  0.44611932081E+03  0.25500000920E-02 0.  1.
    10030    2    1    2    0    0  0.00000000000E+00  0.00000000000E+00  0.15765142476E+04  0.24687528892E+04  0.18998272698E+04 0.  0.
        5    1    3    3  502    0  0.35218985919E+03 -0.42676454989E+03  0.17915797421E+04  0.18750855288E+04  0.46999998093E+01 0. -1.
       -5    1    3    3    0  502 -0.35218985919E+03  0.42676454989E+03 -0.21506549448E+03  0.59366736045E+03  0.46999998093E+01 0.  1.
</event>
<event>
 5   0  0.3379108E-06  0.1900171E+04  0.7818609E-02  0.8654771E-01
       -1   -1    0    0    0  501  0.00000000000E+00  0.00000000000E+00  0.55902217061E+03  0.55902217063E+03  0.50400001928E-02 0. -1.
        1   -1    0    0  501    0  0.00000000000E+00  0.00000000000E+00 -0.16147164668E+04  0.16147164668E+04  0.50400001928E-02 0.  1.
    10030    2    1    2    0    0  0.00000000000E+00  0.00000000000E+00 -0.10556942962E+04  0.21737386374E+04  0.19001708389E+04 0.  0.
        4    1    3    3  502    0  0.42614251688E+03 -0.83738331833E+03 -0.68903097240E+03  0.11651495871E+04  0.12699999809E+01 0. -1.
       -4    1    3    3    0  502 -0.42614251688E+03  0.83738331833E+03 -0.36666332376E+03  0.10085890503E+04  0.12699999809E+01 0.  1.
</event>
<event>
 5   0  0.6984466E-06  0.1899683E+04  0.7818609E-02  0.8655014E-01
       -2   -1    0    0    0  501  0.00000000000E+00  0.00000000000E+00  0.10592121160E+04  0.10592121160E+04  0.25500000920E-02 0. -1.
        2   -1    0    0  501    0  0.00000000000E+00  0.00000000000E+00 -0.85176441020E+03  0.85176441021E+03  0.25500000920E-02 0.  1.
    10030    2    1    2    0    0  0.00000000000E+00  0.00000000000E+00  0.20744770584E+03  0.19109765263E+04  0.18996833245E+04 0.  0.
        2    1    3    3  502    0  0.99167009765E+02 -0.83552465240E+02  0.10502660824E+04  0.10582409716E+04  0.25500000920E-02 0. -1.
       -2    1    3    3    0  502 -0.99167009765E+02  0.83552465240E+02 -0.84281837653E+03  0.85273555461E+03  0.25500000920E-02 0.  1.
</event>
<event>
 5   0  0.3211263E-06  0.1900261E+04  0.7818609E-02  0.8654726E-01
        1   -1    0    0  501    0  0.00000000000E+00  0.00000000000E+00  0.90454577964E+03  0.90454577965E+03  0.50400001928E-02 0. -1.
       -1   -1    0    0    0  501  0.00000000000E+00  0.00000000000E+00 -0.99801256778E+03  0.99801256779E+03  0.50400001928E-02 0.  1.
    10030    2    1    2    0    0  0.00000000000E+00  0.00000000000E+00 -0.93466788140E+02  0.19025583474E+04  0.19002610939E+04 0.  0.
        5    1    3    3  502    0 -0.85410827041E+03 -0.12068111503E+03 -0.44553778782E+03  0.97087119613E+03  0.46999998093E+01 0.  1.
       -5    1    3    3    0  502  0.85410827041E+03  0.12068111503E+03  0.35207099968E+03  0.93168715131E+03  0.46999998093E+01 0. -1.
</event>
<event>
 5   0  0.3211263E-06  0.1900892E+04  0.7818609E-02  0.8654412E-01
       -1   -1    0    0    0  501  0.00000000000E+00  0.00000000000E+00  0.12810432869E+04  0.12810432870E+04  0.50400001928E-02 0.  1.
        1   -1    0    0  501    0  0.00000000000E+00  0.00000000000E+00 -0.70516558921E+03  0.70516558923E+03  0.50400001928E-02 0. -1.
    10030    2    1    2    0    0  0.00000000000E+00  0.00000000000E+00  0.57587769773E+03  0.19862088762E+04  0.19008920477E+04 0.  0.
        5    1    3    3  502    0 -0.72491478163E+03  0.40942702912E+03  0.76698486294E+03  0.11319981461E+04  0.46999998093E+01 0.  1.
       -5    1    3    3    0  502  0.72491478163E+03 -0.40942702912E+03 -0.19110716521E+03  0.85421073008E+03  0.46999998093E+01 0. -1.
</event>
<event>
 5   0  0.3495279E-06  0.1900120E+04  0.7818609E-02  0.8654796E-01
       -1   -1    0    0    0  501  0.00000000000E+00  0.00000000000E+00  0.13179246259E+04  0.13179246259E+04  0.50400001928E-02 0.  1.
        1   -1    0    0  501    0  0.00000000000E+00  0.00000000000E+00 -0.68487556431E+03  0.68487556433E+03  0.50400001928E-02 0. -1.
    10030    2    1    2    0    0  0.00000000000E+00  0.00000000000E+00  0.63304906158E+03  0.20028001902E+04  0.19001203877E+04 0.  0.
        2    1    3    3  502    0 -0.57052051895E+03 -0.74123193684E+03  0.14111045296E+03  0.94595486504E+03  0.25500000920E-02 0.  1.
       -2    1    3    3    0  502  0.57052051895E+03  0.74123193684E+03  0.49193860862E+03  0.10568453252E+04  0.25500000920E-02 0. -1.
</event>
<event>
 5   0  0.3211263E-06  0.1897348E+04  0.7818609E-02  0.8656177E-01
       -1   -1    0    0    0  501  0.00000000000E+00  0.00000000000E+00  0.47964251105E+03  0.47964251107E+03  0.50400001928E-02 0.  1.
        1   -1    0    0  501    0  0.00000000000E+00  0.00000000000E+00 -0.18763613321E+04  0.18763613321E+04  0.50400001928E-02 0. -1.
    10030    2    1    2    0    0  0.00000000000E+00  0.00000000000E+00 -0.13967188210E+04  0.23560038431E+04  0.18973483191E+04 0.  0.
        5    1    3    3  502    0  0.87389506599E+03 -0.17328100809E+03 -0.11030996516E+04  0.14179456356E+04  0.46999998093E+01 0. -1.
       -5    1    3    3    0  502 -0.87389506599E+03  0.17328100809E+03 -0.29361916945E+03  0.93805820758E+03  0.46999998093E+01 0.  1.
</event>
<event>
 5   0  0.6984466E-06  0.1897503E+04  0.7818609E-02  0.8656100E-01
       -2   -1    0    0    0  501  0.00000000000E+00  0.00000000000E+00  0.73072899966E+03  0.73072899967E+03  0.25500000920E-02 0. -1.
        2   -1    0    0  501    0  0.00000000000E+00  0.00000000000E+00 -0.12318234917E+04  0.12318234917E+04  0.25500000920E-02 0.  1.
    10030    2    1    2    0    0  0.00000000000E+00  0.00000000000E+00 -0.50109449199E+03  0.19625524913E+04  0.18975027250E+04 0.  0.
        2    1    3    3  502    0  0.29014012767E+03  0.41872038400E+03 -0.10783740622E+04  0.11926435644E+04  0.25500000920E-02 0.  1.
       -2    1    3    3    0  502 -0.29014012767E+03 -0.41872038400E+03  0.57727957018E+03  0.76990892696E+03  0.25500000920E-02 0. -1.
</event>
<event>
 5   0  0.6984466E-06  0.1899531E+04  0.7818609E-02  0.8655090E-01
       -2   -1    0    0    0  501  0.00000000000E+00  0.00000000000E+00  0.70817175988E+03  0.70817175989E+03  0.25500000920E-02 0. -1.
        2   -1    0    0  501    0  0.00000000000E+00  0.00000000000E+00 -0.12737788367E+04  0.12737788367E+04  0.25500000920E-02 0.  1.
    10030    2    1    2    0    0  0.00000000000E+00  0.00000000000E+00 -0.56560707683E+03  0.19819505966E+04  0.18995306794E+04 0.  0.
        2    1    3    3  502    0 -0.42809452807E+03 -0.33066807570E+03  0.53174094122E+03  0.75852141026E+03  0.25500000920E-02 0. -1.
       -2    1    3    3    0  502  0.42809452807E+03  0.33066807570E+03 -0.10973480180E+04  0.12234291863E+04  0.25500000920E-02 0.  1.
</event>
<event>
 5   0  0.3379108E-06  0.1901282E+04  0.7818609E-02  0.8654218E-01
        1   -1    0    0  501    0  0.00000000000E+00  0.00000000000E+00  0.57418659600E+03  0.57418659602E+03  0.50400001928E-02 0.  1.
       -1   -1    0    0    0  501  0.00000000000E+00  0.00000000000E+00 -0.15739106902E+04  0.15739106902E+04  0.50400001928E-02 0. -1.
    10030    2    1    2    0    0  0.00000000000E+00  0.00000000000E+00 -0.99972409420E+03  0.21480972862E+04  0.19012821165E+04 0.  0.
        4    1    3    3  502    0  0.34348333209E+02 -0.75484395251E+03  0.15186366365E+03  0.77073561347E+03  0.12699999809E+01 0.  1.
       -4    1    3    3    0  502 -0.34348333209E+02  0.75484395251E+03 -0.11515877578E+04  0.13773616728E+04  0.12699999809E+01 0. -1.
</event>
<event>
 5   0  0.7207648E-06  0.1902692E+04  0.7818609E-02  0.8653518E-01
        2   -1    0    0  501    0  0.00000000000E+00  0.00000000000E+00  0.24314867666E+04  0.24314867666E+04  0.25500000920E-02 0.  1.
       -2   -1    0    0    0  501  0.00000000000E+00  0.00000000000E+00 -0.37222456957E+03  0.37222456958E+03  0.25500000920E-02 0. -1.
    10030    2    1    2    0    0  0.00000000000E+00  0.00000000000E+00  0.20592621970E+04  0.28037113362E+04  0.19026918985E+04 0.  0.
        4    1    3    3  502    0  0.24619203991E+03 -0.91819191221E+03  0.10841841755E+04  0.14419236622E+04  0.12699999809E+01 0.  1.
       -4    1    3    3    0  502 -0.24619203991E+03  0.91819191221E+03  0.97507802149E+03  0.13617876740E+04  0.12699999809E+01 0. -1.
</event>
<event>
 5   0  0.2527750E-06  0.1898923E+04  0.7818609E-02  0.8655393E-01
        3   -1    0    0  501    0  0.00000000000E+00  0.00000000000E+00  0.78199022294E+03  0.78199022946E+03  0.10100000352E+00 0.  1.
       -3   -1    0    0    0  501  0.00000000000E+00  0.00000000000E+00 -0.11527979919E+04  0.11527979963E+04  0.10100000352E+00 0. -1.
    10030    2    1    2    0    0  0.00000000000E+00  0.00000000000E+00 -0.37080776896E+03  0.19347882258E+04  0.18989226096E+04 0.  0.
        2    1    3    3  502    0 -0.13390017760E+03 -0.91916663281E+03  0.14983602029E+02  0.92898927054E+03  0.25500000920E-02 0.  1.
       -2    1    3    3    0  502  0.13390017760E+03  0.91916663281E+03 -0.38579137099E+03  0.10057989552E+04  0.25500000920E-02 0. -1.
</event>
<event>
 5   0  0.3211263E-06  0.1899480E+04  0.7818609E-02  0.8655115E-01
        1   -1    0    0  501    0  0.00000000000E+00  0.00000000000E+00  0.93269933772E+03  0.93269933773E+03  0.50400001928E-02 0.  1.
       -1   -1    0    0    0  501  0.00000000000E+00  0.00000000000E+00 -0.96709220230E+03  0.96709220231E+03  0.50400001928E-02 0. -1.
    10030    2    1    2    0    0  0.00000000000E+00  0.00000000000E+00 -0.34392864583E+02  0.18997915400E+04  0.18994801990E+04 0.  0.
        5    1    3    3  502    0 -0.66194471232E+03  0.63575037786E+03 -0.26143887827E+03  0.95431741166E+03  0.46999998093E+01 0. -1.
       -5    1    3    3    0  502  0.66194471232E+03 -0.63575037786E+03  0.22704601368E+03  0.94547412839E+03  0.46999998093E+01 0.  1.
</event>
<event>
 5   0  0.3236653E-06  0.1892447E+04  0.7818609E-02  0.8658625E-01
        1   -1    0    0  501    0  0.00000000000E+00  0.00000000000E+00  0.14125269866E+04  0.14125269866E+04  0.50400001928E-02 0.  1.
       -1   -1    0    0    0  501  0.00000000000E+00  0.00000000000E+00 -0.63385611979E+03  0.63385611981E+03  0.50400001928E-02 0. -1.
    10030    2    1    2    0    0  0.00000000000E+00  0.00000000000E+00  0.77867086677E+03  0.20463831064E+04  0.18924469608E+04 0.  0.
        3    1    3    3  502    0 -0.77420490485E+03  0.10686228286E+03 -0.18746325952E+03  0.80371342284E+03  0.10100000352E+00 0. -1.
       -3    1    3    3    0  502  0.77420490485E+03 -0.10686228286E+03  0.96613412629E+03  0.12426696835E+04  0.10100000352E+00 0.  1.
</event>
<event>
 5   0  0.6984466E-06  0.1899643E+04  0.7818609E-02  0.8655034E-01
       -2   -1    0    0    0  501  0.00000000000E+00  0.00000000000E+00  0.10417673220E+04  0.10417673220E+04  0.25500000920E-02 0. -1.
        2   -1    0    0  501    0  0.00000000000E+00  0.00000000000E+00 -0.86599054201E+03  0.86599054201E+03  0.25500000920E-02 0.  1.
    10030    2    1    2    0    0  0.00000000000E+00  0.00000000000E+00  0.17577677995E+03  0.19077578640E+04  0.18996427536E+04 0.  0.
        2    1    3    3  502    0  0.70120462560E+02 -0.93684644816E+03 -0.52575116764E+02  0.94093692117E+03  0.25500000920E-02 0.  1.
       -2    1    3    3    0  502 -0.70120462560E+02  0.93684644816E+03  0.22835189671E+03  0.96682094280E+03  0.25500000920E-02 0. -1.
</event>
<event>
 5   0  0.3398807E-06  0.1900643E+04  0.7818609E-02  0.8654536E-01
        1   -1    0    0  501    0  0.00000000000E+00  0.00000000000E+00  0.11812962190E+04  0.11812962190E+04  0.50400001928E-02 0.  1.
       -1   -1    0    0    0  501  0.00000000000E+00  0.00000000000E+00 -0.76450841087E+03  0.76450841089E+03  0.50400001928E-02 0. -1.
    10030    2    1    2    0    0  0.00000000000E+00  0.00000000000E+00  0.41678780815E+03  0.19458046299E+04  0.19006429388E+04 0.  0.
        1    1    3    3  502    0  0.50330050261E+03  0.14083200213E+03 -0.60416938683E+03  0.79885273784E+03  0.50400001928E-02 0. -1.
       -1    1    3    3    0  502 -0.50330050261E+03 -0.14083200213E+03  0.10209571950E+04  0.11469518921E+04  0.50400001928E-02 0.  1.
</event>
<event>
 5   0  0.6984466E-06  0.1900037E+04  0.7818609E-02  0.8654838E-01
       -2   -1    0    0    0  501  0.00000000000E+00  0.00000000000E+00  0.80109993999E+03  0.80109994000E+03  0.25500000920E-02 0.  1.
        2   -1    0    0  501    0  0.00000000000E+00  0.00000000000E+00 -0.11266197300E+04  0.11266197300E+04  0.25500000920E-02 0. -1.
    10030    2    1    2    0    0  0.00000000000E+00  0.00000000000E+00 -0.32551978997E+03  0.19277196700E+04  0.19000368397E+04 0.  0.
        2    1    3    3  502    0 -0.19105601284E+03  0.75597213331E+01  0.78137629928E+03  0.80443052560E+03  0.25500000920E-02 0.  1.
       -2    1    3    3    0  502  0.19105601284E+03 -0.75597213331E+01 -0.11068960893E+04  0.11232891444E+04  0.25500000920E-02 0. -1.
</event>
<event>
 5   0  0.6984466E-06  0.1900039E+04  0.7818609E-02  0.8654837E-01
        2   -1    0    0  501    0  0.00000000000E+00  0.00000000000E+00  0.19914019361E+04  0.19914019361E+04  0.25500000920E-02 0. -1.
       -2   -1    0    0    0  501  0.00000000000E+00  0.00000000000E+00 -0.45321688330E+03  0.45321688331E+03  0.25500000920E-02 0.  1.
    10030    2    1    2    0    0  0.00000000000E+00  0.00000000000E+00  0.15381850528E+04  0.24446188194E+04  0.19000389248E+04 0.  0.
        2    1    3    3  502    0  0.51160218569E+02 -0.82956611324E+03  0.17705426664E+03  0.84979145533E+03  0.25500000920E-02 0.  1.
       -2    1    3    3    0  502 -0.51160218569E+02  0.82956611324E+03  0.13611307862E+04  0.15948273641E+04  0.25500000920E-02 0. -1.
</event>
<event>
 5   0  0.3236653E-06  0.1900307E+04  0.7818609E-02  0.8654703E-01
        1   -1    0    0  501    0  0.00000000000E+00  0.00000000000E+00  0.24298733639E+04  0.24298733639E+04  0.50400001928E-02 0. -1.
       -1   -1    0    0    0  501  0.00000000000E+00  0.00000000000E+00 -0.37153870199E+03  0.37153870203E+03  0.50400001928E-02 0.  1.
    10030    2    1    2    0    0  0.00000000000E+00  0.00000000000E+00  0.20583346619E+04  0.28014120659E+04  0.19003073390E+04 0.  0.
        3    1    3    3  502    0 -0.27680602280E+03 -0.25330094374E+03 -0.25769832917E+03  0.45518280000E+03  0.10100000352E+00 0.  1.
       -3    1    3    3    0  502  0.27680602280E+03  0.25330094374E+03  0.23160329911E+04  0.23462292659E+04  0.10100000352E+00 0. -1.
</event>
<event>
 5   0  0.3398807E-06  0.1899524E+04  0.7818609E-02  0.8655094E-01
       -1   -1    0    0    0  501  0.00000000000E+00  0.00000000000E+00  0.72638557231E+03  0.72638557232E+03  0.50400001928E-02 0. -1.
        1   -1    0    0  501    0  0.00000000000E+00  0.00000000000E+00 -0.12418300914E+04  0.12418300914E+04  0.50400001928E-02 0.  1.
    10030    2    1    2    0    0  0.00000000000E+00  0.00000000000E+00 -0.51544451911E+03  0.19682156637E+04  0.18995235841E+04 0.  0.
        1    1    3    3  502    0 -0.10130237141E+03  0.92440555925E+03 -0.57714245287E+02  0.93172889971E+03  0.50400001928E-02 0.  1.
       -1    1    3    3    0  502  0.10130237141E+03 -0.92440555925E+03 -0.45773027382E+03  0.10364867640E+04  0.50400001928E-02 0. -1.
</event>
<event>
 5   0  0.3236653E-06  0.1901143E+04  0.7818609E-02  0.8654287E-01
        1   -1    0    0  501    0  0.00000000000E+00  0.00000000000E+00  0.13311774214E+04  0.13311774214E+04  0.50400001928E-02 0. -1.
       -1   -1    0    0    0  501  0.00000000000E+00  0.00000000000E+00 -0.67878753345E+03  0.67878753347E+03  0.50400001928E-02 0.  1.
    10030    2    1    2    0    0  0.00000000000E+00  0.00000000000E+00  0.65238988793E+03  0.20099649549E+04  0.19011434859E+04 0.  0.
        3    1    3    3  502    0  0.53968922274E+03  0.54963337923E+03 -0.26266526638E+03  0.81385155960E+03  0.10100000352E+00 0.  1.
       -3    1    3    3    0  502 -0.53968922274E+03 -0.54963337923E+03  0.91505515431E+03  0.11961133953E+04  0.10100000352E+00 0. -1.
</event>
<event>
 5   0  0.3211263E-06  0.1899991E+04  0.7818609E-02  0.8654861E-01
       -1   -1    0    0    0  501  0.00000000000E+00  0.00000000000E+00  0.70826892940E+03  0.70826892942E+03  0.50400001928E-02 0. -1.
        1   -1    0    0  501    0  0.00000000000E+00  0.00000000000E+00 -0.12742220999E+04  0.12742220999E+04  0.50400001928E-02 0.  1.
    10030    2    1    2    0    0  0.00000000000E+00  0.00000000000E+00 -0.56595317051E+03  0.19824910293E+04  0.18999914974E+04 0.  0.
        5    1    3    3  502    0 -0.17794935507E+03  0.46905619633E+03 -0.11247206388E+04  0.12315430539E+04  0.46999998093E+01 0.  1.
       -5    1    3    3    0  502  0.17794935507E+03 -0.46905619633E+03  0.55876746825E+03  0.75094797547E+03  0.46999998093E+01 0. -1.
</event>
<event>
 5   0  0.3379108E-06  0.1898190E+04  0.7818609E-02  0.8655758E-01
       -1   -1    0    0    0  501  0.00000000000E+00  0.00000000000E+00  0.48905279179E+03  0.48905279182E+03  0.50400001928E-02 0. -1.
        1   -1    0    0  501    0  0.00000000000E+00  0.00000000000E+00 -0.18418897537E+04  0.18418897537E+04  0.50400001928E-02 0.  1.
    10030    2    1    2    0    0  0.00000000000E+00  0.00000000000E+00 -0.13528369619E+04  0.23309425455E+04  0.18981900076E+04 0.  0.
        4    1    3    3  502    0  0.35394387512E+03  0.25425886351E+03 -0.17117576991E+04  0.17663634591E+04  0.12699999809E+01 0.  1.
       -4    1    3    3    0  502 -0.35394387512E+03 -0.25425886351E+03  0.35892073714E+03  0.56457908645E+03  0.12699999809E+01 0. -1.
</event>
<event>
 5   0  0.3379108E-06  0.1900609E+04  0.7818609E-02  0.8654553E-01
       -1   -1    0    0    0  501  0.00000000000E+00  0.00000000000E+00  0.45307430717E+03  0.45307430720E+03  0.50400001928E-02 0.  1.
        1   -1    0    0  501    0  0.00000000000E+00  0.00000000000E+00 -0.19932251537E+04  0.19932251537E+04  0.50400001928E-02 0. -1.
    10030    2    1    2    0    0  0.00000000000E+00  0.00000000000E+00 -0.15401508466E+04  0.24462994609E+04  0.19006094871E+04 0.  0.
        4    1    3    3  502    0 -0.72074873285E+03  0.22570639656E+03 -0.27716381953E+02  0.75577240230E+03  0.12699999809E+01 0.  1.
       -4    1    3    3    0  502  0.72074873285E+03 -0.22570639656E+03 -0.15124344646E+04  0.16905270586E+04  0.12699999809E+01 0. -1.
</event>
<event>
 5   0  0.6870370E-06  0.1899887E+04  0.7818609E-02  0.8654913E-01
        2   -1    0    0  501    0  0.00000000000E+00  0.00000000000E+00  0.62801304907E+03  0.62801304908E+03  0.25500000920E-02 0.  1.
       -2   -1    0    0    0  501  0.00000000000E+00  0.00000000000E+00 -0.14369014356E+04  0.14369014356E+04  0.25500000920E-02 0. -1.
    10030    2    1    2    0    0  0.00000000000E+00  0.00000000000E+00 -0.80888838656E+03  0.20649144847E+04  0.18998872091E+04 0.  0.
        1    1    3    3  502    0  0.31368953165E+02 -0.14916316209E+03 -0.14235235690E+04  0.14316609276E+04  0.50400001928E-02 0. -1.
       -1    1    3    3    0  502 -0.31368953165E+02  0.14916316209E+03  0.61463518240E+03  0.63325355713E+03  0.50400001928E-02 0.  1.
</event>
<event>
 5   0  0.6862201E-06  0.1900355E+04  0.7818609E-02  0.8654680E-01
       -2   -1    0    0    0  501  0.00000000000E+00  0.00000000000E+00  0.83575789991E+03  0.83575789992E+03  0.25500000920E-02 0. -1.
        2   -1    0    0  501    0  0.00000000000E+00  0.00000000000E+00 -0.10802614042E+04  0.10802614042E+04  0.25500000920E-02 0.  1.
    10030    2    1    2    0    0  0.00000000000E+00  0.00000000000E+00 -0.24450350425E+03  0.19160193041E+04  0.19003547064E+04 0.  0.
        3    1    3    3  502    0  0.50853920870E+03  0.66142291683E+02  0.68424814811E+03  0.85509208155E+03  0.10100000352E+00 0. -1.
       -3    1    3    3    0  502 -0.50853920870E+03 -0.66142291683E+02 -0.92875165236E+03  0.10609272225E+04  0.10100000352E+00 0.  1.
</event>
<event>
 5   0  0.3211263E-06  0.1900777E+04  0.7818609E-02  0.8654470E-01
        1   -1    0    0  501    0  0.00000000000E+00  0.00000000000E+00  0.61403467265E+03  0.61403467267E+03  0.50400001928E-02 0. -1.
       -1   -1    0    0    0  501  0.00000000000E+00  0.00000000000E+00 -0.14709887327E+04  0.14709887327E+04  0.50400001928E-02 0.  1.
    10030    2    1    2    0    0  0.00000000000E+00  0.00000000000E+00 -0.85695406004E+03  0.20850234054E+04  0.19007767728E+04 0.  0.
        5    1    3    3  502    0 -0.90850996462E+03 -0.19038188388E+03 -0.20479863806E+03  0.95057887084E+03  0.46999998093E+01 0. -1.
       -5    1    3    3    0  502  0.90850996462E+03  0.19038188388E+03 -0.65215542197E+03  0.11344445345E+04  0.46999998093E+01 0.  1.
</event>
<event>
 5   0  0.6984466E-06  0.1900756E+04  0.7818609E-02  0.8654480E-01
       -2   -1    0    0    0  501  0.00000000000E+00  0.00000000000E+00  0.68183340799E+03  0.68183340799E+03  0.25500000920E-02 0. -1.
        2   -1    0    0  501    0  0.00000000000E+00  0.00000000000E+00 -0.13246912696E+04  0.13246912696E+04  0.25500000920E-02 0.  1.
    10030    2    1    2    0    0  0.00000000000E+00  0.00000000000E+00 -0.64285786160E+03  0.20065246776E+04  0.19007564419E+04 0.  0.
        2    1    3    3  502    0  0.46732770293E+03  0.81615969618E+03 -0.46581301076E+03  0.10495206490E+04  0.25500000920E-02 0. -1.
       -2    1    3    3    0  502 -0.46732770293E+03 -0.81615969618E+03 -0.17704485084E+03  0.95700402862E+03  0.25500000920E-02 0.  1.
</event>
<event>
 5   0  0.7207648E-06  0.1901923E+04  0.7818609E-02  0.8653900E-01
        2   -1    0    0  501    0  0.00000000000E+00  0.00000000000E+00  0.89944921783E+03  0.89944921783E+03  0.25500000920E-02 0.  1.
       -2   -1    0    0    0  501  0.00000000000E+00  0.00000000000E+00 -0.10054235845E+04  0.10054235845E+04  0.25500000920E-02 0. -1.
    10030    2    1    2    0    0  0.00000000000E+00  0.00000000000E+00 -0.10597436668E+03  0.19048728023E+04  0.19019226658E+04 0.  0.
        4    1    3    3  502    0  0.66419572384E+03  0.55880723738E+03 -0.44205384142E+03  0.97408146463E+03  0.12699999809E+01 0. -1.
       -4    1    3    3    0  502 -0.66419572384E+03 -0.55880723738E+03  0.33607947474E+03  0.93079133771E+03  0.12699999809E+01 0.  1.
</event>
<event>
 5   0  0.3379108E-06  0.1899895E+04  0.7818609E-02  0.8654909E-01
       -1   -1    0    0    0  501  0.00000000000E+00  0.00000000000E+00  0.99244019982E+03  0.99244019983E+03  0.50400001928E-02 0. -1.
        1   -1    0    0  501    0  0.00000000000E+00  0.00000000000E+00 -0.90927404242E+03  0.90927404243E+03  0.50400001928E-02 0.  1.
    10030    2    1    2    0    0  0.00000000000E+00  0.00000000000E+00  0.83166157402E+02  0.19017142423E+04  0.18998948522E+04 0.  0.
        4    1    3    3  502    0  0.20727439504E+03  0.54464812651E+03 -0.70933146546E+03  0.91801797223E+03  0.12699999809E+01 0.  1.
       -4    1    3    3    0  502 -0.20727439504E+03 -0.54464812651E+03  0.79249762286E+03  0.98369627004E+03  0.12699999809E+01 0. -1.
</event>
<event>
 5   0  0.7577180E-06  0.1899846E+04  0.7818609E-02  0.8654933E-01
        2   -1    0    0  501    0  0.00000000000E+00  0.00000000000E+00  0.11210801500E+04  0.11210801500E+04  0.25500000920E-02 0.  1.
       -2   -1    0    0    0  501  0.00000000000E+00  0.00000000000E+00 -0.80489646941E+03  0.80489646942E+03  0.25500000920E-02 0. -1.
    10030    2    1    2    0    0  0.00000000000E+00  0.00000000000E+00  0.31618368063E+03  0.19259766195E+04  0.18998457355E+04 0.  0.
        5    1    3    3  502    0  0.15547216439E+02  0.83781420295E+03  0.61163442927E+03  0.10374454779E+04  0.46999998093E+01 0.  1.
       -5    1    3    3    0  502 -0.15547216439E+02 -0.83781420295E+03 -0.29545074864E+03  0.88853114153E+03  0.46999998093E+01 0. -1.
</event>
<event>
 5   0  0.6862201E-06  0.1899845E+04  0.7818609E-02  0.8654934E-01
        2   -1    0    0  501    0  0.00000000000E+00  0.00000000000E+00  0.60667492587E+03  0.60667492587E+03  0.25500000920E-02 0.  1.
       -2   -1    0    0    0  501  0.00000000000E+00  0.00000000000E+00 -0.14873742503E+04  0.14873742503E+04  0.25500000920E-02 0. -1.
    10030    2    1    2    0    0  0.00000000000E+00  0.00000000000E+00 -0.88069932445E+03  0.20940491762E+04  0.18998449021E+04 0.  0.
        3    1    3    3  502    0  0.43155102049E+03 -0.91755245693E+02 -0.13675904163E+04  0.14369964737E+04  0.10100000352E+00 0. -1.
       -3    1    3    3    0  502 -0.43155102049E+03  0.91755245693E+02  0.48689109183E+03  0.65705270253E+03  0.10100000352E+00 0.  1.
</event>
<event>
 5   0  0.3379108E-06  0.1899548E+04  0.7818609E-02  0.8655081E-01
       -1   -1    0    0    0  501  0.00000000000E+00  0.00000000000E+00  0.13052895759E+04  0.13052895760E+04  0.50400001928E-02 0.  1.
        1   -1    0    0  501    0  0.00000000000E+00  0.00000000000E+00 -0.69108842128E+03  0.69108842130E+03  0.50400001928E-02 0. -1.
    10030    2    1    2    0    0  0.00000000000E+00  0.00000000000E+00  0.61420115467E+03  0.19963779973E+04  0.18995478540E+04 0.  0.
        4    1    3    3  502    0  0.43772197176E+03 -0.41511971723E+03 -0.46387706692E+03  0.76099175443E+03  0.12699999809E+01 0. -1.
       -4    1    3    3    0  502 -0.43772197176E+03  0.41511971723E+03  0.10780782216E+04  0.12353862428E+04  0.12699999809E+01 0.  1.
</event>
<event>
 5   0  0.3236653E-06  0.1900264E+04  0.7818609E-02  0.8654725E-01
        1   -1    0    0  501    0  0.00000000000E+00  0.00000000000E+00  0.72459298973E+03  0.72459298974E+03  0.50400001928E-02 0. -1.
       -1   -1    0    0    0  501  0.00000000000E+00  0.00000000000E+00 -0.12458730650E+04  0.12458730650E+04  0.50400001928E-02 0.  1.
    10030    2    1    2    0    0  0.00000000000E+00  0.00000000000E+00 -0.52128007528E+03  0.19704660548E+04  0.19002640753E+04 0.  0.
        3    1    3    3  502    0 -0.78867909637E+03  0.52136497383E+03 -0.16273410810E+03  0.95933234759E+03  0.10100000352E+00 0. -1.
       -3    1    3    3    0  502  0.78867909637E+03 -0.52136497383E+03 -0.35854596718E+03  0.10111337072E+04  0.10100000352E+00 0.  1.
</event>
<event>
 5   0  0.7207648E-06  0.1899672E+04  0.7818609E-02  0.8655020E-01
       -2   -1    0    0    0  501  0.00000000000E+00  0.00000000000E+00  0.65088066454E+03  0.65088066455E+03  0.25500000920E-02 0. -1.
        2   -1    0    0  501    0  0.00000000000E+00  0.00000000000E+00 -0.13861046505E+04  0.13861046505E+04  0.25500000920E-02 0.  1.
    10030    2    1    2    0    0  0.00000000000E+00  0.00000000000E+00 -0.73522398598E+03  0.20369853151E+04  0.18996723044E+04 0.  0.
        4    1    3    3  502    0  0.95315837395E+02  0.89271988354E+03 -0.35112423934E+02  0.89848115982E+03  0.12699999809E+01 0. -1.
       -4    1    3    3    0  502 -0.95315837395E+02 -0.89271988354E+03 -0.70011156204E+03  0.11385041553E+04  0.12699999809E+01 0.  1.
</event>
<event>
 5   0  0.6862201E-06  0.1899685E+04  0.7818609E-02  0.8655013E-01
        2   -1    0    0  501    0  0.00000000000E+00  0.00000000000E+00  0.14712648078E+04  0.14712648078E+04  0.25500000920E-02 0.  1.
       -2   -1    0    0    0  501  0.00000000000E+00  0.00000000000E+00 -0.61321461069E+03  0.61321461069E+03  0.25500000920E-02 0. -1.
    10030    2    1    2    0    0  0.00000000000E+00  0.00000000000E+00  0.85805019710E+03  0.20844794185E+04  0.18996853175E+04 0.  0.
        3    1    3    3  502    0  0.83529271698E+03  0.14545150111E+03 -0.40797501105E+02  0.84884304115E+03  0.10100000352E+00 0. -1.
       -3    1    3    3    0  502 -0.83529271698E+03 -0.14545150111E+03  0.89884769821E+03  0.12356363773E+04  0.10100000352E+00 0.  1.
</event>
<event>
 5   0  0.6984466E-06  0.1899979E+04  0.7818609E-02  0.8654867E-01
        2   -1    0    0  501    0  0.00000000000E+00  0.00000000000E+00  0.23418658169E+04  0.23418658169E+04  0.25500000920E-02 0.  1.
       -2   -1    0    0    0  501  0.00000000000E+00  0.00000000000E+00 -0.38536805237E+03  0.38536805238E+03  0.25500000920E-02 0. -1.
    10030    2    1    2    0    0  0.00000000000E+00  0.00000000000E+00  0.19564977646E+04  0.27272338693E+04  0.18999792302E+04 0.  0.
        2    1    3    3  502    0  0.44778519452E+03 -0.48981440175E+03  0.19539532957E+04  0.20635801924E+04  0.25500000920E-02 0.  1.
       -2    1    3    3    0  502 -0.44778519452E+03  0.48981440175E+03  0.25444688656E+01  0.66365367694E+03  0.25500000920E-02 0. -1.
</event>
<event>
 5   0  0.6984466E-06  0.1900123E+04  0.7818609E-02  0.8654795E-01
        2   -1    0    0  501    0  0.00000000000E+00  0.00000000000E+00  0.19783195445E+04  0.19783195446E+04  0.25500000920E-02 0. -1.
       -2   -1    0    0    0  501  0.00000000000E+00  0.00000000000E+00 -0.45625430642E+03  0.45625430643E+03  0.25500000920E-02 0.  1.
    10030    2    1    2    0    0  0.00000000000E+00  0.00000000000E+00  0.15220652381E+04  0.24345738510E+04  0.19001229557E+04 0.  0.
        2    1    3    3  502    0  0.21334153822E+03 -0.51409178707E+03  0.17475385048E+04  0.18340381139E+04  0.25500000920E-02 0. -1.
       -2    1    3    3    0  502 -0.21334153822E+03  0.51409178707E+03 -0.22547326670E+03  0.60053573705E+03  0.25500000920E-02 0.  1.
</event>
<event>
 5   0  0.7207648E-06  0.1903721E+04  0.7818609E-02  0.8653006E-01
       -2   -1    0    0    0  501  0.00000000000E+00  0.00000000000E+00  0.47690941660E+03  0.47690941660E+03  0.25500000920E-02 0.  1.
        2   -1    0    0  501    0  0.00000000000E+00  0.00000000000E+00 -0.18998129475E+04  0.18998129475E+04  0.25500000920E-02 0. -1.
    10030    2    1    2    0    0  0.00000000000E+00  0.00000000000E+00 -0.14229035309E+04  0.23767223641E+04  0.19037212868E+04 0.  0.
        4    1    3    3  502    0 -0.66574179223E+03 -0.58625020919E+03 -0.11423710392E+04  0.14463452720E+04  0.12699999809E+01 0.  1.
       -4    1    3    3    0  502  0.66574179223E+03  0.58625020919E+03 -0.28053249166E+03  0.93037709208E+03  0.12699999809E+01 0. -1.
</event>
<event>
 5   0  0.7577180E-06  0.1899029E+04  0.7818609E-02  0.8655340E-01
       -2   -1    0    0    0  501  0.00000000000E+00  0.00000000000E+00  0.72840082090E+03  0.72840082091E+03  0.25500000920E-02 0. -1.
        2   -1    0    0  501    0  0.00000000000E+00  0.00000000000E+00 -0.12377501440E+04  0.12377501440E+04  0.25500000920E-02 0.  1.
    10030    2    1    2    0    0  0.00000000000E+00  0.00000000000E+00 -0.50934932314E+03  0.19661509650E+04  0.18990294584E+04 0.  0.
        5    1    3    3  502    0 -0.93672694992E+03  0.14115628328E+03 -0.32156193360E+03  0.10004032398E+04  0.46999998093E+01 0. -1.
       -5    1    3    3    0  502  0.93672694992E+03 -0.14115628328E+03 -0.18778738955E+03  0.96574772518E+03  0.46999998093E+01 0.  1.
</event>
<event>
 5   0  0.7577180E-06  0.1898893E+04  0.7818609E-02  0.8655408E-01
       -2   -1    0    0    0  501  0.00000000000E+00  0.00000000000E+00  0.40806022170E+03  0.40806022171E+03  0.25500000920E-02 0.  1.
        2   -1    0    0  501    0  0.00000000000E+00  0.00000000000E+00 -0.22091060818E+04  0.22091060818E+04  0.25500000920E-02 0. -1.
    10030    2    1    2    0    0  0.00000000000E+00  0.00000000000E+00 -0.18010458601E+04  0.26171663035E+04  0.18988926431E+04 0.  0.
        5    1    3    3  502    0  0.69914081132E+03  0.56369848164E+03 -0.47600034996E+03  0.10164409847E+04  0.46999998093E+01 0.  1.
       -5    1    3    3    0  502 -0.69914081132E+03 -0.56369848164E+03 -0.13250455101E+04  0.16007253188E+04  0.46999998093E+01 0. -1.
</event>
<event>
 5   0  0.6862201E-06  0.1893233E+04  0.7818609E-02  0.8658232E-01
        2   -1    0    0  501    0  0.00000000000E+00  0.00000000000E+00  0.89162855148E+03  0.89162855149E+03  0.25500000920E-02 0.  1.
       -2   -1    0    0    0  501  0.00000000000E+00  0.00000000000E+00 -0.10049951392E+04  0.10049951392E+04  0.25500000920E-02 0. -1.
    10030    2    1    2    0    0  0.00000000000E+00  0.00000000000E+00 -0.11336658775E+03  0.18966236907E+04  0.18932325375E+04 0.  0.
        3    1    3    3  502    0 -0.60971112872E+03 -0.50273057445E+02  0.66697291126E+03  0.90505685752E+03  0.10100000352E+00 0.  1.
       -3    1    3    3    0  502  0.60971112872E+03  0.50273057445E+02 -0.78033949901E+03  0.99156683320E+03  0.10100000352E+00 0. -1.
</event>
<event>
 5   0  0.3398807E-06  0.1899666E+04  0.7818609E-02  0.8655022E-01
        1   -1    0    0  501    0  0.00000000000E+00  0.00000000000E+00  0.15277980937E+04  0.15277980937E+04  0.50400001928E-02 0. -1.
       -1   -1    0    0    0  501  0.00000000000E+00  0.00000000000E+00 -0.59051200508E+03  0.59051200511E+03  0.50400001928E-02 0.  1.
    10030    2    1    2    0    0  0.00000000000E+00  0.00000000000E+00  0.93728608862E+03  0.21183100988E+04  0.18996664083E+04 0.  0.
        1    1    3    3  502    0 -0.11330270627E+02 -0.56038610741E+03  0.13237275496E+04  0.14375032487E+04  0.50400001928E-02 0. -1.
       -1    1    3    3    0  502  0.11330270627E+02  0.56038610741E+03 -0.38644146097E+03  0.68080685014E+03  0.50400001928E-02 0.  1.
</event>
<event>
 5   0  0.3398807E-06  0.1899961E+04  0.7818609E-02  0.8654876E-01
       -1   -1    0    0    0  501  0.00000000000E+00  0.00000000000E+00  0.73596852209E+03  0.73596852211E+03  0.50400001928E-02 0.  1.
        1   -1    0    0  501    0  0.00000000000E+00  0.00000000000E+00 -0.12262251937E+04  0.12262251937E+04  0.50400001928E-02 0. -1.
    10030    2    1    2    0    0  0.00000000000E+00  0.00000000000E+00 -0.49025667161E+03  0.19621937158E+04  0.18999612034E+04 0.  0.
        1    1    3    3  502    0 -0.84780563131E+02  0.28845963272E+03  0.68553569469E+03  0.74856923014E+03  0.50400001928E-02 0.  1.
       -1    1    3    3    0  502  0.84780563131E+02 -0.28845963272E+03 -0.11757923663E+04  0.12136244857E+04  0.50400001928E-02 0. -1.
</event>
<event>
 5   0  0.6984466E-06  0.1900282E+04  0.7818609E-02  0.8654716E-01
        2   -1    0    0  501    0  0.00000000000E+00  0.00000000000E+00  0.10163079032E+04  0.10163079032E+04  0.25500000920E-02 0. -1.
       -2   -1    0    0    0  501  0.00000000000E+00  0.00000000000E+00 -0.88828203570E+03  0.88828203570E+03  0.25500000920E-02 0.  1.
    10030    2    1    2    0    0  0.00000000000E+00  0.00000000000E+00  0.12802586747E+03  0.19045899389E+04  0.19002821402E+04 0.  0.
        2    1    3    3  502    0  0.31655077030E+03  0.12731646047E+03 -0.82476343637E+03  0.89255173366E+03  0.25500000920E-02 0.  1.
       -2    1    3    3    0  502 -0.31655077030E+03 -0.12731646047E+03  0.95278930384E+03  0.10120382052E+04  0.25500000920E-02 0. -1.
</event>
<event>
 5   0  0.7207648E-06  0.1900189E+04  0.7818609E-02  0.8654762E-01
       -2   -1    0    0    0  501  0.00000000000E+00  0.00000000000E+00  0.74535897849E+03  0.74535897849E+03  0.25500000920E-02 0.  1.
        2   -1    0    0  501    0  0.00000000000E+00  0.00000000000E+00 -0.12110664656E+04  0.12110664656E+04  0.25500000920E-02 0. -1.
    10030    2    1    2    0    0  0.00000000000E+00  0.00000000000E+00 -0.46570748709E+03  0.19564254441E+04  0.19001886892E+04 0.  0.
        4    1    3    3  502    0  0.12521366269E+03 -0.88162061500E+03 -0.57393473899E+03  0.10594036377E+04  0.12699999809E+01 0. -1.
       -4    1    3    3    0  502 -0.12521366269E+03  0.88162061500E+03  0.10822725190E+03  0.89702180635E+03  0.12699999809E+01 0.  1.
</event>
<event>
 5   0  0.3211263E-06  0.1895956E+04  0.7818609E-02  0.8656872E-01
       -1   -1    0    0    0  501  0.00000000000E+00  0.00000000000E+00  0.10908912132E+04  0.10908912133E+04  0.50400001928E-02 0. -1.
        1   -1    0    0  501    0  0.00000000000E+00  0.00000000000E+00 -0.82378716557E+03  0.82378716559E+03  0.50400001928E-02 0.  1.
    10030    2    1    2    0    0  0.00000000000E+00  0.00000000000E+00  0.26710404767E+03  0.19146783788E+04  0.18959558861E+04 0.  0.
        5    1    3    3  502    0  0.33879112114E+03  0.18662447558E+03 -0.74046075552E+03  0.83541147892E+03  0.46999998093E+01 0.  1.
       -5    1    3    3    0  502 -0.33879112114E+03 -0.18662447558E+03  0.10075648032E+04  0.10792668999E+04  0.46999998093E+01 0. -1.
</event>
<event>
 5   0  0.2527750E-06  0.1898388E+04  0.7818609E-02  0.8655659E-01
       -3   -1    0    0    0  501  0.00000000000E+00  0.00000000000E+00  0.90379677418E+03  0.90379677982E+03  0.10100000352E+00 0. -1.
        3   -1    0    0  501    0  0.00000000000E+00  0.00000000000E+00 -0.99687178160E+03  0.99687178672E+03  0.10100000352E+00 0.  1.
    10030    2    1    2    0    0  0.00000000000E+00  0.00000000000E+00 -0.93075007425E+02  0.19006685665E+04  0.18983882750E+04 0.  0.
        3    1    3    3  502    0  0.60655000773E+03 -0.72222848931E+03 -0.15368286047E+03  0.95558115011E+03  0.10100000352E+00 0. -1.
       -3    1    3    3    0  502 -0.60655000773E+03  0.72222848931E+03  0.60607853046E+02  0.94508741643E+03  0.10100000352E+00 0.  1.
</event>
<event>
 5   0  0.6870370E-06  0.1899986E+04  0.7818609E-02  0.8654864E-01
       -2   -1    0    0    0  501  0.00000000000E+00  0.00000000000E+00  0.61247742672E+03  0.61247742673E+03  0.25500000920E-02 0.  1.
        2   -1    0    0  501    0  0.00000000000E+00  0.00000000000E+00 -0.14735012121E+04  0.14735012121E+04  0.25500000920E-02 0. -1.
    10030    2    1    2    0    0  0.00000000000E+00  0.00000000000E+00 -0.86102378540E+03  0.20859786388E+04  0.18999855059E+04 0.  0.
        1    1    3    3  502    0 -0.96522026844E+02  0.91798165299E+03 -0.67718211213E+03  0.11448067216E+04  0.50400001928E-02 0. -1.
       -1    1    3    3    0  502  0.96522026844E+02 -0.91798165299E+03 -0.18384167327E+03  0.94117191721E+03  0.50400001928E-02 0.  1.
</event>
<event>
 5   0  0.3211263E-06  0.1899840E+04  0.7818609E-02  0.8654936E-01
        1   -1    0    0  501    0  0.00000000000E+00  0.00000000000E+00  0.11123424209E+04  0.11123424209E+04  0.50400001928E-02 0. -1.
       -1   -1    0    0    0  501  0.00000000000E+00  0.00000000000E+00 -0.81121419000E+03  0.81121419001E+03  0.50400001928E-02 0.  1.
    10030    2    1    2    0    0  0.00000000000E+00  0.00000000000E+00  0.30112823093E+03  0.19235566109E+04  0.18998399470E+04 0.  0.
        5    1    3    3  502    0 -0.39289391088E+03  0.53771134316E+03 -0.53525932259E+03  0.85441427082E+03  0.46999998093E+01 0. -1.
       -5    1    3    3    0  502  0.39289391088E+03 -0.53771134316E+03  0.83638755351E+03  0.10691423401E+04  0.46999998093E+01 0.  1.
</event>
<event>
 5   0  0.3379108E-06  0.1894641E+04  0.7818609E-02  0.8657529E-01
        1   -1    0    0  501    0  0.00000000000E+00  0.00000000000E+00  0.10324284450E+04  0.10324284450E+04  0.50400001928E-02 0. -1.
       -1   -1    0    0    0  501  0.00000000000E+00  0.00000000000E+00 -0.86922834999E+03  0.86922835000E+03  0.50400001928E-02 0.  1.
    10030    2    1    2    0    0  0.00000000000E+00  0.00000000000E+00  0.16320009501E+03  0.19016567950E+04  0.18946409409E+04 0.  0.
        4    1    3    3  502    0  0.88376416569E+03  0.34055131944E+03  0.10167809979E+03  0.95255149499E+03  0.12699999809E+01 0.  1.
       -4    1    3    3    0  502 -0.88376416569E+03 -0.34055131944E+03  0.61521995220E+02  0.94910530002E+03  0.12699999809E+01 0. -1.
</event>
<event>
 5   0  0.3398807E-06  0.1899799E+04  0.7818609E-02  0.8654956E-01
        1   -1    0    0  501    0  0.00000000000E+00  0.00000000000E+00  0.16167136807E+04  0.16167136807E+04  0.50400001928E-02 0. -1.
       -1   -1    0    0    0  501  0.00000000000E+00  0.00000000000E+00 -0.55811336406E+03  0.55811336408E+03  0.50400001928E-02 0.  1.
    10030    2    1    2    0    0  0.00000000000E+00  0.00000000000E+00  0.10586003167E+04  0.21748270448E+04  0.18997994748E+04 0.  0.
        1    1    3    3  502    0  0.22451739561E+03 -0.13187045526E+03  0.15750628868E+04  0.15964400945E+04  0.50400001928E-02 0. -1.
       -1    1    3    3    0  502 -0.22451739561E+03  0.13187045526E+03 -0.51646257014E+03  0.57838695031E+03  0.50400001928E-02 0.  1.
</event>
<event>
 5   0  0.3398807E-06  0.1899645E+04  0.7818609E-02  0.8655033E-01
       -1   -1    0    0    0  501  0.00000000000E+00  0.00000000000E+00  0.42515026220E+03  0.42515026223E+03  0.50400001928E-02 0.  1.
        1   -1    0    0  501    0  0.00000000000E+00  0.00000000000E+00 -0.21219857865E+04  0.21219857865E+04  0.50400001928E-02 0. -1.
    10030    2    1    2    0    0  0.00000000000E+00  0.00000000000E+00 -0.16968355243E+04  0.25471360488E+04  0.18996450338E+04 0.  0.
        1    1    3    3  502    0 -0.42703175610E+03 -0.56223069863E+03 -0.17003613802E+04  0.18411106166E+04  0.50400001928E-02 0. -1.
       -1    1    3    3    0  502  0.42703175610E+03  0.56223069863E+03  0.35258558770E+01  0.70602543218E+03  0.50400001928E-02 0.  1.
</event>
<event>
 5   0  0.3398807E-06  0.1894966E+04  0.7818609E-02  0.8657366E-01
       -1   -1    0    0    0  501  0.00000000000E+00  0.00000000000E+00  0.52369909382E+03  0.52369909385E+03  0.50400001928E-02 0.  1.
        1   -1    0    0  501    0  0.00000000000E+00  0.00000000000E+00 -0.17141983454E+04  0.17141983454E+04  0.50400001928E-02 0. -1.
    10030    2    1    2    0    0  0.00000000000E+00  0.00000000000E+00 -0.11904992516E+04  0.22378974393E+04  0.18949660896E+04 0.  0.
        1    1    3    3  502    0 -0.10061868125E+03 -0.71806125557E+03  0.12503346884E+03  0.73577812833E+03  0.50400001928E-02 0.  1.
       -1    1    3    3    0  502  0.10061868125E+03  0.71806125557E+03 -0.13155327204E+04  0.15021193110E+04  0.50400001928E-02 0. -1.
</event>
<event>
 5   0  0.3495279E-06  0.1901075E+04  0.7818609E-02  0.8654321E-01
       -1   -1    0    0    0  501  0.00000000000E+00  0.00000000000E+00  0.81848834921E+03  0.81848834922E+03  0.50400001928E-02 0. -1.
        1   -1    0    0  501    0  0.00000000000E+00  0.00000000000E+00 -0.11038907803E+04  0.11038907803E+04  0.50400001928E-02 0.  1.
    10030    2    1    2    0    0  0.00000000000E+00  0.00000000000E+00 -0.28540243105E+03  0.19223791295E+04  0.19010752142E+04 0.  0.
        2    1    3    3  502    0 -0.82793347940E+02 -0.32082125743E+03 -0.10436063767E+04  0.10949407688E+04  0.25500000920E-02 0.  1.
       -2    1    3    3    0  502  0.82793347940E+02  0.32082125743E+03  0.75820394561E+03  0.82743836074E+03  0.25500000920E-02 0. -1.
</event>
<event>
 5   0  0.3211263E-06  0.1900811E+04  0.7818609E-02  0.8654453E-01
       -1   -1    0    0    0  501  0.00000000000E+00  0.00000000000E+00  0.83018151784E+03  0.83018151786E+03  0.50400001928E-02 0.  1.
        1   -1    0    0  501    0  0.00000000000E+00  0.00000000000E+00 -0.10880397895E+04  0.10880397895E+04  0.50400001928E-02 0. -1.
    10030    2    1    2    0    0  0.00000000000E+00  0.00000000000E+00 -0.25785827165E+03  0.19182213074E+04  0.19008109048E+04 0.  0.
        5    1    3    3  502    0 -0.50357650884E+03 -0.71171636616E+03 -0.51070490721E+03  0.10104311349E+04  0.46999998093E+01 0. -1.
       -5    1    3    3    0  502  0.50357650884E+03  0.71171636616E+03  0.25284663556E+03  0.90779017247E+03  0.46999998093E+01 0.  1.
</event>
<event>
 5   0  0.6862201E-06  0.1911782E+04  0.7818609E-02  0.8649014E-01
        2   -1    0    0  501    0  0.00000000000E+00  0.00000000000E+00  0.18049487507E+04  0.18049487507E+04  0.25500000920E-02 0.  1.
       -2   -1    0    0    0  501  0.00000000000E+00  0.00000000000E+00 -0.50623474781E+03  0.50623474781E+03  0.25500000920E-02 0. -1.
    10030    2    1    2    0    0  0.00000000000E+00  0.00000000000E+00  0.12987140029E+04  0.23111834985E+04  0.19117821797E+04 0.  0.
        3    1    3    3  502    0  0.75366358184E+03 -0.55888446444E+03  0.42852834959E+03  0.10315023974E+04  0.10100000352E+00 0. -1.
       -3    1    3    3    0  502 -0.75366358184E+03  0.55888446444E+03  0.87018565330E+03  0.12796811011E+04  0.10100000352E+00 0.  1.
</event>
<event>
 5   0  0.3236653E-06  0.1900231E+04  0.7818609E-02  0.8654741E-01
       -1   -1    0    0    0  501  0.00000000000E+00  0.00000000000E+00  0.45332507149E+03  0.45332507151E+03  0.50400001928E-02 0. -1.
        1   -1    0    0  501    0  0.00000000000E+00  0.00000000000E+00 -0.19913295287E+04  0.19913295287E+04  0.50400001928E-02 0.  1.
    10030    2    1    2    0    0  0.00000000000E+00  0.00000000000E+00 -0.15380044572E+04  0.24446546002E+04  0.19002311449E+04 0.  0.
        3    1    3    3  502    0 -0.86799744359E+03 -0.90040892339E+00 -0.12660977402E+04  0.15350647774E+04  0.10100000352E+00 0.  1.
       -3    1    3    3    0  502  0.86799744359E+03  0.90040892339E+00 -0.27190671698E+03  0.90958982281E+03  0.10100000352E+00 0. -1.
</event>
<event>
 5   0  0.3495279E-06  0.1895716E+04  0.7818609E-02  0.8656992E-01
       -1   -1    0    0    0  501  0.00000000000E+00  0.00000000000E+00  0.13631780288E+04  0.13631780289E+04  0.50400001928E-02 0.  1.
        1   -1    0    0  501    0  0.00000000000E+00  0.00000000000E+00 -0.65907373441E+03  0.65907373443E+03  0.50400001928E-02 0. -1.
    10030    2    1    2    0    0  0.00000000000E+00  0.00000000000E+00  0.70410429444E+03  0.20222517633E+04  0.18957160485E+04 0.  0.
        2    1    3    3  502    0  0.68266514308E+03 -0.42002560950E+03 -0.18766514276E+03  0.82320800290E+03  0.25500000920E-02 0. -1.
       -2    1    3    3    0  502 -0.68266514308E+03  0.42002560950E+03  0.89176943719E+03  0.11990437604E+04  0.25500000920E-02 0.  1.
</event>
<event>
 5   0  0.7577180E-06  0.1900646E+04  0.7818609E-02  0.8654535E-01
       -2   -1    0    0    0  501  0.00000000000E+00  0.00000000000E+00  0.51179944994E+03  0.51179944995E+03  0.25500000920E-02 0.  1.
        2   -1    0    0  501    0  0.00000000000E+00  0.00000000000E+00 -0.17645844300E+04  0.17645844300E+04  0.25500000920E-02 0. -1.
    10030    2    1    2    0    0  0.00000000000E+00  0.00000000000E+00 -0.12527849800E+04  0.22763838799E+04  0.19006455121E+04 0.  0.
        5    1    3    3  502    0  0.58915765530E+03  0.53896438361E+02  0.26432140883E+03  0.64799650156E+03  0.46999998093E+01 0.  1.
       -5    1    3    3    0  502 -0.58915765530E+03 -0.53896438361E+02 -0.15171063888E+04  0.16283873783E+04  0.46999998093E+01 0. -1.
</event>
<event>
 5   0  0.6862201E-06  0.1899931E+04  0.7818609E-02  0.8654891E-01
        2   -1    0    0  501    0  0.00000000000E+00  0.00000000000E+00  0.10926109917E+04  0.10926109917E+04  0.25500000920E-02 0.  1.
       -2   -1    0    0    0  501  0.00000000000E+00  0.00000000000E+00 -0.82594324500E+03  0.82594324500E+03  0.25500000920E-02 0. -1.
    10030    2    1    2    0    0  0.00000000000E+00  0.00000000000E+00  0.26666774672E+03  0.19185542367E+04  0.18999312283E+04 0.  0.
        3    1    3    3  502    0  0.67135841502E+03  0.48999954699E+03  0.59785701208E+03  0.10238431006E+04  0.10100000352E+00 0.  1.
       -3    1    3    3    0  502 -0.67135841502E+03 -0.48999954699E+03 -0.33118926536E+03  0.89471113616E+03  0.10100000352E+00 0. -1.
</event>
<event>
 5   0  0.3398807E-06  0.1901249E+04  0.7818609E-02  0.8654235E-01
        1   -1    0    0  501    0  0.00000000000E+00  0.00000000000E+00  0.89807876056E+03  0.89807876058E+03  0.50400001928E-02 0. -1.
       -1   -1    0    0    0  501  0.00000000000E+00  0.00000000000E+00 -0.10062449684E+04  0.10062449685E+04  0.50400001928E-02 0.  1.
    10030    2    1    2    0    0  0.00000000000E+00  0.00000000000E+00 -0.10816620789E+03  0.19043237290E+04  0.19012493094E+04 0.  0.
        1    1    3    3  502    0  0.47848976596E+03 -0.10247143614E+03 -0.87040676717E+03  0.99852931440E+03  0.50400001928E-02 0.  1.
       -1    1    3    3    0  502 -0.47848976596E+03  0.10247143614E+03  0.76224055928E+03  0.90579441464E+03  0.50400001928E-02 0. -1.
</event>
<event>
 5   0  0.7207648E-06  0.1899732E+04  0.7818609E-02  0.8654990E-01
        2   -1    0    0  501    0  0.00000000000E+00  0.00000000000E+00  0.10496802347E+04  0.10496802347E+04  0.25500000920E-02 0.  1.
       -2   -1    0    0    0  501  0.00000000000E+00  0.00000000000E+00 -0.85954318816E+03  0.85954318816E+03  0.25500000920E-02 0. -1.
    10030    2    1    2    0    0  0.00000000000E+00  0.00000000000E+00  0.19013704653E+03  0.19092234229E+04  0.18997320816E+04 0.  0.
        4    1    3    3  502    0 -0.10163506610E+03  0.94189340261E+03  0.16434049566E+03  0.96151041594E+03  0.12699999809E+01 0.  1.
       -4    1    3    3    0  502  0.10163506610E+03 -0.94189340261E+03  0.25796550875E+02  0.94771300692E+03  0.12699999809E+01 0. -1.
</event>
<event>
 5   0  0.6870370E-06  0.1899288E+04  0.7818609E-02  0.8655211E-01
        2   -1    0    0  501    0  0.00000000000E+00  0.00000000000E+00  0.11837609124E+04  0.11837609124E+04  0.25500000920E-02 0.  1.
       -2   -1    0    0    0  501  0.00000000000E+00  0.00000000000E+00 -0.76182952034E+03  0.76182952035E+03  0.25500000920E-02 0. -1.
    10030    2    1    2    0    0  0.00000000000E+00  0.00000000000E+00  0.42193139204E+03  0.19455904327E+04  0.18992882963E+04 0.  0.
        1    1    3    3  502    0 -0.87306917964E+03 -0.36789056527E+03  0.27759558491E+03  0.98724493883E+03  0.50400001928E-02 0.  1.
       -1    1    3    3    0  502  0.87306917964E+03  0.36789056527E+03  0.14433580713E+03  0.95834549391E+03  0.50400001928E-02 0. -1.
</event>
<event>
 5   0  0.6862201E-06  0.1899595E+04  0.7818609E-02  0.8655058E-01
        2   -1    0    0  501    0  0.00000000000E+00  0.00000000000E+00  0.15190479007E+04  0.15190479007E+04  0.25500000920E-02 0.  1.
       -2   -1    0    0    0  501  0.00000000000E+00  0.00000000000E+00 -0.59386918942E+03  0.59386918942E+03  0.25500000920E-02 0. -1.
    10030    2    1    2    0    0  0.00000000000E+00  0.00000000000E+00  0.92517871129E+03  0.21129170901E+04  0.18995954785E+04 0.  0.
        3    1    3    3  502    0  0.85428448906E+03  0.41509508470E+03  0.45910416865E+03  0.10549324933E+04  0.10100000352E+00 0.  1.
       -3    1    3    3    0  502 -0.85428448906E+03 -0.41509508470E+03  0.46607454265E+03  0.10579845968E+04  0.10100000352E+00 0. -1.
</event>
<event>
 5   0  0.3211263E-06  0.1901642E+04  0.7818609E-02  0.8654040E-01
       -1   -1    0    0    0  501  0.00000000000E+00  0.00000000000E+00  0.86222868359E+03  0.86222868361E+03  0.50400001928E-02 0. -1.
        1   -1    0    0  501    0  0.00000000000E+00  0.00000000000E+00 -0.10485158554E+04  0.10485158554E+04  0.50400001928E-02 0.  1.
    10030    2    1    2    0    0  0.00000000000E+00  0.00000000000E+00 -0.18628717178E+03  0.19107445390E+04  0.19016418651E+04 0.  0.
        5    1    3    3  502    0  0.65924646779E+03  0.51344135990E+02 -0.77963888411E+03  0.10223018171E+04  0.46999998093E+01 0.  1.
       -5    1    3    3    0  502 -0.65924646779E+03 -0.51344135990E+02  0.59335171233E+03  0.88844272191E+03  0.46999998093E+01 0. -1.
</event>
<event>
 5   0  0.3495279E-06  0.1902454E+04  0.7818609E-02  0.8653636E-01
       -1   -1    0    0    0  501  0.00000000000E+00  0.00000000000E+00  0.13304609865E+04  0.13304609865E+04  0.50400001928E-02 0. -1.
        1   -1    0    0  501    0  0.00000000000E+00  0.00000000000E+00 -0.68008976601E+03  0.68008976603E+03  0.50400001928E-02 0.  1.
    10030    2    1    2    0    0  0.00000000000E+00  0.00000000000E+00  0.65037122052E+03  0.20105507526E+04  0.19024541004E+04 0.  0.
        2    1    3    3  502    0  0.87567935886E+03 -0.25229502375E+03  0.36989955175E+02  0.91205009475E+03  0.25500000920E-02 0.  1.
       -2    1    3    3    0  502 -0.87567935886E+03  0.25229502375E+03  0.61338126535E+03  0.10985006578E+04  0.25500000920E-02 0. -1.
</event>
<event>
 5   0  0.3236653E-06  0.1899820E+04  0.7818609E-02  0.8654946E-01
        1   -1    0    0  501    0  0.00000000000E+00  0.00000000000E+00  0.15517359475E+04  0.15517359475E+04  0.50400001928E-02 0.  1.
       -1   -1    0    0    0  501  0.00000000000E+00  0.00000000000E+00 -0.58149634114E+03  0.58149634116E+03  0.50400001928E-02 0. -1.
    10030    2    1    2    0    0  0.00000000000E+00  0.00000000000E+00  0.97023960639E+03  0.21332322887E+04  0.18998197556E+04 0.  0.
        3    1    3    3  502    0  0.82505549675E+03 -0.46361851372E+03  0.39341526265E+03  0.10249069607E+04  0.10100000352E+00 0.  1.
       -3    1    3    3    0  502 -0.82505549675E+03  0.46361851372E+03  0.57682434374E+03  0.11083253280E+04  0.10100000352E+00 0. -1.
</event>
<event>
 5   0  0.6984466E-06  0.1900239E+04  0.7818609E-02  0.8654737E-01
       -2   -1    0    0    0  501  0.00000000000E+00  0.00000000000E+00  0.36665742455E+03  0.36665742456E+03  0.25500000920E-02 0.  1.
        2   -1    0    0  501    0  0.00000000000E+00  0.00000000000E+00 -0.24620451934E+04  0.24620451934E+04  0.25500000920E-02 0. -1.
    10030    2    1    2    0    0  0.00000000000E+00  0.00000000000E+00 -0.20953877688E+04  0.28287026179E+04  0.19002390899E+04 0.  0.
        2    1    3    3  502    0  0.51203336734E+03 -0.55697585407E+03 -0.19213284127E+03  0.78058651025E+03  0.25500000920E-02 0.  1.
       -2    1    3    3    0  502 -0.51203336734E+03  0.55697585407E+03 -0.19032549275E+04  0.20481161077E+04  0.25500000920E-02 0. -1.
</event>
<event>
 5   0  0.7207648E-06  0.1899784E+04  0.7818609E-02  0.8654964E-01
       -2   -1    0    0    0  501  0.00000000000E+00  0.00000000000E+00  0.98056308184E+03  0.98056308185E+03  0.25500000920E-02 0.  1.
        2   -1    0    0  501    0  0.00000000000E+00  0.00000000000E+00 -0.92018049990E+03  0.92018049990E+03  0.25500000920E-02 0. -1.
    10030    2    1    2    0    0  0.00000000000E+00  0.00000000000E+00  0.60382581942E+02  0.19007435818E+04  0.18997842265E+04 0.  0.
        4    1    3    3  502    0  0.53107122520E+03  0.26834083648E+03  0.77100423281E+03  0.97390584281E+03  0.12699999809E+01 0.  1.
       -4    1    3    3    0  502 -0.53107122520E+03 -0.26834083648E+03 -0.71062165086E+03  0.92683773894E+03  0.12699999809E+01 0. -1.
</event>
<event>
 5   0  0.3495279E-06  0.1900017E+04  0.7818609E-02  0.8654848E-01
        1   -1    0    0  501    0  0.00000000000E+00  0.00000000000E+00  0.70529483383E+03  0.70529483385E+03  0.50400001928E-02 0.  1.
       -1   -1    0    0    0  501  0.00000000000E+00  0.00000000000E+00 -0.12796289494E+04  0.12796289495E+04  0.50400001928E-02 0. -1.
    10030    2    1    2    0    0  0.00000000000E+00  0.00000000000E+00 -0.57433411562E+03  0.19849237833E+04  0.19000165129E+04 0.  0.
        2    1    3    3  502    0 -0.89583037554E+03  0.27783333387E+02  0.41920681299E+02  0.89724094806E+03  0.25500000920E-02 0.  1.
       -2    1    3    3    0  502  0.89583037554E+03 -0.27783333387E+02 -0.61625479692E+03  0.10876828352E+04  0.25500000920E-02 0. -1.
</event>
<event>
 5   0  0.3211263E-06  0.1899721E+04  0.7818609E-02  0.8654995E-01
       -1   -1    0    0    0  501  0.00000000000E+00  0.00000000000E+00  0.14083118930E+04  0.14083118930E+04  0.50400001928E-02 0.  1.
        1   -1    0    0  501    0  0.00000000000E+00  0.00000000000E+00 -0.64064979348E+03  0.64064979350E+03  0.50400001928E-02 0. -1.
    10030    2    1    2    0    0  0.00000000000E+00  0.00000000000E+00  0.76766209956E+03  0.20489616865E+04  0.18997207410E+04 0.  0.
        5    1    3    3  502    0  0.66942592719E+03  0.50286891517E+03 -0.99965567038E+02  0.84322204811E+03  0.46999998093E+01 0. -1.
       -5    1    3    3    0  502 -0.66942592719E+03 -0.50286891517E+03  0.86762766660E+03  0.12057396384E+04  0.46999998093E+01 0.  1.
</event>
<event>
 5   0  0.3495279E-06  0.1901348E+04  0.7818609E-02  0.8654186E-01
       -1   -1    0    0    0  501  0.00000000000E+00  0.00000000000E+00  0.75112080328E+03  0.75112080330E+03  0.50400001928E-02 0.  1.
        1   -1    0    0  501    0  0.00000000000E+00  0.00000000000E+00 -0.12032433548E+04  0.12032433548E+04  0.50400001928E-02 0. -1.
    10030    2    1    2    0    0  0.00000000000E+00  0.00000000000E+00 -0.45212255148E+03  0.19543641581E+04  0.19013480641E+04 0.  0.
        2    1    3    3  502    0 -0.45733738247E+03  0.50076111923E+02 -0.10811935786E+04  0.11750083628E+04  0.25500000920E-02 0. -1.
       -2    1    3    3    0  502  0.45733738247E+03 -0.50076111923E+02  0.62907102710E+03  0.77935579522E+03  0.25500000920E-02 0.  1.
</event>
<event>
 5   0  0.2527750E-06  0.1899905E+04  0.7818609E-02  0.8654903E-01
       -3   -1    0    0    0  501  0.00000000000E+00  0.00000000000E+00  0.19637327510E+04  0.19637327536E+04  0.10100000352E+00 0. -1.
        3   -1    0    0  501    0  0.00000000000E+00  0.00000000000E+00 -0.45953814577E+03  0.45953815687E+03  0.10100000352E+00 0.  1.
    10030    2    1    2    0    0  0.00000000000E+00  0.00000000000E+00  0.15041946052E+04  0.24232709104E+04  0.18999053911E+04 0.  0.
        3    1    3    3  502    0 -0.34519829961E+03  0.61428098085E+03 -0.60514883338E+02  0.70722348009E+03  0.10100000352E+00 0.  1.
       -3    1    3    3    0  502  0.34519829961E+03 -0.61428098085E+03  0.15647094885E+04  0.17160474304E+04  0.10100000352E+00 0. -1.
</event>
<event>
 5   0  0.6984466E-06  0.1909369E+04  0.7818609E-02  0.8650207E-01
        2   -1    0    0  501    0  0.00000000000E+00  0.00000000000E+00  0.13579143217E+04  0.13579143217E+04  0.25500000920E-02 0. -1.
       -2   -1    0    0    0  501  0.00000000000E+00  0.00000000000E+00 -0.67119306594E+03  0.67119306594E+03  0.25500000920E-02 0.  1.
    10030    2    1    2    0    0  0.00000000000E+00  0.00000000000E+00  0.68672125577E+03  0.20291073877E+04  0.19093691910E+04 0.  0.
        2    1    3    3  502    0 -0.66092383302E+03 -0.66142597898E+02  0.10720948132E+04  0.12611829545E+04  0.25500000920E-02 0. -1.
       -2    1    3    3    0  502  0.66092383302E+03  0.66142597898E+02 -0.38537355739E+03  0.76792443316E+03  0.25500000920E-02 0.  1.
</event>
<event>
 5   0  0.6862201E-06  0.1899313E+04  0.7818609E-02  0.8655198E-01
       -2   -1    0    0    0  501  0.00000000000E+00  0.00000000000E+00  0.11308944811E+04  0.11308944811E+04  0.25500000920E-02 0.  1.
        2   -1    0    0  501    0  0.00000000000E+00  0.00000000000E+00 -0.79746410715E+03  0.79746410715E+03  0.25500000920E-02 0. -1.
    10030    2    1    2    0    0  0.00000000000E+00  0.00000000000E+00  0.33343037392E+03  0.19283585882E+04  0.18993133050E+04 0.  0.
        3    1    3    3  502    0  0.45430342706E+03 -0.61319793744E+03 -0.40712221016E+03  0.86495769754E+03  0.10100000352E+00 0. -1.
       -3    1    3    3    0  502 -0.45430342706E+03  0.61319793744E+03  0.74055258408E+03  0.10634008907E+04  0.10100000352E+00 0.  1.
</event>
<event>
 5   0  0.6984466E-06  0.1898141E+04  0.7818609E-02  0.8655782E-01
        2   -1    0    0  501    0  0.00000000000E+00  0.00000000000E+00  0.16492661635E+04  0.16492661635E+04  0.25500000920E-02 0. -1.
       -2   -1    0    0    0  501  0.00000000000E+00  0.00000000000E+00 -0.54614284069E+03  0.54614284070E+03  0.25500000920E-02 0.  1.
    10030    2    1    2    0    0  0.00000000000E+00  0.00000000000E+00  0.11031233228E+04  0.21954090042E+04  0.18981410987E+04 0.  0.
        2    1    3    3  502    0 -0.79102408397E+03 -0.18236760299E+03  0.11202538370E+04  0.13834542650E+04  0.25500000920E-02 0. -1.
       -2    1    3    3    0  502  0.79102408397E+03  0.18236760299E+03 -0.17130514152E+02  0.81195473923E+03  0.25500000920E-02 0.  1.
</event>
<event>
 5   0  0.3236653E-06  0.1896336E+04  0.7818609E-02  0.8656682E-01
       -1   -1    0    0    0  501  0.00000000000E+00  0.00000000000E+00  0.95803510389E+03  0.95803510390E+03  0.50400001928E-02 0.  1.
        1   -1    0    0  501    0  0.00000000000E+00  0.00000000000E+00 -0.93840269929E+03  0.93840269930E+03  0.50400001928E-02 0. -1.
    10030    2    1    2    0    0  0.00000000000E+00  0.00000000000E+00  0.19632404599E+02  0.18964378032E+04  0.18963361807E+04 0.  0.
        3    1    3    3  502    0  0.26454703302E+02 -0.54464179557E+02 -0.93646730914E+03  0.93842273495E+03  0.10100000352E+00 0. -1.
       -3    1    3    3    0  502 -0.26454703302E+02  0.54464179557E+02  0.95609971374E+03  0.95801506825E+03  0.10100000352E+00 0.  1.
</event>
<event>
 5   0  0.3211263E-06  0.1899911E+04  0.7818609E-02  0.8654901E-01
       -1   -1    0    0    0  501  0.00000000000E+00  0.00000000000E+00  0.16580967953E+04  0.16580967953E+04  0.50400001928E-02 0. -1.
        1   -1    0    0  501    0  0.00000000000E+00  0.00000000000E+00 -0.54424771313E+03  0.54424771315E+03  0.50400001928E-02 0.  1.
    10030    2    1    2    0    0  0.00000000000E+00  0.00000000000E+00  0.11138490821E+04  0.22023445084E+04  0.18999109337E+04 0.  0.
        5    1    3    3  502    0  0.43322245372E+03 -0.67754127709E+03 -0.29179103121E+02  0.80474678417E+03  0.46999998093E+01 0.  1.
       -5    1    3    3    0  502 -0.43322245372E+03  0.67754127709E+03  0.11430281853E+04  0.13975977243E+04  0.46999998093E+01 0. -1.
</event>
<event>
 5   0  0.7577180E-06  0.1899569E+04  0.7818609E-02  0.8655071E-01
        2   -1    0    0  501    0  0.00000000000E+00  0.00000000000E+00  0.19283022817E+04  0.19283022817E+04  0.25500000920E-02 0. -1.
       -2   -1    0    0    0  501  0.00000000000E+00  0.00000000000E+00 -0.46781616948E+03  0.46781616949E+03  0.25500000920E-02 0.  1.
    10030    2    1    2    0    0  0.00000000000E+00  0.00000000000E+00  0.14604861122E+04  0.23961184512E+04  0.18995694113E+04 0.  0.
        5    1    3    3  502    0  0.23807206207E+03 -0.66479790636E+03 -0.70954366992E+02  0.70971203683E+03  0.46999998093E+01 0.  1.
       -5    1    3    3    0  502 -0.23807206207E+03  0.66479790636E+03  0.15314404792E+04  0.16864064144E+04  0.46999998093E+01 0. -1.
</event>
<event>
 5   0  0.3211263E-06  0.1899328E+04  0.7818609E-02  0.8655191E-01
        1   -1    0    0  501    0  0.00000000000E+00  0.00000000000E+00  0.93565042888E+03  0.93565042890E+03  0.50400001928E-02 0. -1.
       -1   -1    0    0    0  501  0.00000000000E+00  0.00000000000E+00 -0.96388768753E+03  0.96388768754E+03  0.50400001928E-02 0.  1.
    10030    2    1    2    0    0  0.00000000000E+00  0.00000000000E+00 -0.28237258648E+02  0.18995381164E+04  0.18993282268E+04 0.  0.
        5    1    3    3  502    0 -0.80640205449E+03  0.27007038068E+03  0.40855977505E+03  0.94348580477E+03  0.46999998093E+01 0. -1.
       -5    1    3    3    0  502  0.80640205449E+03 -0.27007038068E+03 -0.43679703370E+03  0.95605231167E+03  0.46999998093E+01 0.  1.
</event>
<event>
 5   0  0.3495279E-06  0.1901275E+04  0.7818609E-02  0.8654222E-01
       -1   -1    0    0    0  501  0.00000000000E+00  0.00000000000E+00  0.12641822032E+04  0.12641822032E+04  0.50400001928E-02 0.  1.
        1   -1    0    0  501    0  0.00000000000E+00  0.00000000000E+00 -0.71485874595E+03  0.71485874597E+03  0.50400001928E-02 0. -1.
    10030    2    1    2    0    0  0.00000000000E+00  0.00000000000E+00  0.54932345726E+03  0.19790409492E+04  0.19012750506E+04 0.  0.
        2    1    3    3  502    0  0.25253549687E+03 -0.12905379462E+03 -0.66979988563E+03  0.72736575798E+03  0.25500000920E-02 0. -1.
       -2    1    3    3    0  502 -0.25253549687E+03  0.12905379462E+03  0.12191233429E+04  0.12516751912E+04  0.25500000920E-02 0.  1.
</event>
<event>
 5   0  0.7577180E-06  0.1899680E+04  0.7818609E-02  0.8655015E-01
       -2   -1    0    0    0  501  0.00000000000E+00  0.00000000000E+00  0.66255718724E+03  0.66255718725E+03  0.25500000920E-02 0. -1.
        2   -1    0    0  501    0  0.00000000000E+00  0.00000000000E+00 -0.13616883821E+04  0.13616883821E+04  0.25500000920E-02 0.  1.
    10030    2    1    2    0    0  0.00000000000E+00  0.00000000000E+00 -0.69913119485E+03  0.20242455693E+04  0.18996804198E+04 0.  0.
        5    1    3    3  502    0  0.89155831795E+03  0.24029002280E+03 -0.58678109782E+03  0.10940519531E+04  0.46999998093E+01 0. -1.
       -5    1    3    3    0  502 -0.89155831795E+03 -0.24029002280E+03 -0.11235009703E+03  0.93019361622E+03  0.46999998093E+01 0.  1.
</event>
<event>
 5   0  0.3398807E-06  0.1900735E+04  0.7818609E-02  0.8654490E-01
       -1   -1    0    0    0  501  0.00000000000E+00  0.00000000000E+00  0.43913921647E+03  0.43913921650E+03  0.50400001928E-02 0. -1.
        1   -1    0    0  501    0  0.00000000000E+00  0.00000000000E+00 -0.20567483412E+04  0.20567483412E+04  0.50400001928E-02 0.  1.
    10030    2    1    2    0    0  0.00000000000E+00  0.00000000000E+00 -0.16176091247E+04  0.24958875577E+04  0.19007354945E+04 0.  0.
        1    1    3    3  502    0 -0.12316304809E+03  0.71847819511E+03 -0.81060812449E+01  0.72900326600E+03  0.50400001928E-02 0. -1.
       -1    1    3    3    0  502  0.12316304809E+03 -0.71847819511E+03 -0.16095030434E+04  0.17668842917E+04  0.50400001928E-02 0.  1.
</event>
<event>
 5   0  0.6862201E-06  0.1899173E+04  0.7818609E-02  0.8655268E-01
       -2   -1    0    0    0  501  0.00000000000E+00  0.00000000000E+00  0.82905551252E+03  0.82905551253E+03  0.25500000920E-02 0.  1.
        2   -1    0    0  501    0  0.00000000000E+00  0.00000000000E+00 -0.10876404831E+04  0.10876404832E+04  0.25500000920E-02 0. -1.
    10030    2    1    2    0    0  0.00000000000E+00  0.00000000000E+00 -0.25858497063E+03  0.19166959957E+04  0.18991728075E+04 0.  0.
        3    1    3    3  502    0 -0.41734746399E+03 -0.71270349838E+03 -0.60221956976E+03  0.10221514578E+04  0.10100000352E+00 0. -1.
       -3    1    3    3    0  502  0.41734746399E+03  0.71270349838E+03  0.34363459913E+03  0.89454453787E+03  0.10100000352E+00 0.  1.
</event>
<event>
 5   0  0.6870370E-06  0.1899690E+04  0.7818609E-02  0.8655011E-01
        2   -1    0    0  501    0  0.00000000000E+00  0.00000000000E+00  0.13064435681E+04  0.13064435681E+04  0.25500000920E-02 0.  1.
       -2   -1    0    0    0  501  0.00000000000E+00  0.00000000000E+00 -0.69058105631E+03  0.69058105632E+03  0.25500000920E-02 0. -1.
    10030    2    1    2    0    0  0.00000000000E+00  0.00000000000E+00  0.61586251176E+03  0.19970246244E+04  0.18996896370E+04 0.  0.
        1    1    3    3  502    0  0.66713915128E+03 -0.16000229838E+03  0.99849879603E+03  0.12114764663E+04  0.50400001928E-02 0. -1.
       -1    1    3    3    0  502 -0.66713915128E+03  0.16000229838E+03 -0.38263628426E+03  0.78554815811E+03  0.50400001928E-02 0.  1.
</event>
<event>
 5   0  0.6862201E-06  0.1899749E+04  0.7818609E-02  0.8654981E-01
        2   -1    0    0  501    0  0.00000000000E+00  0.00000000000E+00  0.18388817649E+04  0.18388817649E+04  0.25500000920E-02 0.  1.
       -2   -1    0    0    0  501  0.00000000000E+00  0.00000000000E+00 -0.49065765562E+03  0.49065765562E+03  0.25500000920E-02 0. -1.
    10030    2    1    2    0    0  0.00000000000E+00  0.00000000000E+00  0.13482241093E+04  0.23295394205E+04  0.18997488421E+04 0.  0.
        3    1    3    3  502    0  0.68268201475E+03 -0.18621155786E+03  0.14511351323E+04  0.16144728737E+04  0.10100000352E+00 0.  1.
       -3    1    3    3    0  502 -0.68268201475E+03  0.18621155786E+03 -0.10291102300E+03  0.71506654683E+03  0.10100000352E+00 0. -1.
</event>
<event>
 5   0  0.3495279E-06  0.1900526E+04  0.7818609E-02  0.8654594E-01
        1   -1    0    0  501    0  0.00000000000E+00  0.00000000000E+00  0.10359251181E+04  0.10359251181E+04  0.50400001928E-02 0. -1.
       -1   -1    0    0    0  501  0.00000000000E+00  0.00000000000E+00 -0.87168485211E+03  0.87168485213E+03  0.50400001928E-02 0.  1.
    10030    2    1    2    0    0  0.00000000000E+00  0.00000000000E+00  0.16424026602E+03  0.19076099703E+04  0.19005264886E+04 0.  0.
        2    1    3    3  502    0 -0.16824675040E+03 -0.60270644638E+03  0.79993465431E+03  0.10156069519E+04  0.25500000920E-02 0. -1.
       -2    1    3    3    0  502  0.16824675040E+03  0.60270644638E+03 -0.63569438828E+03  0.89200301840E+03  0.25500000920E-02 0.  1.
</event>
<event>
 5   0  0.7207648E-06  0.1905377E+04  0.7818609E-02  0.8652185E-01
       -2   -1    0    0    0  501  0.00000000000E+00  0.00000000000E+00  0.37517054468E+03  0.37517054468E+03  0.25500000920E-02 0. -1.
        2   -1    0    0  501    0  0.00000000000E+00  0.00000000000E+00 -0.24192067989E+04  0.24192067989E+04  0.25500000920E-02 0.  1.
    10030    2    1    2    0    0  0.00000000000E+00  0.00000000000E+00 -0.20440362542E+04  0.27943773436E+04  0.19053767422E+04 0.  0.
        4    1    3    3  502    0 -0.55819618820E+03  0.63075914294E+03 -0.16748884299E+04  0.18747514359E+04  0.12699999809E+01 0.  1.
       -4    1    3    3    0  502  0.55819618820E+03 -0.63075914294E+03 -0.36914782427E+03  0.91962590763E+03  0.12699999809E+01 0. -1.
</event>
<event>
 5   0  0.3211263E-06  0.1899796E+04  0.7818609E-02  0.8654958E-01
        1   -1    0    0  501    0  0.00000000000E+00  0.00000000000E+00  0.21527295384E+04  0.21527295384E+04  0.50400001928E-02 0. -1.
       -1   -1    0    0    0  501  0.00000000000E+00  0.00000000000E+00 -0.41914534726E+03  0.41914534729E+03  0.50400001928E-02 0.  1.
    10030    2    1    2    0    0  0.00000000000E+00  0.00000000000E+00  0.17335841911E+04  0.25718748857E+04  0.18997963785E+04 0.  0.
        5    1    3    3  502    0  0.84841923400E+03 -0.36588136301E+03  0.11652351081E+04  0.14871043391E+04  0.46999998093E+01 0.  1.
       -5    1    3    3    0  502 -0.84841923400E+03  0.36588136301E+03  0.56834908305E+03  0.10847705465E+04  0.46999998093E+01 0. -1.
</event>
<event>
 5   0  0.3495279E-06  0.1897321E+04  0.7818609E-02  0.8656191E-01
       -1   -1    0    0    0  501  0.00000000000E+00  0.00000000000E+00  0.71788098823E+03  0.71788098825E+03  0.50400001928E-02 0. -1.
        1   -1    0    0  501    0  0.00000000000E+00  0.00000000000E+00 -0.12536294966E+04  0.12536294966E+04  0.50400001928E-02 0.  1.
    10030    2    1    2    0    0  0.00000000000E+00  0.00000000000E+00 -0.53574850832E+03  0.19715104848E+04  0.18973210397E+04 0.  0.
        2    1    3    3  502    0  0.41878101246E+03 -0.70544481242E+03  0.22712121337E+03  0.85124260076E+03  0.25500000920E-02 0. -1.
       -2    1    3    3    0  502 -0.41878101246E+03  0.70544481242E+03 -0.76286972170E+03  0.11202678841E+04  0.25500000920E-02 0.  1.
</event>
<event>
 5   0  0.2527750E-06  0.1899533E+04  0.7818609E-02  0.8655089E-01
       -3   -1    0    0    0  501  0.00000000000E+00  0.00000000000E+00  0.11782907978E+04  0.11782908021E+04  0.10100000352E+00 0.  1.
        3   -1    0    0  501    0  0.00000000000E+00  0.00000000000E+00 -0.76556316334E+03  0.76556317000E+03  0.10100000352E+00 0. -1.
    10030    2    1    2    0    0  0.00000000000E+00  0.00000000000E+00  0.41272763441E+03  0.19438539721E+04  0.18995326174E+04 0.  0.
        4    1    3    3  502    0 -0.51365972945E+03  0.58538231000E+03 -0.34995253793E+03  0.85380744798E+03  0.12699999809E+01 0. -1.
       -4    1    3    3    0  502  0.51365972945E+03 -0.58538231000E+03  0.76268017234E+03  0.10900465241E+04  0.12699999809E+01 0.  1.
</event>
<event>
 5   0  0.3495279E-06  0.1900741E+04  0.7818609E-02  0.8654488E-01
       -1   -1    0    0    0  501  0.00000000000E+00  0.00000000000E+00  0.72620682831E+03  0.72620682833E+03  0.50400001928E-02 0.  1.
        1   -1    0    0  501    0  0.00000000000E+00  0.00000000000E+00 -0.12437284932E+04  0.12437284932E+04  0.50400001928E-02 0. -1.
    10030    2    1    2    0    0  0.00000000000E+00  0.00000000000E+00 -0.51752166492E+03  0.19699353216E+04  0.19007410390E+04 0.  0.
        2    1    3    3  502    0 -0.65302654188E+03 -0.62122607877E+03 -0.57112720716E+03  0.10670294242E+04  0.25500000920E-02 0. -1.
       -2    1    3    3    0  502  0.65302654188E+03  0.62122607877E+03  0.53605542234E+02  0.90290589737E+03  0.25500000920E-02 0.  1.
</event>
<event>
 5   0  0.3236653E-06  0.1900169E+04  0.7818609E-02  0.8654772E-01
       -1   -1    0    0    0  501  0.00000000000E+00  0.00000000000E+00  0.18825684625E+04  0.18825684625E+04  0.50400001928E-02 0. -1.
        1   -1    0    0  501    0  0.00000000000E+00  0.00000000000E+00 -0.47948350746E+03  0.47948350748E+03  0.50400001928E-02 0.  1.
    10030    2    1    2    0    0  0.00000000000E+00  0.00000000000E+00  0.14030849550E+04  0.23620519700E+04  0.19001689709E+04 0.  0.
        3    1    3    3  502    0 -0.35052856976E+03 -0.12670775750E+03  0.17878897622E+04  0.18263282690E+04  0.10100000352E+00 0. -1.
       -3    1    3    3    0  502  0.35052856976E+03  0.12670775750E+03 -0.38480480716E+03  0.53572370103E+03  0.10100000352E+00 0.  1.
</event>
<event>
 5   0  0.3211263E-06  0.1899678E+04  0.7818609E-02  0.8655017E-01
        1   -1    0    0  501    0  0.00000000000E+00  0.00000000000E+00  0.26952824500E+03  0.26952824504E+03  0.50400001928E-02 0.  1.
       -1   -1    0    0    0  501  0.00000000000E+00  0.00000000000E+00 -0.33473073524E+04  0.33473073524E+04  0.50400001928E-02 0. -1.
    10030    2    1    2    0    0  0.00000000000E+00  0.00000000000E+00 -0.30777791074E+04  0.36168355974E+04  0.18996777371E+04 0.  0.
        5    1    3    3  502    0 -0.13207137821E+03 -0.42941680444E+03 -0.31321994208E+04  0.31642593040E+04  0.46999998093E+01 0. -1.
       -5    1    3    3    0  502  0.13207137821E+03  0.42941680444E+03  0.54420313460E+02  0.45257629345E+03  0.46999998093E+01 0.  1.
</event>
<event>
 5   0  0.7577180E-06  0.1902684E+04  0.7818609E-02  0.8653522E-01
        2   -1    0    0  501    0  0.00000000000E+00  0.00000000000E+00  0.10829021288E+04  0.10829021288E+04  0.25500000920E-02 0. -1.
       -2   -1    0    0    0  501  0.00000000000E+00  0.00000000000E+00 -0.83576472307E+03  0.83576472307E+03  0.25500000920E-02 0.  1.
    10030    2    1    2    0    0  0.00000000000E+00  0.00000000000E+00  0.24713740574E+03  0.19186668519E+04  0.19026837864E+04 0.  0.
        5    1    3    3  502    0  0.46832730139E+03 -0.60843854504E+03 -0.44284478827E+03  0.88637549651E+03  0.46999998093E+01 0.  1.
       -5    1    3    3    0  502 -0.46832730139E+03  0.60843854504E+03  0.68998219402E+03  0.10322913554E+04  0.46999998093E+01 0. -1.
</event>
<event>
 5   0  0.3398807E-06  0.1900961E+04  0.7818609E-02  0.8654378E-01
        1   -1    0    0  501    0  0.00000000000E+00  0.00000000000E+00  0.15152259944E+04  0.15152259944E+04  0.50400001928E-02 0. -1.
       -1   -1    0    0    0  501  0.00000000000E+00  0.00000000000E+00 -0.59622308486E+03  0.59622308489E+03  0.50400001928E-02 0.  1.
    10030    2    1    2    0    0  0.00000000000E+00  0.00000000000E+00  0.91900290957E+03  0.21114490793E+04  0.19009605116E+04 0.  0.
        1    1    3    3  502    0  0.57719995071E+03 -0.51334963274E+03  0.10746530673E+04  0.13234677343E+04  0.50400001928E-02 0. -1.
       -1    1    3    3    0  502 -0.57719995071E+03  0.51334963274E+03 -0.15565015773E+03  0.78798134506E+03  0.50400001928E-02 0.  1.
</event>
<event>
 5   0  0.3211263E-06  0.1900313E+04  0.7818609E-02  0.8654701E-01
        1   -1    0    0  501    0  0.00000000000E+00  0.00000000000E+00  0.84694934153E+03  0.84694934154E+03  0.50400001928E-02 0.  1.
       -1   -1    0    0    0  501  0.00000000000E+00  0.00000000000E+00 -0.10659404348E+04  0.10659404348E+04  0.50400001928E-02 0. -1.
    10030    2    1    2    0    0  0.00000000000E+00  0.00000000000E+00 -0.21899109328E+03  0.19128897764E+04  0.19003131841E+04 0.  0.
        5    1    3    3  502    0 -0.48577210323E+03 -0.43207751577E+03 -0.80698093651E+03  0.10362942815E+04  0.46999998093E+01 0. -1.
       -5    1    3    3    0  502  0.48577210323E+03  0.43207751577E+03  0.58798984323E+03  0.87659549489E+03  0.46999998093E+01 0.  1.
</event>
<event>
 5   0  0.3379108E-06  0.1900255E+04  0.7818609E-02  0.8654729E-01
       -1   -1    0    0    0  501  0.00000000000E+00  0.00000000000E+00  0.34579467555E+03  0.34579467559E+03  0.50400001928E-02 0. -1.
        1   -1    0    0  501    0  0.00000000000E+00  0.00000000000E+00 -0.26106322490E+04  0.26106322490E+04  0.50400001928E-02 0.  1.
    10030    2    1    2    0    0  0.00000000000E+00  0.00000000000E+00 -0.22648375735E+04  0.29564269246E+04  0.19002554898E+04 0.  0.
        4    1    3    3  502    0 -0.15678301032E+02 -0.85943536851E+03 -0.50262294739E+03  0.99574414481E+03  0.12699999809E+01 0. -1.
       -4    1    3    3    0  502  0.15678301032E+02  0.85943536851E+03 -0.17622146261E+04  0.19606827798E+04  0.12699999809E+01 0.  1.
</event>
<event>
 5   0  0.3495279E-06  0.1903784E+04  0.7818609E-02  0.8652975E-01
       -1   -1    0    0    0  501  0.00000000000E+00  0.00000000000E+00  0.17712584306E+04  0.17712584306E+04  0.50400001928E-02 0. -1.
        1   -1    0    0  501    0  0.00000000000E+00  0.00000000000E+00 -0.51155647691E+03  0.51155647694E+03  0.50400001928E-02 0.  1.
    10030    2    1    2    0    0  0.00000000000E+00  0.00000000000E+00  0.12597019537E+04  0.22828149075E+04  0.19037843601E+04 0.  0.
        2    1    3    3  502    0  0.34684049941E+03  0.88251642284E+03  0.52977765811E+03  0.10861850375E+04  0.25500000920E-02 0.  1.
       -2    1    3    3    0  502 -0.34684049941E+03 -0.88251642284E+03  0.72992429554E+03  0.11966298700E+04  0.25500000920E-02 0. -1.
</event>
<event>
 5   0  0.6984466E-06  0.1896091E+04  0.7818609E-02  0.8656805E-01
        2   -1    0    0  501    0  0.00000000000E+00  0.00000000000E+00  0.19957286240E+04  0.19957286240E+04  0.25500000920E-02 0. -1.
       -2   -1    0    0    0  501  0.00000000000E+00  0.00000000000E+00 -0.45035696400E+03  0.45035696401E+03  0.25500000920E-02 0.  1.
    10030    2    1    2    0    0  0.00000000000E+00  0.00000000000E+00  0.15453716600E+04  0.24460855881E+04  0.18960910148E+04 0.  0.
        2    1    3    3  502    0  0.11755624884E+03 -0.56488132402E+03  0.17431390460E+04  0.18361492628E+04  0.25500000920E-02 0. -1.
       -2    1    3    3    0  502 -0.11755624884E+03  0.56488132402E+03 -0.19776738592E+03  0.60993632521E+03  0.25500000920E-02 0.  1.
</event>
<event>
 5   0  0.6862201E-06  0.1899141E+04  0.7818609E-02  0.8655284E-01
        2   -1    0    0  501    0  0.00000000000E+00  0.00000000000E+00  0.24226766097E+04  0.24226766097E+04  0.25500000920E-02 0.  1.
       -2   -1    0    0    0  501  0.00000000000E+00  0.00000000000E+00 -0.37218495202E+03  0.37218495203E+03  0.25500000920E-02 0. -1.
    10030    2    1    2    0    0  0.00000000000E+00  0.00000000000E+00  0.20504916577E+04  0.27948615617E+04  0.18991406243E+04 0.  0.
        3    1    3    3  502    0 -0.11033896203E+03  0.19534766263E+03  0.23831115718E+04  0.23936491326E+04  0.10100000352E+00 0.  1.
       -3    1    3    3    0  502  0.11033896203E+03 -0.19534766263E+03 -0.33261991414E+03  0.40121242917E+03  0.10100000352E+00 0. -1.
</event>
<event>
 5   0  0.7207648E-06  0.1900168E+04  0.7818609E-02  0.8654773E-01
       -2   -1    0    0    0  501  0.00000000000E+00  0.00000000000E+00  0.94246051951E+03  0.94246051952E+03  0.25500000920E-02 0. -1.
        2   -1    0    0  501    0  0.00000000000E+00  0.00000000000E+00 -0.95776880145E+03  0.95776880145E+03  0.25500000920E-02 0.  1.
    10030    2    1    2    0    0  0.00000000000E+00  0.00000000000E+00 -0.15308281938E+02  0.19002293210E+04  0.19001676581E+04 0.  0.
        4    1    3    3  502    0  0.54209993279E+02  0.91304818432E+03 -0.26468769266E+03  0.95218532745E+03  0.12699999809E+01 0.  1.
       -4    1    3    3    0  502 -0.54209993279E+02 -0.91304818432E+03  0.24937941072E+03  0.94804399352E+03  0.12699999809E+01 0. -1.
</event>
<event>
 5   0  0.3211263E-06  0.1913000E+04  0.7818609E-02  0.8648412E-01
       -1   -1    0    0    0  501  0.00000000000E+00  0.00000000000E+00  0.12065488206E+04  0.12065488206E+04  0.50400001928E-02 0.  1.
        1   -1    0    0  501    0  0.00000000000E+00  0.00000000000E+00 -0.75827213597E+03  0.75827213599E+03  0.50400001928E-02 0. -1.
    10030    2    1    2    0    0  0.00000000000E+00  0.00000000000E+00  0.44827668459E+03  0.19648209566E+04  0.19130001060E+04 0.  0.
        5    1    3    3  502    0 -0.13898111265E+02  0.95610360912E+03  0.24807176953E+03  0.98787092361E+03  0.46999998093E+01 0.  1.
       -5    1    3    3    0  502  0.13898111265E+02 -0.95610360912E+03  0.20020491507E+03  0.97695003295E+03  0.46999998093E+01 0. -1.
</event>
<event>
 5   0  0.6870370E-06  0.1899909E+04  0.7818609E-02  0.8654902E-01
       -2   -1    0    0    0  501  0.00000000000E+00  0.00000000000E+00  0.94153744485E+03  0.94153744485E+03  0.25500000920E-02 0.  1.
        2   -1    0    0  501    0  0.00000000000E+00  0.00000000000E+00 -0.95844663102E+03  0.95844663103E+03  0.25500000920E-02 0. -1.
    10030    2    1    2    0    0  0.00000000000E+00  0.00000000000E+00 -0.16909186179E+02  0.18999840759E+04  0.18999088315E+04 0.  0.
        1    1    3    3  502    0  0.51309021729E+03  0.49343460425E+03 -0.63750582595E+03  0.95559037139E+03  0.50400001928E-02 0. -1.
       -1    1    3    3    0  502 -0.51309021729E+03 -0.49343460425E+03  0.62059663977E+03  0.94439370448E+03  0.50400001928E-02 0.  1.
</event>
<event>
 5   0  0.7577180E-06  0.1898951E+04  0.7818609E-02  0.8655379E-01
       -2   -1    0    0    0  501  0.00000000000E+00  0.00000000000E+00  0.32889922148E+03  0.32889922149E+03  0.25500000920E-02 0. -1.
        2   -1    0    0  501    0  0.00000000000E+00  0.00000000000E+00 -0.27409727548E+04  0.27409727548E+04  0.25500000920E-02 0.  1.
    10030    2    1    2    0    0  0.00000000000E+00  0.00000000000E+00 -0.24120735334E+04  0.30698719763E+04  0.18989510843E+04 0.  0.
        5    1    3    3  502    0  0.65731859071E+03 -0.17736574000E+03 -0.13619039200E+03  0.69433151181E+03  0.46999998093E+01 0. -1.
       -5    1    3    3    0  502 -0.65731859071E+03  0.17736574000E+03 -0.22758831414E+04  0.23755404645E+04  0.46999998093E+01 0.  1.
</event>
<event>
 5   0  0.3379108E-06  0.1899862E+04  0.7818609E-02  0.8654925E-01
       -1   -1    0    0    0  501  0.00000000000E+00  0.00000000000E+00  0.73820955932E+03  0.73820955934E+03  0.50400001928E-02 0. -1.
        1   -1    0    0  501    0  0.00000000000E+00  0.00000000000E+00 -0.12223752421E+04  0.12223752422E+04  0.50400001928E-02 0.  1.
    10030    2    1    2    0    0  0.00000000000E+00  0.00000000000E+00 -0.48416568283E+03  0.19605848015E+04  0.18998621938E+04 0.  0.
        4    1    3    3  502    0  0.53148049500E+03  0.48023597232E+03  0.40177301052E+03  0.82129243913E+03  0.12699999809E+01 0. -1.
       -4    1    3    3    0  502 -0.53148049500E+03 -0.48023597232E+03 -0.88593869335E+03  0.11392923624E+04  0.12699999809E+01 0.  1.
</event>
<event>
 5   0  0.3495279E-06  0.1900256E+04  0.7818609E-02  0.8654729E-01
       -1   -1    0    0    0  501  0.00000000000E+00  0.00000000000E+00  0.43850778041E+03  0.43850778044E+03  0.50400001928E-02 0. -1.
        1   -1    0    0  501    0  0.00000000000E+00  0.00000000000E+00 -0.20586714830E+04  0.20586714830E+04  0.50400001928E-02 0.  1.
    10030    2    1    2    0    0  0.00000000000E+00  0.00000000000E+00 -0.16201637026E+04  0.24971792634E+04  0.19002562592E+04 0.  0.
        2    1    3    3  502    0 -0.54923642465E+03 -0.70214236079E+03 -0.12421060184E+04  0.15288858381E+04  0.25500000920E-02 0.  1.
       -2    1    3    3    0  502  0.54923642465E+03  0.70214236079E+03 -0.37805768415E+03  0.96829342532E+03  0.25500000920E-02 0. -1.
</event>
<event>
 5   0  0.3495279E-06  0.1899350E+04  0.7818609E-02  0.8655180E-01
       -1   -1    0    0    0  501  0.00000000000E+00  0.00000000000E+00  0.24252536424E+04  0.24252536424E+04  0.50400001928E-02 0. -1.
        1   -1    0    0  501    0  0.00000000000E+00  0.00000000000E+00 -0.37187157168E+03  0.37187157171E+03  0.50400001928E-02 0.  1.
    10030    2    1    2    0    0  0.00000000000E+00  0.00000000000E+00  0.20533820707E+04  0.27971252141E+04  0.18993502929E+04 0.  0.
        2    1    3    3  502    0  0.90456105219E+03  0.79219736351E+02  0.61704273609E+03  0.10978379671E+04  0.25500000920E-02 0.  1.
       -2    1    3    3    0  502 -0.90456105219E+03 -0.79219736351E+02  0.14363393346E+04  0.16992872471E+04  0.25500000920E-02 0. -1.
</event>
<event>
 5   0  0.3236653E-06  0.1900079E+04  0.7818609E-02  0.8654817E-01
       -1   -1    0    0    0  501  0.00000000000E+00  0.00000000000E+00  0.60937237828E+03  0.60937237830E+03  0.50400001928E-02 0.  1.
        1   -1    0    0  501    0  0.00000000000E+00  0.00000000000E+00 -0.14811552210E+04  0.14811552210E+04  0.50400001928E-02 0. -1.
    10030    2    1    2    0    0  0.00000000000E+00  0.00000000000E+00 -0.87178284274E+03  0.20905275993E+04  0.19000790296E+04 0.  0.
        3    1    3    3  502    0 -0.31825808798E+03  0.88914666190E+03 -0.32205557320E+03  0.99779246307E+03  0.10100000352E+00 0. -1.
       -3    1    3    3    0  502  0.31825808798E+03 -0.88914666190E+03 -0.54972726954E+03  0.10927351363E+04  0.10100000352E+00 0.  1.
</event>
<event>
 5   0  0.3495279E-06  0.1898622E+04  0.7818609E-02  0.8655542E-01
        1   -1    0    0  501    0  0.00000000000E+00  0.00000000000E+00  0.92144913971E+03  0.92144913973E+03  0.50400001928E-02 0. -1.
       -1   -1    0    0    0  501  0.00000000000E+00  0.00000000000E+00 -0.97801562899E+03  0.97801562900E+03  0.50400001928E-02 0.  1.
    10030    2    1    2    0    0  0.00000000000E+00  0.00000000000E+00 -0.56566489278E+02  0.18994647687E+04  0.18986223005E+04 0.  0.
        2    1    3    3  502    0  0.89962308219E+02 -0.94480358064E+03 -0.49379020847E+02  0.95036062134E+03  0.25500000920E-02 0. -1.
       -2    1    3    3    0  502 -0.89962308219E+02  0.94480358064E+03 -0.71874684306E+01  0.94910414739E+03  0.25500000920E-02 0.  1.
</event>
<event>
 5   0  0.6984466E-06  0.1900003E+04  0.7818609E-02  0.8654855E-01
       -2   -1    0    0    0  501  0.00000000000E+00  0.00000000000E+00  0.83597192462E+03  0.83597192463E+03  0.25500000920E-02 0.  1.
        2   -1    0    0  501    0  0.00000000000E+00  0.00000000000E+00 -0.10795845832E+04  0.10795845832E+04  0.25500000920E-02 0. -1.
    10030    2    1    2    0    0  0.00000000000E+00  0.00000000000E+00 -0.24361265856E+03  0.19155565078E+04  0.19000025282E+04 0.  0.
        2    1    3    3  502    0 -0.45023907943E+03  0.83653126062E+03 -0.12343920207E+03  0.95798591600E+03  0.25500000920E-02 0. -1.
       -2    1    3    3    0  502  0.45023907943E+03 -0.83653126062E+03 -0.12017345648E+03  0.95757059181E+03  0.25500000920E-02 0.  1.
</event>
<event>
 5   0  0.6984466E-06  0.1900367E+04  0.7818609E-02  0.8654673E-01
        2   -1    0    0  501    0  0.00000000000E+00  0.00000000000E+00  0.12214279219E+04  0.12214279219E+04  0.25500000920E-02 0.  1.
       -2   -1    0    0    0  501  0.00000000000E+00  0.00000000000E+00 -0.73917510853E+03  0.73917510853E+03  0.25500000920E-02 0. -1.
    10030    2    1    2    0    0  0.00000000000E+00  0.00000000000E+00  0.48225281334E+03  0.19606030304E+04  0.19003674557E+04 0.  0.
        2    1    3    3  502    0 -0.72732042373E+03  0.51598289328E+03  0.57957292242E+03  0.10635497719E+04  0.25500000920E-02 0. -1.
       -2    1    3    3    0  502  0.72732042373E+03 -0.51598289328E+03 -0.97320109084E+02  0.89705325849E+03  0.25500000920E-02 0.  1.
</event>
<event>
 5   0  0.6862201E-06  0.1902089E+04  0.7818609E-02  0.8653817E-01
        2   -1    0    0  501    0  0.00000000000E+00  0.00000000000E+00  0.10522137733E+04  0.10522137733E+04  0.25500000920E-02 0. -1.
       -2   -1    0    0    0  501  0.00000000000E+00  0.00000000000E+00 -0.85960288694E+03  0.85960288695E+03  0.25500000920E-02 0.  1.
    10030    2    1    2    0    0  0.00000000000E+00  0.00000000000E+00  0.19261088636E+03  0.19118166603E+04  0.19020893746E+04 0.  0.
        3    1    3    3  502    0 -0.47178648917E+03  0.56329574654E+03  0.70321571359E+03  0.10170530662E+04  0.10100000352E+00 0. -1.
       -3    1    3    3    0  502  0.47178648917E+03 -0.56329574654E+03 -0.51060482723E+03  0.89476359405E+03  0.10100000352E+00 0.  1.
</event>
<event>
 5   0  0.3398807E-06  0.1898910E+04  0.7818609E-02  0.8655399E-01
       -1   -1    0    0    0  501  0.00000000000E+00  0.00000000000E+00  0.10270199266E+04  0.10270199266E+04  0.50400001928E-02 0. -1.
        1   -1    0    0  501    0  0.00000000000E+00  0.00000000000E+00 -0.87774796538E+03  0.87774796540E+03  0.50400001928E-02 0.  1.
    10030    2    1    2    0    0  0.00000000000E+00  0.00000000000E+00  0.14927196119E+03  0.19047678920E+04  0.18989098462E+04 0.  0.
        1    1    3    3  502    0  0.40578659463E+03 -0.54954798137E+03  0.73606300774E+03  0.10042183506E+04  0.50400001928E-02 0. -1.
       -1    1    3    3    0  502 -0.40578659463E+03  0.54954798137E+03 -0.58679104655E+03  0.90054954142E+03  0.50400001928E-02 0.  1.
</event>
<event>
 5   0  0.3495279E-06  0.1903040E+04  0.7818609E-02  0.8653345E-01
       -1   -1    0    0    0  501  0.00000000000E+00  0.00000000000E+00  0.11398773112E+04  0.11398773112E+04  0.50400001928E-02 0.  1.
        1   -1    0    0  501    0  0.00000000000E+00  0.00000000000E+00 -0.79428750346E+03  0.79428750348E+03  0.50400001928E-02 0. -1.
    10030    2    1    2    0    0  0.00000000000E+00  0.00000000000E+00  0.34558980769E+03  0.19341648146E+04  0.19030399930E+04 0.  0.
        2    1    3    3  502    0 -0.79516801980E+02  0.69130960132E+03  0.83237616036E+03  0.10849340805E+04  0.25500000920E-02 0. -1.
       -2    1    3    3    0  502  0.79516801980E+02 -0.69130960132E+03 -0.48678635267E+03  0.84923073415E+03  0.25500000920E-02 0.  1.
</event>
<event>
 5   0  0.3495279E-06  0.1900254E+04  0.7818609E-02  0.8654730E-01
       -1   -1    0    0    0  501  0.00000000000E+00  0.00000000000E+00  0.14413813205E+04  0.14413813205E+04  0.50400001928E-02 0. -1.
        1   -1    0    0  501    0  0.00000000000E+00  0.00000000000E+00 -0.62630260716E+03  0.62630260718E+03  0.50400001928E-02 0.  1.
    10030    2    1    2    0    0  0.00000000000E+00  0.00000000000E+00  0.81507871334E+03  0.20676839277E+04  0.19002535399E+04 0.  0.
        2    1    3    3  502    0  0.10635714516E+03  0.94415422905E+03  0.40901068395E+03  0.10344219594E+04  0.25500000920E-02 0.  1.
       -2    1    3    3    0  502 -0.10635714516E+03 -0.94415422905E+03  0.40606802938E+03  0.10332619683E+04  0.25500000920E-02 0. -1.
</event>
<event>
 5   0  0.6862201E-06  0.1899749E+04  0.7818609E-02  0.8654981E-01
        2   -1    0    0  501    0  0.00000000000E+00  0.00000000000E+00  0.10537347148E+04  0.10537347148E+04  0.25500000920E-02 0.  1.
       -2   -1    0    0    0  501  0.00000000000E+00  0.00000000000E+00 -0.85625110361E+03  0.85625110361E+03  0.25500000920E-02 0. -1.
    10030    2    1    2    0    0  0.00000000000E+00  0.00000000000E+00  0.19748361118E+03  0.19099858184E+04  0.18997489439E+04 0.  0.
        3    1    3    3  502    0  0.65087980417E+03  0.27305436650E+03  0.73782286245E+03  0.10210709050E+04  0.10100000352E+00 0.  1.
       -3    1    3    3    0  502 -0.65087980417E+03 -0.27305436650E+03 -0.54033925128E+03  0.88891491337E+03  0.10100000352E+00 0. -1.
</event>
<event>
 5   0  0.6984466E-06  0.1900138E+04  0.7818609E-02  0.8654788E-01
       -2   -1    0    0    0  501  0.00000000000E+00  0.00000000000E+00  0.94687921599E+03  0.94687921599E+03  0.25500000920E-02 0.  1.
        2   -1    0    0  501    0  0.00000000000E+00  0.00000000000E+00 -0.95326942644E+03  0.95326942644E+03  0.25500000920E-02 0. -1.
    10030    2    1    2    0    0  0.00000000000E+00  0.00000000000E+00 -0.63902104483E+01  0.19001486424E+04  0.19001378972E+04 0.  0.
        2    1    3    3  502    0  0.52599303774E+03  0.47910167567E+03  0.62643049724E+03  0.94795688682E+03  0.25500000920E-02 0.  1.
       -2    1    3    3    0  502 -0.52599303774E+03 -0.47910167567E+03 -0.63282070769E+03  0.95219175562E+03  0.25500000920E-02 0. -1.
</event>
<event>
 5   0  0.6984466E-06  0.1900673E+04  0.7818609E-02  0.8654522E-01
        2   -1    0    0  501    0  0.00000000000E+00  0.00000000000E+00  0.13075690213E+04  0.13075690213E+04  0.25500000920E-02 0.  1.
       -2   -1    0    0    0  501  0.00000000000E+00  0.00000000000E+00 -0.69070107139E+03  0.69070107140E+03  0.25500000920E-02 0. -1.
    10030    2    1    2    0    0  0.00000000000E+00  0.00000000000E+00  0.61686794987E+03  0.19982700927E+04  0.19006728534E+04 0.  0.
        2    1    3    3  502    0 -0.74317899746E+03 -0.43459976445E+03 -0.11465697402E+03  0.86852645280E+03  0.25500000920E-02 0. -1.
       -2    1    3    3    0  502  0.74317899746E+03  0.43459976445E+03  0.73152492389E+03  0.11297436399E+04  0.25500000920E-02 0.  1.
</event>
<event>
 5   0  0.3379108E-06  0.1898971E+04  0.7818609E-02  0.8655369E-01
        1   -1    0    0  501    0  0.00000000000E+00  0.00000000000E+00  0.12956951237E+04  0.12956951237E+04  0.50400001928E-02 0.  1.
       -1   -1    0    0    0  501  0.00000000000E+00  0.00000000000E+00 -0.69578294492E+03  0.69578294494E+03  0.50400001928E-02 0. -1.
    10030    2    1    2    0    0  0.00000000000E+00  0.00000000000E+00  0.59991217880E+03  0.19914780687E+04  0.18989708465E+04 0.  0.
        4    1    3    3  502    0  0.11676010595E+03 -0.26214270283E+02 -0.68784205104E+03  0.69817505712E+03  0.12699999809E+01 0. -1.
       -4    1    3    3    0  502 -0.11676010595E+03  0.26214270283E+02  0.12877542298E+04  0.12933030115E+04  0.12699999809E+01 0.  1.
</event>
<event>
 5   0  0.3211263E-06  0.1900220E+04  0.7818609E-02  0.8654747E-01
        1   -1    0    0  501    0  0.00000000000E+00  0.00000000000E+00  0.83813091020E+03  0.83813091022E+03  0.50400001928E-02 0. -1.
       -1   -1    0    0    0  501  0.00000000000E+00  0.00000000000E+00 -0.10770504971E+04  0.10770504971E+04  0.50400001928E-02 0.  1.
    10030    2    1    2    0    0  0.00000000000E+00  0.00000000000E+00 -0.23891958686E+03  0.19151814073E+04  0.19002203172E+04 0.  0.
        5    1    3    3  502    0  0.60757468507E+03  0.38633581840E+03  0.50532808830E+03  0.87964818498E+03  0.46999998093E+01 0. -1.
       -5    1    3    3    0  502 -0.60757468507E+03 -0.38633581840E+03 -0.74424767516E+03  0.10355332223E+04  0.46999998093E+01 0.  1.
</event>
<event>
 5   0  0.6870370E-06  0.1899636E+04  0.7818609E-02  0.8655038E-01
        2   -1    0    0  501    0  0.00000000000E+00  0.00000000000E+00  0.10576369626E+04  0.10576369627E+04  0.25500000920E-02 0.  1.
       -2   -1    0    0    0  501  0.00000000000E+00  0.00000000000E+00 -0.85299019374E+03  0.85299019374E+03  0.25500000920E-02 0. -1.
    10030    2    1    2    0    0  0.00000000000E+00  0.00000000000E+00  0.20464676891E+03  0.19106271564E+04  0.18996357100E+04 0.  0.
        1    1    3    3  502    0  0.15681302577E+03  0.76953546458E+03  0.63962293339E+03  0.10128635906E+04  0.50400001928E-02 0.  1.
       -1    1    3    3    0  502 -0.15681302577E+03 -0.76953546458E+03 -0.43497616448E+03  0.89776356575E+03  0.50400001928E-02 0. -1.
</event>
<event>
 5   0  0.6862201E-06  0.1901112E+04  0.7818609E-02  0.8654303E-01
       -2   -1    0    0    0  501  0.00000000000E+00  0.00000000000E+00  0.41206027134E+03  0.41206027135E+03  0.25500000920E-02 0.  1.
        2   -1    0    0  501    0  0.00000000000E+00  0.00000000000E+00 -0.21927779123E+04  0.21927779123E+04  0.25500000920E-02 0. -1.
    10030    2    1    2    0    0  0.00000000000E+00  0.00000000000E+00 -0.17807176410E+04  0.26048381837E+04  0.19011119499E+04 0.  0.
        3    1    3    3  502    0 -0.58341899463E+03 -0.49479023358E+02  0.13564799564E+03  0.60102103621E+03  0.10100000352E+00 0.  1.
       -3    1    3    3    0  502  0.58341899463E+03  0.49479023358E+02 -0.19163656366E+04  0.20038171475E+04  0.10100000352E+00 0. -1.
</event>
<event>
 5   0  0.3495279E-06  0.1899989E+04  0.7818609E-02  0.8654862E-01
       -1   -1    0    0    0  501  0.00000000000E+00  0.00000000000E+00  0.62513797459E+03  0.62513797461E+03  0.50400001928E-02 0.  1.
        1   -1    0    0  501    0  0.00000000000E+00  0.00000000000E+00 -0.14436641376E+04  0.14436641376E+04  0.50400001928E-02 0. -1.
    10030    2    1    2    0    0  0.00000000000E+00  0.00000000000E+00 -0.81852616304E+03  0.20688021123E+04  0.18999887105E+04 0.  0.
        2    1    3    3  502    0  0.19184236730E+03  0.48182247443E+03  0.45740442018E+03  0.69150212897E+03  0.25500000920E-02 0.  1.
       -2    1    3    3    0  502 -0.19184236730E+03 -0.48182247443E+03 -0.12759305832E+04  0.13772999833E+04  0.25500000920E-02 0. -1.
</event>
<event>
 5   0  0.6862201E-06  0.1899222E+04  0.7818609E-02  0.8655244E-01
        2   -1    0    0  501    0  0.00000000000E+00  0.00000000000E+00  0.19984221236E+04  0.19984221236E+04  0.25500000920E-02 0. -1.
       -2   -1    0    0    0  501  0.00000000000E+00  0.00000000000E+00 -0.45123655215E+03  0.45123655216E+03  0.25500000920E-02 0.  1.
    10030    2    1    2    0    0  0.00000000000E+00  0.00000000000E+00  0.15471855714E+04  0.24496586757E+04  0.18992220605E+04 0.  0.
        3    1    3    3  502    0 -0.19625729034E+03  0.80291765505E+03  0.13766000395E+04  0.16056840797E+04  0.10100000352E+00 0. -1.
       -3    1    3    3    0  502  0.19625729034E+03 -0.80291765505E+03  0.17058553188E+03  0.84397459600E+03  0.10100000352E+00 0.  1.
</event>
<event>
 5   0  0.6984466E-06  0.1900117E+04  0.7818609E-02  0.8654798E-01
        2   -1    0    0  501    0  0.00000000000E+00  0.00000000000E+00  0.24300531739E+04  0.24300531739E+04  0.25500000920E-02 0. -1.
       -2   -1    0    0    0  501  0.00000000000E+00  0.00000000000E+00 -0.37143661928E+03  0.37143661929E+03  0.25500000920E-02 0.  1.
    10030    2    1    2    0    0  0.00000000000E+00  0.00000000000E+00  0.20586165546E+04  0.28014897932E+04  0.19001165602E+04 0.  0.
        2    1    3    3  502    0 -0.77542920099E+03 -0.47857694750E+03  0.14257059328E+04  0.16920294759E+04  0.25500000920E-02 0. -1.
       -2    1    3    3    0  502  0.77542920099E+03  0.47857694750E+03  0.63291062180E+03  0.11094603173E+04  0.25500000920E-02 0.  1.
</event>
<event>
 5   0  0.6862201E-06  0.1900249E+04  0.7818609E-02  0.8654733E-01
       -2   -1    0    0    0  501  0.00000000000E+00  0.00000000000E+00  0.92561793313E+03  0.92561793313E+03  0.25500000920E-02 0.  1.
        2   -1    0    0  501    0  0.00000000000E+00  0.00000000000E+00 -0.97527955802E+03  0.97527955802E+03  0.25500000920E-02 0. -1.
    10030    2    1    2    0    0  0.00000000000E+00  0.00000000000E+00 -0.49661624894E+02  0.19008974912E+04  0.19002486666E+04 0.  0.
        3    1    3    3  502    0  0.91894039307E+03 -0.14313940847E+03 -0.21930887511E+03  0.95552955432E+03  0.10100000352E+00 0.  1.
       -3    1    3    3    0  502 -0.91894039307E+03  0.14313940847E+03  0.16964725022E+03  0.94536793683E+03  0.10100000352E+00 0. -1.
</event>
<event>
 5   0  0.3211263E-06  0.1900136E+04  0.7818609E-02  0.8654789E-01
       -1   -1    0    0    0  501  0.00000000000E+00  0.00000000000E+00  0.69936173978E+03  0.69936173980E+03  0.50400001928E-02 0. -1.
        1   -1    0    0  501    0  0.00000000000E+00  0.00000000000E+00 -0.12906466937E+04  0.12906466937E+04  0.50400001928E-02 0.  1.
    10030    2    1    2    0    0  0.00000000000E+00  0.00000000000E+00 -0.59128495389E+03  0.19900084335E+04  0.19001356974E+04 0.  0.
        5    1    3    3  502    0 -0.25902239697E+03  0.70153697072E+03 -0.90932706357E+03  0.11773463900E+04  0.46999998093E+01 0.  1.
       -5    1    3    3    0  502  0.25902239697E+03 -0.70153697072E+03  0.31804210969E+03  0.81266204351E+03  0.46999998093E+01 0. -1.
</event>
<event>
 5   0  0.3211263E-06  0.1898640E+04  0.7818609E-02  0.8655534E-01
        1   -1    0    0  501    0  0.00000000000E+00  0.00000000000E+00  0.10094516621E+04  0.10094516622E+04  0.50400001928E-02 0.  1.
       -1   -1    0    0    0  501  0.00000000000E+00  0.00000000000E+00 -0.89277048018E+03  0.89277048019E+03  0.50400001928E-02 0. -1.
    10030    2    1    2    0    0  0.00000000000E+00  0.00000000000E+00  0.11668118197E+03  0.19022221423E+04  0.18986401925E+04 0.  0.
        5    1    3    3  502    0 -0.51612386396E+03  0.81057204821E+01 -0.73986630061E+03  0.90214953220E+03  0.46999998093E+01 0. -1.
       -5    1    3    3    0  502  0.51612386396E+03 -0.81057204821E+01  0.85654748258E+03  0.10000726102E+04  0.46999998093E+01 0.  1.
</event>
<event>
 5   0  0.6870370E-06  0.1899992E+04  0.7818609E-02  0.8654860E-01
       -2   -1    0    0    0  501  0.00000000000E+00  0.00000000000E+00  0.88936643692E+03  0.88936643692E+03  0.25500000920E-02 0.  1.
        2   -1    0    0  501    0  0.00000000000E+00  0.00000000000E+00 -0.10147592156E+04  0.10147592156E+04  0.25500000920E-02 0. -1.
    10030    2    1    2    0    0  0.00000000000E+00  0.00000000000E+00 -0.12539277869E+03  0.19041256525E+04  0.18999924083E+04 0.  0.
        1    1    3    3  502    0  0.42340367190E+03  0.70568589219E+03  0.41291956371E+03  0.92074199097E+03  0.50400001928E-02 0. -1.
       -1    1    3    3    0  502 -0.42340367190E+03 -0.70568589219E+03 -0.53831234240E+03  0.98338366156E+03  0.50400001928E-02 0.  1.
</event>
<event>
 5   0  0.3379108E-06  0.1899832E+04  0.7818609E-02  0.8654940E-01
        1   -1    0    0  501    0  0.00000000000E+00  0.00000000000E+00  0.12683478692E+04  0.12683478692E+04  0.50400001928E-02 0. -1.
       -1   -1    0    0    0  501  0.00000000000E+00  0.00000000000E+00 -0.71143003235E+03  0.71143003237E+03  0.50400001928E-02 0.  1.
    10030    2    1    2    0    0  0.00000000000E+00  0.00000000000E+00  0.55691783685E+03  0.19797779016E+04  0.18998323775E+04 0.  0.
        4    1    3    3  502    0 -0.28999075104E+03 -0.59497264798E+03  0.98849122516E+03  0.11896233028E+04  0.12699999809E+01 0. -1.
       -4    1    3    3    0  502  0.28999075104E+03  0.59497264798E+03 -0.43157338831E+03  0.79015459875E+03  0.12699999809E+01 0.  1.
</event>
<event>
 5   0  0.6984466E-06  0.1900023E+04  0.7818609E-02  0.8654845E-01
        2   -1    0    0  501    0  0.00000000000E+00  0.00000000000E+00  0.30252229358E+04  0.30252229358E+04  0.25500000920E-02 0.  1.
       -2   -1    0    0    0  501  0.00000000000E+00  0.00000000000E+00 -0.29833233417E+03  0.29833233418E+03  0.25500000920E-02 0. -1.
    10030    2    1    2    0    0  0.00000000000E+00  0.00000000000E+00  0.27268906016E+04  0.33235552700E+04  0.19000229681E+04 0.  0.
        2    1    3    3  502    0  0.31966447675E+03  0.12256499580E+02 -0.20128534574E+03  0.37795686248E+03  0.25500000920E-02 0. -1.
       -2    1    3    3    0  502 -0.31966447675E+03 -0.12256499580E+02  0.29281759474E+04  0.29455984075E+04  0.25500000920E-02 0.  1.
</event>
<event>
 5   0  0.3398807E-06  0.1901169E+04  0.7818609E-02  0.8654274E-01
        1   -1    0    0  501    0  0.00000000000E+00  0.00000000000E+00  0.11563524559E+04  0.11563524559E+04  0.50400001928E-02 0.  1.
       -1   -1    0    0    0  501  0.00000000000E+00  0.00000000000E+00 -0.78143245172E+03  0.78143245173E+03  0.50400001928E-02 0. -1.
    10030    2    1    2    0    0  0.00000000000E+00  0.00000000000E+00  0.37492000420E+03  0.19377849077E+04  0.19011694661E+04 0.  0.
        1    1    3    3  502    0  0.91260934235E+03 -0.16111048497E+03  0.40319399476E+03  0.10106323751E+04  0.50400001928E-02 0.  1.
       -1    1    3    3    0  502 -0.91260934235E+03  0.16111048497E+03 -0.28273990557E+02  0.92715253259E+03  0.50400001928E-02 0. -1.
</event>
<event>
 5   0  0.7207648E-06  0.1901563E+04  0.7818609E-02  0.8654079E-01
        2   -1    0    0  501    0  0.00000000000E+00  0.00000000000E+00  0.90781483088E+03  0.90781483088E+03  0.25500000920E-02 0.  1.
       -2   -1    0    0    0  501  0.00000000000E+00  0.00000000000E+00 -0.99578133074E+03  0.99578133074E+03  0.25500000920E-02 0. -1.
    10030    2    1    2    0    0  0.00000000000E+00  0.00000000000E+00 -0.87966499865E+02  0.19035961616E+04  0.19015625789E+04 0.  0.
        4    1    3    3  502    0 -0.24157485488E+03 -0.66148991620E+03 -0.68345910330E+03  0.98134870384E+03  0.12699999809E+01 0. -1.
       -4    1    3    3    0  502  0.24157485488E+03  0.66148991620E+03  0.59549260343E+03  0.92224745778E+03  0.12699999809E+01 0.  1.
</event>
<event>
 5   0  0.3379108E-06  0.1898935E+04  0.7818609E-02  0.8655387E-01
       -1   -1    0    0    0  501  0.00000000000E+00  0.00000000000E+00  0.92160973148E+03  0.92160973149E+03  0.50400001928E-02 0.  1.
        1   -1    0    0  501    0  0.00000000000E+00  0.00000000000E+00 -0.97816715934E+03  0.97816715936E+03  0.50400001928E-02 0. -1.
    10030    2    1    2    0    0  0.00000000000E+00  0.00000000000E+00 -0.56557427866E+02  0.18997768908E+04  0.18989348310E+04 0.  0.
        4    1    3    3  502    0 -0.58706470367E+03  0.28329735358E+03 -0.71893576944E+03  0.97044969490E+03  0.12699999809E+01 0. -1.
       -4    1    3    3    0  502  0.58706470367E+03 -0.28329735358E+03  0.66237834157E+03  0.92932719595E+03  0.12699999809E+01 0.  1.
</event>
<event>
 5   0  0.2527750E-06  0.1899610E+04  0.7818609E-02  0.8655051E-01
        4   -1    0    0  501    0  0.00000000000E+00  0.00000000000E+00  0.80275132019E+03  0.80275232480E+03  0.12699999809E+01 0.  1.
       -4   -1    0    0    0  501  0.00000000000E+00  0.00000000000E+00 -0.11237949501E+04  0.11237956677E+04  0.12699999809E+01 0. -1.
    10030    2    1    2    0    0  0.00000000000E+00  0.00000000000E+00 -0.32104362990E+03  0.19265479925E+04  0.18996100008E+04 0.  0.
        4    1    3    3  502    0  0.30016750062E+03 -0.47325519401E+03 -0.93824503734E+03  0.10928752765E+04  0.12699999809E+01 0. -1.
       -4    1    3    3    0  502 -0.30016750062E+03  0.47325519401E+03  0.61720140745E+03  0.83367271596E+03  0.12699999809E+01 0.  1.
</event>
<event>
 5   0  0.3379108E-06  0.1900014E+04  0.7818609E-02  0.8654849E-01
        1   -1    0    0  501    0  0.00000000000E+00  0.00000000000E+00  0.17511517125E+04  0.17511517125E+04  0.50400001928E-02 0. -1.
       -1   -1    0    0    0  501  0.00000000000E+00  0.00000000000E+00 -0.51538261023E+03  0.51538261026E+03  0.50400001928E-02 0.  1.
    10030    2    1    2    0    0  0.00000000000E+00  0.00000000000E+00  0.12357691023E+04  0.22665343228E+04  0.19000138321E+04 0.  0.
        4    1    3    3  502    0  0.34744866929E+03 -0.73756326528E+03  0.11995906145E+04  0.14504273175E+04  0.12699999809E+01 0.  1.
       -4    1    3    3    0  502 -0.34744866929E+03  0.73756326528E+03  0.36178487726E+02  0.81610700522E+03  0.12699999809E+01 0. -1.
</event>
<event>
 5   0  0.3211263E-06  0.1900118E+04  0.7818609E-02  0.8654797E-01
       -1   -1    0    0    0  501  0.00000000000E+00  0.00000000000E+00  0.61571111176E+03  0.61571111178E+03  0.50400001928E-02 0. -1.
        1   -1    0    0  501    0  0.00000000000E+00  0.00000000000E+00 -0.14659675650E+04  0.14659675650E+04  0.50400001928E-02 0.  1.
    10030    2    1    2    0    0  0.00000000000E+00  0.00000000000E+00 -0.85025645323E+03  0.20816786768E+04  0.19001184376E+04 0.  0.
        5    1    3    3  502    0 -0.70659057979E+03  0.63220180654E+03 -0.35902132561E+03  0.10138381399E+04  0.46999998093E+01 0. -1.
       -5    1    3    3    0  502  0.70659057979E+03 -0.63220180654E+03 -0.49123512762E+03  0.10678405369E+04  0.46999998093E+01 0.  1.
</event>
<event>
 5   0  0.6870370E-06  0.1900040E+04  0.7818609E-02  0.8654837E-01
        2   -1    0    0  501    0  0.00000000000E+00  0.00000000000E+00  0.18958744526E+04  0.18958744526E+04  0.25500000920E-02 0.  1.
       -2   -1    0    0    0  501  0.00000000000E+00  0.00000000000E+00 -0.47605356284E+03  0.47605356285E+03  0.25500000920E-02 0. -1.
    10030    2    1    2    0    0  0.00000000000E+00  0.00000000000E+00  0.14198208897E+04  0.23719280154E+04  0.19000397763E+04 0.  0.
        1    1    3    3  502    0  0.10218297441E+03 -0.16443087947E+03  0.18709891358E+04  0.18809782617E+04  0.50400001928E-02 0.  1.
       -1    1    3    3    0  502 -0.10218297441E+03  0.16443087947E+03 -0.45116824611E+03  0.49094975375E+03  0.50400001928E-02 0. -1.
</event>
<event>
 5   0  0.3236653E-06  0.1900881E+04  0.7818609E-02  0.8654418E-01
        1   -1    0    0  501    0  0.00000000000E+00  0.00000000000E+00  0.93951838319E+03  0.93951838320E+03  0.50400001928E-02 0.  1.
       -1   -1    0    0    0  501  0.00000000000E+00  0.00000000000E+00 -0.96148957650E+03  0.96148957651E+03  0.50400001928E-02 0. -1.
    10030    2    1    2    0    0  0.00000000000E+00  0.00000000000E+00 -0.21971193312E+02  0.19010079597E+04  0.19008809877E+04 0.  0.
        3    1    3    3  502    0  0.85898199028E+03 -0.71115393417E+02  0.38957787690E+03  0.94587440560E+03  0.10100000352E+00 0.  1.
       -3    1    3    3    0  502 -0.85898199028E+03  0.71115393417E+02 -0.41154907021E+03  0.95513355411E+03  0.10100000352E+00 0. -1.
</event>
<event>
 5   0  0.6870370E-06  0.1899829E+04  0.7818609E-02  0.8654941E-01
        2   -1    0    0  501    0  0.00000000000E+00  0.00000000000E+00  0.23911319422E+04  0.23911319422E+04  0.25500000920E-02 0. -1.
       -2   -1    0    0    0  501  0.00000000000E+00  0.00000000000E+00 -0.37736843655E+03  0.37736843655E+03  0.25500000920E-02 0.  1.
    10030    2    1    2    0    0  0.00000000000E+00  0.00000000000E+00  0.20137635056E+04  0.27685003787E+04  0.18998291740E+04 0.  0.
        1    1    3    3  502    0  0.62718445277E+03 -0.62238535359E+03  0.15150664287E+04  0.17538957066E+04  0.50400001928E-02 0. -1.
       -1    1    3    3    0  502 -0.62718445277E+03  0.62238535359E+03  0.49869707690E+03  0.10146046721E+04  0.50400001928E-02 0.  1.
</event>
<event>
 5   0  0.3236653E-06  0.1899013E+04  0.7818609E-02  0.8655348E-01
       -1   -1    0    0    0  501  0.00000000000E+00  0.00000000000E+00  0.79414664675E+03  0.79414664677E+03  0.50400001928E-02 0.  1.
        1   -1    0    0  501    0  0.00000000000E+00  0.00000000000E+00 -0.11352595383E+04  0.11352595383E+04  0.50400001928E-02 0. -1.
    10030    2    1    2    0    0  0.00000000000E+00  0.00000000000E+00 -0.34111289152E+03  0.19294061850E+04  0.18990129600E+04 0.  0.
        3    1    3    3  502    0 -0.81009450605E+03  0.14022538101E+01 -0.67376860289E+03  0.10536694052E+04  0.10100000352E+00 0. -1.
       -3    1    3    3    0  502  0.81009450605E+03 -0.14022538101E+01  0.33265571137E+03  0.87573677983E+03  0.10100000352E+00 0.  1.
</event>
<event>
 5   0  0.3211263E-06  0.1898956E+04  0.7818609E-02  0.8655376E-01
        1   -1    0    0  501    0  0.00000000000E+00  0.00000000000E+00  0.10260387341E+04  0.10260387341E+04  0.50400001928E-02 0. -1.
       -1   -1    0    0    0  501  0.00000000000E+00  0.00000000000E+00 -0.87863044840E+03  0.87863044841E+03  0.50400001928E-02 0.  1.
    10030    2    1    2    0    0  0.00000000000E+00  0.00000000000E+00  0.14740828566E+03  0.19046691825E+04  0.18989564218E+04 0.  0.
        5    1    3    3  502    0  0.62636893627E+03 -0.31110245434E+03  0.71779172952E+03  0.10021825375E+04  0.46999998093E+01 0. -1.
       -5    1    3    3    0  502 -0.62636893627E+03  0.31110245434E+03 -0.57038344386E+03  0.90248664502E+03  0.46999998093E+01 0.  1.
</event>
<event>
 5   0  0.7207648E-06  0.1900500E+04  0.7818609E-02  0.8654608E-01
       -2   -1    0    0    0  501  0.00000000000E+00  0.00000000000E+00  0.89652697712E+03  0.89652697713E+03  0.25500000920E-02 0.  1.
        2   -1    0    0  501    0  0.00000000000E+00  0.00000000000E+00 -0.10071923359E+04  0.10071923359E+04  0.25500000920E-02 0. -1.
    10030    2    1    2    0    0  0.00000000000E+00  0.00000000000E+00 -0.11066535879E+03  0.19037193130E+04  0.19005000398E+04 0.  0.
        4    1    3    3  502    0 -0.60769356295E+03 -0.47975596993E+03 -0.60718896380E+03  0.98393968707E+03  0.12699999809E+01 0. -1.
       -4    1    3    3    0  502  0.60769356295E+03  0.47975596993E+03  0.49652360500E+03  0.91977962598E+03  0.12699999809E+01 0.  1.
</event>
<event>
 5   0  0.6984466E-06  0.1899645E+04  0.7818609E-02  0.8655033E-01
        2   -1    0    0  501    0  0.00000000000E+00  0.00000000000E+00  0.29014819092E+04  0.29014819092E+04  0.25500000920E-02 0.  1.
       -2   -1    0    0    0  501  0.00000000000E+00  0.00000000000E+00 -0.31093186058E+03  0.31093186059E+03  0.25500000920E-02 0. -1.
    10030    2    1    2    0    0  0.00000000000E+00  0.00000000000E+00  0.25905500486E+04  0.32124137698E+04  0.18996454074E+04 0.  0.
        2    1    3    3  502    0  0.39748630639E+03  0.82720891387E+03  0.17091295979E+04  0.19399468893E+04  0.25500000920E-02 0.  1.
       -2    1    3    3    0  502 -0.39748630639E+03 -0.82720891387E+03  0.88142045069E+03  0.12724668805E+04  0.25500000920E-02 0. -1.
</event>
<event>
 5   0  0.3379108E-06  0.1899109E+04  0.7818609E-02  0.8655300E-01
        1   -1    0    0  501    0  0.00000000000E+00  0.00000000000E+00  0.10003623195E+04  0.10003623196E+04  0.50400001928E-02 0.  1.
       -1   -1    0    0    0  501  0.00000000000E+00  0.00000000000E+00 -0.90132683027E+03  0.90132683029E+03  0.50400001928E-02 0. -1.
    10030    2    1    2    0    0  0.00000000000E+00  0.00000000000E+00  0.99035489278E+02  0.19016891498E+04  0.18991086316E+04 0.  0.
        4    1    3    3  502    0  0.22418476570E+03 -0.33772295759E+03 -0.81033185500E+03  0.90606563415E+03  0.12699999809E+01 0. -1.
       -4    1    3    3    0  502 -0.22418476570E+03  0.33772295759E+03  0.90936734428E+03  0.99562351569E+03  0.12699999809E+01 0.  1.
</event>
<event>
 5   0  0.7577180E-06  0.1904249E+04  0.7818609E-02  0.8652744E-01
       -2   -1    0    0    0  501  0.00000000000E+00  0.00000000000E+00  0.51620810096E+03  0.51620810097E+03  0.25500000920E-02 0.  1.
        2   -1    0    0  501    0  0.00000000000E+00  0.00000000000E+00 -0.17561551494E+04  0.17561551494E+04  0.25500000920E-02 0. -1.
    10030    2    1    2    0    0  0.00000000000E+00  0.00000000000E+00 -0.12399470485E+04  0.22723632504E+04  0.19042494739E+04 0.  0.
        5    1    3    3  502    0  0.75573198995E+03  0.34240362081E+03 -0.62621126815E+02  0.83205443074E+03  0.46999998093E+01 0.  1.
       -5    1    3    3    0  502 -0.75573198995E+03 -0.34240362081E+03 -0.11773259216E+04  0.14403088196E+04  0.46999998093E+01 0. -1.
</event>
<event>
 5   0  0.3398807E-06  0.1900575E+04  0.7818609E-02  0.8654570E-01
        1   -1    0    0  501    0  0.00000000000E+00  0.00000000000E+00  0.16090149983E+04  0.16090149983E+04  0.50400001928E-02 0.  1.
       -1   -1    0    0    0  501  0.00000000000E+00  0.00000000000E+00 -0.56124169267E+03  0.56124169270E+03  0.50400001928E-02 0. -1.
    10030    2    1    2    0    0  0.00000000000E+00  0.00000000000E+00  0.10477733057E+04  0.21702566910E+04  0.19005749669E+04 0.  0.
        1    1    3    3  502    0  0.48845692994E+03  0.36587141400E+03 -0.30789122105E+03  0.68355619229E+03  0.50400001928E-02 0. -1.
       -1    1    3    3    0  502 -0.48845692994E+03 -0.36587141400E+03  0.13556645267E+04  0.14867004988E+04  0.50400001928E-02 0.  1.
</event>
<event>
 5   0  0.7207648E-06  0.1900332E+04  0.7818609E-02  0.8654691E-01
        2   -1    0    0  501    0  0.00000000000E+00  0.00000000000E+00  0.95653386238E+03  0.95653386238E+03  0.25500000920E-02 0.  1.
       -2   -1    0    0    0  501  0.00000000000E+00  0.00000000000E+00 -0.94384049631E+03  0.94384049631E+03  0.25500000920E-02 0. -1.
    10030    2    1    2    0    0  0.00000000000E+00  0.00000000000E+00  0.12693366075E+02  0.19003743587E+04  0.19003319662E+04 0.  0.
        4    1    3    3  502    0 -0.46004534538E+03  0.12095773723E+03 -0.81619296546E+03  0.94469310560E+03  0.12699999809E+01 0. -1.
       -4    1    3    3    0  502  0.46004534538E+03 -0.12095773723E+03  0.82888633154E+03  0.95568125309E+03  0.12699999809E+01 0.  1.
</event>
<event>
 5   0  0.3495279E-06  0.1901231E+04  0.7818609E-02  0.8654244E-01
       -1   -1    0    0    0  501  0.00000000000E+00  0.00000000000E+00  0.10372348010E+04  0.10372348010E+04  0.50400001928E-02 0.  1.
        1   -1    0    0  501    0  0.00000000000E+00  0.00000000000E+00 -0.87123009577E+03  0.87123009578E+03  0.50400001928E-02 0. -1.
    10030    2    1    2    0    0  0.00000000000E+00  0.00000000000E+00  0.16600470523E+03  0.19084648968E+04  0.19012313642E+04 0.  0.
        2    1    3    3  502    0 -0.59166717499E+03 -0.14372027192E+03  0.81581042412E+03  0.10179745629E+04  0.25500000920E-02 0.  1.
       -2    1    3    3    0  502  0.59166717499E+03  0.14372027192E+03 -0.64980571889E+03  0.89049033393E+03  0.25500000920E-02 0. -1.
</event>
<event>
 5   0  0.3495279E-06  0.1899105E+04  0.7818609E-02  0.8655302E-01
        1   -1    0    0  501    0  0.00000000000E+00  0.00000000000E+00  0.56461036561E+03  0.56461036563E+03  0.50400001928E-02 0. -1.
       -1   -1    0    0    0  501  0.00000000000E+00  0.00000000000E+00 -0.15969416413E+04  0.15969416413E+04  0.50400001928E-02 0.  1.
    10030    2    1    2    0    0  0.00000000000E+00  0.00000000000E+00 -0.10323312757E+04  0.21615520069E+04  0.18991048460E+04 0.  0.
        2    1    3    3  502    0  0.71825162625E+03 -0.30479952271E+03 -0.11321192470E+04  0.13749480489E+04  0.25500000920E-02 0.  1.
       -2    1    3    3    0  502 -0.71825162625E+03  0.30479952271E+03  0.99787971291E+02  0.78660395808E+03  0.25500000920E-02 0. -1.
</event>
<event>
 5   0  0.6984466E-06  0.1902964E+04  0.7818609E-02  0.8653382E-01
        2   -1    0    0  501    0  0.00000000000E+00  0.00000000000E+00  0.90839842733E+03  0.90839842733E+03  0.25500000920E-02 0.  1.
       -2   -1    0    0    0  501  0.00000000000E+00  0.00000000000E+00 -0.99660881488E+03  0.99660881488E+03  0.25500000920E-02 0. -1.
    10030    2    1    2    0    0  0.00000000000E+00  0.00000000000E+00 -0.88210387549E+02  0.19050072422E+04  0.19029638779E+04 0.  0.
        2    1    3    3  502    0  0.89038969940E+03  0.93628232690E+02 -0.36656567677E+03  0.96743498911E+03  0.25500000920E-02 0.  1.
       -2    1    3    3    0  502 -0.89038969940E+03 -0.93628232690E+02  0.27835528922E+03  0.93757225311E+03  0.25500000920E-02 0. -1.
</event>
<event>
 5   0  0.3211263E-06  0.1900190E+04  0.7818609E-02  0.8654762E-01
        1   -1    0    0  501    0  0.00000000000E+00  0.00000000000E+00  0.11402802354E+04  0.11402802354E+04  0.50400001928E-02 0. -1.
       -1   -1    0    0    0  501  0.00000000000E+00  0.00000000000E+00 -0.79163051263E+03  0.79163051265E+03  0.50400001928E-02 0.  1.
    10030    2    1    2    0    0  0.00000000000E+00  0.00000000000E+00  0.34864972276E+03  0.19319107481E+04  0.19001901245E+04 0.  0.
        5    1    3    3  502    0 -0.70945220777E+03 -0.61342633637E+03  0.19987481924E+02  0.93810228370E+03  0.46999998093E+01 0. -1.
       -5    1    3    3    0  502  0.70945220777E+03  0.61342633637E+03  0.32866224084E+03  0.99380846435E+03  0.46999998093E+01 0.  1.
</event>
<event>
 5   0  0.3398807E-06  0.1899803E+04  0.7818609E-02  0.8654955E-01
       -1   -1    0    0    0  501  0.00000000000E+00  0.00000000000E+00  0.63424667198E+03  0.63424667200E+03  0.50400001928E-02 0. -1.
        1   -1    0    0  501    0  0.00000000000E+00  0.00000000000E+00 -0.14226523780E+04  0.14226523780E+04  0.50400001928E-02 0.  1.
    10030    2    1    2    0    0  0.00000000000E+00  0.00000000000E+00 -0.78840570605E+03  0.20568990500E+04  0.18998026594E+04 0.  0.
        1    1    3    3  502    0  0.53699807093E+03 -0.54181151749E+03  0.21862878100E+03  0.79355226203E+03  0.50400001928E-02 0. -1.
       -1    1    3    3    0  502 -0.53699807093E+03  0.54181151749E+03 -0.10070344871E+04  0.12633467880E+04  0.50400001928E-02 0.  1.
</event>
<event>
 5   0  0.3211263E-06  0.1900045E+04  0.7818609E-02  0.8654834E-01
        1   -1    0    0  501    0  0.00000000000E+00  0.00000000000E+00  0.87053119068E+03  0.87053119069E+03  0.50400001928E-02 0. -1.
       -1   -1    0    0    0  501  0.00000000000E+00  0.00000000000E+00 -0.10367719493E+04  0.10367719493E+04  0.50400001928E-02 0.  1.
    10030    2    1    2    0    0  0.00000000000E+00  0.00000000000E+00 -0.16624075864E+03  0.19073031400E+04  0.19000445463E+04 0.  0.
        5    1    3    3  502    0 -0.69942741684E+03  0.55409522364E+03 -0.41040272226E+03  0.98217753625E+03  0.46999998093E+01 0.  1.
       -5    1    3    3    0  502  0.69942741684E+03 -0.55409522364E+03  0.24416196361E+03  0.92512560377E+03  0.46999998093E+01 0. -1.
</event>
<event>
 5   0  0.6984466E-06  0.1899946E+04  0.7818609E-02  0.8654883E-01
        2   -1    0    0  501    0  0.00000000000E+00  0.00000000000E+00  0.14023219282E+04  0.14023219282E+04  0.25500000920E-02 0.  1.
       -2   -1    0    0    0  501  0.00000000000E+00  0.00000000000E+00 -0.64353873585E+03  0.64353873586E+03  0.25500000920E-02 0. -1.
    10030    2    1    2    0    0  0.00000000000E+00  0.00000000000E+00  0.75878319236E+03  0.20458606641E+04  0.18999457686E+04 0.  0.
        2    1    3    3  502    0 -0.15962870695E+03  0.31210726270E+03  0.13301245909E+04  0.13755448720E+04  0.25500000920E-02 0.  1.
       -2    1    3    3    0  502  0.15962870695E+03 -0.31210726270E+03 -0.57134139851E+03  0.67031579212E+03  0.25500000920E-02 0. -1.
</event>
<event>
 5   0  0.6984466E-06  0.1900183E+04  0.7818609E-02  0.8654765E-01
       -2   -1    0    0    0  501  0.00000000000E+00  0.00000000000E+00  0.66069638990E+03  0.66069638990E+03  0.25500000920E-02 0. -1.
        2   -1    0    0  501    0  0.00000000000E+00  0.00000000000E+00 -0.13662458451E+04  0.13662458451E+04  0.25500000920E-02 0.  1.
    10030    2    1    2    0    0  0.00000000000E+00  0.00000000000E+00 -0.70554945520E+03  0.20269422350E+04  0.19001828308E+04 0.  0.
        2    1    3    3  502    0  0.85279021004E+03  0.25889767634E+03 -0.15786129339E+01  0.89122479835E+03  0.25500000920E-02 0. -1.
       -2    1    3    3    0  502 -0.85279021004E+03 -0.25889767634E+03 -0.70397084226E+03  0.11357174367E+04  0.25500000920E-02 0.  1.
</event>
<event>
 5   0  0.3398807E-06  0.1899796E+04  0.7818609E-02  0.8654958E-01
        1   -1    0    0  501    0  0.00000000000E+00  0.00000000000E+00  0.16107824110E+04  0.16107824110E+04  0.50400001928E-02 0.  1.
       -1   -1    0    0    0  501  0.00000000000E+00  0.00000000000E+00 -0.56016665667E+03  0.56016665669E+03  0.50400001928E-02 0. -1.
    10030    2    1    2    0    0  0.00000000000E+00  0.00000000000E+00  0.10506157544E+04  0.21709490677E+04  0.18997964079E+04 0.  0.
        1    1    3    3  502    0  0.57344905616E+03  0.10179555873E+03 -0.33219484344E+03  0.67049203561E+03  0.50400001928E-02 0. -1.
       -1    1    3    3    0  502 -0.57344905616E+03 -0.10179555873E+03  0.13828105978E+04  0.15004570321E+04  0.50400001928E-02 0.  1.
</event>
<event>
 5   0  0.6862201E-06  0.1899630E+04  0.7818609E-02  0.8655040E-01
       -2   -1    0    0    0  501  0.00000000000E+00  0.00000000000E+00  0.79559722068E+03  0.79559722069E+03  0.25500000920E-02 0.  1.
        2   -1    0    0  501    0  0.00000000000E+00  0.00000000000E+00 -0.11339265961E+04  0.11339265961E+04  0.25500000920E-02 0. -1.
    10030    2    1    2    0    0  0.00000000000E+00  0.00000000000E+00 -0.33832937545E+03  0.19295238168E+04  0.18996303307E+04 0.  0.
        3    1    3    3  502    0  0.65044546141E+03 -0.10604250377E+03  0.52557569268E+03  0.84294372874E+03  0.10100000352E+00 0.  1.
       -3    1    3    3    0  502 -0.65044546141E+03  0.10604250377E+03 -0.86390506813E+03  0.10865800881E+04  0.10100000352E+00 0. -1.
</event>
<event>
 5   0  0.6862201E-06  0.1900321E+04  0.7818609E-02  0.8654697E-01
       -2   -1    0    0    0  501  0.00000000000E+00  0.00000000000E+00  0.51600051949E+03  0.51600051950E+03  0.25500000920E-02 0.  1.
        2   -1    0    0  501    0  0.00000000000E+00  0.00000000000E+00 -0.17496202090E+04  0.17496202090E+04  0.25500000920E-02 0. -1.
    10030    2    1    2    0    0  0.00000000000E+00  0.00000000000E+00 -0.12336196895E+04  0.22656207285E+04  0.19003209589E+04 0.  0.
        3    1    3    3  502    0 -0.23064257958E+03  0.77704730189E+03 -0.12079042652E+04  0.14546584592E+04  0.10100000352E+00 0.  1.
       -3    1    3    3    0  502  0.23064257958E+03 -0.77704730189E+03 -0.25715424276E+02  0.81096226924E+03  0.10100000352E+00 0. -1.
</event>
<event>
 5   0  0.7207648E-06  0.1900112E+04  0.7818609E-02  0.8654801E-01
       -2   -1    0    0    0  501  0.00000000000E+00  0.00000000000E+00  0.43488926317E+03  0.43488926318E+03  0.25500000920E-02 0. -1.
        2   -1    0    0  501    0  0.00000000000E+00  0.00000000000E+00 -0.20754853910E+04  0.20754853910E+04  0.25500000920E-02 0.  1.
    10030    2    1    2    0    0  0.00000000000E+00  0.00000000000E+00 -0.16405961278E+04  0.25103746542E+04  0.19001119045E+04 0.  0.
        4    1    3    3  502    0 -0.43135511918E+02  0.48049985583E+03 -0.19016141268E+04  0.19618559284E+04  0.12699999809E+01 0.  1.
       -4    1    3    3    0  502  0.43135511918E+02 -0.48049985583E+03  0.26101799894E+03  0.54851872577E+03  0.12699999809E+01 0. -1.
</event>
<event>
 5   0  0.3379108E-06  0.1899821E+04  0.7818609E-02  0.8654945E-01
        1   -1    0    0  501    0  0.00000000000E+00  0.00000000000E+00  0.31364058643E+04  0.31364058643E+04  0.50400001928E-02 0.  1.
       -1   -1    0    0    0  501  0.00000000000E+00  0.00000000000E+00 -0.28769564396E+03  0.28769564401E+03  0.50400001928E-02 0. -1.
    10030    2    1    2    0    0  0.00000000000E+00  0.00000000000E+00  0.28487102203E+04  0.34241015083E+04  0.18998213652E+04 0.  0.
        4    1    3    3  502    0  0.11529170997E+03 -0.84444328142E+03  0.21803712012E+04  0.23410247376E+04  0.12699999809E+01 0.  1.
       -4    1    3    3    0  502 -0.11529170997E+03  0.84444328142E+03  0.66833901910E+03  0.10830767707E+04  0.12699999809E+01 0. -1.
</event>
<event>
 5   0  0.3379108E-06  0.1900970E+04  0.7818609E-02  0.8654374E-01
        1   -1    0    0  501    0  0.00000000000E+00  0.00000000000E+00  0.12056641790E+04  0.12056641790E+04  0.50400001928E-02 0. -1.
       -1   -1    0    0    0  501  0.00000000000E+00  0.00000000000E+00 -0.74931446986E+03  0.74931446988E+03  0.50400001928E-02 0.  1.
    10030    2    1    2    0    0  0.00000000000E+00  0.00000000000E+00  0.45634970909E+03  0.19549786488E+04  0.19009698736E+04 0.  0.
        4    1    3    3  502    0  0.88727852043E+03  0.17367155902E+03  0.52975547663E+03  0.10478871414E+04  0.12699999809E+01 0. -1.
       -4    1    3    3    0  502 -0.88727852043E+03 -0.17367155902E+03 -0.73405767540E+02  0.90709150742E+03  0.12699999809E+01 0.  1.
</event>
<event>
 5   0  0.7577180E-06  0.1899962E+04  0.7818609E-02  0.8654875E-01
        2   -1    0    0  501    0  0.00000000000E+00  0.00000000000E+00  0.13069793200E+04  0.13069793200E+04  0.25500000920E-02 0. -1.
       -2   -1    0    0    0  501  0.00000000000E+00  0.00000000000E+00 -0.69049628127E+03  0.69049628127E+03  0.25500000920E-02 0.  1.
    10030    2    1    2    0    0  0.00000000000E+00  0.00000000000E+00  0.61648303869E+03  0.19974756012E+04  0.18999624840E+04 0.  0.
        5    1    3    3  502    0 -0.73160900636E+03 -0.52550639726E+03  0.62544446898E+03  0.10966364874E+04  0.46999998093E+01 0. -1.
       -5    1    3    3    0  502  0.73160900636E+03  0.52550639726E+03 -0.89614302910E+01  0.90083911382E+03  0.46999998093E+01 0.  1.
</event>
<event>
 5   0  0.3379108E-06  0.1899698E+04  0.7818609E-02  0.8655006E-01
        1   -1    0    0  501    0  0.00000000000E+00  0.00000000000E+00  0.69257734710E+03  0.69257734712E+03  0.50400001928E-02 0. -1.
       -1   -1    0    0    0  501  0.00000000000E+00  0.00000000000E+00 -0.13026900073E+04  0.13026900073E+04  0.50400001928E-02 0.  1.
    10030    2    1    2    0    0  0.00000000000E+00  0.00000000000E+00 -0.61011266020E+03  0.19952673544E+04  0.18996984912E+04 0.  0.
        4    1    3    3  502    0  0.31632952092E+03  0.62552930708E+03  0.36817406946E+03  0.79177335023E+03  0.12699999809E+01 0. -1.
       -4    1    3    3    0  502 -0.31632952092E+03 -0.62552930708E+03 -0.97828672966E+03  0.12034940042E+04  0.12699999809E+01 0.  1.
</event>
<event>
 5   0  0.6862201E-06  0.1899672E+04  0.7818609E-02  0.8655020E-01
        2   -1    0    0  501    0  0.00000000000E+00  0.00000000000E+00  0.74331697590E+03  0.74331697591E+03  0.25500000920E-02 0.  1.
       -2   -1    0    0    0  501  0.00000000000E+00  0.00000000000E+00 -0.12137329942E+04  0.12137329942E+04  0.25500000920E-02 0. -1.
    10030    2    1    2    0    0  0.00000000000E+00  0.00000000000E+00 -0.47041601834E+03  0.19570499702E+04  0.18996719073E+04 0.  0.
        3    1    3    3  502    0 -0.49020488615E+02  0.71050720294E+03  0.41223646676E+03  0.82289878385E+03  0.10100000352E+00 0.  1.
       -3    1    3    3    0  502  0.49020488615E+02 -0.71050720294E+03 -0.88265248509E+03  0.11341511863E+04  0.10100000352E+00 0. -1.
</event>
<event>
 5   0  0.6862201E-06  0.1900338E+04  0.7818609E-02  0.8654688E-01
        2   -1    0    0  501    0  0.00000000000E+00  0.00000000000E+00  0.13260303465E+04  0.13260303465E+04  0.25500000920E-02 0.  1.
       -2   -1    0    0    0  501  0.00000000000E+00  0.00000000000E+00 -0.68084521947E+03  0.68084521948E+03  0.25500000920E-02 0. -1.
    10030    2    1    2    0    0  0.00000000000E+00  0.00000000000E+00  0.64518512700E+03  0.20068755659E+04  0.19003383091E+04 0.  0.
        3    1    3    3  502    0 -0.90265882843E+03 -0.10141869162E+03  0.28137292357E+02  0.90877413530E+03  0.10100000352E+00 0. -1.
       -3    1    3    3    0  502  0.90265882843E+03  0.10141869162E+03  0.61704783464E+03  0.10981014306E+04  0.10100000352E+00 0.  1.
</event>
<event>
 5   0  0.3379108E-06  0.1900417E+04  0.7818609E-02  0.8654649E-01
       -1   -1    0    0    0  501  0.00000000000E+00  0.00000000000E+00  0.11980913513E+04  0.11980913513E+04  0.50400001928E-02 0. -1.
        1   -1    0    0  501    0  0.00000000000E+00  0.00000000000E+00 -0.75361244846E+03  0.75361244847E+03  0.50400001928E-02 0.  1.
    10030    2    1    2    0    0  0.00000000000E+00  0.00000000000E+00  0.44447890288E+03  0.19517037998E+04  0.19004173823E+04 0.  0.
        4    1    3    3  502    0 -0.55070794852E+03  0.70539631650E+03 -0.10580489051E+03  0.90114343789E+03  0.12699999809E+01 0.  1.
       -4    1    3    3    0  502  0.55070794852E+03 -0.70539631650E+03  0.55028379339E+03  0.10505603619E+04  0.12699999809E+01 0. -1.
</event>
<event>
 5   0  0.3236653E-06  0.1895164E+04  0.7818609E-02  0.8657267E-01
        1   -1    0    0  501    0  0.00000000000E+00  0.00000000000E+00  0.72555558795E+03  0.72555558797E+03  0.50400001928E-02 0. -1.
       -1   -1    0    0    0  501  0.00000000000E+00  0.00000000000E+00 -0.12375505415E+04  0.12375505415E+04  0.50400001928E-02 0.  1.
    10030    2    1    2    0    0  0.00000000000E+00  0.00000000000E+00 -0.51199495354E+03  0.19631061295E+04  0.18951640676E+04 0.  0.
        3    1    3    3  502    0  0.23546939828E+03 -0.51196975521E+02 -0.12052821455E+04  0.12291346664E+04  0.10100000352E+00 0.  1.
       -3    1    3    3    0  502 -0.23546939828E+03  0.51196975521E+02  0.69328719194E+03  0.73397146302E+03  0.10100000352E+00 0. -1.
</event>
<event>
 5   0  0.3379108E-06  0.1899557E+04  0.7818609E-02  0.8655077E-01
       -1   -1    0    0    0  501  0.00000000000E+00  0.00000000000E+00  0.18807738020E+04  0.18807738021E+04  0.50400001928E-02 0.  1.
        1   -1    0    0  501    0  0.00000000000E+00  0.00000000000E+00 -0.47963172260E+03  0.47963172263E+03  0.50400001928E-02 0. -1.
    10030    2    1    2    0    0  0.00000000000E+00  0.00000000000E+00  0.14011420794E+04  0.23604055247E+04  0.18995565572E+04 0.  0.
        4    1    3    3  502    0  0.25962937323E+03 -0.22501472567E+03 -0.39970836827E+03  0.52707440725E+03  0.12699999809E+01 0. -1.
       -4    1    3    3    0  502 -0.25962937323E+03  0.22501472567E+03  0.18008504477E+04  0.18333311174E+04  0.12699999809E+01 0.  1.
</event>
<event>
 5   0  0.7577180E-06  0.1899881E+04  0.7818609E-02  0.8654916E-01
       -2   -1    0    0    0  501  0.00000000000E+00  0.00000000000E+00  0.39002721048E+03  0.39002721049E+03  0.25500000920E-02 0.  1.
        2   -1    0    0  501    0  0.00000000000E+00  0.00000000000E+00 -0.23136507098E+04  0.23136507098E+04  0.25500000920E-02 0. -1.
    10030    2    1    2    0    0  0.00000000000E+00  0.00000000000E+00 -0.19236234993E+04  0.27036779203E+04  0.18998807672E+04 0.  0.
        5    1    3    3  502    0 -0.51162164433E+02 -0.63289299797E+03 -0.19672677756E+04  0.20672048048E+04  0.46999998093E+01 0. -1.
       -5    1    3    3    0  502  0.51162164433E+02  0.63289299797E+03  0.43644276268E+02  0.63647311554E+03  0.46999998093E+01 0.  1.
</event>
<event>
 5   0  0.3379108E-06  0.1899800E+04  0.7818609E-02  0.8654956E-01
       -1   -1    0    0    0  501  0.00000000000E+00  0.00000000000E+00  0.10373151970E+04  0.10373151970E+04  0.50400001928E-02 0. -1.
        1   -1    0    0  501    0  0.00000000000E+00  0.00000000000E+00 -0.86985133014E+03  0.86985133016E+03  0.50400001928E-02 0.  1.
    10030    2    1    2    0    0  0.00000000000E+00  0.00000000000E+00  0.16746386685E+03  0.19071665272E+04  0.18997999936E+04 0.  0.
        4    1    3    3  502    0  0.52350965231E+03  0.75833531879E+03  0.31522003918E+03  0.97390969694E+03  0.12699999809E+01 0. -1.
       -4    1    3    3    0  502 -0.52350965231E+03 -0.75833531879E+03 -0.14775617234E+03  0.93325683022E+03  0.12699999809E+01 0.  1.
</event>
<event>
 5   0  0.2527750E-06  0.1900726E+04  0.7818609E-02  0.8654495E-01
        3   -1    0    0  501    0  0.00000000000E+00  0.00000000000E+00  0.83305029491E+03  0.83305030103E+03  0.10100000352E+00 0.  1.
       -3   -1    0    0    0  501  0.00000000000E+00  0.00000000000E+00 -0.10841965877E+04  0.10841965924E+04  0.10100000352E+00 0. -1.
    10030    2    1    2    0    0  0.00000000000E+00  0.00000000000E+00 -0.25114629279E+03  0.19172468934E+04  0.19007264901E+04 0.  0.
        3    1    3    3  502    0  0.93971864090E+03  0.13863688066E+03 -0.95329574262E+02  0.95466174463E+03  0.10100000352E+00 0. -1.
       -3    1    3    3    0  502 -0.93971864090E+03 -0.13863688066E+03 -0.15581671853E+03  0.96258514881E+03  0.10100000352E+00 0.  1.
</event>
<event>
 5   0  0.3495279E-06  0.1899818E+04  0.7818609E-02  0.8654947E-01
        1   -1    0    0  501    0  0.00000000000E+00  0.00000000000E+00  0.98536634166E+03  0.98536634167E+03  0.50400001928E-02 0.  1.
       -1   -1    0    0    0  501  0.00000000000E+00  0.00000000000E+00 -0.91572716324E+03  0.91572716325E+03  0.50400001928E-02 0. -1.
    10030    2    1    2    0    0  0.00000000000E+00  0.00000000000E+00  0.69639178421E+02  0.19010935049E+04  0.18998175963E+04 0.  0.
        2    1    3    3  502    0  0.84184289569E+03  0.42071129409E+03  0.16386072451E+03  0.95527367338E+03  0.25500000920E-02 0.  1.
       -2    1    3    3    0  502 -0.84184289569E+03 -0.42071129409E+03 -0.94221546094E+02  0.94581983155E+03  0.25500000920E-02 0. -1.
</event>
<event>
 5   0  0.3211263E-06  0.1899941E+04  0.7818609E-02  0.8654886E-01
        1   -1    0    0  501    0  0.00000000000E+00  0.00000000000E+00  0.10869990532E+04  0.10869990532E+04  0.50400001928E-02 0.  1.
       -1   -1    0    0    0  501  0.00000000000E+00  0.00000000000E+00 -0.83021612286E+03  0.83021612288E+03  0.50400001928E-02 0. -1.
    10030    2    1    2    0    0  0.00000000000E+00  0.00000000000E+00  0.25678293035E+03  0.19172151761E+04  0.18999411986E+04 0.  0.
        5    1    3    3  502    0 -0.15640054055E+03 -0.25207275391E+03 -0.78226584662E+03  0.83663836102E+03  0.46999998093E+01 0. -1.
       -5    1    3    3    0  502  0.15640054055E+03  0.25207275391E+03  0.10390487770E+04  0.10805768151E+04  0.46999998093E+01 0.  1.
</event>
<event>
 5   0  0.6984466E-06  0.1900247E+04  0.7818609E-02  0.8654733E-01
       -2   -1    0    0    0  501  0.00000000000E+00  0.00000000000E+00  0.15926516222E+04  0.15926516222E+04  0.25500000920E-02 0. -1.
        2   -1    0    0  501    0  0.00000000000E+00  0.00000000000E+00 -0.56681244955E+03  0.56681244956E+03  0.25500000920E-02 0.  1.
    10030    2    1    2    0    0  0.00000000000E+00  0.00000000000E+00  0.10258391726E+04  0.21594640718E+04  0.19002471074E+04 0.  0.
        2    1    3    3  502    0 -0.69634759512E+03  0.36064319617E+03  0.11225401755E+04  0.13693282783E+04  0.25500000920E-02 0. -1.
       -2    1    3    3    0  502  0.69634759512E+03 -0.36064319617E+03 -0.96701002821E+02  0.79013579347E+03  0.25500000920E-02 0.  1.
</event>
<event>
 5   0  0.7207648E-06  0.1899887E+04  0.7818609E-02  0.8654913E-01
       -2   -1    0    0    0  501  0.00000000000E+00  0.00000000000E+00  0.60302790818E+03  0.60302790819E+03  0.25500000920E-02 0. -1.
        2   -1    0    0  501    0  0.00000000000E+00  0.00000000000E+00 -0.14964362471E+04  0.14964362471E+04  0.25500000920E-02 0.  1.
    10030    2    1    2    0    0  0.00000000000E+00  0.00000000000E+00 -0.89340833894E+03  0.20994641553E+04  0.18998871754E+04 0.  0.
        4    1    3    3  502    0 -0.79810167500E+03  0.47221643830E+03 -0.21906303975E+03  0.95286141517E+03  0.12699999809E+01 0. -1.
       -4    1    3    3    0  502  0.79810167500E+03 -0.47221643830E+03 -0.67434529919E+03  0.11466027401E+04  0.12699999809E+01 0.  1.
</event>
<event>
 5   0  0.6862201E-06  0.1902125E+04  0.7818609E-02  0.8653800E-01
        2   -1    0    0  501    0  0.00000000000E+00  0.00000000000E+00  0.68881592462E+03  0.68881592463E+03  0.25500000920E-02 0. -1.
       -2   -1    0    0    0  501  0.00000000000E+00  0.00000000000E+00 -0.13131512971E+04  0.13131512971E+04  0.25500000920E-02 0.  1.
    10030    2    1    2    0    0  0.00000000000E+00  0.00000000000E+00 -0.62433537248E+03  0.20019672217E+04  0.19021246278E+04 0.  0.
        3    1    3    3  502    0  0.13659362616E+03 -0.12230839094E+03 -0.12943740100E+04  0.13072953948E+04  0.10100000352E+00 0.  1.
       -3    1    3    3    0  502 -0.13659362616E+03  0.12230839094E+03  0.67003863753E+03  0.69467182697E+03  0.10100000352E+00 0. -1.
</event>
<event>
 5   0  0.3398807E-06  0.1901971E+04  0.7818609E-02  0.8653876E-01
        1   -1    0    0  501    0  0.00000000000E+00  0.00000000000E+00  0.46974953221E+03  0.46974953224E+03  0.50400001928E-02 0. -1.
       -1   -1    0    0    0  501  0.00000000000E+00  0.00000000000E+00 -0.19252249488E+04  0.19252249488E+04  0.50400001928E-02 0.  1.
    10030    2    1    2    0    0  0.00000000000E+00  0.00000000000E+00 -0.14554754166E+04  0.23949744811E+04  0.19019711030E+04 0.  0.
        1    1    3    3  502    0 -0.68521352492E+03 -0.15271376154E+03 -0.15355306887E+04  0.16883997049E+04  0.50400001928E-02 0.  1.
       -1    1    3    3    0  502  0.68521352492E+03  0.15271376154E+03  0.80055272060E+02  0.70657477616E+03  0.50400001928E-02 0. -1.
</event>
<event>
 5   0  0.3236653E-06  0.1900020E+04  0.7818609E-02  0.8654846E-01
       -1   -1    0    0    0  501  0.00000000000E+00  0.00000000000E+00  0.72846786243E+03  0.72846786244E+03  0.50400001928E-02 0. -1.
        1   -1    0    0  501    0  0.00000000000E+00  0.00000000000E+00 -0.12389277457E+04  0.12389277457E+04  0.50400001928E-02 0.  1.
    10030    2    1    2    0    0  0.00000000000E+00  0.00000000000E+00 -0.51045988326E+03  0.19673956081E+04  0.19000200490E+04 0.  0.
        3    1    3    3  502    0 -0.47882590886E+03  0.58982618438E+03  0.33539097658E+03  0.83045547512E+03  0.10100000352E+00 0. -1.
       -3    1    3    3    0  502  0.47882590886E+03 -0.58982618438E+03 -0.84585085984E+03  0.11369401330E+04  0.10100000352E+00 0.  1.
</event>
<event>
 5   0  0.3211263E-06  0.1899845E+04  0.7818609E-02  0.8654934E-01
        1   -1    0    0  501    0  0.00000000000E+00  0.00000000000E+00  0.14155843778E+04  0.14155843778E+04  0.50400001928E-02 0. -1.
       -1   -1    0    0    0  501  0.00000000000E+00  0.00000000000E+00 -0.63744165286E+03  0.63744165288E+03  0.50400001928E-02 0.  1.
    10030    2    1    2    0    0  0.00000000000E+00  0.00000000000E+00  0.77814272495E+03  0.20530260307E+04  0.18998446732E+04 0.  0.
        5    1    3    3  502    0 -0.47112652090E+03 -0.81702365844E+03  0.51153329858E+03  0.10729288246E+04  0.46999998093E+01 0. -1.
       -5    1    3    3    0  502  0.47112652090E+03  0.81702365844E+03  0.26660942638E+03  0.98009720608E+03  0.46999998093E+01 0.  1.
</event>
<event>
 5   0  0.3211263E-06  0.1900041E+04  0.7818609E-02  0.8654836E-01
       -1   -1    0    0    0  501  0.00000000000E+00  0.00000000000E+00  0.17186665596E+04  0.17186665596E+04  0.50400001928E-02 0.  1.
        1   -1    0    0  501    0  0.00000000000E+00  0.00000000000E+00 -0.52513918741E+03  0.52513918743E+03  0.50400001928E-02 0. -1.
    10030    2    1    2    0    0  0.00000000000E+00  0.00000000000E+00  0.11935273721E+04  0.22438057470E+04  0.19000412212E+04 0.  0.
        5    1    3    3  502    0  0.89513836223E+03 -0.97452459294E+01  0.22118242414E+03  0.92212331718E+03  0.46999998093E+01 0.  1.
       -5    1    3    3    0  502 -0.89513836223E+03  0.97452459294E+01  0.97234494801E+03  0.13216824298E+04  0.46999998093E+01 0. -1.
</event>
<event>
 5   0  0.6984466E-06  0.1900390E+04  0.7818609E-02  0.8654662E-01
        2   -1    0    0  501    0  0.00000000000E+00  0.00000000000E+00  0.54065988635E+03  0.54065988635E+03  0.25500000920E-02 0. -1.
       -2   -1    0    0    0  501  0.00000000000E+00  0.00000000000E+00 -0.16699423845E+04  0.16699423845E+04  0.25500000920E-02 0.  1.
    10030    2    1    2    0    0  0.00000000000E+00  0.00000000000E+00 -0.11292824982E+04  0.22106022709E+04  0.19003903387E+04 0.  0.
        2    1    3    3  502    0  0.18788383885E+03 -0.32087372903E+03  0.45251564619E+03  0.58568822503E+03  0.25500000920E-02 0. -1.
       -2    1    3    3    0  502 -0.18788383885E+03  0.32087372903E+03 -0.15817981444E+04  0.16249140458E+04  0.25500000920E-02 0.  1.
</event>
<event>
 5   0  0.6984466E-06  0.1899749E+04  0.7818609E-02  0.8654981E-01
       -2   -1    0    0    0  501  0.00000000000E+00  0.00000000000E+00  0.55538706573E+03  0.55538706573E+03  0.25500000920E-02 0. -1.
        2   -1    0    0  501    0  0.00000000000E+00  0.00000000000E+00 -0.16245636785E+04  0.16245636785E+04  0.25500000920E-02 0.  1.
    10030    2    1    2    0    0  0.00000000000E+00  0.00000000000E+00 -0.10691766128E+04  0.21799507442E+04  0.18997490934E+04 0.  0.
        2    1    3    3  502    0  0.26975252514E+03 -0.78152487662E+03 -0.10712354509E+04  0.13531788311E+04  0.25500000920E-02 0.  1.
       -2    1    3    3    0  502 -0.26975252514E+03  0.78152487662E+03  0.20588381033E+01  0.82677191318E+03  0.25500000920E-02 0. -1.
</event>
<event>
 5   0  0.3236653E-06  0.1897329E+04  0.7818609E-02  0.8656187E-01
        1   -1    0    0  501    0  0.00000000000E+00  0.00000000000E+00  0.19413877375E+04  0.19413877375E+04  0.50400001928E-02 0.  1.
       -1   -1    0    0    0  501  0.00000000000E+00  0.00000000000E+00 -0.46356750061E+03  0.46356750064E+03  0.50400001928E-02 0. -1.
    10030    2    1    2    0    0  0.00000000000E+00  0.00000000000E+00  0.14778202369E+04  0.24049552381E+04  0.18973289238E+04 0.  0.
        3    1    3    3  502    0  0.71909924081E+03 -0.48621835168E+03  0.25383121128E+03  0.90440162409E+03  0.10100000352E+00 0. -1.
       -3    1    3    3    0  502 -0.71909924081E+03  0.48621835168E+03  0.12239890256E+04  0.15005536140E+04  0.10100000352E+00 0.  1.
</event>
<event>
 5   0  0.3398807E-06  0.1899294E+04  0.7818609E-02  0.8655208E-01
       -1   -1    0    0    0  501  0.00000000000E+00  0.00000000000E+00  0.62931442332E+03  0.62931442334E+03  0.50400001928E-02 0.  1.
        1   -1    0    0  501    0  0.00000000000E+00  0.00000000000E+00 -0.14330347931E+04  0.14330347931E+04  0.50400001928E-02 0. -1.
    10030    2    1    2    0    0  0.00000000000E+00  0.00000000000E+00 -0.80372036980E+03  0.20623492165E+04  0.18992940420E+04 0.  0.
        1    1    3    3  502    0  0.88050816741E+02 -0.17269263689E+03 -0.14113237346E+04  0.14245737528E+04  0.50400001928E-02 0. -1.
       -1    1    3    3    0  502 -0.88050816741E+02  0.17269263689E+03  0.60760336481E+03  0.63777546371E+03  0.50400001928E-02 0.  1.
</event>
<event>
 5   0  0.6870370E-06  0.1899698E+04  0.7818609E-02  0.8655007E-01
       -2   -1    0    0    0  501  0.00000000000E+00  0.00000000000E+00  0.18204100393E+04  0.18204100393E+04  0.25500000920E-02 0. -1.
        2   -1    0    0  501    0  0.00000000000E+00  0.00000000000E+00 -0.49560983310E+03  0.49560983311E+03  0.25500000920E-02 0.  1.
    10030    2    1    2    0    0  0.00000000000E+00  0.00000000000E+00  0.13248002062E+04  0.23160198724E+04  0.18996979926E+04 0.  0.
        1    1    3    3  502    0  0.53516307926E+03  0.27392720038E+03 -0.23413442020E+03  0.64517792837E+03  0.50400001928E-02 0.  1.
       -1    1    3    3    0  502 -0.53516307926E+03 -0.27392720038E+03  0.15589346264E+04  0.16708419440E+04  0.50400001928E-02 0. -1.
</event>
<event>
 5   0  0.7577180E-06  0.1899839E+04  0.7818609E-02  0.8654937E-01
       -2   -1    0    0    0  501  0.00000000000E+00  0.00000000000E+00  0.37008110313E+03  0.37008110314E+03  0.25500000920E-02 0. -1.
        2   -1    0    0  501    0  0.00000000000E+00  0.00000000000E+00 -0.24382403727E+04  0.24382403727E+04  0.25500000920E-02 0.  1.
    10030    2    1    2    0    0  0.00000000000E+00  0.00000000000E+00 -0.20681592695E+04  0.28083214758E+04  0.18998386109E+04 0.  0.
        5    1    3    3  502    0 -0.25657511349E+03 -0.81434221978E+03 -0.16495118208E+04  0.18573893983E+04  0.46999998093E+01 0.  1.
       -5    1    3    3    0  502  0.25657511349E+03  0.81434221978E+03 -0.41864744871E+03  0.95093207754E+03  0.46999998093E+01 0. -1.
</event>
<event>
 5   0  0.3495279E-06  0.1900198E+04  0.7818609E-02  0.8654758E-01
        1   -1    0    0  501    0  0.00000000000E+00  0.00000000000E+00  0.92013341586E+03  0.92013341587E+03  0.50400001928E-02 0.  1.
       -1   -1    0    0    0  501  0.00000000000E+00  0.00000000000E+00 -0.98104024119E+03  0.98104024120E+03  0.50400001928E-02 0. -1.
    10030    2    1    2    0    0  0.00000000000E+00  0.00000000000E+00 -0.60906825326E+02  0.19011736571E+04  0.19001977879E+04 0.  0.
        2    1    3    3  502    0  0.22145196441E+03  0.80060170031E+03  0.43096002657E+03  0.93580478712E+03  0.25500000920E-02 0.  1.
       -2    1    3    3    0  502 -0.22145196441E+03 -0.80060170031E+03 -0.49186685189E+03  0.96536886996E+03  0.25500000920E-02 0. -1.
</event>
<event>
 5   0  0.3495279E-06  0.1900449E+04  0.7818609E-02  0.8654633E-01
        1   -1    0    0  501    0  0.00000000000E+00  0.00000000000E+00  0.13926070594E+04  0.13926070594E+04  0.50400001928E-02 0. -1.
       -1   -1    0    0    0  501  0.00000000000E+00  0.00000000000E+00 -0.64837165017E+03  0.64837165019E+03  0.50400001928E-02 0.  1.
    10030    2    1    2    0    0  0.00000000000E+00  0.00000000000E+00  0.74423540920E+03  0.20409787096E+04  0.19004493544E+04 0.  0.
        2    1    3    3  502    0  0.13592164417E+03 -0.91138908530E+03  0.62126880637E+03  0.11113413913E+04  0.25500000920E-02 0. -1.
       -2    1    3    3    0  502 -0.13592164417E+03  0.91138908530E+03  0.12296660282E+03  0.92963731830E+03  0.25500000920E-02 0.  1.
</event>
<event>
 5   0  0.3236653E-06  0.1901409E+04  0.7818609E-02  0.8654155E-01
        1   -1    0    0  501    0  0.00000000000E+00  0.00000000000E+00  0.58823332650E+03  0.58823332652E+03  0.50400001928E-02 0. -1.
       -1   -1    0    0    0  501  0.00000000000E+00  0.00000000000E+00 -0.15365312557E+04  0.15365312557E+04  0.50400001928E-02 0.  1.
    10030    2    1    2    0    0  0.00000000000E+00  0.00000000000E+00 -0.94829792921E+03  0.21247645822E+04  0.19014088375E+04 0.  0.
        3    1    3    3  502    0  0.82401714485E+03  0.15727467366E+02 -0.10037244606E+04  0.12987356973E+04  0.10100000352E+00 0.  1.
       -3    1    3    3    0  502 -0.82401714485E+03 -0.15727467366E+02  0.55426531430E+02  0.82602888498E+03  0.10100000352E+00 0. -1.
</event>
<event>
 5   0  0.6862201E-06  0.1900849E+04  0.7818609E-02  0.8654434E-01
        2   -1    0    0  501    0  0.00000000000E+00  0.00000000000E+00  0.15895978937E+04  0.15895978937E+04  0.25500000920E-02 0.  1.
       -2   -1    0    0    0  501  0.00000000000E+00  0.00000000000E+00 -0.56826095157E+03  0.56826095158E+03  0.25500000920E-02 0. -1.
    10030    2    1    2    0    0  0.00000000000E+00  0.00000000000E+00  0.10213369421E+04  0.21578588453E+04  0.19008486649E+04 0.  0.
        3    1    3    3  502    0 -0.54699664797E+03 -0.33863352065E+03  0.13048505387E+04  0.14548240212E+04  0.10100000352E+00 0.  1.
       -3    1    3    3    0  502  0.54699664797E+03  0.33863352065E+03 -0.28351359657E+03  0.70303482406E+03  0.10100000352E+00 0. -1.
</event>
<event>
 5   0  0.3211263E-06  0.1897792E+04  0.7818609E-02  0.8655956E-01
        1   -1    0    0  501    0  0.00000000000E+00  0.00000000000E+00  0.99906456980E+03  0.99906456982E+03  0.50400001928E-02 0.  1.
       -1   -1    0    0    0  501  0.00000000000E+00  0.00000000000E+00 -0.90124653025E+03  0.90124653027E+03  0.50400001928E-02 0. -1.
    10030    2    1    2    0    0  0.00000000000E+00  0.00000000000E+00  0.97818039551E+02  0.19003111001E+04  0.18977918506E+04 0.  0.
        5    1    3    3  502    0  0.86568705952E+03  0.23224664038E+03  0.36081697966E+03  0.96621093442E+03  0.46999998093E+01 0.  1.
       -5    1    3    3    0  502 -0.86568705952E+03 -0.23224664038E+03 -0.26299894011E+03  0.93410016566E+03  0.46999998093E+01 0. -1.
</event>
<event>
 5   0  0.3379108E-06  0.1900255E+04  0.7818609E-02  0.8654729E-01
        1   -1    0    0  501    0  0.00000000000E+00  0.00000000000E+00  0.92023609286E+03  0.92023609287E+03  0.50400001928E-02 0.  1.
       -1   -1    0    0    0  501  0.00000000000E+00  0.00000000000E+00 -0.98099006795E+03  0.98099006796E+03  0.50400001928E-02 0. -1.
    10030    2    1    2    0    0  0.00000000000E+00  0.00000000000E+00 -0.60753975091E+02  0.19012261608E+04  0.19002552116E+04 0.  0.
        4    1    3    3  502    0 -0.25911634324E+02 -0.45213949743E+02  0.91880430395E+03  0.92028184591E+03  0.12699999809E+01 0.  1.
       -4    1    3    3    0  502  0.25911634324E+02  0.45213949743E+02 -0.97955827904E+03  0.98094431493E+03  0.12699999809E+01 0. -1.
</event>
<event>
 5   0  0.6862201E-06  0.1901380E+04  0.7818609E-02  0.8654170E-01
        2   -1    0    0  501    0  0.00000000000E+00  0.00000000000E+00  0.86698079444E+03  0.86698079444E+03  0.25500000920E-02 0.  1.
       -2   -1    0    0    0  501  0.00000000000E+00  0.00000000000E+00 -0.10424811527E+04  0.10424811527E+04  0.25500000920E-02 0. -1.
    10030    2    1    2    0    0  0.00000000000E+00  0.00000000000E+00 -0.17550035829E+03  0.19094619472E+04  0.19013796443E+04 0.  0.
        3    1    3    3  502    0  0.92742515342E+02  0.84486163916E+03 -0.51549353271E+03  0.99404524843E+03  0.10100000352E+00 0. -1.
       -3    1    3    3    0  502 -0.92742515342E+02 -0.84486163916E+03  0.33999317442E+03  0.91541669874E+03  0.10100000352E+00 0.  1.
</event>
<event>
 5   0  0.7577180E-06  0.1899816E+04  0.7818609E-02  0.8654948E-01
        2   -1    0    0  501    0  0.00000000000E+00  0.00000000000E+00  0.91095209231E+03  0.91095209231E+03  0.25500000920E-02 0. -1.
       -2   -1    0    0    0  501  0.00000000000E+00  0.00000000000E+00 -0.99052931471E+03  0.99052931471E+03  0.25500000920E-02 0.  1.
    10030    2    1    2    0    0  0.00000000000E+00  0.00000000000E+00 -0.79577222400E+02  0.19014814070E+04  0.18998155192E+04 0.  0.
        5    1    3    3  502    0  0.25054596777E+03  0.91444844996E+03  0.17824108991E+02  0.94832960434E+03  0.46999998093E+01 0.  1.
       -5    1    3    3    0  502 -0.25054596777E+03 -0.91444844996E+03 -0.97401331392E+02  0.95315180268E+03  0.46999998093E+01 0. -1.
</event>
<event>
 5   0  0.7577180E-06  0.1899160E+04  0.7818609E-02  0.8655275E-01
       -2   -1    0    0    0  501  0.00000000000E+00  0.00000000000E+00  0.91438338804E+03  0.91438338805E+03  0.25500000920E-02 0. -1.
        2   -1    0    0  501    0  0.00000000000E+00  0.00000000000E+00 -0.98613144417E+03  0.98613144418E+03  0.25500000920E-02 0.  1.
    10030    2    1    2    0    0  0.00000000000E+00  0.00000000000E+00 -0.71748056130E+02  0.19005148322E+04  0.18991600364E+04 0.  0.
        5    1    3    3  502    0 -0.18059160710E+03  0.85098788899E+03 -0.41678503206E+03  0.96463753230E+03  0.46999998093E+01 0.  1.
       -5    1    3    3    0  502  0.18059160710E+03 -0.85098788899E+03  0.34503697593E+03  0.93587729993E+03  0.46999998093E+01 0. -1.
</event>
<event>
 5   0  0.7577180E-06  0.1899474E+04  0.7818609E-02  0.8655118E-01
        2   -1    0    0  501    0  0.00000000000E+00  0.00000000000E+00  0.95216895841E+03  0.95216895841E+03  0.25500000920E-02 0. -1.
       -2   -1    0    0    0  501  0.00000000000E+00  0.00000000000E+00 -0.94731151775E+03  0.94731151775E+03  0.25500000920E-02 0.  1.
    10030    2    1    2    0    0  0.00000000000E+00  0.00000000000E+00  0.48574406652E+01  0.18994804762E+04  0.18994742653E+04 0.  0.
        5    1    3    3  502    0  0.85857236869E+03 -0.54465796619E+02  0.40475514801E+03  0.95076908611E+03  0.46999998093E+01 0. -1.
       -5    1    3    3    0  502 -0.85857236869E+03  0.54465796619E+02 -0.39989770734E+03  0.94871139005E+03  0.46999998093E+01 0.  1.
</event>
<event>
 5   0  0.6984466E-06  0.1895948E+04  0.7818609E-02  0.8656876E-01
       -2   -1    0    0    0  501  0.00000000000E+00  0.00000000000E+00  0.72246958016E+03  0.72246958016E+03  0.25500000920E-02 0.  1.
        2   -1    0    0  501    0  0.00000000000E+00  0.00000000000E+00 -0.12438652128E+04  0.12438652128E+04  0.25500000920E-02 0. -1.
    10030    2    1    2    0    0  0.00000000000E+00  0.00000000000E+00 -0.52139563269E+03  0.19663347930E+04  0.18959480775E+04 0.  0.
        2    1    3    3  502    0  0.61760213301E+03 -0.61690538735E+03 -0.64408363399E+03  0.10848264282E+04  0.25500000920E-02 0. -1.
       -2    1    3    3    0  502 -0.61760213301E+03  0.61690538735E+03  0.12268800131E+03  0.88150836485E+03  0.25500000920E-02 0.  1.
</event>
<event>
 5   0  0.7207648E-06  0.1896667E+04  0.7818609E-02  0.8656517E-01
        2   -1    0    0  501    0  0.00000000000E+00  0.00000000000E+00  0.18827479491E+04  0.18827479491E+04  0.25500000920E-02 0.  1.
       -2   -1    0    0    0  501  0.00000000000E+00  0.00000000000E+00 -0.47767202857E+03  0.47767202857E+03  0.25500000920E-02 0. -1.
    10030    2    1    2    0    0  0.00000000000E+00  0.00000000000E+00  0.14050759205E+04  0.23604199777E+04  0.18966665834E+04 0.  0.
        4    1    3    3  502    0  0.80909881754E+03 -0.15193747941E+03  0.12883948217E+04  0.15289502032E+04  0.12699999809E+01 0.  1.
       -4    1    3    3    0  502 -0.80909881754E+03  0.15193747941E+03  0.11668109878E+03  0.83146977450E+03  0.12699999809E+01 0. -1.
</event>
<event>
 5   0  0.6862201E-06  0.1900037E+04  0.7818609E-02  0.8654838E-01
       -2   -1    0    0    0  501  0.00000000000E+00  0.00000000000E+00  0.57125246184E+03  0.57125246184E+03  0.25500000920E-02 0. -1.
        2   -1    0    0  501    0  0.00000000000E+00  0.00000000000E+00 -0.15799235231E+04  0.15799235231E+04  0.25500000920E-02 0.  1.
    10030    2    1    2    0    0  0.00000000000E+00  0.00000000000E+00 -0.10086710612E+04  0.21511759849E+04  0.19000370545E+04 0.  0.
        3    1    3    3  502    0  0.37360337197E+03  0.69665705353E+03 -0.11008800935E+04  0.13553034791E+04  0.10100000352E+00 0.  1.
       -3    1    3    3    0  502 -0.37360337197E+03 -0.69665705353E+03  0.92209032292E+02  0.79587250588E+03  0.10100000352E+00 0. -1.
</event>
<event>
 5   0  0.7577180E-06  0.1901220E+04  0.7818609E-02  0.8654249E-01
       -2   -1    0    0    0  501  0.00000000000E+00  0.00000000000E+00  0.88631308249E+03  0.88631308249E+03  0.25500000920E-02 0. -1.
        2   -1    0    0  501    0  0.00000000000E+00  0.00000000000E+00 -0.10195712124E+04  0.10195712124E+04  0.25500000920E-02 0.  1.
    10030    2    1    2    0    0  0.00000000000E+00  0.00000000000E+00 -0.13325812992E+03  0.19058842949E+04  0.19012199285E+04 0.  0.
        5    1    3    3  502    0  0.73335619047E+03 -0.29085014064E+03  0.46498519793E+03  0.91577204080E+03  0.46999998093E+01 0. -1.
       -5    1    3    3    0  502 -0.73335619047E+03  0.29085014064E+03 -0.59824332785E+03  0.99011225411E+03  0.46999998093E+01 0.  1.
</event>
<event>
 5   0  0.6870370E-06  0.1900354E+04  0.7818609E-02  0.8654680E-01
       -2   -1    0    0    0  501  0.00000000000E+00  0.00000000000E+00  0.49273175182E+03  0.49273175182E+03  0.25500000920E-02 0.  1.
        2   -1    0    0  501    0  0.00000000000E+00  0.00000000000E+00 -0.18323078654E+04  0.18323078654E+04  0.25500000920E-02 0. -1.
    10030    2    1    2    0    0  0.00000000000E+00  0.00000000000E+00 -0.13395761136E+04  0.23250396172E+04  0.19003539295E+04 0.  0.
        1    1    3    3  502    0 -0.42770203571E+02  0.17808314998E+03  0.47093191892E+03  0.50529176810E+03  0.50400001928E-02 0.  1.
       -1    1    3    3    0  502  0.42770203571E+02 -0.17808314998E+03 -0.18105080325E+04  0.18197478491E+04  0.50400001928E-02 0. -1.
</event>
<event>
 5   0  0.2527750E-06  0.1900243E+04  0.7818609E-02  0.8654735E-01
        3   -1    0    0  501    0  0.00000000000E+00  0.00000000000E+00  0.10426972217E+04  0.10426972266E+04  0.10100000352E+00 0.  1.
       -3   -1    0    0    0  501  0.00000000000E+00  0.00000000000E+00 -0.86576519496E+03  0.86576520085E+03  0.10100000352E+00 0. -1.
    10030    2    1    2    0    0  0.00000000000E+00  0.00000000000E+00  0.17693202674E+03  0.19084624274E+04  0.19002431147E+04 0.  0.
        4    1    3    3  502    0 -0.83152271691E+03 -0.11605269625E+03 -0.35823993305E+03  0.91281746235E+03  0.12699999809E+01 0. -1.
       -4    1    3    3    0  502  0.83152271691E+03  0.11605269625E+03  0.53517195978E+03  0.99564496508E+03  0.12699999809E+01 0.  1.
</event>
<event>
 5   0  0.6870370E-06  0.1899864E+04  0.7818609E-02  0.8654924E-01
       -2   -1    0    0    0  501  0.00000000000E+00  0.00000000000E+00  0.89905897016E+03  0.89905897016E+03  0.25500000920E-02 0. -1.
        2   -1    0    0  501    0  0.00000000000E+00  0.00000000000E+00 -0.10036831612E+04  0.10036831612E+04  0.25500000920E-02 0.  1.
    10030    2    1    2    0    0  0.00000000000E+00  0.00000000000E+00 -0.10462419105E+03  0.19027421314E+04  0.18998635207E+04 0.  0.
        1    1    3    3  502    0  0.24837409944E+03 -0.62107163366E+03 -0.72783439634E+03  0.98851533925E+03  0.50400001928E-02 0.  1.
       -1    1    3    3    0  502 -0.24837409944E+03  0.62107163366E+03  0.62321020529E+03  0.91422679212E+03  0.50400001928E-02 0. -1.
</event>
<event>
 5   0  0.3495279E-06  0.1899234E+04  0.7818609E-02  0.8655238E-01
        1   -1    0    0  501    0  0.00000000000E+00  0.00000000000E+00  0.15407091563E+04  0.15407091563E+04  0.50400001928E-02 0. -1.
       -1   -1    0    0    0  501  0.00000000000E+00  0.00000000000E+00 -0.58529693831E+03  0.58529693833E+03  0.50400001928E-02 0.  1.
    10030    2    1    2    0    0  0.00000000000E+00  0.00000000000E+00  0.95541221796E+03  0.21260060946E+04  0.18992339003E+04 0.  0.
        2    1    3    3  502    0  0.91375450961E+03  0.22633643043E+02  0.18944594821E+03  0.93346095415E+03  0.25500000920E-02 0.  1.
       -2    1    3    3    0  502 -0.91375450961E+03 -0.22633643043E+02  0.76596626975E+03  0.11925451405E+04  0.25500000920E-02 0. -1.
</event>
<event>
 5   0  0.6862201E-06  0.1900679E+04  0.7818609E-02  0.8654518E-01
        2   -1    0    0  501    0  0.00000000000E+00  0.00000000000E+00  0.85215261625E+03  0.85215261626E+03  0.25500000920E-02 0. -1.
       -2   -1    0    0    0  501  0.00000000000E+00  0.00000000000E+00 -0.10598399802E+04  0.10598399802E+04  0.25500000920E-02 0.  1.
    10030    2    1    2    0    0  0.00000000000E+00  0.00000000000E+00 -0.20768736394E+03  0.19119925965E+04  0.19006792596E+04 0.  0.
        3    1    3    3  502    0  0.61528709966E+03 -0.47686352027E+03 -0.65221996245E+03  0.10155628595E+04  0.10100000352E+00 0.  1.
       -3    1    3    3    0  502 -0.61528709966E+03  0.47686352027E+03  0.44453259851E+03  0.89642973696E+03  0.10100000352E+00 0. -1.
</event>
<event>
 5   0  0.3379108E-06  0.1899476E+04  0.7818609E-02  0.8655117E-01
        1   -1    0    0  501    0  0.00000000000E+00  0.00000000000E+00  0.24831070269E+04  0.24831070269E+04  0.50400001928E-02 0.  1.
       -1   -1    0    0    0  501  0.00000000000E+00  0.00000000000E+00 -0.36325551594E+03  0.36325551597E+03  0.50400001928E-02 0. -1.
    10030    2    1    2    0    0  0.00000000000E+00  0.00000000000E+00  0.21198515109E+04  0.28463625428E+04  0.18994760585E+04 0.  0.
        4    1    3    3  502    0 -0.64635696160E+03  0.52408158434E+03  0.37394404439E+03  0.91229084731E+03  0.12699999809E+01 0.  1.
       -4    1    3    3    0  502  0.64635696160E+03 -0.52408158434E+03  0.17459074665E+04  0.19340716955E+04  0.12699999809E+01 0. -1.
</event>
<event>
 5   0  0.3398807E-06  0.1900365E+04  0.7818609E-02  0.8654675E-01
       -1   -1    0    0    0  501  0.00000000000E+00  0.00000000000E+00  0.54894560842E+03  0.54894560844E+03  0.50400001928E-02 0. -1.
        1   -1    0    0  501    0  0.00000000000E+00  0.00000000000E+00 -0.16446922960E+04  0.16446922960E+04  0.50400001928E-02 0.  1.
    10030    2    1    2    0    0  0.00000000000E+00  0.00000000000E+00 -0.10957466876E+04  0.21936379045E+04  0.19003648209E+04 0.  0.
        1    1    3    3  502    0 -0.26236945569E+03 -0.56684499328E+03 -0.13744017227E+04  0.15096791292E+04  0.50400001928E-02 0.  1.
       -1    1    3    3    0  502  0.26236945569E+03  0.56684499328E+03  0.27865503511E+03  0.68395877529E+03  0.50400001928E-02 0. -1.
</event>
<event>
 5   0  0.3211263E-06  0.1900144E+04  0.7818609E-02  0.8654785E-01
        1   -1    0    0  501    0  0.00000000000E+00  0.00000000000E+00  0.61634908248E+03  0.61634908251E+03  0.50400001928E-02 0.  1.
       -1   -1    0    0    0  501  0.00000000000E+00  0.00000000000E+00 -0.14644894505E+04  0.14644894506E+04  0.50400001928E-02 0. -1.
    10030    2    1    2    0    0  0.00000000000E+00  0.00000000000E+00 -0.84814036806E+03  0.20808385331E+04  0.19001439200E+04 0.  0.
        5    1    3    3  502    0 -0.69264520112E+03 -0.47107573432E+03 -0.91496720634E+03  0.12405066710E+04  0.46999998093E+01 0. -1.
       -5    1    3    3    0  502  0.69264520112E+03  0.47107573432E+03  0.66826838279E+02  0.84033186207E+03  0.46999998093E+01 0.  1.
</event>
<event>
 5   0  0.7207648E-06  0.1899812E+04  0.7818609E-02  0.8654950E-01
        2   -1    0    0  501    0  0.00000000000E+00  0.00000000000E+00  0.16653034035E+04  0.16653034035E+04  0.25500000920E-02 0. -1.
       -2   -1    0    0    0  501  0.00000000000E+00  0.00000000000E+00 -0.54183591028E+03  0.54183591028E+03  0.25500000920E-02 0.  1.
    10030    2    1    2    0    0  0.00000000000E+00  0.00000000000E+00  0.11234674932E+04  0.22071393138E+04  0.18998117649E+04 0.  0.
        4    1    3    3  502    0  0.91535094614E+03  0.53094421037E+02  0.27331297532E+03  0.95675909587E+03  0.12699999809E+01 0.  1.
       -4    1    3    3    0  502 -0.91535094614E+03 -0.53094421037E+02  0.85015451793E+03  0.12503802179E+04  0.12699999809E+01 0. -1.
</event>
<event>
 5   0  0.3495279E-06  0.1898866E+04  0.7818609E-02  0.8655421E-01
        1   -1    0    0  501    0  0.00000000000E+00  0.00000000000E+00  0.19866491779E+04  0.19866491779E+04  0.50400001928E-02 0. -1.
       -1   -1    0    0    0  501  0.00000000000E+00  0.00000000000E+00 -0.45374025441E+03  0.45374025444E+03  0.50400001928E-02 0.  1.
    10030    2    1    2    0    0  0.00000000000E+00  0.00000000000E+00  0.15329089235E+04  0.24403894324E+04  0.18988656650E+04 0.  0.
        2    1    3    3  502    0 -0.31770191585E+03 -0.64344230282E+03 -0.32501606001E+02  0.71833756605E+03  0.25500000920E-02 0.  1.
       -2    1    3    3    0  502  0.31770191585E+03  0.64344230282E+03  0.15654105295E+04  0.17220518663E+04  0.25500000920E-02 0. -1.
</event>
<event>
 5   0  0.6984466E-06  0.1899507E+04  0.7818609E-02  0.8655102E-01
       -2   -1    0    0    0  501  0.00000000000E+00  0.00000000000E+00  0.12586648746E+04  0.12586648746E+04  0.25500000920E-02 0.  1.
        2   -1    0    0  501    0  0.00000000000E+00  0.00000000000E+00 -0.71665729371E+03  0.71665729372E+03  0.25500000920E-02 0. -1.
    10030    2    1    2    0    0  0.00000000000E+00  0.00000000000E+00  0.54200758087E+03  0.19753221683E+04  0.18995066335E+04 0.  0.
        2    1    3    3  502    0 -0.55309520984E+02  0.93049296967E+03  0.81650879337E+02  0.93570464134E+03  0.25500000920E-02 0. -1.
       -2    1    3    3    0  502  0.55309520984E+02 -0.93049296967E+03  0.46035670153E+03  0.10396175270E+04  0.25500000920E-02 0.  1.
</event>
<event>
 5   0  0.6870370E-06  0.1900221E+04  0.7818609E-02  0.8654746E-01
       -2   -1    0    0    0  501  0.00000000000E+00  0.00000000000E+00  0.86017027679E+03  0.86017027679E+03  0.25500000920E-02 0. -1.
        2   -1    0    0  501    0  0.00000000000E+00  0.00000000000E+00 -0.10494552550E+04  0.10494552550E+04  0.25500000920E-02 0.  1.
    10030    2    1    2    0    0  0.00000000000E+00  0.00000000000E+00 -0.18928497819E+03  0.19096255318E+04  0.19002212683E+04 0.  0.
        1    1    3    3  502    0 -0.62488674270E+03 -0.57475565928E+03 -0.52323022928E+03  0.99729503254E+03  0.50400001928E-02 0.  1.
       -1    1    3    3    0  502  0.62488674270E+03  0.57475565928E+03  0.33394525109E+03  0.91233049923E+03  0.50400001928E-02 0. -1.
</event>
<event>
 5   0  0.7577180E-06  0.1898609E+04  0.7818609E-02  0.8655549E-01
        2   -1    0    0  501    0  0.00000000000E+00  0.00000000000E+00  0.18181122972E+04  0.18181122972E+04  0.25500000920E-02 0. -1.
       -2   -1    0    0    0  501  0.00000000000E+00  0.00000000000E+00 -0.49566753902E+03  0.49566753903E+03  0.25500000920E-02 0.  1.
    10030    2    1    2    0    0  0.00000000000E+00  0.00000000000E+00  0.13224447582E+04  0.23137798362E+04  0.18986092257E+04 0.  0.
        5    1    3    3  502    0 -0.10535413998E+03  0.16608327080E+03 -0.47055094569E+03  0.51002297021E+03  0.46999998093E+01 0.  1.
       -5    1    3    3    0  502  0.10535413998E+03 -0.16608327080E+03  0.17929957038E+04  0.18037568660E+04  0.46999998093E+01 0. -1.
</event>
<event>
 5   0  0.3495279E-06  0.1896895E+04  0.7818609E-02  0.8656403E-01
        1   -1    0    0  501    0  0.00000000000E+00  0.00000000000E+00  0.95660786937E+03  0.95660786939E+03  0.50400001928E-02 0. -1.
       -1   -1    0    0    0  501  0.00000000000E+00  0.00000000000E+00 -0.94035671571E+03  0.94035671572E+03  0.50400001928E-02 0.  1.
    10030    2    1    2    0    0  0.00000000000E+00  0.00000000000E+00  0.16251153666E+02  0.18969645851E+04  0.18968949726E+04 0.  0.
        2    1    3    3  502    0 -0.62416733560E+03 -0.70327765444E+03  0.13209912324E+03  0.94954436465E+03  0.25500000920E-02 0. -1.
       -2    1    3    3    0  502  0.62416733560E+03  0.70327765444E+03 -0.11584796957E+03  0.94742022046E+03  0.25500000920E-02 0.  1.
</event>
<event>
 5   0  0.3379108E-06  0.1900057E+04  0.7818609E-02  0.8654828E-01
       -1   -1    0    0    0  501  0.00000000000E+00  0.00000000000E+00  0.39860452272E+03  0.39860452275E+03  0.50400001928E-02 0.  1.
        1   -1    0    0  501    0  0.00000000000E+00  0.00000000000E+00 -0.22642841799E+04  0.22642841799E+04  0.50400001928E-02 0. -1.
    10030    2    1    2    0    0  0.00000000000E+00  0.00000000000E+00 -0.18656796571E+04  0.26628887026E+04  0.19000567516E+04 0.  0.
        4    1    3    3  502    0  0.36630217187E+03 -0.25053523577E+01 -0.21613288719E+04  0.21921513778E+04  0.12699999809E+01 0. -1.
       -4    1    3    3    0  502 -0.36630217187E+03  0.25053523577E+01  0.29564921472E+03  0.47073732482E+03  0.12699999809E+01 0.  1.
</event>
<event>
 5   0  0.7207648E-06  0.1900091E+04  0.7818609E-02  0.8654811E-01
       -2   -1    0    0    0  501  0.00000000000E+00  0.00000000000E+00  0.82099529199E+03  0.82099529200E+03  0.25500000920E-02 0. -1.
        2   -1    0    0  501    0  0.00000000000E+00  0.00000000000E+00 -0.10993803549E+04  0.10993803549E+04  0.25500000920E-02 0.  1.
    10030    2    1    2    0    0  0.00000000000E+00  0.00000000000E+00 -0.27838506293E+03  0.19203756469E+04  0.19000906247E+04 0.  0.
        4    1    3    3  502    0  0.57257011278E+03  0.59440123982E+03  0.33640010346E+03  0.89124408018E+03  0.12699999809E+01 0. -1.
       -4    1    3    3    0  502 -0.57257011278E+03 -0.59440123982E+03 -0.61478516639E+03  0.10291315667E+04  0.12699999809E+01 0.  1.
</event>
<event>
 5   0  0.6862201E-06  0.1899280E+04  0.7818609E-02  0.8655215E-01
       -2   -1    0    0    0  501  0.00000000000E+00  0.00000000000E+00  0.10745525766E+04  0.10745525766E+04  0.25500000920E-02 0.  1.
        2   -1    0    0  501    0  0.00000000000E+00  0.00000000000E+00 -0.83924805317E+03  0.83924805318E+03  0.25500000920E-02 0. -1.
    10030    2    1    2    0    0  0.00000000000E+00  0.00000000000E+00  0.23530452344E+03  0.19138006298E+04  0.18992800299E+04 0.  0.
        3    1    3    3  502    0 -0.53006688961E+03 -0.67596611730E+03 -0.29030728885E+03  0.90674110493E+03  0.10100000352E+00 0. -1.
       -3    1    3    3    0  502  0.53006688961E+03  0.67596611730E+03  0.52561181230E+03  0.10070595249E+04  0.10100000352E+00 0.  1.
</event>
<event>
 5   0  0.3398807E-06  0.1900326E+04  0.7818609E-02  0.8654694E-01
        1   -1    0    0  501    0  0.00000000000E+00  0.00000000000E+00  0.48891557666E+03  0.48891557669E+03  0.50400001928E-02 0. -1.
       -1   -1    0    0    0  501  0.00000000000E+00  0.00000000000E+00 -0.18465557843E+04  0.18465557843E+04  0.50400001928E-02 0.  1.
    10030    2    1    2    0    0  0.00000000000E+00  0.00000000000E+00 -0.13576402077E+04  0.23354713610E+04  0.19003261680E+04 0.  0.
        1    1    3    3  502    0 -0.33182218909E+03  0.20946365299E+03 -0.17423205969E+04  0.17859624995E+04  0.50400001928E-02 0.  1.
       -1    1    3    3    0  502  0.33182218909E+03 -0.20946365299E+03  0.38468038920E+03  0.54950886158E+03  0.50400001928E-02 0. -1.
</event>
<event>
 5   0  0.3236653E-06  0.1899653E+04  0.7818609E-02  0.8655029E-01
       -1   -1    0    0    0  501  0.00000000000E+00  0.00000000000E+00  0.52119919825E+03  0.52119919828E+03  0.50400001928E-02 0.  1.
        1   -1    0    0  501    0  0.00000000000E+00  0.00000000000E+00 -0.17309504112E+04  0.17309504112E+04  0.50400001928E-02 0. -1.
    10030    2    1    2    0    0  0.00000000000E+00  0.00000000000E+00 -0.12097512129E+04  0.22521496094E+04  0.18996525646E+04 0.  0.
        3    1    3    3  502    0  0.32705621281E+03  0.51452689395E+03  0.25860372007E+03  0.66225341461E+03  0.10100000352E+00 0.  1.
       -3    1    3    3    0  502 -0.32705621281E+03 -0.51452689395E+03 -0.14683549330E+04  0.15898961948E+04  0.10100000352E+00 0. -1.
</event>
<event>
 5   0  0.3495279E-06  0.1899781E+04  0.7818609E-02  0.8654965E-01
       -1   -1    0    0    0  501  0.00000000000E+00  0.00000000000E+00  0.60191737048E+03  0.60191737050E+03  0.50400001928E-02 0. -1.
        1   -1    0    0  501    0  0.00000000000E+00  0.00000000000E+00 -0.14990296545E+04  0.14990296545E+04  0.50400001928E-02 0.  1.
    10030    2    1    2    0    0  0.00000000000E+00  0.00000000000E+00 -0.89711228401E+03  0.21009470250E+04  0.18997810273E+04 0.  0.
        2    1    3    3  502    0  0.69522630476E+03  0.14601038458E+03  0.24879730456E+03  0.75270096719E+03  0.25500000920E-02 0. -1.
       -2    1    3    3    0  502 -0.69522630476E+03 -0.14601038458E+03 -0.11459095886E+04  0.13482460578E+04  0.25500000920E-02 0.  1.
</event>
<event>
 5   0  0.3495279E-06  0.1900258E+04  0.7818609E-02  0.8654728E-01
       -1   -1    0    0    0  501  0.00000000000E+00  0.00000000000E+00  0.43498430979E+03  0.43498430982E+03  0.50400001928E-02 0.  1.
        1   -1    0    0  501    0  0.00000000000E+00  0.00000000000E+00 -0.20753503522E+04  0.20753503522E+04  0.50400001928E-02 0. -1.
    10030    2    1    2    0    0  0.00000000000E+00  0.00000000000E+00 -0.16403660424E+04  0.25103346620E+04  0.19002577094E+04 0.  0.
        2    1    3    3  502    0  0.39549117756E+03  0.11905786184E+03 -0.19505544405E+04  0.19938030673E+04  0.25500000920E-02 0. -1.
       -2    1    3    3    0  502 -0.39549117756E+03 -0.11905786184E+03  0.31018839808E+03  0.51653159468E+03  0.25500000920E-02 0.  1.
</event>
<event>
 5   0  0.7577180E-06  0.1900249E+04  0.7818609E-02  0.8654732E-01
       -2   -1    0    0    0  501  0.00000000000E+00  0.00000000000E+00  0.82732396483E+03  0.82732396483E+03  0.25500000920E-02 0.  1.
        2   -1    0    0  501    0  0.00000000000E+00  0.00000000000E+00 -0.10911530161E+04  0.10911530161E+04  0.25500000920E-02 0. -1.
    10030    2    1    2    0    0  0.00000000000E+00  0.00000000000E+00 -0.26382905124E+03  0.19184769809E+04  0.19002494989E+04 0.  0.
        5    1    3    3  502    0  0.25640036136E+03 -0.93436010109E+02 -0.10507229919E+04  0.10855930771E+04  0.46999998093E+01 0. -1.
       -5    1    3    3    0  502 -0.25640036136E+03  0.93436010109E+02  0.78689394070E+03  0.83288390379E+03  0.46999998093E+01 0.  1.
</event>
<event>
 5   0  0.3211263E-06  0.1899197E+04  0.7818609E-02  0.8655256E-01
       -1   -1    0    0    0  501  0.00000000000E+00  0.00000000000E+00  0.66471661461E+03  0.66471661462E+03  0.50400001928E-02 0. -1.
        1   -1    0    0  501    0  0.00000000000E+00  0.00000000000E+00 -0.13565745159E+04  0.13565745159E+04  0.50400001928E-02 0.  1.
    10030    2    1    2    0    0  0.00000000000E+00  0.00000000000E+00 -0.69185790126E+03  0.20212911305E+04  0.18991973248E+04 0.  0.
        5    1    3    3  502    0 -0.51161899952E+03  0.26147353390E+03 -0.11505701708E+04  0.12860622914E+04  0.46999998093E+01 0.  1.
       -5    1    3    3    0  502  0.51161899952E+03 -0.26147353390E+03  0.45871226950E+03  0.73522883906E+03  0.46999998093E+01 0. -1.
</event>
<event>
 5   0  0.3236653E-06  0.1899790E+04  0.7818609E-02  0.8654961E-01
        1   -1    0    0  501    0  0.00000000000E+00  0.00000000000E+00  0.14004841903E+04  0.14004841903E+04  0.50400001928E-02 0. -1.
       -1   -1    0    0    0  501  0.00000000000E+00  0.00000000000E+00 -0.64427722994E+03  0.64427722996E+03  0.50400001928E-02 0.  1.
    10030    2    1    2    0    0  0.00000000000E+00  0.00000000000E+00  0.75620696037E+03  0.20447614203E+04  0.18997895407E+04 0.  0.
        3    1    3    3  502    0 -0.13533858907E+03 -0.72878646823E+03  0.10174474282E+04  0.12588270450E+04  0.10100000352E+00 0. -1.
       -3    1    3    3    0  502  0.13533858907E+03  0.72878646823E+03 -0.26124046782E+03  0.78593437524E+03  0.10100000352E+00 0.  1.
</event>
<event>
 5   0  0.3211263E-06  0.1899313E+04  0.7818609E-02  0.8655198E-01
       -1   -1    0    0    0  501  0.00000000000E+00  0.00000000000E+00  0.74279629393E+03  0.74279629394E+03  0.50400001928E-02 0.  1.
        1   -1    0    0  501    0  0.00000000000E+00  0.00000000000E+00 -0.12141254793E+04  0.12141254793E+04  0.50400001928E-02 0. -1.
    10030    2    1    2    0    0  0.00000000000E+00  0.00000000000E+00 -0.47132918533E+03  0.19569217732E+04  0.18993134616E+04 0.  0.
        5    1    3    3  502    0  0.18011355172E+02  0.71693685964E+02 -0.12111446556E+04  0.12134075409E+04  0.46999998093E+01 0. -1.
       -5    1    3    3    0  502 -0.18011355172E+02 -0.71693685964E+02  0.73981547030E+03  0.74351423229E+03  0.46999998093E+01 0.  1.
</event>
<event>
 5   0  0.3398807E-06  0.1899433E+04  0.7818609E-02  0.8655139E-01
        1   -1    0    0  501    0  0.00000000000E+00  0.00000000000E+00  0.14954602417E+04  0.14954602417E+04  0.50400001928E-02 0.  1.
       -1   -1    0    0    0  501  0.00000000000E+00  0.00000000000E+00 -0.60313305700E+03  0.60313305702E+03  0.50400001928E-02 0. -1.
    10030    2    1    2    0    0  0.00000000000E+00  0.00000000000E+00  0.89232718467E+03  0.20985932987E+04  0.18994330809E+04 0.  0.
        1    1    3    3  502    0 -0.22021749448E+02  0.75701813234E+03 -0.18698540379E+03  0.78008009294E+03  0.50400001928E-02 0. -1.
       -1    1    3    3    0  502  0.22021749448E+02 -0.75701813234E+03  0.10793125885E+04  0.13185132058E+04  0.50400001928E-02 0.  1.
</event>
<event>
 5   0  0.6984466E-06  0.1899643E+04  0.7818609E-02  0.8655034E-01
        2   -1    0    0  501    0  0.00000000000E+00  0.00000000000E+00  0.66988126273E+03  0.66988126274E+03  0.25500000920E-02 0. -1.
       -2   -1    0    0    0  501  0.00000000000E+00  0.00000000000E+00 -0.13467473413E+04  0.13467473413E+04  0.25500000920E-02 0.  1.
    10030    2    1    2    0    0  0.00000000000E+00  0.00000000000E+00 -0.67686607856E+03  0.20166286040E+04  0.18996429239E+04 0.  0.
        2    1    3    3  502    0 -0.23114280752E+03 -0.14847985119E+03  0.62678325810E+03  0.68434678075E+03  0.25500000920E-02 0. -1.
       -2    1    3    3    0  502  0.23114280752E+03  0.14847985119E+03 -0.13036493367E+04  0.13322818233E+04  0.25500000920E-02 0.  1.
</event>
<event>
 5   0  0.6870370E-06  0.1899553E+04  0.7818609E-02  0.8655079E-01
       -2   -1    0    0    0  501  0.00000000000E+00  0.00000000000E+00  0.12776265081E+04  0.12776265081E+04  0.25500000920E-02 0. -1.
        2   -1    0    0  501    0  0.00000000000E+00  0.00000000000E+00 -0.70605563001E+03  0.70605563001E+03  0.25500000920E-02 0.  1.
    10030    2    1    2    0    0  0.00000000000E+00  0.00000000000E+00  0.57157087807E+03  0.19836821381E+04  0.18995529886E+04 0.  0.
        1    1    3    3  502    0  0.44824889507E+03 -0.80941877989E+03  0.50973503220E+03  0.10563690815E+04  0.50400001928E-02 0. -1.
       -1    1    3    3    0  502 -0.44824889507E+03  0.80941877989E+03  0.61835845873E+02  0.92731305665E+03  0.50400001928E-02 0.  1.
</event>
<event>
 5   0  0.3211263E-06  0.1899477E+04  0.7818609E-02  0.8655117E-01
       -1   -1    0    0    0  501  0.00000000000E+00  0.00000000000E+00  0.53175284613E+03  0.53175284616E+03  0.50400001928E-02 0.  1.
        1   -1    0    0  501    0  0.00000000000E+00  0.00000000000E+00 -0.16962827025E+04  0.16962827025E+04  0.50400001928E-02 0. -1.
    10030    2    1    2    0    0  0.00000000000E+00  0.00000000000E+00 -0.11645298563E+04  0.22280355486E+04  0.18994769332E+04 0.  0.
        5    1    3    3  502    0  0.79243683705E+03 -0.50123690991E+03 -0.75932749430E+03  0.12065632657E+04  0.46999998093E+01 0.  1.
       -5    1    3    3    0  502 -0.79243683705E+03  0.50123690991E+03 -0.40520236203E+03  0.10214722829E+04  0.46999998093E+01 0. -1.
</event>
<event>
 5   0  0.3495279E-06  0.1899805E+04  0.7818609E-02  0.8654953E-01
       -1   -1    0    0    0  501  0.00000000000E+00  0.00000000000E+00  0.80636830397E+03  0.80636830399E+03  0.50400001928E-02 0.  1.
        1   -1    0    0  501    0  0.00000000000E+00  0.00000000000E+00 -0.11189860290E+04  0.11189860290E+04  0.50400001928E-02 0. -1.
    10030    2    1    2    0    0  0.00000000000E+00  0.00000000000E+00 -0.31261772504E+03  0.19253543330E+04  0.18998051125E+04 0.  0.
        2    1    3    3  502    0  0.88862897117E+02  0.56184177967E+03  0.61467962292E+03  0.83749259024E+03  0.25500000920E-02 0.  1.
       -2    1    3    3    0  502 -0.88862897117E+02 -0.56184177967E+03 -0.92729734795E+03  0.10878617428E+04  0.25500000920E-02 0. -1.
</event>
<event>
 5   0  0.3236653E-06  0.1898860E+04  0.7818609E-02  0.8655424E-01
       -1   -1    0    0    0  501  0.00000000000E+00  0.00000000000E+00  0.16583152260E+04  0.16583152260E+04  0.50400001928E-02 0.  1.
        1   -1    0    0  501    0  0.00000000000E+00  0.00000000000E+00 -0.54357392231E+03  0.54357392233E+03  0.50400001928E-02 0. -1.
    10030    2    1    2    0    0  0.00000000000E+00  0.00000000000E+00  0.11147413037E+04  0.22018891483E+04  0.18988595649E+04 0.  0.
        3    1    3    3  502    0 -0.15876644648E+02  0.92153335451E+03  0.29309435106E+03  0.96715050543E+03  0.10100000352E+00 0. -1.
       -3    1    3    3    0  502  0.15876644648E+02 -0.92153335451E+03  0.82164695262E+03  0.12347386429E+04  0.10100000352E+00 0.  1.
</event>
<event>
 5   0  0.6984466E-06  0.1900491E+04  0.7818609E-02  0.8654612E-01
       -2   -1    0    0    0  501  0.00000000000E+00  0.00000000000E+00  0.64367196215E+03  0.64367196215E+03  0.25500000920E-02 0.  1.
        2   -1    0    0  501    0  0.00000000000E+00  0.00000000000E+00 -0.14028365414E+04  0.14028365414E+04  0.25500000920E-02 0. -1.
    10030    2    1    2    0    0  0.00000000000E+00  0.00000000000E+00 -0.75916457929E+03  0.20465085036E+04  0.19004910410E+04 0.  0.
        2    1    3    3  502    0 -0.67049641019E+03 -0.96762420905E+02  0.33797712635E+03  0.75707129130E+03  0.25500000920E-02 0.  1.
       -2    1    3    3    0  502  0.67049641019E+03  0.96762420905E+02 -0.10971417056E+04  0.12894372123E+04  0.25500000920E-02 0. -1.
</event>
<event>
 5   0  0.6870370E-06  0.1900357E+04  0.7818609E-02  0.8654679E-01
       -2   -1    0    0    0  501  0.00000000000E+00  0.00000000000E+00  0.61258678926E+03  0.61258678926E+03  0.25500000920E-02 0. -1.
        2   -1    0    0  501    0  0.00000000000E+00  0.00000000000E+00 -0.14738147166E+04  0.14738147166E+04  0.25500000920E-02 0.  1.
    10030    2    1    2    0    0  0.00000000000E+00  0.00000000000E+00 -0.86122792730E+03  0.20864015058E+04  0.19003572561E+04 0.  0.
        1    1    3    3  502    0  0.63876093138E+03  0.30225245634E+03 -0.11279896986E+04  0.13310645496E+04  0.50400001928E-02 0.  1.
       -1    1    3    3    0  502 -0.63876093138E+03 -0.30225245634E+03  0.26676177134E+03  0.75533695626E+03  0.50400001928E-02 0. -1.
</event>
<event>
 5   0  0.3398807E-06  0.1899882E+04  0.7818609E-02  0.8654915E-01
        1   -1    0    0  501    0  0.00000000000E+00  0.00000000000E+00  0.13630498657E+04  0.13630498657E+04  0.50400001928E-02 0. -1.
       -1   -1    0    0    0  501  0.00000000000E+00  0.00000000000E+00 -0.66203592579E+03  0.66203592581E+03  0.50400001928E-02 0.  1.
    10030    2    1    2    0    0  0.00000000000E+00  0.00000000000E+00  0.70101393989E+03  0.20250857915E+04  0.18998820803E+04 0.  0.
        1    1    3    3  502    0 -0.81227279763E+03 -0.49147989209E+03  0.38501973811E+03  0.10244900101E+04  0.50400001928E-02 0. -1.
       -1    1    3    3    0  502  0.81227279763E+03  0.49147989209E+03  0.31599420178E+03  0.10005957814E+04  0.50400001928E-02 0.  1.
</event>
<event>
 5   0  0.6984466E-06  0.1908559E+04  0.7818609E-02  0.8650608E-01
        2   -1    0    0  501    0  0.00000000000E+00  0.00000000000E+00  0.11250259794E+04  0.11250259794E+04  0.25500000920E-02 0.  1.
       -2   -1    0    0    0  501  0.00000000000E+00  0.00000000000E+00 -0.80944738603E+03  0.80944738603E+03  0.25500000920E-02 0. -1.
    10030    2    1    2    0    0  0.00000000000E+00  0.00000000000E+00  0.31557859333E+03  0.19344733654E+04  0.19085589728E+04 0.  0.
        2    1    3    3  502    0 -0.32693235763E+03 -0.34440391139E+03 -0.68118791719E+03  0.83037088050E+03  0.25500000920E-02 0. -1.
       -2    1    3    3    0  502  0.32693235763E+03  0.34440391139E+03  0.99676651052E+03  0.11041024849E+04  0.25500000920E-02 0.  1.
</event>
<event>
 5   0  0.3379108E-06  0.1898967E+04  0.7818609E-02  0.8655371E-01
        1   -1    0    0  501    0  0.00000000000E+00  0.00000000000E+00  0.10114757891E+04  0.10114757891E+04  0.50400001928E-02 0. -1.
       -1   -1    0    0    0  501  0.00000000000E+00  0.00000000000E+00 -0.89129084923E+03  0.89129084924E+03  0.50400001928E-02 0.  1.
    10030    2    1    2    0    0  0.00000000000E+00  0.00000000000E+00  0.12018493988E+03  0.19027666384E+04  0.18989672089E+04 0.  0.
        4    1    3    3  502    0 -0.66199521511E+03  0.24181566086E+03 -0.57742341340E+03  0.91111573903E+03  0.12699999809E+01 0.  1.
       -4    1    3    3    0  502  0.66199521511E+03 -0.24181566086E+03  0.69760835328E+03  0.99165089933E+03  0.12699999809E+01 0. -1.
</event>
<event>
 5   0  0.2527750E-06  0.1899470E+04  0.7818609E-02  0.8655120E-01
        3   -1    0    0  501    0  0.00000000000E+00  0.00000000000E+00  0.13608727903E+04  0.13608727940E+04  0.10100000352E+00 0. -1.
       -3   -1    0    0    0  501  0.00000000000E+00  0.00000000000E+00 -0.66280774198E+03  0.66280774967E+03  0.10100000352E+00 0.  1.
    10030    2    1    2    0    0  0.00000000000E+00  0.00000000000E+00  0.69806504827E+03  0.20236805437E+04  0.18994704871E+04 0.  0.
        5    1    3    3  502    0  0.13361899312E+02 -0.37413799312E+03  0.12789293878E+04  0.13326065613E+04  0.46999998093E+01 0. -1.
       -5    1    3    3    0  502 -0.13361899312E+02  0.37413799312E+03 -0.58086433950E+03  0.69107398240E+03  0.46999998093E+01 0.  1.
</event>
<event>
 5   0  0.3236653E-06  0.1899772E+04  0.7818609E-02  0.8654970E-01
        1   -1    0    0  501    0  0.00000000000E+00  0.00000000000E+00  0.15843637936E+04  0.15843637936E+04  0.50400001928E-02 0.  1.
       -1   -1    0    0    0  501  0.00000000000E+00  0.00000000000E+00 -0.56949277693E+03  0.56949277695E+03  0.50400001928E-02 0. -1.
    10030    2    1    2    0    0  0.00000000000E+00  0.00000000000E+00  0.10148710167E+04  0.21538565706E+04  0.18997723406E+04 0.  0.
        3    1    3    3  502    0 -0.26418072156E+03 -0.66954367325E+03 -0.19530647725E+03  0.74580480978E+03  0.10100000352E+00 0. -1.
       -3    1    3    3    0  502  0.26418072156E+03  0.66954367325E+03  0.12101774939E+04  0.14080517608E+04  0.10100000352E+00 0.  1.
</event>
<event>
 5   0  0.7577180E-06  0.1899449E+04  0.7818609E-02  0.8655130E-01
       -2   -1    0    0    0  501  0.00000000000E+00  0.00000000000E+00  0.74171821500E+03  0.74171821500E+03  0.25500000920E-02 0. -1.
        2   -1    0    0  501    0  0.00000000000E+00  0.00000000000E+00 -0.12160643557E+04  0.12160643557E+04  0.25500000920E-02 0.  1.
    10030    2    1    2    0    0  0.00000000000E+00  0.00000000000E+00 -0.47434614068E+03  0.19577825707E+04  0.18994494815E+04 0.  0.
        5    1    3    3  502    0  0.73002488111E+03  0.50325243191E+03  0.11350436415E+03  0.89392654504E+03  0.46999998093E+01 0. -1.
       -5    1    3    3    0  502 -0.73002488111E+03 -0.50325243191E+03 -0.58785050484E+03  0.10638560256E+04  0.46999998093E+01 0.  1.
</event>
<event>
 5   0  0.6984466E-06  0.1899632E+04  0.7818609E-02  0.8655040E-01
       -2   -1    0    0    0  501  0.00000000000E+00  0.00000000000E+00  0.46551829056E+03  0.46551829057E+03  0.25500000920E-02 0.  1.
        2   -1    0    0  501    0  0.00000000000E+00  0.00000000000E+00 -0.19379487032E+04  0.19379487032E+04  0.25500000920E-02 0. -1.
    10030    2    1    2    0    0  0.00000000000E+00  0.00000000000E+00 -0.14724304126E+04  0.24034669937E+04  0.18996321407E+04 0.  0.
        2    1    3    3  502    0 -0.32972826098E+03  0.50551346297E+03 -0.16641421084E+04  0.17702072037E+04  0.25500000920E-02 0. -1.
       -2    1    3    3    0  502  0.32972826098E+03 -0.50551346297E+03  0.19171169576E+03  0.63325979000E+03  0.25500000920E-02 0.  1.
</event>
<event>
 5   0  0.2527750E-06  0.1900894E+04  0.7818609E-02  0.8654412E-01
       -3   -1    0    0    0  501  0.00000000000E+00  0.00000000000E+00  0.88082657557E+03  0.88082658136E+03  0.10100000352E+00 0.  1.
        3   -1    0    0  501    0  0.00000000000E+00  0.00000000000E+00 -0.10255697976E+04  0.10255698025E+04  0.10100000352E+00 0. -1.
    10030    2    1    2    0    0  0.00000000000E+00  0.00000000000E+00 -0.14474322199E+03  0.19063963839E+04  0.19008936246E+04 0.  0.
        2    1    3    3  502    0  0.76299817699E+03 -0.24602138622E+03 -0.58439475251E+03  0.99207356952E+03  0.25500000920E-02 0. -1.
       -2    1    3    3    0  502 -0.76299817699E+03  0.24602138622E+03  0.43965153053E+03  0.91432281436E+03  0.25500000920E-02 0.  1.
</event>
<event>
 5   0  0.3211263E-06  0.1897545E+04  0.7818609E-02  0.8656079E-01
       -1   -1    0    0    0  501  0.00000000000E+00  0.00000000000E+00  0.51755940413E+03  0.51755940416E+03  0.50400001928E-02 0. -1.
        1   -1    0    0  501    0  0.00000000000E+00  0.00000000000E+00 -0.17392583223E+04  0.17392583223E+04  0.50400001928E-02 0.  1.
    10030    2    1    2    0    0  0.00000000000E+00  0.00000000000E+00 -0.12216989182E+04  0.22568177265E+04  0.18975452574E+04 0.  0.
        5    1    3    3  502    0  0.69348005201E+02  0.22829150890E+03 -0.17029814116E+04  0.17196202886E+04  0.46999998093E+01 0.  1.
       -5    1    3    3    0  502 -0.69348005201E+02 -0.22829150890E+03  0.48128249336E+03  0.53719743789E+03  0.46999998093E+01 0. -1.
</event>
<event>
 5   0  0.3495279E-06  0.1900261E+04  0.7818609E-02  0.8654727E-01
        1   -1    0    0  501    0  0.00000000000E+00  0.00000000000E+00  0.11812559543E+04  0.11812559543E+04  0.50400001928E-02 0.  1.
       -1   -1    0    0    0  501  0.00000000000E+00  0.00000000000E+00 -0.76422712042E+03  0.76422712044E+03  0.50400001928E-02 0. -1.
    10030    2    1    2    0    0  0.00000000000E+00  0.00000000000E+00  0.41702883391E+03  0.19454830748E+04  0.19002608626E+04 0.  0.
        2    1    3    3  502    0 -0.75569503844E+03 -0.94755994810E+02 -0.37306600351E+03  0.84807542864E+03  0.25500000920E-02 0.  1.
       -2    1    3    3    0  502  0.75569503844E+03  0.94755994810E+02  0.79009483743E+03  0.10974076461E+04  0.25500000920E-02 0. -1.
</event>
<event>
 5   0  0.3398807E-06  0.1896950E+04  0.7818609E-02  0.8656376E-01
        1   -1    0    0  501    0  0.00000000000E+00  0.00000000000E+00  0.82432499255E+03  0.82432499257E+03  0.50400001928E-02 0.  1.
       -1   -1    0    0    0  501  0.00000000000E+00  0.00000000000E+00 -0.10913231943E+04  0.10913231943E+04  0.50400001928E-02 0. -1.
    10030    2    1    2    0    0  0.00000000000E+00  0.00000000000E+00 -0.26699820176E+03  0.19156481869E+04  0.18969501670E+04 0.  0.
        1    1    3    3  502    0 -0.17786856669E+03  0.74794370826E+02  0.80429510892E+03  0.82711670711E+03  0.50400001928E-02 0.  1.
       -1    1    3    3    0  502  0.17786856669E+03 -0.74794370826E+02 -0.10712933107E+04  0.10885314798E+04  0.50400001928E-02 0. -1.
</event>
<event>
 5   0  0.6984466E-06  0.1900258E+04  0.7818609E-02  0.8654728E-01
       -2   -1    0    0    0  501  0.00000000000E+00  0.00000000000E+00  0.52651186538E+03  0.52651186539E+03  0.25500000920E-02 0.  1.
        2   -1    0    0  501    0  0.00000000000E+00  0.00000000000E+00 -0.17145777118E+04  0.17145777118E+04  0.25500000920E-02 0. -1.
    10030    2    1    2    0    0  0.00000000000E+00  0.00000000000E+00 -0.11880658464E+04  0.22410895772E+04  0.19002584134E+04 0.  0.
        2    1    3    3  502    0 -0.88534879206E+03 -0.17835486419E+03 -0.24598655978E+03  0.93603543137E+03  0.25500000920E-02 0.  1.
       -2    1    3    3    0  502  0.88534879206E+03  0.17835486419E+03 -0.94207928661E+03  0.13050541458E+04  0.25500000920E-02 0. -1.
</event>
<event>
 5   0  0.3398807E-06  0.1900118E+04  0.7818609E-02  0.8654798E-01
        1   -1    0    0  501    0  0.00000000000E+00  0.00000000000E+00  0.17202379475E+04  0.17202379475E+04  0.50400001928E-02 0.  1.
       -1   -1    0    0    0  501  0.00000000000E+00  0.00000000000E+00 -0.52470185031E+03  0.52470185033E+03  0.50400001928E-02 0. -1.
    10030    2    1    2    0    0  0.00000000000E+00  0.00000000000E+00  0.11955360972E+04  0.22449397979E+04  0.19001179269E+04 0.  0.
        1    1    3    3  502    0 -0.85328724307E+03 -0.40016491363E+03  0.73945114317E+03  0.11979228149E+04  0.50400001928E-02 0. -1.
       -1    1    3    3    0  502  0.85328724307E+03  0.40016491363E+03  0.45608495405E+03  0.10470169830E+04  0.50400001928E-02 0.  1.
</event>
<event>
 5   0  0.7577180E-06  0.1900348E+04  0.7818609E-02  0.8654683E-01
        2   -1    0    0  501    0  0.00000000000E+00  0.00000000000E+00  0.81391193946E+03  0.81391193947E+03  0.25500000920E-02 0. -1.
       -2   -1    0    0    0  501  0.00000000000E+00  0.00000000000E+00 -0.11092486447E+04  0.11092486447E+04  0.25500000920E-02 0.  1.
    10030    2    1    2    0    0  0.00000000000E+00  0.00000000000E+00 -0.29533670521E+03  0.19231605841E+04  0.19003480899E+04 0.  0.
        5    1    3    3  502    0 -0.36189962243E+03 -0.61550937544E+03 -0.78207927686E+03  0.10590057664E+04  0.46999998093E+01 0.  1.
       -5    1    3    3    0  502  0.36189962243E+03  0.61550937544E+03  0.48674257166E+03  0.86415481774E+03  0.46999998093E+01 0. -1.
</event>
<event>
 5   0  0.3236653E-06  0.1899752E+04  0.7818609E-02  0.8654980E-01
        1   -1    0    0  501    0  0.00000000000E+00  0.00000000000E+00  0.69026590179E+03  0.69026590181E+03  0.50400001928E-02 0.  1.
       -1   -1    0    0    0  501  0.00000000000E+00  0.00000000000E+00 -0.13071263586E+04  0.13071263586E+04  0.50400001928E-02 0. -1.
    10030    2    1    2    0    0  0.00000000000E+00  0.00000000000E+00 -0.61686045679E+03  0.19973922604E+04  0.18997523572E+04 0.  0.
        3    1    3    3  502    0 -0.65209902677E+03 -0.13226337417E+03  0.40430313247E+03  0.77858061496E+03  0.10100000352E+00 0.  1.
       -3    1    3    3    0  502  0.65209902677E+03  0.13226337417E+03 -0.10211635893E+04  0.12188116454E+04  0.10100000352E+00 0. -1.
</event>
<event>
 5   0  0.3211263E-06  0.1900317E+04  0.7818609E-02  0.8654699E-01
       -1   -1    0    0    0  501  0.00000000000E+00  0.00000000000E+00  0.11711662348E+04  0.11711662348E+04  0.50400001928E-02 0.  1.
        1   -1    0    0  501    0  0.00000000000E+00  0.00000000000E+00 -0.77085644727E+03  0.77085644728E+03  0.50400001928E-02 0. -1.
    10030    2    1    2    0    0  0.00000000000E+00  0.00000000000E+00  0.40030978751E+03  0.19420226821E+04  0.19003168609E+04 0.  0.
        5    1    3    3  502    0 -0.96730397034E+01  0.47098885977E+03  0.10434033471E+04  0.11448304279E+04  0.46999998093E+01 0.  1.
       -5    1    3    3    0  502  0.96730397034E+01 -0.47098885977E+03 -0.64309355964E+03  0.79719225421E+03  0.46999998093E+01 0. -1.
</event>
<event>
 5   0  0.3211263E-06  0.1898780E+04  0.7818609E-02  0.8655464E-01
       -1   -1    0    0    0  501  0.00000000000E+00  0.00000000000E+00  0.99755055564E+03  0.99755055565E+03  0.50400001928E-02 0. -1.
        1   -1    0    0  501    0  0.00000000000E+00  0.00000000000E+00 -0.90355475751E+03  0.90355475752E+03  0.50400001928E-02 0.  1.
    10030    2    1    2    0    0  0.00000000000E+00  0.00000000000E+00  0.93995798133E+02  0.19011053132E+04  0.18987801878E+04 0.  0.
        5    1    3    3  502    0  0.92610707240E+03 -0.19230974202E+03 -0.34723823873E+02  0.94651211316E+03  0.46999998093E+01 0.  1.
       -5    1    3    3    0  502 -0.92610707240E+03  0.19230974202E+03  0.12871962201E+03  0.95459320001E+03  0.46999998093E+01 0. -1.
</event>
<event>
 5   0  0.6984466E-06  0.1899679E+04  0.7818609E-02  0.8655016E-01
       -2   -1    0    0    0  501  0.00000000000E+00  0.00000000000E+00  0.65932774004E+03  0.65932774004E+03  0.25500000920E-02 0.  1.
        2   -1    0    0  501    0  0.00000000000E+00  0.00000000000E+00 -0.13683562507E+04  0.13683562507E+04  0.25500000920E-02 0. -1.
    10030    2    1    2    0    0  0.00000000000E+00  0.00000000000E+00 -0.70902851065E+03  0.20276839907E+04  0.18996791670E+04 0.  0.
        2    1    3    3  502    0  0.52520096315E+03 -0.52083178562E+03  0.28153585609E+03  0.79143176514E+03  0.25500000920E-02 0.  1.
       -2    1    3    3    0  502 -0.52520096315E+03  0.52083178562E+03 -0.99056436674E+03  0.12362522256E+04  0.25500000920E-02 0. -1.
</event>
<event>
 5   0  0.2527750E-06  0.1899577E+04  0.7818609E-02  0.8655067E-01
        3   -1    0    0  501    0  0.00000000000E+00  0.00000000000E+00  0.57711326916E+03  0.57711327800E+03  0.10100000352E+00 0.  1.
       -3   -1    0    0    0  501  0.00000000000E+00  0.00000000000E+00 -0.15631215691E+04  0.15631215724E+04  0.10100000352E+00 0. -1.
    10030    2    1    2    0    0  0.00000000000E+00  0.00000000000E+00 -0.98600829995E+03  0.21402348504E+04  0.18995770180E+04 0.  0.
        2    1    3    3  502    0  0.43532099745E+03 -0.78786611736E+03 -0.15152067766E+03  0.91279565373E+03  0.25500000920E-02 0.  1.
       -2    1    3    3    0  502 -0.43532099745E+03  0.78786611736E+03 -0.83448762229E+03  0.12274391966E+04  0.25500000920E-02 0. -1.
</event>
<event>
 5   0  0.3398807E-06  0.1900487E+04  0.7818609E-02  0.8654614E-01
        1   -1    0    0  501    0  0.00000000000E+00  0.00000000000E+00  0.10945241406E+04  0.10945241406E+04  0.50400001928E-02 0. -1.
       -1   -1    0    0    0  501  0.00000000000E+00  0.00000000000E+00 -0.82498209275E+03  0.82498209276E+03  0.50400001928E-02 0.  1.
    10030    2    1    2    0    0  0.00000000000E+00  0.00000000000E+00  0.26954204781E+03  0.19195062333E+04  0.19004871124E+04 0.  0.
        1    1    3    3  502    0 -0.23642464675E+03 -0.46574305475E+03  0.93653480507E+03  0.10723388680E+04  0.50400001928E-02 0. -1.
       -1    1    3    3    0  502  0.23642464675E+03  0.46574305475E+03 -0.66699275727E+03  0.84716736535E+03  0.50400001928E-02 0.  1.
</event>
<event>
 5   0  0.6984466E-06  0.1898341E+04  0.7818609E-02  0.8655683E-01
        2   -1    0    0  501    0  0.00000000000E+00  0.00000000000E+00  0.11031026342E+04  0.11031026342E+04  0.25500000920E-02 0.  1.
       -2   -1    0    0    0  501  0.00000000000E+00  0.00000000000E+00 -0.81671835994E+03  0.81671835995E+03  0.25500000920E-02 0. -1.
    10030    2    1    2    0    0  0.00000000000E+00  0.00000000000E+00  0.28638427429E+03  0.19198209942E+04  0.18983405114E+04 0.  0.
        2    1    3    3  502    0  0.20269350879E+03  0.19870443580E+03 -0.77279171339E+03  0.82327100253E+03  0.25500000920E-02 0. -1.
       -2    1    3    3    0  502 -0.20269350879E+03 -0.19870443580E+03  0.10591759877E+04  0.10965499917E+04  0.25500000920E-02 0.  1.
</event>
<event>
 5   0  0.3495279E-06  0.1900282E+04  0.7818609E-02  0.8654716E-01
       -1   -1    0    0    0  501  0.00000000000E+00  0.00000000000E+00  0.97817645242E+03  0.97817645243E+03  0.50400001928E-02 0. -1.
        1   -1    0    0  501    0  0.00000000000E+00  0.00000000000E+00 -0.92290947517E+03  0.92290947518E+03  0.50400001928E-02 0.  1.
    10030    2    1    2    0    0  0.00000000000E+00  0.00000000000E+00  0.55266977248E+02  0.19010859276E+04  0.19002824173E+04 0.  0.
        2    1    3    3  502    0  0.43864076795E+03  0.40514874905E+03 -0.71174402238E+03  0.92904832252E+03  0.25500000920E-02 0.  1.
       -2    1    3    3    0  502 -0.43864076795E+03 -0.40514874905E+03  0.76701099963E+03  0.97203760510E+03  0.25500000920E-02 0. -1.
</event>
<event>
 5   0  0.3495279E-06  0.1900429E+04  0.7818609E-02  0.8654643E-01
        1   -1    0    0  501    0  0.00000000000E+00  0.00000000000E+00  0.78490742543E+03  0.78490742544E+03  0.50400001928E-02 0.  1.
       -1   -1    0    0    0  501  0.00000000000E+00  0.00000000000E+00 -0.11503362483E+04  0.11503362483E+04  0.50400001928E-02 0. -1.
    10030    2    1    2    0    0  0.00000000000E+00  0.00000000000E+00 -0.36542882288E+03  0.19352436738E+04  0.19004288601E+04 0.  0.
        2    1    3    3  502    0  0.75227622990E+03  0.14204559037E+03 -0.75588534280E+03  0.10758527442E+04  0.25500000920E-02 0. -1.
       -2    1    3    3    0  502 -0.75227622990E+03 -0.14204559037E+03  0.39045651992E+03  0.85939092953E+03  0.25500000920E-02 0.  1.
</event>
<event>
 5   0  0.3379108E-06  0.1900170E+04  0.7818609E-02  0.8654772E-01
        1   -1    0    0  501    0  0.00000000000E+00  0.00000000000E+00  0.78908003934E+03  0.78908003936E+03  0.50400001928E-02 0.  1.
       -1   -1    0    0    0  501  0.00000000000E+00  0.00000000000E+00 -0.11439418172E+04  0.11439418172E+04  0.50400001928E-02 0. -1.
    10030    2    1    2    0    0  0.00000000000E+00  0.00000000000E+00 -0.35486177787E+03  0.19330218566E+04  0.19001701547E+04 0.  0.
        4    1    3    3  502    0  0.33461696250E+03 -0.74879972944E+03  0.31043360951E+03  0.87694936297E+03  0.12699999809E+01 0.  1.
       -4    1    3    3    0  502 -0.33461696250E+03  0.74879972944E+03 -0.66529538738E+03  0.10560724936E+04  0.12699999809E+01 0. -1.
</event>
<event>
 5   0  0.3379108E-06  0.1900036E+04  0.7818609E-02  0.8654838E-01
        1   -1    0    0  501    0  0.00000000000E+00  0.00000000000E+00  0.85823861490E+03  0.85823861492E+03  0.50400001928E-02 0.  1.
       -1   -1    0    0    0  501  0.00000000000E+00  0.00000000000E+00 -0.10516122835E+04  0.10516122835E+04  0.50400001928E-02 0. -1.
    10030    2    1    2    0    0  0.00000000000E+00  0.00000000000E+00 -0.19337366862E+03  0.19098508985E+04  0.19000360730E+04 0.  0.
        4    1    3    3  502    0  0.38795124055E+03  0.76060158190E+03  0.32201226933E+03  0.91253188762E+03  0.12699999809E+01 0. -1.
       -4    1    3    3    0  502 -0.38795124055E+03 -0.76060158190E+03 -0.51538593795E+03  0.99731901083E+03  0.12699999809E+01 0.  1.
</event>
<event>
 5   0  0.3211263E-06  0.1900051E+04  0.7818609E-02  0.8654831E-01
       -1   -1    0    0    0  501  0.00000000000E+00  0.00000000000E+00  0.97563599522E+03  0.97563599523E+03  0.50400001928E-02 0. -1.
        1   -1    0    0  501    0  0.00000000000E+00  0.00000000000E+00 -0.92508749102E+03  0.92508749103E+03  0.50400001928E-02 0.  1.
    10030    2    1    2    0    0  0.00000000000E+00  0.00000000000E+00  0.50548504196E+02  0.19007234863E+04  0.19000512151E+04 0.  0.
        5    1    3    3  502    0 -0.54190709264E+03  0.46486731377E+03  0.65220297970E+03  0.96703450466E+03  0.46999998093E+01 0. -1.
       -5    1    3    3    0  502  0.54190709264E+03 -0.46486731377E+03 -0.60165447551E+03  0.93368898160E+03  0.46999998093E+01 0.  1.
</event>
<event>
 5   0  0.3236653E-06  0.1900013E+04  0.7818609E-02  0.8654850E-01
        1   -1    0    0  501    0  0.00000000000E+00  0.00000000000E+00  0.10940289968E+04  0.10940289969E+04  0.50400001928E-02 0.  1.
       -1   -1    0    0    0  501  0.00000000000E+00  0.00000000000E+00 -0.82494362775E+03  0.82494362776E+03  0.50400001928E-02 0. -1.
    10030    2    1    2    0    0  0.00000000000E+00  0.00000000000E+00  0.26908536909E+03  0.19189726246E+04  0.19000128942E+04 0.  0.
        3    1    3    3  502    0 -0.86537252476E+03  0.30143128063E+03  0.38760598463E+03  0.99497177502E+03  0.10100000352E+00 0.  1.
       -3    1    3    3    0  502  0.86537252476E+03 -0.30143128063E+03 -0.11852061554E+03  0.92400084960E+03  0.10100000352E+00 0. -1.
</event>
<event>
 5   0  0.7577180E-06  0.1899383E+04  0.7818609E-02  0.8655164E-01
        2   -1    0    0  501    0  0.00000000000E+00  0.00000000000E+00  0.15924159141E+04  0.15924159141E+04  0.25500000920E-02 0. -1.
       -2   -1    0    0    0  501  0.00000000000E+00  0.00000000000E+00 -0.56638064344E+03  0.56638064344E+03  0.25500000920E-02 0.  1.
    10030    2    1    2    0    0  0.00000000000E+00  0.00000000000E+00  0.10260352706E+04  0.21587965575E+04  0.18993825839E+04 0.  0.
        5    1    3    3  502    0 -0.35857675747E+03  0.79853128826E+03  0.94389614770E+02  0.88043227945E+03  0.46999998093E+01 0.  1.
       -5    1    3    3    0  502  0.35857675747E+03 -0.79853128826E+03  0.93164565586E+03  0.12783642781E+04  0.46999998093E+01 0. -1.
</event>
<event>
 5   0  0.3211263E-06  0.1899533E+04  0.7818609E-02  0.8655089E-01
        1   -1    0    0  501    0  0.00000000000E+00  0.00000000000E+00  0.61582598006E+03  0.61582598008E+03  0.50400001928E-02 0. -1.
       -1   -1    0    0    0  501  0.00000000000E+00  0.00000000000E+00 -0.14647911555E+04  0.14647911555E+04  0.50400001928E-02 0.  1.
    10030    2    1    2    0    0  0.00000000000E+00  0.00000000000E+00 -0.84896517540E+03  0.20806171356E+04  0.18995330468E+04 0.  0.
        5    1    3    3  502    0 -0.67813807062E+03 -0.63485544130E+03 -0.64113029229E+03  0.11287084725E+04  0.46999998093E+01 0.  1.
       -5    1    3    3    0  502  0.67813807062E+03  0.63485544130E+03 -0.20783488311E+03  0.95190866306E+03  0.46999998093E+01 0. -1.
</event>
<event>
 5   0  0.6870370E-06  0.1898433E+04  0.7818609E-02  0.8655637E-01
       -2   -1    0    0    0  501  0.00000000000E+00  0.00000000000E+00  0.10643928014E+04  0.10643928014E+04  0.25500000920E-02 0.  1.
        2   -1    0    0  501    0  0.00000000000E+00  0.00000000000E+00 -0.84650293496E+03  0.84650293497E+03  0.25500000920E-02 0. -1.
    10030    2    1    2    0    0  0.00000000000E+00  0.00000000000E+00  0.21788986646E+03  0.19108957364E+04  0.18984326486E+04 0.  0.
        1    1    3    3  502    0  0.84925193738E+03 -0.11754063792E+03  0.51900987137E+03  0.10022055185E+04  0.50400001928E-02 0.  1.
       -1    1    3    3    0  502 -0.84925193738E+03  0.11754063792E+03 -0.30112000490E+03  0.90869021789E+03  0.50400001928E-02 0. -1.
</event>
<event>
 5   0  0.3236653E-06  0.1899708E+04  0.7818609E-02  0.8655002E-01
        1   -1    0    0  501    0  0.00000000000E+00  0.00000000000E+00  0.60703393196E+03  0.60703393198E+03  0.50400001928E-02 0.  1.
       -1   -1    0    0    0  501  0.00000000000E+00  0.00000000000E+00 -0.14862799799E+04  0.14862799799E+04  0.50400001928E-02 0. -1.
    10030    2    1    2    0    0  0.00000000000E+00  0.00000000000E+00 -0.87924604792E+03  0.20933139119E+04  0.18997077462E+04 0.  0.
        3    1    3    3  502    0 -0.12190132802E+03  0.88625224394E+03 -0.87839101161E+02  0.89889859915E+03  0.10100000352E+00 0.  1.
       -3    1    3    3    0  502  0.12190132802E+03 -0.88625224394E+03 -0.79140694676E+03  0.11944153127E+04  0.10100000352E+00 0. -1.
</event>
<event>
 5   0  0.3379108E-06  0.1897492E+04  0.7818609E-02  0.8656106E-01
       -1   -1    0    0    0  501  0.00000000000E+00  0.00000000000E+00  0.55855127460E+03  0.55855127462E+03  0.50400001928E-02 0.  1.
        1   -1    0    0  501    0  0.00000000000E+00  0.00000000000E+00 -0.16115249875E+04  0.16115249875E+04  0.50400001928E-02 0. -1.
    10030    2    1    2    0    0  0.00000000000E+00  0.00000000000E+00 -0.10529737129E+04  0.21700762621E+04  0.18974923829E+04 0.  0.
        4    1    3    3  502    0  0.58531856375E+03 -0.62475280510E+03 -0.58839943859E+02  0.85812449006E+03  0.12699999809E+01 0. -1.
       -4    1    3    3    0  502 -0.58531856375E+03  0.62475280510E+03 -0.99413376900E+03  0.13119517720E+04  0.12699999809E+01 0.  1.
</event>
<event>
 5   0  0.6870370E-06  0.1902605E+04  0.7818609E-02  0.8653561E-01
        2   -1    0    0  501    0  0.00000000000E+00  0.00000000000E+00  0.70919142838E+03  0.70919142838E+03  0.25500000920E-02 0.  1.
       -2   -1    0    0    0  501  0.00000000000E+00  0.00000000000E+00 -0.12760678143E+04  0.12760678144E+04  0.25500000920E-02 0. -1.
    10030    2    1    2    0    0  0.00000000000E+00  0.00000000000E+00 -0.56687638597E+03  0.19852592427E+04  0.19026049048E+04 0.  0.
        1    1    3    3  502    0 -0.90139344266E+03  0.14401762874E+02 -0.60037489260E+03  0.10831285985E+04  0.50400001928E-02 0. -1.
       -1    1    3    3    0  502  0.90139344266E+03 -0.14401762874E+02  0.33498506627E+02  0.90213064421E+03  0.50400001928E-02 0.  1.
</event>
<event>
 5   0  0.6862201E-06  0.1900501E+04  0.7818609E-02  0.8654607E-01
        2   -1    0    0  501    0  0.00000000000E+00  0.00000000000E+00  0.14032546119E+04  0.14032546119E+04  0.25500000920E-02 0.  1.
       -2   -1    0    0    0  501  0.00000000000E+00  0.00000000000E+00 -0.64348714827E+03  0.64348714827E+03  0.25500000920E-02 0. -1.
    10030    2    1    2    0    0  0.00000000000E+00  0.00000000000E+00  0.75976746365E+03  0.20467417602E+04  0.19005013113E+04 0.  0.
        3    1    3    3  502    0 -0.83440577143E+03 -0.19716798586E+03 -0.61360412077E+02  0.85957740572E+03  0.10100000352E+00 0. -1.
       -3    1    3    3    0  502  0.83440577143E+03  0.19716798586E+03  0.82112787572E+03  0.11871643545E+04  0.10100000352E+00 0.  1.
</event>
<event>
 5   0  0.6870370E-06  0.1899971E+04  0.7818609E-02  0.8654871E-01
        2   -1    0    0  501    0  0.00000000000E+00  0.00000000000E+00  0.54621137788E+03  0.54621137789E+03  0.25500000920E-02 0.  1.
       -2   -1    0    0    0  501  0.00000000000E+00  0.00000000000E+00 -0.16522400759E+04  0.16522400759E+04  0.25500000920E-02 0. -1.
    10030    2    1    2    0    0  0.00000000000E+00  0.00000000000E+00 -0.11060286980E+04  0.21984514538E+04  0.18999708718E+04 0.  0.
        1    1    3    3  502    0  0.80775253722E+03 -0.49002351200E+03 -0.43797113304E+03  0.10413481248E+04  0.50400001928E-02 0.  1.
       -1    1    3    3    0  502 -0.80775253722E+03  0.49002351200E+03 -0.66805756496E+03  0.11571033289E+04  0.50400001928E-02 0. -1.
</event>
<event>
 5   0  0.6862201E-06  0.1902700E+04  0.7818609E-02  0.8653514E-01
        2   -1    0    0  501    0  0.00000000000E+00  0.00000000000E+00  0.21937330268E+04  0.21937330268E+04  0.25500000920E-02 0. -1.
       -2   -1    0    0    0  501  0.00000000000E+00  0.00000000000E+00 -0.41256912289E+03  0.41256912290E+03  0.25500000920E-02 0.  1.
    10030    2    1    2    0    0  0.00000000000E+00  0.00000000000E+00  0.17811639039E+04  0.26063021497E+04  0.19026996723E+04 0.  0.
        3    1    3    3  502    0  0.84474810014E+03 -0.29627509240E+03  0.44950006573E+03  0.10017128343E+04  0.10100000352E+00 0.  1.
       -3    1    3    3    0  502 -0.84474810014E+03  0.29627509240E+03  0.13316638382E+04  0.16045893155E+04  0.10100000352E+00 0. -1.
</event>
<event>
 5   0  0.6984466E-06  0.1899900E+04  0.7818609E-02  0.8654906E-01
        2   -1    0    0  501    0  0.00000000000E+00  0.00000000000E+00  0.21269047141E+04  0.21269047141E+04  0.25500000920E-02 0. -1.
       -2   -1    0    0    0  501  0.00000000000E+00  0.00000000000E+00 -0.42428089800E+03  0.42428089801E+03  0.25500000920E-02 0.  1.
    10030    2    1    2    0    0  0.00000000000E+00  0.00000000000E+00  0.17026238160E+04  0.25511856121E+04  0.18999000416E+04 0.  0.
        2    1    3    3  502    0  0.90097420807E+03  0.62919082856E+02  0.12466786037E+04  0.15394547332E+04  0.25500000920E-02 0. -1.
       -2    1    3    3    0  502 -0.90097420807E+03 -0.62919082856E+02  0.45594521233E+03  0.10117308789E+04  0.25500000920E-02 0.  1.
</event>
<event>
 5   0  0.6870370E-06  0.1899983E+04  0.7818609E-02  0.8654865E-01
       -2   -1    0    0    0  501  0.00000000000E+00  0.00000000000E+00  0.71048399250E+03  0.71048399251E+03  0.25500000920E-02 0. -1.
        2   -1    0    0  501    0  0.00000000000E+00  0.00000000000E+00 -0.12702379846E+04  0.12702379846E+04  0.25500000920E-02 0.  1.
    10030    2    1    2    0    0  0.00000000000E+00  0.00000000000E+00 -0.55975399213E+03  0.19807219771E+04  0.18999828997E+04 0.  0.
        1    1    3    3  502    0 -0.24106021228E+01  0.26983941719E+03 -0.12294429103E+04  0.12587092562E+04  0.50400001928E-02 0.  1.
       -1    1    3    3    0  502  0.24106021228E+01 -0.26983941719E+03  0.66968891814E+03  0.72201272092E+03  0.50400001928E-02 0. -1.
</event>
<event>
 5   0  0.3211263E-06  0.1900247E+04  0.7818609E-02  0.8654733E-01
        1   -1    0    0  501    0  0.00000000000E+00  0.00000000000E+00  0.15956805137E+04  0.15956805137E+04  0.50400001928E-02 0. -1.
       -1   -1    0    0    0  501  0.00000000000E+00  0.00000000000E+00 -0.56573645336E+03  0.56573645339E+03  0.50400001928E-02 0.  1.
    10030    2    1    2    0    0  0.00000000000E+00  0.00000000000E+00  0.10299440604E+04  0.21614169671E+04  0.19002469677E+04 0.  0.
        5    1    3    3  502    0 -0.48504866996E+03 -0.81134713580E+03  0.62381117908E+03  0.11325717920E+04  0.46999998093E+01 0. -1.
       -5    1    3    3    0  502  0.48504866996E+03  0.81134713580E+03  0.40613288127E+03  0.10288451751E+04  0.46999998093E+01 0.  1.
</event>
<event>
 5   0  0.3211263E-06  0.1900576E+04  0.7818609E-02  0.8654570E-01
       -1   -1    0    0    0  501  0.00000000000E+00  0.00000000000E+00  0.75419346289E+03  0.75419346291E+03  0.50400001928E-02 0.  1.
        1   -1    0    0  501    0  0.00000000000E+00  0.00000000000E+00 -0.11973680381E+04  0.11973680381E+04  0.50400001928E-02 0. -1.
    10030    2    1    2    0    0  0.00000000000E+00  0.00000000000E+00 -0.44317457517E+03  0.19515615010E+04  0.19005758570E+04 0.  0.
        5    1    3    3  502    0 -0.99561899938E+02  0.40824556400E+03  0.65359659987E+03  0.77703771968E+03  0.46999998093E+01 0.  1.
       -5    1    3    3    0  502  0.99561899938E+02 -0.40824556400E+03 -0.10967711750E+04  0.11745237813E+04  0.46999998093E+01 0. -1.
</event>
<event>
 5   0  0.6984466E-06  0.1900110E+04  0.7818609E-02  0.8654801E-01
       -2   -1    0    0    0  501  0.00000000000E+00  0.00000000000E+00  0.88165288949E+03  0.88165288950E+03  0.25500000920E-02 0.  1.
        2   -1    0    0  501    0  0.00000000000E+00  0.00000000000E+00 -0.10237643617E+04  0.10237643618E+04  0.25500000920E-02 0. -1.
    10030    2    1    2    0    0  0.00000000000E+00  0.00000000000E+00 -0.14211147226E+03  0.19054172512E+04  0.19001103207E+04 0.  0.
        2    1    3    3  502    0 -0.46114212891E+03 -0.10451645573E+03 -0.89738941741E+03  0.10143389567E+04  0.25500000920E-02 0. -1.
       -2    1    3    3    0  502  0.46114212891E+03  0.10451645573E+03  0.75527794516E+03  0.89107829455E+03  0.25500000920E-02 0.  1.
</event>
<event>
 5   0  0.3236653E-06  0.1900283E+04  0.7818609E-02  0.8654715E-01
        1   -1    0    0  501    0  0.00000000000E+00  0.00000000000E+00  0.12802541606E+04  0.12802541606E+04  0.50400001928E-02 0.  1.
       -1   -1    0    0    0  501  0.00000000000E+00  0.00000000000E+00 -0.70514821386E+03  0.70514821388E+03  0.50400001928E-02 0. -1.
    10030    2    1    2    0    0  0.00000000000E+00  0.00000000000E+00  0.57510594673E+03  0.19854023745E+04  0.19002830680E+04 0.  0.
        3    1    3    3  502    0 -0.77348558495E+03 -0.15979104857E+03 -0.26426765607E+03  0.83285685059E+03  0.10100000352E+00 0. -1.
       -3    1    3    3    0  502  0.77348558495E+03  0.15979104857E+03  0.83937360280E+03  0.11525455239E+04  0.10100000352E+00 0.  1.
</event>
<event>
 5   0  0.3211263E-06  0.1901288E+04  0.7818609E-02  0.8654215E-01
        1   -1    0    0  501    0  0.00000000000E+00  0.00000000000E+00  0.11765074974E+04  0.11765074975E+04  0.50400001928E-02 0.  1.
       -1   -1    0    0    0  501  0.00000000000E+00  0.00000000000E+00 -0.76814140165E+03  0.76814140166E+03  0.50400001928E-02 0. -1.
    10030    2    1    2    0    0  0.00000000000E+00  0.00000000000E+00  0.40836609580E+03  0.19446488991E+04  0.19012881088E+04 0.  0.
        5    1    3    3  502    0  0.52360389752E+03 -0.30684826065E+03  0.95257037224E+03  0.11294818726E+04  0.46999998093E+01 0.  1.
       -5    1    3    3    0  502 -0.52360389752E+03  0.30684826065E+03 -0.54420427644E+03  0.81516702648E+03  0.46999998093E+01 0. -1.
</event>
<event>
 5   0  0.2527750E-06  0.1899907E+04  0.7818609E-02  0.8654903E-01
        4   -1    0    0  501    0  0.00000000000E+00  0.00000000000E+00  0.12311486661E+04  0.12311493211E+04  0.12699999809E+01 0. -1.
       -4   -1    0    0    0  501  0.00000000000E+00  0.00000000000E+00 -0.73298180778E+03  0.73298290801E+03  0.12699999809E+01 0.  1.
    10030    2    1    2    0    0  0.00000000000E+00  0.00000000000E+00  0.49816685830E+03  0.19641322291E+04  0.18999066279E+04 0.  0.
        1    1    3    3  502    0 -0.20221280538E+03 -0.62462939542E+03  0.95884838016E+03  0.11620852449E+04  0.50400001928E-02 0. -1.
       -1    1    3    3    0  502  0.20221280538E+03  0.62462939542E+03 -0.46068152186E+03  0.80204698422E+03  0.50400001928E-02 0.  1.
</event>
<event>
 5   0  0.6862201E-06  0.1899883E+04  0.7818609E-02  0.8654914E-01
        2   -1    0    0  501    0  0.00000000000E+00  0.00000000000E+00  0.23084792962E+04  0.23084792962E+04  0.25500000920E-02 0.  1.
       -2   -1    0    0    0  501  0.00000000000E+00  0.00000000000E+00 -0.39090206012E+03  0.39090206013E+03  0.25500000920E-02 0. -1.
    10030    2    1    2    0    0  0.00000000000E+00  0.00000000000E+00  0.19175772361E+04  0.26993813563E+04  0.18998834834E+04 0.  0.
        3    1    3    3  502    0  0.43386300346E+03  0.39348596944E+02 -0.24060399449E+03  0.49767028264E+03  0.10100000352E+00 0. -1.
       -3    1    3    3    0  502 -0.43386300346E+03 -0.39348596944E+02  0.21581812306E+04  0.22017110737E+04  0.10100000352E+00 0.  1.
</event>
<event>
 5   0  0.3211263E-06  0.1900017E+04  0.7818609E-02  0.8654848E-01
        1   -1    0    0  501    0  0.00000000000E+00  0.00000000000E+00  0.13182831440E+04  0.13182831440E+04  0.50400001928E-02 0. -1.
       -1   -1    0    0    0  501  0.00000000000E+00  0.00000000000E+00 -0.68461448712E+03  0.68461448713E+03  0.50400001928E-02 0.  1.
    10030    2    1    2    0    0  0.00000000000E+00  0.00000000000E+00  0.63366865691E+03  0.20028976312E+04  0.19000165668E+04 0.  0.
        5    1    3    3  502    0  0.73686018192E+03 -0.50333269784E+03 -0.26673682220E+02  0.89277113962E+03  0.46999998093E+01 0.  1.
       -5    1    3    3    0  502 -0.73686018192E+03  0.50333269784E+03  0.66034233913E+03  0.11101264916E+04  0.46999998093E+01 0. -1.
</event>
<event>
 5   0  0.6984466E-06  0.1905312E+04  0.7818609E-02  0.8652217E-01
        2   -1    0    0  501    0  0.00000000000E+00  0.00000000000E+00  0.14704357858E+04  0.14704357858E+04  0.25500000920E-02 0. -1.
       -2   -1    0    0    0  501  0.00000000000E+00  0.00000000000E+00 -0.61720027379E+03  0.61720027379E+03  0.25500000920E-02 0.  1.
    10030    2    1    2    0    0  0.00000000000E+00  0.00000000000E+00  0.85323551201E+03  0.20876360596E+04  0.19053119110E+04 0.  0.
        2    1    3    3  502    0  0.39718859040E+03 -0.21847223142E+03 -0.49145522667E+03  0.66859339817E+03  0.25500000920E-02 0.  1.
       -2    1    3    3    0  502 -0.39718859040E+03  0.21847223142E+03  0.13446907387E+04  0.14190426614E+04  0.25500000920E-02 0. -1.
</event>
<event>
 5   0  0.3398807E-06  0.1897852E+04  0.7818609E-02  0.8655926E-01
        1   -1    0    0  501    0  0.00000000000E+00  0.00000000000E+00  0.15992984331E+04  0.15992984331E+04  0.50400001928E-02 0.  1.
       -1   -1    0    0    0  501  0.00000000000E+00  0.00000000000E+00 -0.56303458404E+03  0.56303458406E+03  0.50400001928E-02 0. -1.
    10030    2    1    2    0    0  0.00000000000E+00  0.00000000000E+00  0.10362638491E+04  0.21623330172E+04  0.18978517625E+04 0.  0.
        1    1    3    3  502    0 -0.86996816485E+03  0.36135095400E+03  0.64824448015E+03  0.11435208900E+04  0.50400001928E-02 0.  1.
       -1    1    3    3    0  502  0.86996816485E+03 -0.36135095400E+03  0.38801936892E+03  0.10188121272E+04  0.50400001928E-02 0. -1.
</event>
<event>
 5   0  0.2527750E-06  0.1899744E+04  0.7818609E-02  0.8654984E-01
       -3   -1    0    0    0  501  0.00000000000E+00  0.00000000000E+00  0.84430010850E+03  0.84430011454E+03  0.10100000352E+00 0.  1.
        3   -1    0    0  501    0  0.00000000000E+00  0.00000000000E+00 -0.10686450622E+04  0.10686450670E+04  0.10100000352E+00 0. -1.
    10030    2    1    2    0    0  0.00000000000E+00  0.00000000000E+00 -0.22434495375E+03  0.19129451816E+04  0.18997443537E+04 0.  0.
        3    1    3    3  502    0 -0.76900528231E+03  0.16140716723E+03 -0.64958107015E+03  0.10194983937E+04  0.10100000352E+00 0. -1.
       -3    1    3    3    0  502  0.76900528231E+03 -0.16140716723E+03  0.42523611640E+03  0.89344678787E+03  0.10100000352E+00 0.  1.
</event>
<event>
 5   0  0.6862201E-06  0.1900079E+04  0.7818609E-02  0.8654817E-01
        2   -1    0    0  501    0  0.00000000000E+00  0.00000000000E+00  0.14352971235E+04  0.14352971235E+04  0.25500000920E-02 0. -1.
       -2   -1    0    0    0  501  0.00000000000E+00  0.00000000000E+00 -0.62884189634E+03  0.62884189634E+03  0.25500000920E-02 0.  1.
    10030    2    1    2    0    0  0.00000000000E+00  0.00000000000E+00  0.80645522714E+03  0.20641390198E+04  0.19000789088E+04 0.  0.
        3    1    3    3  502    0 -0.16578592341E+03  0.72204421566E+03  0.10493439197E+04  0.12845059337E+04  0.10100000352E+00 0. -1.
       -3    1    3    3    0  502  0.16578592341E+03 -0.72204421566E+03 -0.24288869256E+03  0.77963308610E+03  0.10100000352E+00 0.  1.
</event>
<event>
 5   0  0.3495279E-06  0.1901114E+04  0.7818609E-02  0.8654302E-01
       -1   -1    0    0    0  501  0.00000000000E+00  0.00000000000E+00  0.59632899985E+03  0.59632899987E+03  0.50400001928E-02 0.  1.
        1   -1    0    0  501    0  0.00000000000E+00  0.00000000000E+00 -0.15152020278E+04  0.15152020278E+04  0.50400001928E-02 0. -1.
    10030    2    1    2    0    0  0.00000000000E+00  0.00000000000E+00 -0.91887302799E+03  0.21115310277E+04  0.19011143152E+04 0.  0.
        2    1    3    3  502    0  0.75973731202E+03  0.15523490385E+03 -0.10700687886E+04  0.13214938028E+04  0.25500000920E-02 0.  1.
       -2    1    3    3    0  502 -0.75973731202E+03 -0.15523490385E+03  0.15119576060E+03  0.79003722486E+03  0.25500000920E-02 0. -1.
</event>
<event>
 5   0  0.3236653E-06  0.1900545E+04  0.7818609E-02  0.8654585E-01
        1   -1    0    0  501    0  0.00000000000E+00  0.00000000000E+00  0.24321306915E+04  0.24321306915E+04  0.50400001928E-02 0. -1.
       -1   -1    0    0    0  501  0.00000000000E+00  0.00000000000E+00 -0.37128683718E+03  0.37128683721E+03  0.50400001928E-02 0.  1.
    10030    2    1    2    0    0  0.00000000000E+00  0.00000000000E+00  0.20608438544E+04  0.28034175288E+04  0.19005453029E+04 0.  0.
        3    1    3    3  502    0 -0.30003899139E+03 -0.18640405351E+02 -0.29929926661E+03  0.42420622610E+03  0.10100000352E+00 0.  1.
       -3    1    3    3    0  502  0.30003899139E+03  0.18640405351E+02  0.23601431210E+04  0.23792113027E+04  0.10100000352E+00 0. -1.
</event>
<event>
 5   0  0.3211263E-06  0.1900127E+04  0.7818609E-02  0.8654793E-01
        1   -1    0    0  501    0  0.00000000000E+00  0.00000000000E+00  0.10205011478E+04  0.10205011478E+04  0.50400001928E-02 0. -1.
       -1   -1    0    0    0  501  0.00000000000E+00  0.00000000000E+00 -0.88448756444E+03  0.88448756445E+03  0.50400001928E-02 0.  1.
    10030    2    1    2    0    0  0.00000000000E+00  0.00000000000E+00  0.13601358335E+03  0.19049887123E+04  0.19001269165E+04 0.  0.
        5    1    3    3  502    0 -0.69580262438E+03 -0.40039837937E+03 -0.44136635394E+03  0.91612581160E+03  0.46999998093E+01 0.  1.
       -5    1    3    3    0  502  0.69580262438E+03  0.40039837937E+03  0.57737993730E+03  0.98886290065E+03  0.46999998093E+01 0. -1.
</event>
<event>
 5   0  0.3495279E-06  0.1899792E+04  0.7818609E-02  0.8654960E-01
        1   -1    0    0  501    0  0.00000000000E+00  0.00000000000E+00  0.13363196611E+04  0.13363196611E+04  0.50400001928E-02 0. -1.
       -1   -1    0    0    0  501  0.00000000000E+00  0.00000000000E+00 -0.67521444273E+03  0.67521444275E+03  0.50400001928E-02 0.  1.
    10030    2    1    2    0    0  0.00000000000E+00  0.00000000000E+00  0.66110521835E+03  0.20115341038E+04  0.18997919205E+04 0.  0.
        2    1    3    3  502    0 -0.12892607961E+03 -0.91800591378E+03  0.54997473366E+03  0.10778817187E+04  0.25500000920E-02 0.  1.
       -2    1    3    3    0  502  0.12892607961E+03  0.91800591378E+03  0.11113048469E+03  0.93365238519E+03  0.25500000920E-02 0. -1.
</event>
<event>
 5   0  0.7207648E-06  0.1900024E+04  0.7818609E-02  0.8654844E-01
       -2   -1    0    0    0  501  0.00000000000E+00  0.00000000000E+00  0.10096075258E+04  0.10096075258E+04  0.25500000920E-02 0.  1.
        2   -1    0    0  501    0  0.00000000000E+00  0.00000000000E+00 -0.89393438200E+03  0.89393438201E+03  0.25500000920E-02 0. -1.
    10030    2    1    2    0    0  0.00000000000E+00  0.00000000000E+00  0.11567314383E+03  0.19035419078E+04  0.19000240837E+04 0.  0.
        4    1    3    3  502    0  0.71812953587E+03  0.39061949586E+03 -0.42703018964E+03  0.92230689935E+03  0.12699999809E+01 0. -1.
       -4    1    3    3    0  502 -0.71812953587E+03 -0.39061949586E+03  0.54270333346E+03  0.98123500849E+03  0.12699999809E+01 0.  1.
</event>
<event>
 5   0  0.3379108E-06  0.1899458E+04  0.7818609E-02  0.8655126E-01
        1   -1    0    0  501    0  0.00000000000E+00  0.00000000000E+00  0.12569486627E+04  0.12569486627E+04  0.50400001928E-02 0.  1.
       -1   -1    0    0    0  501  0.00000000000E+00  0.00000000000E+00 -0.71759939273E+03  0.71759939275E+03  0.50400001928E-02 0. -1.
    10030    2    1    2    0    0  0.00000000000E+00  0.00000000000E+00  0.53934926998E+03  0.19745480555E+04  0.18994584461E+04 0.  0.
        4    1    3    3  502    0 -0.88903277730E+03  0.14546428459E+03 -0.42954770642E+02  0.90187907306E+03  0.12699999809E+01 0. -1.
       -4    1    3    3    0  502  0.88903277730E+03 -0.14546428459E+03  0.58230404062E+03  0.10726689824E+04  0.12699999809E+01 0.  1.
</event>
<event>
 5   0  0.3211263E-06  0.1900113E+04  0.7818609E-02  0.8654800E-01
        1   -1    0    0  501    0  0.00000000000E+00  0.00000000000E+00  0.95071618564E+03  0.95071618566E+03  0.50400001928E-02 0. -1.
       -1   -1    0    0    0  501  0.00000000000E+00  0.00000000000E+00 -0.94939706342E+03  0.94939706343E+03  0.50400001928E-02 0.  1.
    10030    2    1    2    0    0  0.00000000000E+00  0.00000000000E+00  0.13191222231E+01  0.19001132491E+04  0.19001127912E+04 0.  0.
        5    1    3    3  502    0  0.48919708262E+03 -0.81355143751E+03 -0.36828281952E+02  0.95003059923E+03  0.46999998093E+01 0. -1.
       -5    1    3    3    0  502 -0.48919708262E+03  0.81355143751E+03  0.38147404175E+02  0.95008264986E+03  0.46999998093E+01 0.  1.
</event>
<event>
 5   0  0.3495279E-06  0.1898998E+04  0.7818609E-02  0.8655355E-01
        1   -1    0    0  501    0  0.00000000000E+00  0.00000000000E+00  0.10512631184E+04  0.10512631184E+04  0.50400001928E-02 0.  1.
       -1   -1    0    0    0  501  0.00000000000E+00  0.00000000000E+00 -0.85758600659E+03  0.85758600660E+03  0.50400001928E-02 0. -1.
    10030    2    1    2    0    0  0.00000000000E+00  0.00000000000E+00  0.19367711180E+03  0.19088491250E+04  0.18989981986E+04 0.  0.
        2    1    3    3  502    0 -0.12844034658E+03  0.63861280445E+03  0.79123706802E+03  0.10248801561E+04  0.25500000920E-02 0.  1.
       -2    1    3    3    0  502  0.12844034658E+03 -0.63861280445E+03 -0.59755995621E+03  0.88396896887E+03  0.25500000920E-02 0. -1.
</event>
<event>
 5   0  0.6870370E-06  0.1900990E+04  0.7818609E-02  0.8654364E-01
        2   -1    0    0  501    0  0.00000000000E+00  0.00000000000E+00  0.76366317201E+03  0.76366317202E+03  0.25500000920E-02 0. -1.
       -2   -1    0    0    0  501  0.00000000000E+00  0.00000000000E+00 -0.11830354822E+04  0.11830354822E+04  0.25500000920E-02 0.  1.
    10030    2    1    2    0    0  0.00000000000E+00  0.00000000000E+00 -0.41937231022E+03  0.19466986543E+04  0.19009898779E+04 0.  0.
        1    1    3    3  502    0 -0.52121528265E+03  0.79483827916E+03 -0.21246583872E+03  0.97394814725E+03  0.50400001928E-02 0. -1.
       -1    1    3    3    0  502  0.52121528265E+03 -0.79483827916E+03 -0.20690647150E+03  0.97275050700E+03  0.50400001928E-02 0.  1.
</event>
<event>
 5   0  0.6862201E-06  0.1898955E+04  0.7818609E-02  0.8655377E-01
       -2   -1    0    0    0  501  0.00000000000E+00  0.00000000000E+00  0.56412380001E+03  0.56412380001E+03  0.25500000920E-02 0. -1.
        2   -1    0    0  501    0  0.00000000000E+00  0.00000000000E+00 -0.15980659969E+04  0.15980659969E+04  0.25500000920E-02 0.  1.
    10030    2    1    2    0    0  0.00000000000E+00  0.00000000000E+00 -0.10339421969E+04  0.21621897969E+04  0.18989545153E+04 0.  0.
        3    1    3    3  502    0 -0.85598112939E+03 -0.11230428300E+03 -0.96696580224E+03  0.12962788353E+04  0.10100000352E+00 0.  1.
       -3    1    3    3    0  502  0.85598112939E+03  0.11230428300E+03 -0.66976394645E+02  0.86591096164E+03  0.10100000352E+00 0. -1.
</event>
<event>
 5   0  0.6862201E-06  0.1904665E+04  0.7818609E-02  0.8652538E-01
       -2   -1    0    0    0  501  0.00000000000E+00  0.00000000000E+00  0.43638301793E+03  0.43638301794E+03  0.25500000920E-02 0. -1.
        2   -1    0    0  501    0  0.00000000000E+00  0.00000000000E+00 -0.20783047938E+04  0.20783047938E+04  0.25500000920E-02 0.  1.
    10030    2    1    2    0    0  0.00000000000E+00  0.00000000000E+00 -0.16419217759E+04  0.25146878118E+04  0.19046647139E+04 0.  0.
        3    1    3    3  502    0  0.69321626595E+03  0.48502600091E+02 -0.16807000462E+04  0.18186956724E+04  0.10100000352E+00 0.  1.
       -3    1    3    3    0  502 -0.69321626595E+03 -0.48502600091E+02  0.38778270245E+02  0.69599213935E+03  0.10100000352E+00 0. -1.
</event>
<event>
 5   0  0.3379108E-06  0.1899344E+04  0.7818609E-02  0.8655183E-01
        1   -1    0    0  501    0  0.00000000000E+00  0.00000000000E+00  0.15692966687E+04  0.15692966687E+04  0.50400001928E-02 0. -1.
       -1   -1    0    0    0  501  0.00000000000E+00  0.00000000000E+00 -0.57470124080E+03  0.57470124082E+03  0.50400001928E-02 0.  1.
    10030    2    1    2    0    0  0.00000000000E+00  0.00000000000E+00  0.99459542786E+03  0.21439979095E+04  0.18993438264E+04 0.  0.
        4    1    3    3  502    0  0.60619325453E+03 -0.56335151682E+03  0.10231824856E+04  0.13159556243E+04  0.12699999809E+01 0. -1.
       -4    1    3    3    0  502 -0.60619325453E+03  0.56335151682E+03 -0.28587057733E+02  0.82804228522E+03  0.12699999809E+01 0.  1.
</event>
<event>
 5   0  0.6870370E-06  0.1899750E+04  0.7818609E-02  0.8654981E-01
        2   -1    0    0  501    0  0.00000000000E+00  0.00000000000E+00  0.32436845086E+03  0.32436845087E+03  0.25500000920E-02 0. -1.
       -2   -1    0    0    0  501  0.00000000000E+00  0.00000000000E+00 -0.27815979213E+04  0.27815979213E+04  0.25500000920E-02 0.  1.
    10030    2    1    2    0    0  0.00000000000E+00  0.00000000000E+00 -0.24572294704E+04  0.31059663721E+04  0.18997500979E+04 0.  0.
        1    1    3    3  502    0 -0.48255641324E+03 -0.79623098484E+03 -0.92092491986E+03  0.13095599189E+04  0.50400001928E-02 0. -1.
       -1    1    3    3    0  502  0.48255641324E+03  0.79623098484E+03 -0.15363045506E+04  0.17964064532E+04  0.50400001928E-02 0.  1.
</event>
<event>
 5   0  0.3495279E-06  0.1899801E+04  0.7818609E-02  0.8654956E-01
       -1   -1    0    0    0  501  0.00000000000E+00  0.00000000000E+00  0.88798905228E+03  0.88798905229E+03  0.50400001928E-02 0. -1.
        1   -1    0    0  501    0  0.00000000000E+00  0.00000000000E+00 -0.10161280532E+04  0.10161280532E+04  0.50400001928E-02 0.  1.
    10030    2    1    2    0    0  0.00000000000E+00  0.00000000000E+00 -0.12813900091E+03  0.19041171055E+04  0.18998006074E+04 0.  0.
        2    1    3    3  502    0  0.71747133944E+03 -0.15235152951E+03 -0.66904218590E+03  0.99277064722E+03  0.25500000920E-02 0.  1.
       -2    1    3    3    0  502 -0.71747133944E+03  0.15235152951E+03  0.54090318500E+03  0.91134645827E+03  0.25500000920E-02 0. -1.
</event>
<event>
 5   0  0.3398807E-06  0.1901227E+04  0.7818609E-02  0.8654246E-01
        1   -1    0    0  501    0  0.00000000000E+00  0.00000000000E+00  0.10571686391E+04  0.10571686391E+04  0.50400001928E-02 0. -1.
       -1   -1    0    0    0  501  0.00000000000E+00  0.00000000000E+00 -0.85479848729E+03  0.85479848730E+03  0.50400001928E-02 0.  1.
    10030    2    1    2    0    0  0.00000000000E+00  0.00000000000E+00  0.20237015178E+03  0.19119671264E+04  0.19012271337E+04 0.  0.
        1    1    3    3  502    0  0.52970607230E+02 -0.73643862211E+03 -0.50096141050E+03  0.89225000095E+03  0.50400001928E-02 0.  1.
       -1    1    3    3    0  502 -0.52970607230E+02  0.73643862211E+03  0.70333156227E+03  0.10197171254E+04  0.50400001928E-02 0. -1.
</event>
<event>
 5   0  0.3211263E-06  0.1899235E+04  0.7818609E-02  0.8655237E-01
       -1   -1    0    0    0  501  0.00000000000E+00  0.00000000000E+00  0.63599640128E+03  0.63599640130E+03  0.50400001928E-02 0. -1.
        1   -1    0    0  501    0  0.00000000000E+00  0.00000000000E+00 -0.14178906927E+04  0.14178906927E+04  0.50400001928E-02 0.  1.
    10030    2    1    2    0    0  0.00000000000E+00  0.00000000000E+00 -0.78189429144E+03  0.20538870940E+04  0.18992349807E+04 0.  0.
        5    1    3    3  502    0  0.44295157653E+03  0.32458209143E+03 -0.12287519406E+04  0.13458874599E+04  0.46999998093E+01 0.  1.
       -5    1    3    3    0  502 -0.44295157653E+03 -0.32458209143E+03  0.44685764919E+03  0.70799963409E+03  0.46999998093E+01 0. -1.
</event>
<event>
 5   0  0.6984466E-06  0.1901412E+04  0.7818609E-02  0.8654154E-01
       -2   -1    0    0    0  501  0.00000000000E+00  0.00000000000E+00  0.53247987923E+03  0.53247987924E+03  0.25500000920E-02 0.  1.
        2   -1    0    0  501    0  0.00000000000E+00  0.00000000000E+00 -0.16974201871E+04  0.16974201871E+04  0.25500000920E-02 0. -1.
    10030    2    1    2    0    0  0.00000000000E+00  0.00000000000E+00 -0.11649403079E+04  0.22299000664E+04  0.19014122081E+04 0.  0.
        2    1    3    3  502    0  0.68951308189E+02 -0.59866075475E+03 -0.14448220882E+04  0.15654583510E+04  0.25500000920E-02 0. -1.
       -2    1    3    3    0  502 -0.68951308189E+02  0.59866075475E+03  0.27988178029E+03  0.66444171537E+03  0.25500000920E-02 0.  1.
</event>
<event>
 5   0  0.6870370E-06  0.1901753E+04  0.7818609E-02  0.8653984E-01
        2   -1    0    0  501    0  0.00000000000E+00  0.00000000000E+00  0.11053415684E+04  0.11053415684E+04  0.25500000920E-02 0. -1.
       -2   -1    0    0    0  501  0.00000000000E+00  0.00000000000E+00 -0.81799688619E+03  0.81799688619E+03  0.25500000920E-02 0.  1.
    10030    2    1    2    0    0  0.00000000000E+00  0.00000000000E+00  0.28734468221E+03  0.19233384546E+04  0.19017528348E+04 0.  0.
        1    1    3    3  502    0  0.83522281778E+03 -0.24257143683E+03 -0.24504410032E+03  0.90359541192E+03  0.50400001928E-02 0.  1.
       -1    1    3    3    0  502 -0.83522281778E+03  0.24257143683E+03  0.53238878253E+03  0.10197430427E+04  0.50400001928E-02 0. -1.
</event>
<event>
 5   0  0.7577180E-06  0.1901151E+04  0.7818609E-02  0.8654284E-01
       -2   -1    0    0    0  501  0.00000000000E+00  0.00000000000E+00  0.65516639986E+03  0.65516639987E+03  0.25500000920E-02 0. -1.
        2   -1    0    0  501    0  0.00000000000E+00  0.00000000000E+00 -0.13791822168E+04  0.13791822169E+04  0.25500000920E-02 0.  1.
    10030    2    1    2    0    0  0.00000000000E+00  0.00000000000E+00 -0.72401581698E+03  0.20343486167E+04  0.19011510700E+04 0.  0.
        5    1    3    3  502    0 -0.88949848238E+03  0.32956842996E+03 -0.42752554491E+03  0.10404917500E+04  0.46999998093E+01 0. -1.
       -5    1    3    3    0  502  0.88949848238E+03 -0.32956842996E+03 -0.29649027208E+03  0.99385686676E+03  0.46999998093E+01 0.  1.
</event>
<event>
 5   0  0.2527750E-06  0.1890389E+04  0.7818609E-02  0.8659655E-01
       -3   -1    0    0    0  501  0.00000000000E+00  0.00000000000E+00  0.60453609254E+03  0.60453610098E+03  0.10100000352E+00 0.  1.
        3   -1    0    0  501    0  0.00000000000E+00  0.00000000000E+00 -0.14778153902E+04  0.14778153936E+04  0.10100000352E+00 0. -1.
    10030    2    1    2    0    0  0.00000000000E+00  0.00000000000E+00 -0.87327929763E+03  0.20823514946E+04  0.18903891175E+04 0.  0.
        4    1    3    3  502    0 -0.50906891801E+03 -0.79632534614E+03 -0.42530277348E+03  0.10364213826E+04  0.12699999809E+01 0. -1.
       -4    1    3    3    0  502  0.50906891801E+03  0.79632534614E+03 -0.44797652415E+03  0.10459301120E+04  0.12699999809E+01 0.  1.
</event>
<event>
 5   0  0.3495279E-06  0.1899489E+04  0.7818609E-02  0.8655111E-01
       -1   -1    0    0    0  501  0.00000000000E+00  0.00000000000E+00  0.11534834502E+04  0.11534834502E+04  0.50400001928E-02 0.  1.
        1   -1    0    0  501    0  0.00000000000E+00  0.00000000000E+00 -0.78199160581E+03  0.78199160583E+03  0.50400001928E-02 0. -1.
    10030    2    1    2    0    0  0.00000000000E+00  0.00000000000E+00  0.37149184441E+03  0.19354750561E+04  0.18994887476E+04 0.  0.
        2    1    3    3  502    0  0.91334749160E+03  0.19888603863E+03  0.14468895740E+02  0.93486290210E+03  0.25500000920E-02 0. -1.
       -2    1    3    3    0  502 -0.91334749160E+03 -0.19888603863E+03  0.35702294868E+03  0.10006121540E+04  0.25500000920E-02 0.  1.
</event>
<event>
 5   0  0.7207648E-06  0.1899099E+04  0.7818609E-02  0.8655305E-01
       -2   -1    0    0    0  501  0.00000000000E+00  0.00000000000E+00  0.67902457976E+03  0.67902457976E+03  0.25500000920E-02 0. -1.
        2   -1    0    0  501    0  0.00000000000E+00  0.00000000000E+00 -0.13278526615E+04  0.13278526615E+04  0.25500000920E-02 0.  1.
    10030    2    1    2    0    0  0.00000000000E+00  0.00000000000E+00 -0.64882808175E+03  0.20068772413E+04  0.18990993607E+04 0.  0.
        4    1    3    3  502    0  0.52877068790E+02  0.59338129731E+03  0.45697224071E+03  0.75081461765E+03  0.12699999809E+01 0. -1.
       -4    1    3    3    0  502 -0.52877068790E+02 -0.59338129731E+03 -0.11058003225E+04  0.12560626236E+04  0.12699999809E+01 0.  1.
</event>
<event>
 5   0  0.6870370E-06  0.1899985E+04  0.7818609E-02  0.8654864E-01
        2   -1    0    0  501    0  0.00000000000E+00  0.00000000000E+00  0.78808491907E+03  0.78808491907E+03  0.25500000920E-02 0.  1.
       -2   -1    0    0    0  501  0.00000000000E+00  0.00000000000E+00 -0.11451629245E+04  0.11451629245E+04  0.25500000920E-02 0. -1.
    10030    2    1    2    0    0  0.00000000000E+00  0.00000000000E+00 -0.35707800543E+03  0.19332478436E+04  0.18999848743E+04 0.  0.
        1    1    3    3  502    0 -0.94693456758E+03 -0.14312934089E+02 -0.25465298060E+03  0.98068245417E+03  0.50400001928E-02 0. -1.
       -1    1    3    3    0  502  0.94693456758E+03  0.14312934089E+02 -0.10242502483E+03  0.95256538940E+03  0.50400001928E-02 0.  1.
</event>
<event>
 5   0  0.3398807E-06  0.1885940E+04  0.7818609E-02  0.8661887E-01
        1   -1    0    0  501    0  0.00000000000E+00  0.00000000000E+00  0.14489026688E+04  0.14489026688E+04  0.50400001928E-02 0.  1.
       -1   -1    0    0    0  501  0.00000000000E+00  0.00000000000E+00 -0.61370052770E+03  0.61370052772E+03  0.50400001928E-02 0. -1.
    10030    2    1    2    0    0  0.00000000000E+00  0.00000000000E+00  0.83520214109E+03  0.20626031965E+04  0.18859399062E+04 0.  0.
        1    1    3    3  502    0 -0.64204842371E+03  0.28994632225E+03 -0.26793032591E+03  0.75371195277E+03  0.50400001928E-02 0. -1.
       -1    1    3    3    0  502  0.64204842371E+03 -0.28994632225E+03  0.11031324670E+04  0.13088912437E+04  0.50400001928E-02 0.  1.
</event>
<event>
 5   0  0.3211263E-06  0.1899851E+04  0.7818609E-02  0.8654930E-01
       -1   -1    0    0    0  501  0.00000000000E+00  0.00000000000E+00  0.78417585331E+03  0.78417585333E+03  0.50400001928E-02 0.  1.
        1   -1    0    0  501    0  0.00000000000E+00  0.00000000000E+00 -0.11507097258E+04  0.11507097258E+04  0.50400001928E-02 0. -1.
    10030    2    1    2    0    0  0.00000000000E+00  0.00000000000E+00 -0.36653387249E+03  0.19348855791E+04  0.18998513428E+04 0.  0.
        5    1    3    3  502    0 -0.58924422156E+03  0.72823433655E+03 -0.22874066858E+02  0.93705886394E+03  0.46999998093E+01 0.  1.
       -5    1    3    3    0  502  0.58924422156E+03 -0.72823433655E+03 -0.34365980564E+03  0.99782671520E+03  0.46999998093E+01 0. -1.
</event>
<event>
 5   0  0.7577180E-06  0.1899251E+04  0.7818609E-02  0.8655229E-01
        2   -1    0    0  501    0  0.00000000000E+00  0.00000000000E+00  0.48039475134E+03  0.48039475135E+03  0.25500000920E-02 0.  1.
       -2   -1    0    0    0  501  0.00000000000E+00  0.00000000000E+00 -0.18771817514E+04  0.18771817514E+04  0.25500000920E-02 0. -1.
    10030    2    1    2    0    0  0.00000000000E+00  0.00000000000E+00 -0.13967870000E+04  0.23575765027E+04  0.18992506530E+04 0.  0.
        5    1    3    3  502    0  0.80885193586E+03  0.28612080272E+03 -0.19316037381E+03  0.87945414201E+03  0.46999998093E+01 0.  1.
       -5    1    3    3    0  502 -0.80885193586E+03 -0.28612080272E+03 -0.12036266262E+04  0.14781223607E+04  0.46999998093E+01 0. -1.
</event>
<event>
 5   0  0.7577180E-06  0.1897837E+04  0.7818609E-02  0.8655934E-01
        2   -1    0    0  501    0  0.00000000000E+00  0.00000000000E+00  0.15181723350E+04  0.15181723350E+04  0.25500000920E-02 0. -1.
       -2   -1    0    0    0  501  0.00000000000E+00  0.00000000000E+00 -0.59311204866E+03  0.59311204867E+03  0.25500000920E-02 0.  1.
    10030    2    1    2    0    0  0.00000000000E+00  0.00000000000E+00  0.92506028638E+03  0.21112843837E+04  0.18978369834E+04 0.  0.
        5    1    3    3  502    0  0.25369850705E+03  0.15126822291E+03 -0.54065470078E+03  0.61609626132E+03  0.46999998093E+01 0.  1.
       -5    1    3    3    0  502 -0.25369850705E+03 -0.15126822291E+03  0.14657149872E+04  0.14951881224E+04  0.46999998093E+01 0. -1.
</event>
<event>
 5   0  0.7577180E-06  0.1900710E+04  0.7818609E-02  0.8654503E-01
        2   -1    0    0  501    0  0.00000000000E+00  0.00000000000E+00  0.12297249152E+04  0.12297249152E+04  0.25500000920E-02 0. -1.
       -2   -1    0    0    0  501  0.00000000000E+00  0.00000000000E+00 -0.73445233081E+03  0.73445233082E+03  0.25500000920E-02 0.  1.
    10030    2    1    2    0    0  0.00000000000E+00  0.00000000000E+00  0.49527258442E+03  0.19641772461E+04  0.19007096888E+04 0.  0.
        5    1    3    3  502    0  0.20744668933E+03 -0.11651803550E+03 -0.70316344837E+03  0.74234190683E+03  0.46999998093E+01 0.  1.
       -5    1    3    3    0  502 -0.20744668933E+03  0.11651803550E+03  0.11984360328E+04  0.12218353392E+04  0.46999998093E+01 0. -1.
</event>
<event>
 5   0  0.7207648E-06  0.1900098E+04  0.7818609E-02  0.8654807E-01
       -2   -1    0    0    0  501  0.00000000000E+00  0.00000000000E+00  0.59337036258E+03  0.59337036259E+03  0.25500000920E-02 0. -1.
        2   -1    0    0  501    0  0.00000000000E+00  0.00000000000E+00 -0.15211300073E+04  0.15211300073E+04  0.25500000920E-02 0.  1.
    10030    2    1    2    0    0  0.00000000000E+00  0.00000000000E+00 -0.92775964475E+03  0.21145003699E+04  0.19000983806E+04 0.  0.
        4    1    3    3  502    0 -0.50007720626E+03 -0.21266384615E+03  0.40334018246E+03  0.67674813585E+03  0.12699999809E+01 0. -1.
       -4    1    3    3    0  502  0.50007720626E+03  0.21266384615E+03 -0.13310998272E+04  0.14377522341E+04  0.12699999809E+01 0.  1.
</event>
<event>
 5   0  0.7207648E-06  0.1900403E+04  0.7818609E-02  0.8654656E-01
        2   -1    0    0  501    0  0.00000000000E+00  0.00000000000E+00  0.14140322659E+04  0.14140322659E+04  0.25500000920E-02 0.  1.
       -2   -1    0    0    0  501  0.00000000000E+00  0.00000000000E+00 -0.63851663399E+03  0.63851663400E+03  0.25500000920E-02 0. -1.
    10030    2    1    2    0    0  0.00000000000E+00  0.00000000000E+00  0.77551563188E+03  0.20525488999E+04  0.19004032443E+04 0.  0.
        4    1    3    3  502    0  0.29844797658E+03 -0.57708444582E+03 -0.36114021413E+03  0.74331791280E+03  0.12699999809E+01 0. -1.
       -4    1    3    3    0  502 -0.29844797658E+03  0.57708444582E+03  0.11366558460E+04  0.13092309871E+04  0.12699999809E+01 0.  1.
</event>
<event>
 5   0  0.3211263E-06  0.1900707E+04  0.7818609E-02  0.8654505E-01
       -1   -1    0    0    0  501  0.00000000000E+00  0.00000000000E+00  0.67529892598E+03  0.67529892600E+03  0.50400001928E-02 0.  1.
        1   -1    0    0  501    0  0.00000000000E+00  0.00000000000E+00 -0.13374397156E+04  0.13374397156E+04  0.50400001928E-02 0. -1.
    10030    2    1    2    0    0  0.00000000000E+00  0.00000000000E+00 -0.66214078965E+03  0.20127386416E+04  0.19007068196E+04 0.  0.
        5    1    3    3  502    0 -0.21643384454E+03  0.84521729727E+03  0.67848216202E+02  0.87513505192E+03  0.46999998093E+01 0.  1.
       -5    1    3    3    0  502  0.21643384454E+03 -0.84521729727E+03 -0.72998900585E+03  0.11376035897E+04  0.46999998093E+01 0. -1.
</event>
<event>
 5   0  0.6862201E-06  0.1903085E+04  0.7818609E-02  0.8653322E-01
        2   -1    0    0  501    0  0.00000000000E+00  0.00000000000E+00  0.87179010939E+03  0.87179010940E+03  0.25500000920E-02 0. -1.
       -2   -1    0    0    0  501  0.00000000000E+00  0.00000000000E+00 -0.10385906506E+04  0.10385906506E+04  0.25500000920E-02 0.  1.
    10030    2    1    2    0    0  0.00000000000E+00  0.00000000000E+00 -0.16680054116E+03  0.19103807600E+04  0.19030849239E+04 0.  0.
        3    1    3    3  502    0 -0.12736785116E+01 -0.52052427101E+03  0.71619967712E+03  0.88537513331E+03  0.10100000352E+00 0. -1.
       -3    1    3    3    0  502  0.12736785116E+01  0.52052427101E+03 -0.88300021828E+03  0.10250056266E+04  0.10100000352E+00 0.  1.
</event>
<event>
 5   0  0.6984466E-06  0.1899051E+04  0.7818609E-02  0.8655329E-01
       -2   -1    0    0    0  501  0.00000000000E+00  0.00000000000E+00  0.11378794358E+04  0.11378794358E+04  0.25500000920E-02 0. -1.
        2   -1    0    0  501    0  0.00000000000E+00  0.00000000000E+00 -0.79235018276E+03  0.79235018276E+03  0.25500000920E-02 0.  1.
    10030    2    1    2    0    0  0.00000000000E+00  0.00000000000E+00  0.34552925301E+03  0.19302296185E+04  0.18990513199E+04 0.  0.
        2    1    3    3  502    0  0.60016214491E+03  0.67538074307E+03  0.46956077416E+03  0.10182441107E+04  0.25500000920E-02 0. -1.
       -2    1    3    3    0  502 -0.60016214491E+03 -0.67538074307E+03 -0.12403152115E+03  0.91198550785E+03  0.25500000920E-02 0.  1.
</event>
<event>
 5   0  0.3236653E-06  0.1899630E+04  0.7818609E-02  0.8655040E-01
       -1   -1    0    0    0  501  0.00000000000E+00  0.00000000000E+00  0.48544226552E+03  0.48544226555E+03  0.50400001928E-02 0. -1.
        1   -1    0    0  501    0  0.00000000000E+00  0.00000000000E+00 -0.18584062945E+04  0.18584062945E+04  0.50400001928E-02 0.  1.
    10030    2    1    2    0    0  0.00000000000E+00  0.00000000000E+00 -0.13729640289E+04  0.23438485600E+04  0.18996304502E+04 0.  0.
        3    1    3    3  502    0 -0.64607475416E+03 -0.23761611509E+01  0.17255266394E+03  0.66872465645E+03  0.10100000352E+00 0. -1.
       -3    1    3    3    0  502  0.64607475416E+03  0.23761611509E+01 -0.15455166929E+04  0.16751239036E+04  0.10100000352E+00 0.  1.
</event>
<event>
 5   0  0.7577180E-06  0.1901188E+04  0.7818609E-02  0.8654265E-01
       -2   -1    0    0    0  501  0.00000000000E+00  0.00000000000E+00  0.14471617804E+04  0.14471617804E+04  0.25500000920E-02 0. -1.
        2   -1    0    0  501    0  0.00000000000E+00  0.00000000000E+00 -0.62441441693E+03  0.62441441694E+03  0.25500000920E-02 0.  1.
    10030    2    1    2    0    0  0.00000000000E+00  0.00000000000E+00  0.82274736342E+03  0.20715761973E+04  0.19011877122E+04 0.  0.
        5    1    3    3  502    0 -0.86675780834E+03 -0.23297295865E+03  0.70161698412E+02  0.90027232085E+03  0.46999998093E+01 0.  1.
       -5    1    3    3    0  502  0.86675780834E+03  0.23297295865E+03  0.75258566501E+03  0.11713038764E+04  0.46999998093E+01 0. -1.
</event>
<event>
 5   0  0.6984466E-06  0.1900324E+04  0.7818609E-02  0.8654695E-01
        2   -1    0    0  501    0  0.00000000000E+00  0.00000000000E+00  0.19645770369E+04  0.19645770369E+04  0.25500000920E-02 0.  1.
       -2   -1    0    0    0  501  0.00000000000E+00  0.00000000000E+00 -0.45954294972E+03  0.45954294973E+03  0.25500000920E-02 0. -1.
    10030    2    1    2    0    0  0.00000000000E+00  0.00000000000E+00  0.15050340872E+04  0.24241199866E+04  0.19003236845E+04 0.  0.
        2    1    3    3  502    0  0.80702608933E+03  0.49659376709E+03  0.66312196180E+03  0.11565583490E+04  0.25500000920E-02 0.  1.
       -2    1    3    3    0  502 -0.80702608933E+03 -0.49659376709E+03  0.84191212536E+03  0.12675616376E+04  0.25500000920E-02 0. -1.
</event>
<event>
 5   0  0.3398807E-06  0.1899657E+04  0.7818609E-02  0.8655027E-01
       -1   -1    0    0    0  501  0.00000000000E+00  0.00000000000E+00  0.50117656575E+03  0.50117656577E+03  0.50400001928E-02 0.  1.
        1   -1    0    0  501    0  0.00000000000E+00  0.00000000000E+00 -0.18001129054E+04  0.18001129054E+04  0.50400001928E-02 0. -1.
    10030    2    1    2    0    0  0.00000000000E+00  0.00000000000E+00 -0.12989363397E+04  0.23012894712E+04  0.18996572364E+04 0.  0.
        1    1    3    3  502    0  0.63143041035E+03  0.70046568777E+03 -0.51231565233E+03  0.10732305766E+04  0.50400001928E-02 0.  1.
       -1    1    3    3    0  502 -0.63143041035E+03 -0.70046568777E+03 -0.78662068732E+03  0.12280588946E+04  0.50400001928E-02 0. -1.
</event>
<event>
 5   0  0.7577180E-06  0.1900771E+04  0.7818609E-02  0.8654473E-01
       -2   -1    0    0    0  501  0.00000000000E+00  0.00000000000E+00  0.14078121677E+04  0.14078121677E+04  0.25500000920E-02 0.  1.
        2   -1    0    0  501    0  0.00000000000E+00  0.00000000000E+00 -0.64158593800E+03  0.64158593800E+03  0.25500000920E-02 0. -1.
    10030    2    1    2    0    0  0.00000000000E+00  0.00000000000E+00  0.76622622970E+03  0.20493981057E+04  0.19007708859E+04 0.  0.
        5    1    3    3  502    0 -0.86422153020E+03 -0.88148535442E+02  0.79868822191E+03  0.11800737195E+04  0.46999998093E+01 0.  1.
       -5    1    3    3    0  502  0.86422153020E+03  0.88148535442E+02 -0.32461992206E+02  0.86932438624E+03  0.46999998093E+01 0. -1.
</event>
<event>
 5   0  0.2527750E-06  0.1902698E+04  0.7818609E-02  0.8653514E-01
        4   -1    0    0  501    0  0.00000000000E+00  0.00000000000E+00  0.59155930610E+03  0.59156066936E+03  0.12699999809E+01 0. -1.
       -4   -1    0    0    0  501  0.00000000000E+00  0.00000000000E+00 -0.15299616857E+04  0.15299622129E+04  0.12699999809E+01 0.  1.
    10030    2    1    2    0    0  0.00000000000E+00  0.00000000000E+00 -0.93840237965E+03  0.21215228822E+04  0.19026981667E+04 0.  0.
        4    1    3    3  502    0 -0.47676792877E+03  0.29912936216E+03  0.38600121742E+03  0.68248412872E+03  0.12699999809E+01 0. -1.
       -4    1    3    3    0  502  0.47676792877E+03 -0.29912936216E+03 -0.13244035971E+04  0.14390387535E+04  0.12699999809E+01 0.  1.
</event>
<event>
 5   0  0.6862201E-06  0.1899711E+04  0.7818609E-02  0.8655000E-01
       -2   -1    0    0    0  501  0.00000000000E+00  0.00000000000E+00  0.66587517852E+03  0.66587517852E+03  0.25500000920E-02 0.  1.
        2   -1    0    0  501    0  0.00000000000E+00  0.00000000000E+00 -0.13549470308E+04  0.13549470309E+04  0.25500000920E-02 0. -1.
    10030    2    1    2    0    0  0.00000000000E+00  0.00000000000E+00 -0.68907185233E+03  0.20208222094E+04  0.18997111318E+04 0.  0.
        3    1    3    3  502    0  0.45231590954E+03 -0.96131296036E+02  0.53805465952E+03  0.70946017149E+03  0.10100000352E+00 0.  1.
       -3    1    3    3    0  502 -0.45231590954E+03  0.96131296036E+02 -0.12271265119E+04  0.13113620379E+04  0.10100000352E+00 0. -1.
</event>
<event>
 5   0  0.3495279E-06  0.1900290E+04  0.7818609E-02  0.8654712E-01
       -1   -1    0    0    0  501  0.00000000000E+00  0.00000000000E+00  0.77361342517E+03  0.77361342518E+03  0.50400001928E-02 0.  1.
        1   -1    0    0  501    0  0.00000000000E+00  0.00000000000E+00 -0.11669593425E+04  0.11669593425E+04  0.50400001928E-02 0. -1.
    10030    2    1    2    0    0  0.00000000000E+00  0.00000000000E+00 -0.39334591730E+03  0.19405727677E+04  0.19002898873E+04 0.  0.
        2    1    3    3  502    0 -0.78598117005E+03 -0.47361084203E+03 -0.44827305614E+03  0.10212846627E+04  0.25500000920E-02 0.  1.
       -2    1    3    3    0  502  0.78598117005E+03  0.47361084203E+03  0.54927138837E+02  0.91928810498E+03  0.25500000920E-02 0. -1.
</event>
<event>
 5   0  0.3211263E-06  0.1899489E+04  0.7818609E-02  0.8655111E-01
       -1   -1    0    0    0  501  0.00000000000E+00  0.00000000000E+00  0.48023365263E+03  0.48023365265E+03  0.50400001928E-02 0. -1.
        1   -1    0    0  501    0  0.00000000000E+00  0.00000000000E+00 -0.18782827007E+04  0.18782827007E+04  0.50400001928E-02 0.  1.
    10030    2    1    2    0    0  0.00000000000E+00  0.00000000000E+00 -0.13980490480E+04  0.23585163533E+04  0.18994889439E+04 0.  0.
        5    1    3    3  502    0 -0.46808965167E+03 -0.39628962878E+03 -0.15994101467E+04  0.17129764444E+04  0.46999998093E+01 0.  1.
       -5    1    3    3    0  502  0.46808965167E+03  0.39628962878E+03  0.20136109867E+03  0.64553990887E+03  0.46999998093E+01 0. -1.
</event>
<event>
 5   0  0.6984466E-06  0.1900165E+04  0.7818609E-02  0.8654774E-01
        2   -1    0    0  501    0  0.00000000000E+00  0.00000000000E+00  0.23016421806E+04  0.23016421806E+04  0.25500000920E-02 0. -1.
       -2   -1    0    0    0  501  0.00000000000E+00  0.00000000000E+00 -0.39217950381E+03  0.39217950382E+03  0.25500000920E-02 0.  1.
    10030    2    1    2    0    0  0.00000000000E+00  0.00000000000E+00  0.19094626768E+04  0.26938216844E+04  0.19001651384E+04 0.  0.
        2    1    3    3  502    0  0.86164570281E+03 -0.39898159539E+03  0.90907292330E+03  0.13145467700E+04  0.25500000920E-02 0.  1.
       -2    1    3    3    0  502 -0.86164570281E+03  0.39898159539E+03  0.10003897535E+04  0.13792749144E+04  0.25500000920E-02 0. -1.
</event>
<event>
 5   0  0.6870370E-06  0.1901066E+04  0.7818609E-02  0.8654326E-01
        2   -1    0    0  501    0  0.00000000000E+00  0.00000000000E+00  0.15446667607E+04  0.15446667608E+04  0.25500000920E-02 0. -1.
       -2   -1    0    0    0  501  0.00000000000E+00  0.00000000000E+00 -0.58492429546E+03  0.58492429547E+03  0.25500000920E-02 0.  1.
    10030    2    1    2    0    0  0.00000000000E+00  0.00000000000E+00  0.95974246529E+03  0.21295910562E+04  0.19010661396E+04 0.  0.
        1    1    3    3  502    0 -0.38386326318E+03 -0.23790501402E+03 -0.45707032330E+03  0.64254422493E+03  0.50400001928E-02 0.  1.
       -1    1    3    3    0  502  0.38386326318E+03  0.23790501402E+03  0.14168127886E+04  0.14870468313E+04  0.50400001928E-02 0. -1.
</event>
<event>
 5   0  0.3379108E-06  0.1900109E+04  0.7818609E-02  0.8654802E-01
       -1   -1    0    0    0  501  0.00000000000E+00  0.00000000000E+00  0.59239931479E+03  0.59239931481E+03  0.50400001928E-02 0.  1.
        1   -1    0    0  501    0  0.00000000000E+00  0.00000000000E+00 -0.15236411546E+04  0.15236411546E+04  0.50400001928E-02 0. -1.
    10030    2    1    2    0    0  0.00000000000E+00  0.00000000000E+00 -0.93124183984E+03  0.21160404694E+04  0.19001094453E+04 0.  0.
        4    1    3    3  502    0 -0.22358344232E+02 -0.65425402993E+03  0.30113885405E+03  0.72057924863E+03  0.12699999809E+01 0.  1.
       -4    1    3    3    0  502  0.22358344232E+02  0.65425402993E+03 -0.12323806939E+04  0.13954612208E+04  0.12699999809E+01 0. -1.
</event>
<event>
 5   0  0.3236653E-06  0.1899895E+04  0.7818609E-02  0.8654908E-01
        1   -1    0    0  501    0  0.00000000000E+00  0.00000000000E+00  0.68829103324E+03  0.68829103326E+03  0.50400001928E-02 0.  1.
       -1   -1    0    0    0  501  0.00000000000E+00  0.00000000000E+00 -0.13110741214E+04  0.13110741214E+04  0.50400001928E-02 0. -1.
    10030    2    1    2    0    0  0.00000000000E+00  0.00000000000E+00 -0.62278308814E+03  0.19993651547E+04  0.18998953252E+04 0.  0.
        3    1    3    3  502    0 -0.43491660131E+03 -0.13076736385E+03  0.56664629848E+03  0.72618220256E+03  0.10100000352E+00 0.  1.
       -3    1    3    3    0  502  0.43491660131E+03  0.13076736385E+03 -0.11894293866E+04  0.12731829521E+04  0.10100000352E+00 0. -1.
</event>
<event>
 5   0  0.6984466E-06  0.1899953E+04  0.7818609E-02  0.8654880E-01
        2   -1    0    0  501    0  0.00000000000E+00  0.00000000000E+00  0.23358863509E+04  0.23358863509E+04  0.25500000920E-02 0.  1.
       -2   -1    0    0    0  501  0.00000000000E+00  0.00000000000E+00 -0.38634384987E+03  0.38634384987E+03  0.25500000920E-02 0. -1.
    10030    2    1    2    0    0  0.00000000000E+00  0.00000000000E+00  0.19495425010E+04  0.27222302007E+04  0.18999529738E+04 0.  0.
        2    1    3    3  502    0  0.78935504885E+03 -0.49057796736E+03  0.12566600504E+04  0.15629915603E+04  0.25500000920E-02 0.  1.
       -2    1    3    3    0  502 -0.78935504885E+03  0.49057796736E+03  0.69288245058E+03  0.11592386405E+04  0.25500000920E-02 0. -1.
</event>
<event>
 5   0  0.3398807E-06  0.1900310E+04  0.7818609E-02  0.8654702E-01
       -1   -1    0    0    0  501  0.00000000000E+00  0.00000000000E+00  0.53290983095E+03  0.53290983097E+03  0.50400001928E-02 0.  1.
        1   -1    0    0  501    0  0.00000000000E+00  0.00000000000E+00 -0.16940849110E+04  0.16940849110E+04  0.50400001928E-02 0. -1.
    10030    2    1    2    0    0  0.00000000000E+00  0.00000000000E+00 -0.11611750800E+04  0.22269947420E+04  0.19003099785E+04 0.  0.
        1    1    3    3  502    0  0.53606116819E+03  0.73784728382E+03 -0.89288445106E+03  0.12763317881E+04  0.50400001928E-02 0. -1.
       -1    1    3    3    0  502 -0.53606116819E+03 -0.73784728382E+03 -0.26829062898E+03  0.95066295389E+03  0.50400001928E-02 0.  1.
</event>
<event>
 5   0  0.3398807E-06  0.1899858E+04  0.7818609E-02  0.8654927E-01
        1   -1    0    0  501    0  0.00000000000E+00  0.00000000000E+00  0.11668457806E+04  0.11668457806E+04  0.50400001928E-02 0. -1.
       -1   -1    0    0    0  501  0.00000000000E+00  0.00000000000E+00 -0.77333714674E+03  0.77333714676E+03  0.50400001928E-02 0.  1.
    10030    2    1    2    0    0  0.00000000000E+00  0.00000000000E+00  0.39350863386E+03  0.19401829274E+04  0.18998580859E+04 0.  0.
        1    1    3    3  502    0  0.99668616334E+02  0.10934939981E+03  0.11550064628E+04  0.11644445257E+04  0.50400001928E-02 0. -1.
       -1    1    3    3    0  502 -0.99668616334E+02 -0.10934939981E+03 -0.76149782893E+03  0.77573840166E+03  0.50400001928E-02 0.  1.
</event>
<event>
 5   0  0.3495279E-06  0.1900431E+04  0.7818609E-02  0.8654642E-01
       -1   -1    0    0    0  501  0.00000000000E+00  0.00000000000E+00  0.83433251466E+03  0.83433251468E+03  0.50400001928E-02 0. -1.
        1   -1    0    0  501    0  0.00000000000E+00  0.00000000000E+00 -0.10821937485E+04  0.10821937485E+04  0.50400001928E-02 0.  1.
    10030    2    1    2    0    0  0.00000000000E+00  0.00000000000E+00 -0.24786123379E+03  0.19165262631E+04  0.19004309317E+04 0.  0.
        2    1    3    3  502    0 -0.43273528518E+03  0.74036474262E+03 -0.53667636038E+03  0.10116428693E+04  0.25500000920E-02 0. -1.
       -2    1    3    3    0  502  0.43273528518E+03 -0.74036474262E+03  0.28881512659E+03  0.90488339387E+03  0.25500000920E-02 0.  1.
</event>
<event>
 5   0  0.7207648E-06  0.1900449E+04  0.7818609E-02  0.8654633E-01
        2   -1    0    0  501    0  0.00000000000E+00  0.00000000000E+00  0.17768912540E+04  0.17768912540E+04  0.25500000920E-02 0. -1.
       -2   -1    0    0    0  501  0.00000000000E+00  0.00000000000E+00 -0.50814944669E+03  0.50814944669E+03  0.25500000920E-02 0.  1.
    10030    2    1    2    0    0  0.00000000000E+00  0.00000000000E+00  0.12687418073E+04  0.22850407007E+04  0.19004486918E+04 0.  0.
        4    1    3    3  502    0 -0.18969920083E+03  0.84075333953E+03  0.11154278241E+04  0.14096215125E+04  0.12699999809E+01 0.  1.
       -4    1    3    3    0  502  0.18969920083E+03 -0.84075333953E+03  0.15331398319E+03  0.87541918820E+03  0.12699999809E+01 0. -1.
</event>
<event>
 5   0  0.2527750E-06  0.1900259E+04  0.7818609E-02  0.8654728E-01
       -4   -1    0    0    0  501  0.00000000000E+00  0.00000000000E+00  0.54768762158E+03  0.54768909405E+03  0.12699999809E+01 0. -1.
        4   -1    0    0  501    0  0.00000000000E+00  0.00000000000E+00 -0.16482817700E+04  0.16482822593E+04  0.12699999809E+01 0.  1.
    10030    2    1    2    0    0  0.00000000000E+00  0.00000000000E+00 -0.11005941484E+04  0.21959713533E+04  0.19002585890E+04 0.  0.
        3    1    3    3  502    0 -0.37189900616E+03  0.69072028150E+03 -0.11697577458E+04  0.14084518352E+04  0.10100000352E+00 0.  1.
       -3    1    3    3    0  502  0.37189900616E+03 -0.69072028150E+03  0.69163597336E+02  0.78751951814E+03  0.10100000352E+00 0. -1.
</event>
<event>
 5   0  0.7207648E-06  0.1900690E+04  0.7818609E-02  0.8654513E-01
        2   -1    0    0  501    0  0.00000000000E+00  0.00000000000E+00  0.17750263946E+04  0.17750263946E+04  0.25500000920E-02 0. -1.
       -2   -1    0    0    0  501  0.00000000000E+00  0.00000000000E+00 -0.50881273196E+03  0.50881273197E+03  0.25500000920E-02 0.  1.
    10030    2    1    2    0    0  0.00000000000E+00  0.00000000000E+00  0.12662136626E+04  0.22838391266E+04  0.19006904316E+04 0.  0.
        4    1    3    3  502    0 -0.70768123525E+03 -0.59818243480E+03  0.88663666159E+03  0.12824824126E+04  0.12699999809E+01 0. -1.
       -4    1    3    3    0  502  0.70768123525E+03  0.59818243480E+03  0.37957700105E+03  0.10013567140E+04  0.12699999809E+01 0.  1.
</event>
<event>
 5   0  0.6870370E-06  0.1899637E+04  0.7818609E-02  0.8655037E-01
       -2   -1    0    0    0  501  0.00000000000E+00  0.00000000000E+00  0.87338062256E+03  0.87338062257E+03  0.25500000920E-02 0. -1.
        2   -1    0    0  501    0  0.00000000000E+00  0.00000000000E+00 -0.10329460108E+04  0.10329460108E+04  0.25500000920E-02 0.  1.
    10030    2    1    2    0    0  0.00000000000E+00  0.00000000000E+00 -0.15956538826E+03  0.19063266334E+04  0.18996368390E+04 0.  0.
        1    1    3    3  502    0  0.93090987906E+03 -0.10972699616E+03 -0.23369102639E+03  0.96604591633E+03  0.50400001928E-02 0.  1.
       -1    1    3    3    0  502 -0.93090987906E+03  0.10972699616E+03  0.74125638131E+02  0.94028071706E+03  0.50400001928E-02 0. -1.
</event>
<event>
 5   0  0.2527750E-06  0.1900345E+04  0.7818609E-02  0.8654685E-01
       -4   -1    0    0    0  501  0.00000000000E+00  0.00000000000E+00  0.96893704514E+03  0.96893787745E+03  0.12699999809E+01 0. -1.
        4   -1    0    0  501    0  0.00000000000E+00  0.00000000000E+00 -0.93176933582E+03  0.93177020133E+03  0.12699999809E+01 0.  1.
    10030    2    1    2    0    0  0.00000000000E+00  0.00000000000E+00  0.37167709318E+02  0.19007080788E+04  0.19003446430E+04 0.  0.
        2    1    3    3  502    0  0.62025128131E+03 -0.71769664143E+03  0.73615458908E+02  0.95143016396E+03  0.25500000920E-02 0. -1.
       -2    1    3    3    0  502 -0.62025128131E+03  0.71769664143E+03 -0.36447749589E+02  0.94927791481E+03  0.25500000920E-02 0.  1.
</event>
<event>
 5   0  0.6862201E-06  0.1898077E+04  0.7818609E-02  0.8655814E-01
        2   -1    0    0  501    0  0.00000000000E+00  0.00000000000E+00  0.14994429031E+04  0.14994429031E+04  0.25500000920E-02 0.  1.
       -2   -1    0    0    0  501  0.00000000000E+00  0.00000000000E+00 -0.60067243742E+03  0.60067243742E+03  0.25500000920E-02 0. -1.
    10030    2    1    2    0    0  0.00000000000E+00  0.00000000000E+00  0.89877046565E+03  0.21001153405E+04  0.18980769461E+04 0.  0.
        3    1    3    3  502    0 -0.17909331671E+03  0.18101032512E+03  0.14609404001E+04  0.14829652783E+04  0.10100000352E+00 0.  1.
       -3    1    3    3    0  502  0.17909331671E+03 -0.18101032512E+03 -0.56216993442E+03  0.61715006219E+03  0.10100000352E+00 0. -1.
</event>
<event>
 5   0  0.7207648E-06  0.1899712E+04  0.7818609E-02  0.8655000E-01
       -2   -1    0    0    0  501  0.00000000000E+00  0.00000000000E+00  0.68951117745E+03  0.68951117746E+03  0.25500000920E-02 0.  1.
        2   -1    0    0  501    0  0.00000000000E+00  0.00000000000E+00 -0.13085017268E+04  0.13085017268E+04  0.25500000920E-02 0. -1.
    10030    2    1    2    0    0  0.00000000000E+00  0.00000000000E+00 -0.61899054938E+03  0.19980129043E+04  0.18997121533E+04 0.  0.
        4    1    3    3  502    0  0.50025457371E+03  0.78139684402E+03 -0.95524499139E+02  0.93271764709E+03  0.12699999809E+01 0. -1.
       -4    1    3    3    0  502 -0.50025457371E+03 -0.78139684402E+03 -0.52346605024E+03  0.10652952572E+04  0.12699999809E+01 0.  1.
</event>
<event>
 5   0  0.3236653E-06  0.1899969E+04  0.7818609E-02  0.8654872E-01
        1   -1    0    0  501    0  0.00000000000E+00  0.00000000000E+00  0.74027002242E+03  0.74027002243E+03  0.50400001928E-02 0.  1.
       -1   -1    0    0    0  501  0.00000000000E+00  0.00000000000E+00 -0.12191102576E+04  0.12191102576E+04  0.50400001928E-02 0. -1.
    10030    2    1    2    0    0  0.00000000000E+00  0.00000000000E+00 -0.47884023517E+03  0.19593802800E+04  0.18999692395E+04 0.  0.
        3    1    3    3  502    0 -0.94165874709E+03  0.12034971056E+03 -0.20273360291E+03  0.97072456070E+03  0.10100000352E+00 0.  1.
       -3    1    3    3    0  502  0.94165874709E+03 -0.12034971056E+03 -0.27610663226E+03  0.98865571933E+03  0.10100000352E+00 0. -1.
</event>
<event>
 5   0  0.3495279E-06  0.1900097E+04  0.7818609E-02  0.8654808E-01
       -1   -1    0    0    0  501  0.00000000000E+00  0.00000000000E+00  0.73293274450E+03  0.73293274452E+03  0.50400001928E-02 0. -1.
        1   -1    0    0  501    0  0.00000000000E+00  0.00000000000E+00 -0.12314799768E+04  0.12314799768E+04  0.50400001928E-02 0.  1.
    10030    2    1    2    0    0  0.00000000000E+00  0.00000000000E+00 -0.49854723227E+03  0.19644127213E+04  0.19000968388E+04 0.  0.
        2    1    3    3  502    0  0.76729780058E+03  0.54775642600E+03 -0.12778437003E+03  0.95137367119E+03  0.25500000920E-02 0. -1.
       -2    1    3    3    0  502 -0.76729780058E+03 -0.54775642600E+03 -0.37076286224E+03  0.10130390501E+04  0.25500000920E-02 0.  1.
</event>
<event>
 5   0  0.3211263E-06  0.1899801E+04  0.7818609E-02  0.8654955E-01
        1   -1    0    0  501    0  0.00000000000E+00  0.00000000000E+00  0.70958697915E+03  0.70958697917E+03  0.50400001928E-02 0. -1.
       -1   -1    0    0    0  501  0.00000000000E+00  0.00000000000E+00 -0.12716008213E+04  0.12716008213E+04  0.50400001928E-02 0.  1.
    10030    2    1    2    0    0  0.00000000000E+00  0.00000000000E+00 -0.56201384213E+03  0.19811878005E+04  0.18998014480E+04 0.  0.
        5    1    3    3  502    0 -0.72230653599E+03  0.86205378614E+02 -0.91801979718E+03  0.11712986542E+04  0.46999998093E+01 0.  1.
       -5    1    3    3    0  502  0.72230653599E+03 -0.86205378614E+02  0.35600595505E+03  0.80988914629E+03  0.46999998093E+01 0. -1.
</event>
<event>
 5   0  0.7207648E-06  0.1900714E+04  0.7818609E-02  0.8654501E-01
       -2   -1    0    0    0  501  0.00000000000E+00  0.00000000000E+00  0.47500260930E+03  0.47500260931E+03  0.25500000920E-02 0. -1.
        2   -1    0    0  501    0  0.00000000000E+00  0.00000000000E+00 -0.19014181967E+04  0.19014181967E+04  0.25500000920E-02 0.  1.
    10030    2    1    2    0    0  0.00000000000E+00  0.00000000000E+00 -0.14264155874E+04  0.23764208060E+04  0.19007141866E+04 0.  0.
        4    1    3    3  502    0 -0.73753957353E+03 -0.42749584129E+03 -0.12384132961E+04  0.15034581543E+04  0.12699999809E+01 0.  1.
       -4    1    3    3    0  502  0.73753957353E+03  0.42749584129E+03 -0.18800229127E+03  0.87296265171E+03  0.12699999809E+01 0. -1.
</event>
<event>
 5   0  0.3398807E-06  0.1900632E+04  0.7818609E-02  0.8654542E-01
       -1   -1    0    0    0  501  0.00000000000E+00  0.00000000000E+00  0.97128061994E+03  0.97128061995E+03  0.50400001928E-02 0. -1.
        1   -1    0    0  501    0  0.00000000000E+00  0.00000000000E+00 -0.92980350786E+03  0.92980350787E+03  0.50400001928E-02 0.  1.
    10030    2    1    2    0    0  0.00000000000E+00  0.00000000000E+00  0.41477112075E+02  0.19010841278E+04  0.19006316082E+04 0.  0.
        1    1    3    3  502    0  0.46571618368E+02  0.94582803809E+03 -0.58907874202E+02  0.94880436916E+03  0.50400001928E-02 0.  1.
       -1    1    3    3    0  502 -0.46571618368E+02 -0.94582803809E+03  0.10038498628E+03  0.95227975866E+03  0.50400001928E-02 0. -1.
</event>
<event>
 5   0  0.3211263E-06  0.1899616E+04  0.7818609E-02  0.8655047E-01
        1   -1    0    0  501    0  0.00000000000E+00  0.00000000000E+00  0.10411944708E+04  0.10411944708E+04  0.50400001928E-02 0.  1.
       -1   -1    0    0    0  501  0.00000000000E+00  0.00000000000E+00 -0.86644293351E+03  0.86644293353E+03  0.50400001928E-02 0. -1.
    10030    2    1    2    0    0  0.00000000000E+00  0.00000000000E+00  0.17475153731E+03  0.19076374044E+04  0.18996163736E+04 0.  0.
        5    1    3    3  502    0 -0.35325423601E+03 -0.34457761146E+03  0.90233876910E+03  0.10284744186E+04  0.46999998093E+01 0.  1.
       -5    1    3    3    0  502  0.35325423601E+03  0.34457761146E+03 -0.72758723180E+03  0.87916298572E+03  0.46999998093E+01 0. -1.
</event>
<event>
 5   0  0.3398807E-06  0.1900210E+04  0.7818609E-02  0.8654752E-01
        1   -1    0    0  501    0  0.00000000000E+00  0.00000000000E+00  0.11379626223E+04  0.11379626223E+04  0.50400001928E-02 0. -1.
       -1   -1    0    0    0  501  0.00000000000E+00  0.00000000000E+00 -0.79325896118E+03  0.79325896119E+03  0.50400001928E-02 0.  1.
    10030    2    1    2    0    0  0.00000000000E+00  0.00000000000E+00  0.34470366108E+03  0.19312215835E+04  0.19002095123E+04 0.  0.
        1    1    3    3  502    0  0.77570416762E+03 -0.52834920498E+03  0.22193433526E+02  0.93880902562E+03  0.50400001928E-02 0.  1.
       -1    1    3    3    0  502 -0.77570416762E+03  0.52834920498E+03  0.32251022755E+03  0.99241255784E+03  0.50400001928E-02 0. -1.
</event>
<event>
 5   0  0.3495279E-06  0.1900946E+04  0.7818609E-02  0.8654386E-01
        1   -1    0    0  501    0  0.00000000000E+00  0.00000000000E+00  0.15810299404E+04  0.15810299404E+04  0.50400001928E-02 0.  1.
       -1   -1    0    0    0  501  0.00000000000E+00  0.00000000000E+00 -0.57139891706E+03  0.57139891708E+03  0.50400001928E-02 0. -1.
    10030    2    1    2    0    0  0.00000000000E+00  0.00000000000E+00  0.10096310233E+04  0.21524288575E+04  0.19009458654E+04 0.  0.
        2    1    3    3  502    0 -0.42819630429E+03 -0.83935449107E+03  0.64592473401E+03  0.11424039560E+04  0.25500000920E-02 0. -1.
       -2    1    3    3    0  502  0.42819630429E+03  0.83935449107E+03  0.36370628932E+03  0.10100249015E+04  0.25500000920E-02 0.  1.
</event>
<event>
 5   0  0.7577180E-06  0.1899954E+04  0.7818609E-02  0.8654879E-01
       -2   -1    0    0    0  501  0.00000000000E+00  0.00000000000E+00  0.70971753845E+03  0.70971753846E+03  0.25500000920E-02 0.  1.
        2   -1    0    0  501    0  0.00000000000E+00  0.00000000000E+00 -0.12715711318E+04  0.12715711318E+04  0.25500000920E-02 0. -1.
    10030    2    1    2    0    0  0.00000000000E+00  0.00000000000E+00 -0.56185359339E+03  0.19812886703E+04  0.18999540349E+04 0.  0.
        5    1    3    3  502    0 -0.89293245547E+03  0.65469324437E+02 -0.61204056168E+03  0.10845415352E+04  0.46999998093E+01 0. -1.
       -5    1    3    3    0  502  0.89293245547E+03 -0.65469324437E+02  0.50186968296E+02  0.89674713508E+03  0.46999998093E+01 0.  1.
</event>
<event>
 5   0  0.7207648E-06  0.1899998E+04  0.7818609E-02  0.8654858E-01
        2   -1    0    0  501    0  0.00000000000E+00  0.00000000000E+00  0.15706189090E+04  0.15706189090E+04  0.25500000920E-02 0. -1.
       -2   -1    0    0    0  501  0.00000000000E+00  0.00000000000E+00 -0.57461273440E+03  0.57461273440E+03  0.25500000920E-02 0.  1.
    10030    2    1    2    0    0  0.00000000000E+00  0.00000000000E+00  0.99600617461E+03  0.21452316434E+04  0.18999975011E+04 0.  0.
        4    1    3    3  502    0  0.72382858254E+03  0.29660149981E+03 -0.11064434090E+03  0.79002787904E+03  0.12699999809E+01 0.  1.
       -4    1    3    3    0  502 -0.72382858254E+03 -0.29660149981E+03  0.11066505155E+04  0.13552037644E+04  0.12699999809E+01 0. -1.
</event>
<event>
 5   0  0.3236653E-06  0.1902316E+04  0.7818609E-02  0.8653705E-01
        1   -1    0    0  501    0  0.00000000000E+00  0.00000000000E+00  0.65317234680E+03  0.65317234681E+03  0.50400001928E-02 0.  1.
       -1   -1    0    0    0  501  0.00000000000E+00  0.00000000000E+00 -0.13850882859E+04  0.13850882859E+04  0.50400001928E-02 0. -1.
    10030    2    1    2    0    0  0.00000000000E+00  0.00000000000E+00 -0.73191593915E+03  0.20382606328E+04  0.19023158163E+04 0.  0.
        3    1    3    3  502    0 -0.20012367034E+03  0.88771351309E+03 -0.69380257230E+02  0.91263267257E+03  0.10100000352E+00 0. -1.
       -3    1    3    3    0  502  0.20012367034E+03 -0.88771351309E+03 -0.66253568192E+03  0.11256279602E+04  0.10100000352E+00 0.  1.
</event>
<event>
 5   0  0.3495279E-06  0.1899822E+04  0.7818609E-02  0.8654945E-01
       -1   -1    0    0    0  501  0.00000000000E+00  0.00000000000E+00  0.54354301619E+03  0.54354301621E+03  0.50400001928E-02 0. -1.
        1   -1    0    0  501    0  0.00000000000E+00  0.00000000000E+00 -0.16600914791E+04  0.16600914791E+04  0.50400001928E-02 0.  1.
    10030    2    1    2    0    0  0.00000000000E+00  0.00000000000E+00 -0.11165484629E+04  0.22036344953E+04  0.18998222335E+04 0.  0.
        2    1    3    3  502    0 -0.37086731035E+03  0.61069995366E+03 -0.12843429554E+04  0.14697053523E+04  0.25500000920E-02 0.  1.
       -2    1    3    3    0  502  0.37086731035E+03 -0.61069995366E+03  0.16779449253E+03  0.73392914305E+03  0.25500000920E-02 0. -1.
</event>
<event>
 5   0  0.7207648E-06  0.1900622E+04  0.7818609E-02  0.8654547E-01
        2   -1    0    0  501    0  0.00000000000E+00  0.00000000000E+00  0.14736652908E+04  0.14736652908E+04  0.25500000920E-02 0.  1.
       -2   -1    0    0    0  501  0.00000000000E+00  0.00000000000E+00 -0.61281976121E+03  0.61281976121E+03  0.25500000920E-02 0. -1.
    10030    2    1    2    0    0  0.00000000000E+00  0.00000000000E+00  0.86084552959E+03  0.20864850520E+04  0.19006222261E+04 0.  0.
        4    1    3    3  502    0 -0.54811791753E+03  0.61401076317E+03 -0.91053301730E+02  0.82809104902E+03  0.12699999809E+01 0. -1.
       -4    1    3    3    0  502  0.54811791753E+03 -0.61401076317E+03  0.95189883132E+03  0.12583940030E+04  0.12699999809E+01 0.  1.
</event>
<event>
 5   0  0.3398807E-06  0.1899927E+04  0.7818609E-02  0.8654893E-01
       -1   -1    0    0    0  501  0.00000000000E+00  0.00000000000E+00  0.62451305433E+03  0.62451305435E+03  0.50400001928E-02 0. -1.
        1   -1    0    0  501    0  0.00000000000E+00  0.00000000000E+00 -0.14450143597E+04  0.14450143597E+04  0.50400001928E-02 0.  1.
    10030    2    1    2    0    0  0.00000000000E+00  0.00000000000E+00 -0.82050130537E+03  0.20695274140E+04  0.18999266632E+04 0.  0.
        1    1    3    3  502    0  0.94553433391E+02  0.94452798849E+03 -0.37012689235E+03  0.10188559217E+04  0.50400001928E-02 0.  1.
       -1    1    3    3    0  502 -0.94553433391E+02 -0.94452798849E+03 -0.45037441301E+03  0.10506714923E+04  0.50400001928E-02 0. -1.
</event>
<event>
 5   0  0.6870370E-06  0.1900063E+04  0.7818609E-02  0.8654825E-01
        2   -1    0    0  501    0  0.00000000000E+00  0.00000000000E+00  0.20683237834E+04  0.20683237834E+04  0.25500000920E-02 0. -1.
       -2   -1    0    0    0  501  0.00000000000E+00  0.00000000000E+00 -0.43637279061E+03  0.43637279062E+03  0.25500000920E-02 0.  1.
    10030    2    1    2    0    0  0.00000000000E+00  0.00000000000E+00  0.16319509928E+04  0.25046965740E+04  0.19000633897E+04 0.  0.
        1    1    3    3  502    0  0.63002244675E+03  0.46263330237E+03  0.10413522679E+03  0.78854422917E+03  0.50400001928E-02 0.  1.
       -1    1    3    3    0  502 -0.63002244675E+03 -0.46263330237E+03  0.15278157660E+04  0.17161523448E+04  0.50400001928E-02 0. -1.
</event>
<event>
 5   0  0.3398807E-06  0.1900056E+04  0.7818609E-02  0.8654828E-01
        1   -1    0    0  501    0  0.00000000000E+00  0.00000000000E+00  0.10660732759E+04  0.10660732759E+04  0.50400001928E-02 0. -1.
       -1   -1    0    0    0  501  0.00000000000E+00  0.00000000000E+00 -0.84661497546E+03  0.84661497548E+03  0.50400001928E-02 0.  1.
    10030    2    1    2    0    0  0.00000000000E+00  0.00000000000E+00  0.21945830045E+03  0.19126882514E+04  0.19000564206E+04 0.  0.
        1    1    3    3  502    0 -0.40210541947E+03  0.78061214860E+03 -0.25532413852E+03  0.91445858881E+03  0.50400001928E-02 0.  1.
       -1    1    3    3    0  502  0.40210541947E+03 -0.78061214860E+03  0.47478243897E+03  0.99822966259E+03  0.50400001928E-02 0. -1.
</event>
<event>
 5   0  0.3398807E-06  0.1899096E+04  0.7818609E-02  0.8655307E-01
        1   -1    0    0  501    0  0.00000000000E+00  0.00000000000E+00  0.14312453197E+04  0.14312453197E+04  0.50400001928E-02 0.  1.
       -1   -1    0    0    0  501  0.00000000000E+00  0.00000000000E+00 -0.62996963953E+03  0.62996963955E+03  0.50400001928E-02 0. -1.
    10030    2    1    2    0    0  0.00000000000E+00  0.00000000000E+00  0.80127568014E+03  0.20612149592E+04  0.18990956776E+04 0.  0.
        1    1    3    3  502    0 -0.94593722389E+03  0.48878640836E+02  0.47307941225E+03  0.10587683804E+04  0.50400001928E-02 0.  1.
       -1    1    3    3    0  502  0.94593722389E+03 -0.48878640836E+02  0.32819626789E+03  0.10024465788E+04  0.50400001928E-02 0. -1.
</event>
<event>
 5   0  0.6862201E-06  0.1893502E+04  0.7818609E-02  0.8658098E-01
        2   -1    0    0  501    0  0.00000000000E+00  0.00000000000E+00  0.69258991762E+03  0.69258991762E+03  0.25500000920E-02 0.  1.
       -2   -1    0    0    0  501  0.00000000000E+00  0.00000000000E+00 -0.12941822184E+04  0.12941822184E+04  0.25500000920E-02 0. -1.
    10030    2    1    2    0    0  0.00000000000E+00  0.00000000000E+00 -0.60159230078E+03  0.19867721360E+04  0.18935021056E+04 0.  0.
        3    1    3    3  502    0  0.12082005893E+03  0.82334979996E+03 -0.77451626302E+03  0.11368279692E+04  0.10100000352E+00 0. -1.
       -3    1    3    3    0  502 -0.12082005893E+03 -0.82334979996E+03  0.17292396225E+03  0.84994416678E+03  0.10100000352E+00 0.  1.
</event>
<event>
 5   0  0.3211263E-06  0.1900212E+04  0.7818609E-02  0.8654751E-01
        1   -1    0    0  501    0  0.00000000000E+00  0.00000000000E+00  0.96888768960E+03  0.96888768962E+03  0.50400001928E-02 0.  1.
       -1   -1    0    0    0  501  0.00000000000E+00  0.00000000000E+00 -0.93168796560E+03  0.93168796561E+03  0.50400001928E-02 0. -1.
    10030    2    1    2    0    0  0.00000000000E+00  0.00000000000E+00  0.37199724007E+02  0.19005756552E+04  0.19002115676E+04 0.  0.
        5    1    3    3  502    0  0.16739380621E+03 -0.16057825086E+03  0.94011935446E+03  0.96832461068E+03  0.46999998093E+01 0.  1.
       -5    1    3    3    0  502 -0.16739380621E+03  0.16057825086E+03 -0.90291963046E+03  0.93225104455E+03  0.46999998093E+01 0. -1.
</event>
<event>
 5   0  0.6862201E-06  0.1898747E+04  0.7818609E-02  0.8655480E-01
       -2   -1    0    0    0  501  0.00000000000E+00  0.00000000000E+00  0.68556768222E+03  0.68556768222E+03  0.25500000920E-02 0. -1.
        2   -1    0    0  501    0  0.00000000000E+00  0.00000000000E+00 -0.13146921604E+04  0.13146921604E+04  0.25500000920E-02 0.  1.
    10030    2    1    2    0    0  0.00000000000E+00  0.00000000000E+00 -0.62912447820E+03  0.20002598426E+04  0.18987474369E+04 0.  0.
        3    1    3    3  502    0  0.27301590905E+03 -0.56083136439E+03 -0.10685362199E+04  0.12372708553E+04  0.10100000352E+00 0.  1.
       -3    1    3    3    0  502 -0.27301590905E+03  0.56083136439E+03  0.43941174171E+03  0.76298898736E+03  0.10100000352E+00 0. -1.
</event>
<event>
 5   0  0.7207648E-06  0.1897891E+04  0.7818609E-02  0.8655907E-01
       -2   -1    0    0    0  501  0.00000000000E+00  0.00000000000E+00  0.60327258380E+03  0.60327258380E+03  0.25500000920E-02 0.  1.
        2   -1    0    0  501    0  0.00000000000E+00  0.00000000000E+00 -0.14926871567E+04  0.14926871567E+04  0.25500000920E-02 0. -1.
    10030    2    1    2    0    0  0.00000000000E+00  0.00000000000E+00 -0.88941457286E+03  0.20959597405E+04  0.18978906584E+04 0.  0.
        4    1    3    3  502    0  0.20344325735E+03 -0.35988187271E+03  0.49859661825E+03  0.64769153298E+03  0.12699999809E+01 0.  1.
       -4    1    3    3    0  502 -0.20344325735E+03  0.35988187271E+03 -0.13880111911E+04  0.14482682075E+04  0.12699999809E+01 0. -1.
</event>
<event>
 5   0  0.6862201E-06  0.1897663E+04  0.7818609E-02  0.8656020E-01
        2   -1    0    0  501    0  0.00000000000E+00  0.00000000000E+00  0.80876967774E+03  0.80876967774E+03  0.25500000920E-02 0.  1.
       -2   -1    0    0    0  501  0.00000000000E+00  0.00000000000E+00 -0.11131492901E+04  0.11131492901E+04  0.25500000920E-02 0. -1.
    10030    2    1    2    0    0  0.00000000000E+00  0.00000000000E+00 -0.30437961238E+03  0.19219189679E+04  0.18976631868E+04 0.  0.
        3    1    3    3  502    0 -0.69874099189E+03 -0.61572919103E+03  0.31567945626E+02  0.93185726151E+03  0.10100000352E+00 0.  1.
       -3    1    3    3    0  502  0.69874099189E+03  0.61572919103E+03 -0.33594755801E+03  0.99006170635E+03  0.10100000352E+00 0. -1.
</event>
<event>
 5   0  0.6870370E-06  0.1899764E+04  0.7818609E-02  0.8654974E-01
       -2   -1    0    0    0  501  0.00000000000E+00  0.00000000000E+00  0.53451027208E+03  0.53451027209E+03  0.25500000920E-02 0. -1.
        2   -1    0    0  501    0  0.00000000000E+00  0.00000000000E+00 -0.16880424002E+04  0.16880424002E+04  0.25500000920E-02 0.  1.
    10030    2    1    2    0    0  0.00000000000E+00  0.00000000000E+00 -0.11535321281E+04  0.22225526723E+04  0.18997641987E+04 0.  0.
        1    1    3    3  502    0 -0.21226579320E+03  0.50968940508E+03  0.32750375840E+03  0.64194919457E+03  0.50400001928E-02 0. -1.
       -1    1    3    3    0  502  0.21226579320E+03 -0.50968940508E+03 -0.14810358865E+04  0.15806034777E+04  0.50400001928E-02 0.  1.
</event>
<event>
 5   0  0.3495279E-06  0.1907231E+04  0.7818609E-02  0.8651265E-01
        1   -1    0    0  501    0  0.00000000000E+00  0.00000000000E+00  0.17335254477E+04  0.17335254477E+04  0.50400001928E-02 0.  1.
       -1   -1    0    0    0  501  0.00000000000E+00  0.00000000000E+00 -0.52458556320E+03  0.52458556323E+03  0.50400001928E-02 0. -1.
    10030    2    1    2    0    0  0.00000000000E+00  0.00000000000E+00  0.12089398845E+04  0.22581110109E+04  0.19072308967E+04 0.  0.
        2    1    3    3  502    0  0.37194405628E+03  0.38271395595E+03 -0.33122137453E+03  0.62810823274E+03  0.25500000920E-02 0. -1.
       -2    1    3    3    0  502 -0.37194405628E+03 -0.38271395595E+03  0.15401612590E+04  0.16300027782E+04  0.25500000920E-02 0.  1.
</event>
<event>
 5   0  0.3379108E-06  0.1899664E+04  0.7818609E-02  0.8655024E-01
       -1   -1    0    0    0  501  0.00000000000E+00  0.00000000000E+00  0.44198721613E+03  0.44198721615E+03  0.50400001928E-02 0. -1.
        1   -1    0    0  501    0  0.00000000000E+00  0.00000000000E+00 -0.20411919395E+04  0.20411919395E+04  0.50400001928E-02 0.  1.
    10030    2    1    2    0    0  0.00000000000E+00  0.00000000000E+00 -0.15992047234E+04  0.24831791557E+04  0.18996639102E+04 0.  0.
        4    1    3    3  502    0  0.89289360021E+03  0.19471014322E+03 -0.46122993759E+03  0.10236726476E+04  0.12699999809E+01 0. -1.
       -4    1    3    3    0  502 -0.89289360021E+03 -0.19471014322E+03 -0.11379747858E+04  0.14595065081E+04  0.12699999809E+01 0.  1.
</event>
<event>
 5   0  0.7577180E-06  0.1901051E+04  0.7818609E-02  0.8654333E-01
        2   -1    0    0  501    0  0.00000000000E+00  0.00000000000E+00  0.76065820833E+03  0.76065820834E+03  0.25500000920E-02 0. -1.
       -2   -1    0    0    0  501  0.00000000000E+00  0.00000000000E+00 -0.11877853437E+04  0.11877853437E+04  0.25500000920E-02 0.  1.
    10030    2    1    2    0    0  0.00000000000E+00  0.00000000000E+00 -0.42712713536E+03  0.19484435520E+04  0.19010509424E+04 0.  0.
        5    1    3    3  502    0  0.62129366562E+03  0.71143630280E+03 -0.10447161177E+03  0.95030723429E+03  0.46999998093E+01 0. -1.
       -5    1    3    3    0  502 -0.62129366562E+03 -0.71143630280E+03 -0.32265552359E+03  0.99813631773E+03  0.46999998093E+01 0.  1.
</event>
<event>
 5   0  0.3398807E-06  0.1899566E+04  0.7818609E-02  0.8655072E-01
       -1   -1    0    0    0  501  0.00000000000E+00  0.00000000000E+00  0.51997220829E+03  0.51997220831E+03  0.50400001928E-02 0. -1.
        1   -1    0    0  501    0  0.00000000000E+00  0.00000000000E+00 -0.17348773641E+04  0.17348773641E+04  0.50400001928E-02 0.  1.
    10030    2    1    2    0    0  0.00000000000E+00  0.00000000000E+00 -0.12149051558E+04  0.22548495724E+04  0.18995662812E+04 0.  0.
        1    1    3    3  502    0 -0.61862889850E+03 -0.12775780975E+03 -0.14493803714E+04  0.15810525713E+04  0.50400001928E-02 0.  1.
       -1    1    3    3    0  502  0.61862889850E+03  0.12775780975E+03  0.23447521561E+03  0.67379700116E+03  0.50400001928E-02 0. -1.
</event>
<event>
 5   0  0.3379108E-06  0.1900210E+04  0.7818609E-02  0.8654752E-01
       -1   -1    0    0    0  501  0.00000000000E+00  0.00000000000E+00  0.58440689888E+03  0.58440689890E+03  0.50400001928E-02 0. -1.
        1   -1    0    0  501    0  0.00000000000E+00  0.00000000000E+00 -0.15446414800E+04  0.15446414800E+04  0.50400001928E-02 0.  1.
    10030    2    1    2    0    0  0.00000000000E+00  0.00000000000E+00 -0.96023458111E+03  0.21290483789E+04  0.19002096066E+04 0.  0.
        4    1    3    3  502    0 -0.77275154925E+03  0.51136279828E+03 -0.71530222611E+03  0.11705963249E+04  0.12699999809E+01 0.  1.
       -4    1    3    3    0  502  0.77275154925E+03 -0.51136279828E+03 -0.24493235500E+03  0.95845205397E+03  0.12699999809E+01 0. -1.
</event>
<event>
 5   0  0.3211263E-06  0.1899983E+04  0.7818609E-02  0.8654865E-01
        1   -1    0    0  501    0  0.00000000000E+00  0.00000000000E+00  0.94140192155E+03  0.94140192157E+03  0.50400001928E-02 0.  1.
       -1   -1    0    0    0  501  0.00000000000E+00  0.00000000000E+00 -0.95865965908E+03  0.95865965909E+03  0.50400001928E-02 0. -1.
    10030    2    1    2    0    0  0.00000000000E+00  0.00000000000E+00 -0.17257737522E+02  0.19000615807E+04  0.18999832054E+04 0.  0.
        5    1    3    3  502    0 -0.69046007567E+03  0.62076438859E+03 -0.20958096326E+03  0.95185598301E+03  0.46999998093E+01 0. -1.
       -5    1    3    3    0  502  0.69046007567E+03 -0.62076438859E+03  0.19232322574E+03  0.94820559764E+03  0.46999998093E+01 0.  1.
</event>
<event>
 5   0  0.7207648E-06  0.1900123E+04  0.7818609E-02  0.8654795E-01
       -2   -1    0    0    0  501  0.00000000000E+00  0.00000000000E+00  0.32722129994E+03  0.32722129995E+03  0.25500000920E-02 0.  1.
        2   -1    0    0  501    0  0.00000000000E+00  0.00000000000E+00 -0.27584279479E+04  0.27584279479E+04  0.25500000920E-02 0. -1.
    10030    2    1    2    0    0  0.00000000000E+00  0.00000000000E+00 -0.24312066479E+04  0.30856492478E+04  0.19001225002E+04 0.  0.
        4    1    3    3  502    0 -0.37385060811E+03 -0.36025910391E+03 -0.25076812880E+04  0.25608627363E+04  0.12699999809E+01 0. -1.
       -4    1    3    3    0  502  0.37385060811E+03  0.36025910391E+03  0.76474640121E+02  0.52478651146E+03  0.12699999809E+01 0.  1.
</event>
<event>
 5   0  0.3398807E-06  0.1902368E+04  0.7818609E-02  0.8653678E-01
        1   -1    0    0  501    0  0.00000000000E+00  0.00000000000E+00  0.95491425925E+03  0.95491425927E+03  0.50400001928E-02 0. -1.
       -1   -1    0    0    0  501  0.00000000000E+00  0.00000000000E+00 -0.94746863409E+03  0.94746863410E+03  0.50400001928E-02 0.  1.
    10030    2    1    2    0    0  0.00000000000E+00  0.00000000000E+00  0.74456251656E+01  0.19023828934E+04  0.19023683228E+04 0.  0.
        1    1    3    3  502    0  0.90810326509E+03  0.68651954489E+02 -0.27084563566E+03  0.95011682929E+03  0.50400001928E-02 0.  1.
       -1    1    3    3    0  502 -0.90810326509E+03 -0.68651954489E+02  0.27829126082E+03  0.95226606408E+03  0.50400001928E-02 0. -1.
</event>
<event>
 5   0  0.6984466E-06  0.1903124E+04  0.7818609E-02  0.8653303E-01
        2   -1    0    0  501    0  0.00000000000E+00  0.00000000000E+00  0.16698066469E+04  0.16698066469E+04  0.25500000920E-02 0. -1.
       -2   -1    0    0    0  501  0.00000000000E+00  0.00000000000E+00 -0.54226079790E+03  0.54226079791E+03  0.25500000920E-02 0.  1.
    10030    2    1    2    0    0  0.00000000000E+00  0.00000000000E+00  0.11275458490E+04  0.22120674448E+04  0.19031244675E+04 0.  0.
        2    1    3    3  502    0 -0.66430003151E+03 -0.20296729356E+03  0.13197198568E+04  0.14913586941E+04  0.25500000920E-02 0. -1.
       -2    1    3    3    0  502  0.66430003151E+03  0.20296729356E+03 -0.19217400775E+03  0.72070875073E+03  0.25500000920E-02 0.  1.
</event>
<event>
 5   0  0.7577180E-06  0.1900985E+04  0.7818609E-02  0.8654366E-01
        2   -1    0    0  501    0  0.00000000000E+00  0.00000000000E+00  0.29092774372E+04  0.29092774372E+04  0.25500000920E-02 0.  1.
       -2   -1    0    0    0  501  0.00000000000E+00  0.00000000000E+00 -0.31053628662E+03  0.31053628663E+03  0.25500000920E-02 0. -1.
    10030    2    1    2    0    0  0.00000000000E+00  0.00000000000E+00  0.25987411506E+04  0.32198137238E+04  0.19009852310E+04 0.  0.
        5    1    3    3  502    0  0.68361574660E+03 -0.66032357616E+03  0.12866495569E+04  0.15996396114E+04  0.46999998093E+01 0.  1.
       -5    1    3    3    0  502 -0.68361574660E+03  0.66032357616E+03  0.13120915937E+04  0.16201741124E+04  0.46999998093E+01 0. -1.
</event>
<event>
 5   0  0.3236653E-06  0.1899717E+04  0.7818609E-02  0.8654997E-01
        1   -1    0    0  501    0  0.00000000000E+00  0.00000000000E+00  0.13540720464E+04  0.13540720464E+04  0.50400001928E-02 0.  1.
       -1   -1    0    0    0  501  0.00000000000E+00  0.00000000000E+00 -0.66630959316E+03  0.66630959318E+03  0.50400001928E-02 0. -1.
    10030    2    1    2    0    0  0.00000000000E+00  0.00000000000E+00  0.68776245321E+03  0.20203816396E+04  0.18997170256E+04 0.  0.
        3    1    3    3  502    0  0.68307560984E+03  0.58515278016E+03  0.19142365260E+02  0.89964576653E+03  0.10100000352E+00 0.  1.
       -3    1    3    3    0  502 -0.68307560984E+03 -0.58515278016E+03  0.66862008795E+03  0.11207358730E+04  0.10100000352E+00 0. -1.
</event>
<event>
 5   0  0.3211263E-06  0.1900868E+04  0.7818609E-02  0.8654424E-01
        1   -1    0    0  501    0  0.00000000000E+00  0.00000000000E+00  0.27670480716E+04  0.27670480716E+04  0.50400001928E-02 0. -1.
       -1   -1    0    0    0  501  0.00000000000E+00  0.00000000000E+00 -0.32645790399E+03  0.32645790403E+03  0.50400001928E-02 0.  1.
    10030    2    1    2    0    0  0.00000000000E+00  0.00000000000E+00  0.24405901676E+04  0.30935059756E+04  0.19008679215E+04 0.  0.
        5    1    3    3  502    0  0.25548663595E+03  0.12959150509E+03  0.26950939914E+04  0.27102806298E+04  0.46999998093E+01 0. -1.
       -5    1    3    3    0  502 -0.25548663595E+03 -0.12959150509E+03 -0.25450382386E+03  0.38322534585E+03  0.46999998093E+01 0.  1.
</event>
<event>
 5   0  0.6984466E-06  0.1899587E+04  0.7818609E-02  0.8655062E-01
       -2   -1    0    0    0  501  0.00000000000E+00  0.00000000000E+00  0.77612387643E+03  0.77612387644E+03  0.25500000920E-02 0.  1.
        2   -1    0    0  501    0  0.00000000000E+00  0.00000000000E+00 -0.11623243169E+04  0.11623243170E+04  0.25500000920E-02 0. -1.
    10030    2    1    2    0    0  0.00000000000E+00  0.00000000000E+00 -0.38620044052E+03  0.19384481934E+04  0.18995869599E+04 0.  0.
        2    1    3    3  502    0 -0.40602973174E+03  0.48845414215E+03 -0.91370528890E+03  0.11127915110E+04  0.25500000920E-02 0. -1.
       -2    1    3    3    0  502  0.40602973174E+03 -0.48845414215E+03  0.52750484839E+03  0.82565668236E+03  0.25500000920E-02 0.  1.
</event>
<event>
 5   0  0.3379108E-06  0.1901735E+04  0.7818609E-02  0.8653993E-01
        1   -1    0    0  501    0  0.00000000000E+00  0.00000000000E+00  0.12514880820E+04  0.12514880820E+04  0.50400001928E-02 0. -1.
       -1   -1    0    0    0  501  0.00000000000E+00  0.00000000000E+00 -0.72245950205E+03  0.72245950207E+03  0.50400001928E-02 0.  1.
    10030    2    1    2    0    0  0.00000000000E+00  0.00000000000E+00  0.52902857995E+03  0.19739475841E+04  0.19017354775E+04 0.  0.
        4    1    3    3  502    0 -0.59981829648E+03 -0.18052658589E+03  0.10070638899E+04  0.11859810826E+04  0.12699999809E+01 0. -1.
       -4    1    3    3    0  502  0.59981829648E+03  0.18052658589E+03 -0.47803530996E+03  0.78796650149E+03  0.12699999809E+01 0.  1.
</event>
<event>
 5   0  0.6862201E-06  0.1897993E+04  0.7818609E-02  0.8655856E-01
       -2   -1    0    0    0  501  0.00000000000E+00  0.00000000000E+00  0.51885012113E+03  0.51885012114E+03  0.25500000920E-02 0.  1.
        2   -1    0    0  501    0  0.00000000000E+00  0.00000000000E+00 -0.17357513256E+04  0.17357513256E+04  0.25500000920E-02 0. -1.
    10030    2    1    2    0    0  0.00000000000E+00  0.00000000000E+00 -0.12169012045E+04  0.22546014467E+04  0.18979934516E+04 0.  0.
        3    1    3    3  502    0 -0.22344342120E+03 -0.33541578541E+03 -0.16290411009E+04  0.16781554249E+04  0.10100000352E+00 0. -1.
       -3    1    3    3    0  502  0.22344342120E+03  0.33541578541E+03  0.41213989646E+03  0.57644602179E+03  0.10100000352E+00 0.  1.
</event>
<event>
 5   0  0.7577180E-06  0.1897864E+04  0.7818609E-02  0.8655920E-01
       -2   -1    0    0    0  501  0.00000000000E+00  0.00000000000E+00  0.52450641122E+03  0.52450641123E+03  0.25500000920E-02 0. -1.
        2   -1    0    0  501    0  0.00000000000E+00  0.00000000000E+00 -0.17167985622E+04  0.17167985622E+04  0.25500000920E-02 0.  1.
    10030    2    1    2    0    0  0.00000000000E+00  0.00000000000E+00 -0.11922921510E+04  0.22413049734E+04  0.18978639073E+04 0.  0.
        5    1    3    3  502    0 -0.82136114306E+03 -0.47292682642E+03 -0.54131264987E+03  0.10914831127E+04  0.46999998093E+01 0.  1.
       -5    1    3    3    0  502  0.82136114306E+03  0.47292682642E+03 -0.65097950109E+03  0.11498218607E+04  0.46999998093E+01 0. -1.
</event>
<event>
 5   0  0.6870370E-06  0.1899535E+04  0.7818609E-02  0.8655088E-01
       -2   -1    0    0    0  501  0.00000000000E+00  0.00000000000E+00  0.20730547203E+04  0.20730547203E+04  0.25500000920E-02 0. -1.
        2   -1    0    0  501    0  0.00000000000E+00  0.00000000000E+00 -0.43513461214E+03  0.43513461214E+03  0.25500000920E-02 0.  1.
    10030    2    1    2    0    0  0.00000000000E+00  0.00000000000E+00  0.16379201081E+04  0.25081893324E+04  0.18995345342E+04 0.  0.
        1    1    3    3  502    0 -0.57369616181E+03 -0.50861133771E+03  0.15591571351E+04  0.17374647481E+04  0.50400001928E-02 0. -1.
       -1    1    3    3    0  502  0.57369616181E+03  0.50861133771E+03  0.78762973032E+02  0.77072458432E+03  0.50400001928E-02 0.  1.
</event>
<event>
 5   0  0.3379108E-06  0.1898787E+04  0.7818609E-02  0.8655460E-01
        1   -1    0    0  501    0  0.00000000000E+00  0.00000000000E+00  0.71041452365E+03  0.71041452367E+03  0.50400001928E-02 0. -1.
       -1   -1    0    0    0  501  0.00000000000E+00  0.00000000000E+00 -0.12687635119E+04  0.12687635119E+04  0.50400001928E-02 0.  1.
    10030    2    1    2    0    0  0.00000000000E+00  0.00000000000E+00 -0.55834898828E+03  0.19791780356E+04  0.18987870086E+04 0.  0.
        4    1    3    3  502    0  0.72619984759E+03 -0.55203773354E+03 -0.55343924926E+03  0.10669622737E+04  0.12699999809E+01 0. -1.
       -4    1    3    3    0  502 -0.72619984759E+03  0.55203773354E+03 -0.49097390149E+01  0.91221576194E+03  0.12699999809E+01 0.  1.
</event>
<event>
 5   0  0.6870370E-06  0.1900368E+04  0.7818609E-02  0.8654673E-01
       -2   -1    0    0    0  501  0.00000000000E+00  0.00000000000E+00  0.48594034145E+03  0.48594034145E+03  0.25500000920E-02 0.  1.
        2   -1    0    0  501    0  0.00000000000E+00  0.00000000000E+00 -0.18579428926E+04  0.18579428926E+04  0.25500000920E-02 0. -1.
    10030    2    1    2    0    0  0.00000000000E+00  0.00000000000E+00 -0.13720025511E+04  0.23438832340E+04  0.19003677577E+04 0.  0.
        1    1    3    3  502    0  0.73361750814E+03  0.58807344951E+03 -0.85522396097E+03  0.12709968740E+04  0.50400001928E-02 0. -1.
       -1    1    3    3    0  502 -0.73361750814E+03 -0.58807344951E+03 -0.51677859014E+03  0.10728863600E+04  0.50400001928E-02 0.  1.
</event>
<event>
 5   0  0.3398807E-06  0.1899813E+04  0.7818609E-02  0.8654950E-01
        1   -1    0    0  501    0  0.00000000000E+00  0.00000000000E+00  0.16916403374E+04  0.16916403374E+04  0.50400001928E-02 0.  1.
       -1   -1    0    0    0  501  0.00000000000E+00  0.00000000000E+00 -0.53340073017E+03  0.53340073019E+03  0.50400001928E-02 0. -1.
    10030    2    1    2    0    0  0.00000000000E+00  0.00000000000E+00  0.11582396073E+04  0.22250410676E+04  0.18998128236E+04 0.  0.
        1    1    3    3  502    0  0.10316041901E+03 -0.53041090367E+03 -0.33586671610E+03  0.63622657112E+03  0.50400001928E-02 0. -1.
       -1    1    3    3    0  502 -0.10316041901E+03  0.53041090367E+03  0.14941063234E+04  0.15888144965E+04  0.50400001928E-02 0.  1.
</event>
<event>
 5   0  0.7207648E-06  0.1899531E+04  0.7818609E-02  0.8655090E-01
       -2   -1    0    0    0  501  0.00000000000E+00  0.00000000000E+00  0.11313792495E+04  0.11313792495E+04  0.25500000920E-02 0. -1.
        2   -1    0    0  501    0  0.00000000000E+00  0.00000000000E+00 -0.79730548263E+03  0.79730548263E+03  0.25500000920E-02 0.  1.
    10030    2    1    2    0    0  0.00000000000E+00  0.00000000000E+00  0.33407376688E+03  0.19286847321E+04  0.18995313933E+04 0.  0.
        4    1    3    3  502    0 -0.91885567758E+03 -0.21848181156E+03  0.26868939817E+03  0.98194992937E+03  0.12699999809E+01 0. -1.
       -4    1    3    3    0  502  0.91885567758E+03  0.21848181156E+03  0.65384368704E+02  0.94673480277E+03  0.12699999809E+01 0.  1.
</event>
<event>
 5   0  0.3398807E-06  0.1900010E+04  0.7818609E-02  0.8654851E-01
       -1   -1    0    0    0  501  0.00000000000E+00  0.00000000000E+00  0.10474208227E+04  0.10474208227E+04  0.50400001928E-02 0.  1.
        1   -1    0    0  501    0  0.00000000000E+00  0.00000000000E+00 -0.86164926043E+03  0.86164926045E+03  0.50400001928E-02 0. -1.
    10030    2    1    2    0    0  0.00000000000E+00  0.00000000000E+00  0.18577156223E+03  0.19090700831E+04  0.19000098708E+04 0.  0.
        1    1    3    3  502    0 -0.50517747692E+03 -0.75531657534E+03  0.37133896030E+03  0.98163131349E+03  0.50400001928E-02 0. -1.
       -1    1    3    3    0  502  0.50517747692E+03  0.75531657534E+03 -0.18556739807E+03  0.92743876963E+03  0.50400001928E-02 0.  1.
</event>
<event>
 5   0  0.7577180E-06  0.1899594E+04  0.7818609E-02  0.8655059E-01
        2   -1    0    0  501    0  0.00000000000E+00  0.00000000000E+00  0.22091093541E+04  0.22091093541E+04  0.25500000920E-02 0. -1.
       -2   -1    0    0    0  501  0.00000000000E+00  0.00000000000E+00 -0.40836093899E+03  0.40836093900E+03  0.25500000920E-02 0.  1.
    10030    2    1    2    0    0  0.00000000000E+00  0.00000000000E+00  0.18007484151E+04  0.26174702930E+04  0.18995936093E+04 0.  0.
        5    1    3    3  502    0 -0.18811060002E+03  0.67520375390E+03  0.17213900087E+02  0.70114486055E+03  0.46999998093E+01 0.  1.
       -5    1    3    3    0  502  0.18811060002E+03 -0.67520375390E+03  0.17835345150E+04  0.19163254325E+04  0.46999998093E+01 0. -1.
</event>
<event>
 5   0  0.7577180E-06  0.1897418E+04  0.7818609E-02  0.8656143E-01
       -2   -1    0    0    0  501  0.00000000000E+00  0.00000000000E+00  0.10408221876E+04  0.10408221876E+04  0.25500000920E-02 0. -1.
        2   -1    0    0  501    0  0.00000000000E+00  0.00000000000E+00 -0.86474779101E+03  0.86474779101E+03  0.25500000920E-02 0.  1.
    10030    2    1    2    0    0  0.00000000000E+00  0.00000000000E+00  0.17607439659E+03  0.19055699786E+04  0.18974179166E+04 0.  0.
        5    1    3    3  502    0 -0.36731454851E+03  0.51119242379E+03 -0.62479320265E+03  0.88691956105E+03  0.46999998093E+01 0.  1.
       -5    1    3    3    0  502  0.36731454851E+03 -0.51119242379E+03  0.80086759924E+03  0.10186504176E+04  0.46999998093E+01 0. -1.
</event>
<event>
 5   0  0.6984466E-06  0.1905339E+04  0.7818609E-02  0.8652203E-01
       -2   -1    0    0    0  501  0.00000000000E+00  0.00000000000E+00  0.19043434909E+04  0.19043434909E+04  0.25500000920E-02 0. -1.
        2   -1    0    0  501    0  0.00000000000E+00  0.00000000000E+00 -0.47658388793E+03  0.47658388794E+03  0.25500000920E-02 0.  1.
    10030    2    1    2    0    0  0.00000000000E+00  0.00000000000E+00  0.14277596030E+04  0.23809273788E+04  0.19053392610E+04 0.  0.
        2    1    3    3  502    0  0.43250372319E+03 -0.41510162877E+03 -0.21134559194E+03  0.63563809831E+03  0.25500000920E-02 0.  1.
       -2    1    3    3    0  502 -0.43250372319E+03  0.41510162877E+03  0.16391051949E+04  0.17452892805E+04  0.25500000920E-02 0. -1.
</event>
<event>
 5   0  0.6984466E-06  0.1899791E+04  0.7818609E-02  0.8654960E-01
        2   -1    0    0  501    0  0.00000000000E+00  0.00000000000E+00  0.11796095640E+04  0.11796095640E+04  0.25500000920E-02 0.  1.
       -2   -1    0    0    0  501  0.00000000000E+00  0.00000000000E+00 -0.76491538669E+03  0.76491538669E+03  0.25500000920E-02 0. -1.
    10030    2    1    2    0    0  0.00000000000E+00  0.00000000000E+00  0.41469417731E+03  0.19445249507E+04  0.18997910472E+04 0.  0.
        2    1    3    3  502    0  0.11352836592E+03 -0.27415087040E+03 -0.71626086600E+03  0.77529156953E+03  0.25500000920E-02 0. -1.
       -2    1    3    3    0  502 -0.11352836592E+03  0.27415087040E+03  0.11309550433E+04  0.11692333812E+04  0.25500000920E-02 0.  1.
</event>
<event>
 5   0  0.6870370E-06  0.1901289E+04  0.7818609E-02  0.8654215E-01
        2   -1    0    0  501    0  0.00000000000E+00  0.00000000000E+00  0.22647785701E+04  0.22647785701E+04  0.25500000920E-02 0.  1.
       -2   -1    0    0    0  501  0.00000000000E+00  0.00000000000E+00 -0.39903460954E+03  0.39903460954E+03  0.25500000920E-02 0. -1.
    10030    2    1    2    0    0  0.00000000000E+00  0.00000000000E+00  0.18657439606E+04  0.26638131796E+04  0.19012890705E+04 0.  0.
        1    1    3    3  502    0 -0.74968208076E+03  0.78346348380E+02  0.17444739135E+04  0.19003553898E+04  0.50400001928E-02 0.  1.
       -1    1    3    3    0  502  0.74968208076E+03 -0.78346348380E+02  0.12127004702E+03  0.76345778983E+03  0.50400001928E-02 0. -1.
</event>
<event>
 5   0  0.3211263E-06  0.1896176E+04  0.7818609E-02  0.8656762E-01
       -1   -1    0    0    0  501  0.00000000000E+00  0.00000000000E+00  0.44282709001E+03  0.44282709004E+03  0.50400001928E-02 0. -1.
        1   -1    0    0  501    0  0.00000000000E+00  0.00000000000E+00 -0.20298471784E+04  0.20298471784E+04  0.50400001928E-02 0.  1.
    10030    2    1    2    0    0  0.00000000000E+00  0.00000000000E+00 -0.15870200884E+04  0.24726742685E+04  0.18961764889E+04 0.  0.
        5    1    3    3  502    0 -0.14625492065E+03  0.76375429113E+03 -0.15007451352E+04  0.16902571313E+04  0.46999998093E+01 0.  1.
       -5    1    3    3    0  502  0.14625492065E+03 -0.76375429113E+03 -0.86274953235E+02  0.78241713720E+03  0.46999998093E+01 0. -1.
</event>
<event>
 5   0  0.3236653E-06  0.1898659E+04  0.7818609E-02  0.8655524E-01
        1   -1    0    0  501    0  0.00000000000E+00  0.00000000000E+00  0.23294871629E+04  0.23294871629E+04  0.50400001928E-02 0. -1.
       -1   -1    0    0    0  501  0.00000000000E+00  0.00000000000E+00 -0.38687766469E+03  0.38687766472E+03  0.50400001928E-02 0.  1.
    10030    2    1    2    0    0  0.00000000000E+00  0.00000000000E+00  0.19426094982E+04  0.27163648276E+04  0.18986590569E+04 0.  0.
        3    1    3    3  502    0  0.72275391329E+03 -0.24960825319E+02  0.91433227963E+02  0.72894190945E+03  0.10100000352E+00 0.  1.
       -3    1    3    3    0  502 -0.72275391329E+03  0.24960825319E+02  0.18511762702E+04  0.19874229182E+04  0.10100000352E+00 0. -1.
</event>
<event>
 5   0  0.2527750E-06  0.1897387E+04  0.7818609E-02  0.8656158E-01
       -3   -1    0    0    0  501  0.00000000000E+00  0.00000000000E+00  0.11245491997E+04  0.11245492042E+04  0.10100000352E+00 0.  1.
        3   -1    0    0  501    0  0.00000000000E+00  0.00000000000E+00 -0.80033807264E+03  0.80033807901E+03  0.10100000352E+00 0. -1.
    10030    2    1    2    0    0  0.00000000000E+00  0.00000000000E+00  0.32421112708E+03  0.19248872833E+04  0.18973872031E+04 0.  0.
        3    1    3    3  502    0  0.64935536743E+03 -0.15691193514E+03 -0.52125648366E+03  0.84734413349E+03  0.10100000352E+00 0. -1.
       -3    1    3    3    0  502 -0.64935536743E+03  0.15691193514E+03  0.84546761073E+03  0.10775431498E+04  0.10100000352E+00 0.  1.
</event>
<event>
 5   0  0.6862201E-06  0.1898169E+04  0.7818609E-02  0.8655768E-01
        2   -1    0    0  501    0  0.00000000000E+00  0.00000000000E+00  0.14506566646E+04  0.14506566646E+04  0.25500000920E-02 0. -1.
       -2   -1    0    0    0  501  0.00000000000E+00  0.00000000000E+00 -0.62093383458E+03  0.62093383458E+03  0.25500000920E-02 0.  1.
    10030    2    1    2    0    0  0.00000000000E+00  0.00000000000E+00  0.82972283001E+03  0.20715904992E+04  0.18981694397E+04 0.  0.
        3    1    3    3  502    0  0.84643541120E+03 -0.31223718991E+03  0.93294848600E+02  0.90699994877E+03  0.10100000352E+00 0.  1.
       -3    1    3    3    0  502 -0.84643541120E+03  0.31223718991E+03  0.73642798141E+03  0.11645905504E+04  0.10100000352E+00 0. -1.
</event>
<event>
 5   0  0.3398807E-06  0.1909499E+04  0.7818609E-02  0.8650143E-01
       -1   -1    0    0    0  501  0.00000000000E+00  0.00000000000E+00  0.77236000265E+03  0.77236000267E+03  0.50400001928E-02 0. -1.
        1   -1    0    0  501    0  0.00000000000E+00  0.00000000000E+00 -0.11802094317E+04  0.11802094317E+04  0.50400001928E-02 0.  1.
    10030    2    1    2    0    0  0.00000000000E+00  0.00000000000E+00 -0.40784942904E+03  0.19525694344E+04  0.19094989498E+04 0.  0.
        1    1    3    3  502    0  0.20835355952E+03 -0.97906782194E+02  0.74355465387E+03  0.77837681561E+03  0.50400001928E-02 0. -1.
       -1    1    3    3    0  502 -0.20835355952E+03  0.97906782194E+02 -0.11514040829E+04  0.11741926188E+04  0.50400001928E-02 0.  1.
</event>
<event>
 5   0  0.6984466E-06  0.1900190E+04  0.7818609E-02  0.8654762E-01
        2   -1    0    0  501    0  0.00000000000E+00  0.00000000000E+00  0.19604442190E+04  0.19604442190E+04  0.25500000920E-02 0. -1.
       -2   -1    0    0    0  501  0.00000000000E+00  0.00000000000E+00 -0.46044676316E+03  0.46044676317E+03  0.25500000920E-02 0.  1.
    10030    2    1    2    0    0  0.00000000000E+00  0.00000000000E+00  0.14999974558E+04  0.24208909822E+04  0.19001896695E+04 0.  0.
        2    1    3    3  502    0  0.62912796252E+03 -0.19923572785E+03 -0.12080834400E+03  0.67088860809E+03  0.25500000920E-02 0.  1.
       -2    1    3    3    0  502 -0.62912796252E+03  0.19923572785E+03  0.16208057999E+04  0.17500023741E+04  0.25500000920E-02 0. -1.
</event>
<event>
 5   0  0.3379108E-06  0.1900308E+04  0.7818609E-02  0.8654703E-01
        1   -1    0    0  501    0  0.00000000000E+00  0.00000000000E+00  0.16630750975E+04  0.16630750975E+04  0.50400001928E-02 0. -1.
       -1   -1    0    0    0  501  0.00000000000E+00  0.00000000000E+00 -0.54284509559E+03  0.54284509562E+03  0.50400001928E-02 0.  1.
    10030    2    1    2    0    0  0.00000000000E+00  0.00000000000E+00  0.11202300019E+04  0.22059201932E+04  0.19003075123E+04 0.  0.
        4    1    3    3  502    0  0.65547955275E+03  0.28228344047E+03  0.12882508797E+04  0.14727285312E+04  0.12699999809E+01 0. -1.
       -4    1    3    3    0  502 -0.65547955275E+03 -0.28228344047E+03 -0.16802087774E+03  0.73319166191E+03  0.12699999809E+01 0.  1.
</event>
<event>
 5   0  0.3398807E-06  0.1899963E+04  0.7818609E-02  0.8654875E-01
        1   -1    0    0  501    0  0.00000000000E+00  0.00000000000E+00  0.10983444968E+04  0.10983444968E+04  0.50400001928E-02 0. -1.
       -1   -1    0    0    0  501  0.00000000000E+00  0.00000000000E+00 -0.82165933705E+03  0.82165933706E+03  0.50400001928E-02 0.  1.
    10030    2    1    2    0    0  0.00000000000E+00  0.00000000000E+00  0.27668515974E+03  0.19200038339E+04  0.18999631692E+04 0.  0.
        1    1    3    3  502    0 -0.17863720753E+03  0.10666111410E+03 -0.79835258157E+03  0.82501799356E+03  0.50400001928E-02 0.  1.
       -1    1    3    3    0  502  0.17863720753E+03 -0.10666111410E+03  0.10750377413E+04  0.10949858403E+04  0.50400001928E-02 0. -1.
</event>
<event>
 5   0  0.3495279E-06  0.1899763E+04  0.7818609E-02  0.8654975E-01
        1   -1    0    0  501    0  0.00000000000E+00  0.00000000000E+00  0.53139112867E+03  0.53139112869E+03  0.50400001928E-02 0.  1.
       -1   -1    0    0    0  501  0.00000000000E+00  0.00000000000E+00 -0.16979479395E+04  0.16979479395E+04  0.50400001928E-02 0. -1.
    10030    2    1    2    0    0  0.00000000000E+00  0.00000000000E+00 -0.11665568108E+04  0.22293390682E+04  0.18997625873E+04 0.  0.
        2    1    3    3  502    0  0.93992304061E+03  0.13369956919E+03 -0.54723174847E+03  0.10958072292E+04  0.25500000920E-02 0.  1.
       -2    1    3    3    0  502 -0.93992304061E+03 -0.13369956919E+03 -0.61932506233E+03  0.11335318389E+04  0.25500000920E-02 0. -1.
</event>
<event>
 5   0  0.3236653E-06  0.1899457E+04  0.7818609E-02  0.8655127E-01
       -1   -1    0    0    0  501  0.00000000000E+00  0.00000000000E+00  0.72068837460E+03  0.72068837461E+03  0.50400001928E-02 0. -1.
        1   -1    0    0  501    0  0.00000000000E+00  0.00000000000E+00 -0.12515596326E+04  0.12515596326E+04  0.50400001928E-02 0.  1.
    10030    2    1    2    0    0  0.00000000000E+00  0.00000000000E+00 -0.53087125798E+03  0.19722480072E+04  0.18994572671E+04 0.  0.
        3    1    3    3  502    0 -0.54220343206E+02  0.52767874464E+03 -0.10834064309E+04  0.12062977277E+04  0.10100000352E+00 0.  1.
       -3    1    3    3    0  502  0.54220343206E+02 -0.52767874464E+03  0.55253517291E+03  0.76595027950E+03  0.10100000352E+00 0. -1.
</event>
<event>
 5   0  0.7207648E-06  0.1899810E+04  0.7818609E-02  0.8654951E-01
        2   -1    0    0  501    0  0.00000000000E+00  0.00000000000E+00  0.15214999256E+04  0.15214999256E+04  0.25500000920E-02 0. -1.
       -2   -1    0    0    0  501  0.00000000000E+00  0.00000000000E+00 -0.59304616020E+03  0.59304616021E+03  0.25500000920E-02 0.  1.
    10030    2    1    2    0    0  0.00000000000E+00  0.00000000000E+00  0.92845376535E+03  0.21145460858E+04  0.18998101890E+04 0.  0.
        4    1    3    3  502    0  0.20320352008E+02  0.27321822279E+03 -0.54811488988E+03  0.61277455837E+03  0.12699999809E+01 0.  1.
       -4    1    3    3    0  502 -0.20320352008E+02 -0.27321822279E+03  0.14765686552E+04  0.15017715274E+04  0.12699999809E+01 0. -1.
</event>
<event>
 5   0  0.7207648E-06  0.1899959E+04  0.7818609E-02  0.8654877E-01
       -2   -1    0    0    0  501  0.00000000000E+00  0.00000000000E+00  0.56286995603E+03  0.56286995604E+03  0.25500000920E-02 0. -1.
        2   -1    0    0  501    0  0.00000000000E+00  0.00000000000E+00 -0.16033203433E+04  0.16033203433E+04  0.25500000920E-02 0.  1.
    10030    2    1    2    0    0  0.00000000000E+00  0.00000000000E+00 -0.10404503873E+04  0.21661902993E+04  0.18999587902E+04 0.  0.
        4    1    3    3  502    0 -0.22756399475E+03  0.87988404534E+03 -0.83552267167E+03  0.12345367766E+04  0.12699999809E+01 0. -1.
       -4    1    3    3    0  502  0.22756399475E+03 -0.87988404534E+03 -0.20492771560E+03  0.93165352276E+03  0.12699999809E+01 0.  1.
</event>
<event>
 5   0  0.3495279E-06  0.1897152E+04  0.7818609E-02  0.8656275E-01
        1   -1    0    0  501    0  0.00000000000E+00  0.00000000000E+00  0.10091654248E+04  0.10091654248E+04  0.50400001928E-02 0. -1.
       -1   -1    0    0    0  501  0.00000000000E+00  0.00000000000E+00 -0.89162424104E+03  0.89162424105E+03  0.50400001928E-02 0.  1.
    10030    2    1    2    0    0  0.00000000000E+00  0.00000000000E+00  0.11754118374E+03  0.19007896658E+04  0.18971519243E+04 0.  0.
        2    1    3    3  502    0 -0.61518565296E+03  0.32196664259E+03 -0.58875065783E+03  0.91035336197E+03  0.25500000920E-02 0.  1.
       -2    1    3    3    0  502  0.61518565296E+03 -0.32196664259E+03  0.70629184157E+03  0.99043630387E+03  0.25500000920E-02 0. -1.
</event>
<event>
 5   0  0.7207648E-06  0.1899610E+04  0.7818609E-02  0.8655051E-01
       -2   -1    0    0    0  501  0.00000000000E+00  0.00000000000E+00  0.87379329138E+03  0.87379329139E+03  0.25500000920E-02 0. -1.
        2   -1    0    0  501    0  0.00000000000E+00  0.00000000000E+00 -0.10324288239E+04  0.10324288240E+04  0.25500000920E-02 0.  1.
    10030    2    1    2    0    0  0.00000000000E+00  0.00000000000E+00 -0.15863553256E+03  0.19062221153E+04  0.18996098338E+04 0.  0.
        4    1    3    3  502    0 -0.34265352437E+03  0.45155604595E+03 -0.84408176154E+03  0.10167546083E+04  0.12699999809E+01 0.  1.
       -4    1    3    3    0  502  0.34265352437E+03 -0.45155604595E+03  0.68544622897E+03  0.88946750706E+03  0.12699999809E+01 0. -1.
</event>
<event>
 5   0  0.6870370E-06  0.1897835E+04  0.7818609E-02  0.8655935E-01
        2   -1    0    0  501    0  0.00000000000E+00  0.00000000000E+00  0.70491725451E+03  0.70491725451E+03  0.25500000920E-02 0. -1.
       -2   -1    0    0    0  501  0.00000000000E+00  0.00000000000E+00 -0.12773761554E+04  0.12773761554E+04  0.25500000920E-02 0.  1.
    10030    2    1    2    0    0  0.00000000000E+00  0.00000000000E+00 -0.57245890090E+03  0.19822934099E+04  0.18978350744E+04 0.  0.
        1    1    3    3  502    0  0.52845887713E+03  0.35100332260E+03 -0.10233051512E+04  0.12040039659E+04  0.50400001928E-02 0.  1.
       -1    1    3    3    0  502 -0.52845887713E+03 -0.35100332260E+03  0.45084625030E+03  0.77828944406E+03  0.50400001928E-02 0. -1.
</event>
<event>
 5   0  0.7207648E-06  0.1899416E+04  0.7818609E-02  0.8655147E-01
        2   -1    0    0  501    0  0.00000000000E+00  0.00000000000E+00  0.12255760439E+04  0.12255760439E+04  0.25500000920E-02 0.  1.
       -2   -1    0    0    0  501  0.00000000000E+00  0.00000000000E+00 -0.73593592805E+03  0.73593592805E+03  0.25500000920E-02 0. -1.
    10030    2    1    2    0    0  0.00000000000E+00  0.00000000000E+00  0.48964011586E+03  0.19615119720E+04  0.18994161664E+04 0.  0.
        4    1    3    3  502    0  0.37488951400E+03 -0.72138907356E+03 -0.26214601011E+03  0.85420517832E+03  0.12699999809E+01 0. -1.
       -4    1    3    3    0  502 -0.37488951400E+03  0.72138907356E+03  0.75178612597E+03  0.11073067936E+04  0.12699999809E+01 0.  1.
</event>
<event>
 5   0  0.3236653E-06  0.1904724E+04  0.7818609E-02  0.8652509E-01
        1   -1    0    0  501    0  0.00000000000E+00  0.00000000000E+00  0.16431015807E+04  0.16431015807E+04  0.50400001928E-02 0.  1.
       -1   -1    0    0    0  501  0.00000000000E+00  0.00000000000E+00 -0.55200070545E+03  0.55200070548E+03  0.50400001928E-02 0. -1.
    10030    2    1    2    0    0  0.00000000000E+00  0.00000000000E+00  0.10911008752E+04  0.21951022862E+04  0.19047238453E+04 0.  0.
        3    1    3    3  502    0  0.84797340005E+03 -0.43161533688E+03  0.49884363950E+03  0.10743349911E+04  0.10100000352E+00 0.  1.
       -3    1    3    3    0  502 -0.84797340005E+03  0.43161533688E+03  0.59225723574E+03  0.11207672951E+04  0.10100000352E+00 0. -1.
</event>
<event>
 5   0  0.7577180E-06  0.1902184E+04  0.7818609E-02  0.8653770E-01
       -2   -1    0    0    0  501  0.00000000000E+00  0.00000000000E+00  0.74854584834E+03  0.74854584834E+03  0.25500000920E-02 0.  1.
        2   -1    0    0  501    0  0.00000000000E+00  0.00000000000E+00 -0.12084443966E+04  0.12084443966E+04  0.25500000920E-02 0. -1.
    10030    2    1    2    0    0  0.00000000000E+00  0.00000000000E+00 -0.45989854830E+03  0.19569902450E+04  0.19021840458E+04 0.  0.
        5    1    3    3  502    0  0.47210585917E+02 -0.90796417060E+03 -0.51714488351E+03  0.10459869478E+04  0.46999998093E+01 0.  1.
       -5    1    3    3    0  502 -0.47210585917E+02  0.90796417060E+03  0.57246335209E+02  0.91100329715E+03  0.46999998093E+01 0. -1.
</event>
<event>
 5   0  0.3211263E-06  0.1899855E+04  0.7818609E-02  0.8654928E-01
        1   -1    0    0  501    0  0.00000000000E+00  0.00000000000E+00  0.94852773798E+03  0.94852773800E+03  0.50400001928E-02 0. -1.
       -1   -1    0    0    0  501  0.00000000000E+00  0.00000000000E+00 -0.95132951695E+03  0.95132951696E+03  0.50400001928E-02 0.  1.
    10030    2    1    2    0    0  0.00000000000E+00  0.00000000000E+00 -0.28017789616E+01  0.18998572550E+04  0.18998551890E+04 0.  0.
        5    1    3    3  502    0 -0.98958293851E+02  0.11953455086E+03  0.93575491513E+03  0.94854657448E+03  0.46999998093E+01 0. -1.
       -5    1    3    3    0  502  0.98958293851E+02 -0.11953455086E+03 -0.93855669409E+03  0.95131068048E+03  0.46999998093E+01 0.  1.
</event>
<event>
 5   0  0.3236653E-06  0.1898999E+04  0.7818609E-02  0.8655355E-01
       -1   -1    0    0    0  501  0.00000000000E+00  0.00000000000E+00  0.10872871359E+04  0.10872871359E+04  0.50400001928E-02 0. -1.
        1   -1    0    0  501    0  0.00000000000E+00  0.00000000000E+00 -0.82917320155E+03  0.82917320157E+03  0.50400001928E-02 0.  1.
    10030    2    1    2    0    0  0.00000000000E+00  0.00000000000E+00  0.25811393435E+03  0.19164603375E+04  0.18989990579E+04 0.  0.
        3    1    3    3  502    0 -0.20300406200E+03  0.80894368898E+03  0.58704562597E+03  0.10199132896E+04  0.10100000352E+00 0. -1.
       -3    1    3    3    0  502  0.20300406200E+03 -0.80894368898E+03 -0.32893169162E+03  0.89654704789E+03  0.10100000352E+00 0.  1.
</event>
<event>
 5   0  0.6862201E-06  0.1900441E+04  0.7818609E-02  0.8654637E-01
       -2   -1    0    0    0  501  0.00000000000E+00  0.00000000000E+00  0.36097749924E+03  0.36097749925E+03  0.25500000920E-02 0. -1.
        2   -1    0    0  501    0  0.00000000000E+00  0.00000000000E+00 -0.25013168051E+04  0.25013168051E+04  0.25500000920E-02 0.  1.
    10030    2    1    2    0    0  0.00000000000E+00  0.00000000000E+00 -0.21403393058E+04  0.28622943043E+04  0.19004410910E+04 0.  0.
        3    1    3    3  502    0 -0.53499750179E+03 -0.53847890186E+03 -0.20925682457E+03  0.78738191718E+03  0.10100000352E+00 0. -1.
       -3    1    3    3    0  502  0.53499750179E+03  0.53847890186E+03 -0.19310824813E+04  0.20749123871E+04  0.10100000352E+00 0.  1.
</event>
<event>
 5   0  0.3398807E-06  0.1899686E+04  0.7818609E-02  0.8655013E-01
       -1   -1    0    0    0  501  0.00000000000E+00  0.00000000000E+00  0.87414474709E+03  0.87414474711E+03  0.50400001928E-02 0.  1.
        1   -1    0    0  501    0  0.00000000000E+00  0.00000000000E+00 -0.10320961278E+04  0.10320961279E+04  0.50400001928E-02 0. -1.
    10030    2    1    2    0    0  0.00000000000E+00  0.00000000000E+00 -0.15795138075E+03  0.19062408750E+04  0.18996856673E+04 0.  0.
        1    1    3    3  502    0 -0.81368609901E+03  0.44548042784E+03 -0.28379649123E+03  0.97009191717E+03  0.50400001928E-02 0. -1.
       -1    1    3    3    0  502  0.81368609901E+03 -0.44548042784E+03  0.12584511049E+03  0.93614895779E+03  0.50400001928E-02 0.  1.
</event>
<event>
 5   0  0.3379108E-06  0.1900451E+04  0.7818609E-02  0.8654632E-01
       -1   -1    0    0    0  501  0.00000000000E+00  0.00000000000E+00  0.20852133976E+04  0.20852133976E+04  0.50400001928E-02 0. -1.
        1   -1    0    0  501    0  0.00000000000E+00  0.00000000000E+00 -0.43301487584E+03  0.43301487587E+03  0.50400001928E-02 0.  1.
    10030    2    1    2    0    0  0.00000000000E+00  0.00000000000E+00  0.16521985218E+04  0.25182282735E+04  0.19004509155E+04 0.  0.
        4    1    3    3  502    0 -0.10850627141E+03 -0.73880070427E+03  0.16047694132E+04  0.17699962074E+04  0.12699999809E+01 0. -1.
       -4    1    3    3    0  502  0.10850627141E+03  0.73880070427E+03  0.47429108552E+02  0.74823206614E+03  0.12699999809E+01 0.  1.
</event>
<event>
 5   0  0.3211263E-06  0.1899798E+04  0.7818609E-02  0.8654957E-01
       -1   -1    0    0    0  501  0.00000000000E+00  0.00000000000E+00  0.14762080158E+04  0.14762080158E+04  0.50400001928E-02 0.  1.
        1   -1    0    0  501    0  0.00000000000E+00  0.00000000000E+00 -0.61123396329E+03  0.61123396331E+03  0.50400001928E-02 0. -1.
    10030    2    1    2    0    0  0.00000000000E+00  0.00000000000E+00  0.86497405249E+03  0.20874419791E+04  0.18997983853E+04 0.  0.
        5    1    3    3  502    0  0.74318251657E+03  0.44911330057E+03  0.85556833777E+03  0.12190333385E+04  0.46999998093E+01 0.  1.
       -5    1    3    3    0  502 -0.74318251657E+03 -0.44911330057E+03  0.94057147270E+01  0.86840864065E+03  0.46999998093E+01 0. -1.
</event>
<event>
 5   0  0.3398807E-06  0.1900151E+04  0.7818609E-02  0.8654781E-01
        1   -1    0    0  501    0  0.00000000000E+00  0.00000000000E+00  0.94454751106E+03  0.94454751107E+03  0.50400001928E-02 0. -1.
       -1   -1    0    0    0  501  0.00000000000E+00  0.00000000000E+00 -0.95563550428E+03  0.95563550429E+03  0.50400001928E-02 0.  1.
    10030    2    1    2    0    0  0.00000000000E+00  0.00000000000E+00 -0.11087993220E+02  0.19001830154E+04  0.19001506646E+04 0.  0.
        1    1    3    3  502    0 -0.62515462441E+03 -0.54865320720E+03 -0.46468631546E+03  0.95277070589E+03  0.50400001928E-02 0.  1.
       -1    1    3    3    0  502  0.62515462441E+03  0.54865320720E+03  0.45359832224E+03  0.94741230948E+03  0.50400001928E-02 0. -1.
</event>
<event>
 5   0  0.3398807E-06  0.1900806E+04  0.7818609E-02  0.8654455E-01
        1   -1    0    0  501    0  0.00000000000E+00  0.00000000000E+00  0.11458297711E+04  0.11458297711E+04  0.50400001928E-02 0. -1.
       -1   -1    0    0    0  501  0.00000000000E+00  0.00000000000E+00 -0.78830698733E+03  0.78830698735E+03  0.50400001928E-02 0.  1.
    10030    2    1    2    0    0  0.00000000000E+00  0.00000000000E+00  0.35752278379E+03  0.19341367585E+04  0.19008057396E+04 0.  0.
        1    1    3    3  502    0  0.64189018279E+03 -0.63568416155E+03  0.47914677204E+03  0.10225942446E+04  0.50400001928E-02 0.  1.
       -1    1    3    3    0  502 -0.64189018279E+03  0.63568416155E+03 -0.12162398825E+03  0.91154251384E+03  0.50400001928E-02 0. -1.
</event>
<event>
 5   0  0.7207648E-06  0.1890887E+04  0.7818609E-02  0.8659406E-01
        2   -1    0    0  501    0  0.00000000000E+00  0.00000000000E+00  0.28921128448E+04  0.28921128448E+04  0.25500000920E-02 0.  1.
       -2   -1    0    0    0  501  0.00000000000E+00  0.00000000000E+00 -0.30906948524E+03  0.30906948526E+03  0.25500000920E-02 0. -1.
    10030    2    1    2    0    0  0.00000000000E+00  0.00000000000E+00  0.25830433596E+04  0.32011823301E+04  0.18908874406E+04 0.  0.
        4    1    3    3  502    0 -0.52660210821E+03 -0.46296190598E+03  0.21783919755E+03  0.73423363833E+03  0.12699999809E+01 0.  1.
       -4    1    3    3    0  502  0.52660210821E+03  0.46296190598E+03  0.23652041620E+04  0.24669486917E+04  0.12699999809E+01 0. -1.
</event>
<event>
 5   0  0.3379108E-06  0.1903667E+04  0.7818609E-02  0.8653033E-01
       -1   -1    0    0    0  501  0.00000000000E+00  0.00000000000E+00  0.68857066600E+03  0.68857066602E+03  0.50400001928E-02 0. -1.
        1   -1    0    0  501    0  0.00000000000E+00  0.00000000000E+00 -0.13157501907E+04  0.13157501907E+04  0.50400001928E-02 0.  1.
    10030    2    1    2    0    0  0.00000000000E+00  0.00000000000E+00 -0.62717952465E+03  0.20043208567E+04  0.19036669720E+04 0.  0.
        4    1    3    3  502    0  0.68295870151E+03  0.52524229123E+03 -0.73954622928E+03  0.11354480572E+04  0.12699999809E+01 0.  1.
       -4    1    3    3    0  502 -0.68295870151E+03 -0.52524229123E+03  0.11236670463E+03  0.86887279948E+03  0.12699999809E+01 0. -1.
</event>
<event>
 5   0  0.3398807E-06  0.1899319E+04  0.7818609E-02  0.8655195E-01
        1   -1    0    0  501    0  0.00000000000E+00  0.00000000000E+00  0.82166674355E+03  0.82166674356E+03  0.50400001928E-02 0. -1.
       -1   -1    0    0    0  501  0.00000000000E+00  0.00000000000E+00 -0.10975901596E+04  0.10975901596E+04  0.50400001928E-02 0.  1.
    10030    2    1    2    0    0  0.00000000000E+00  0.00000000000E+00 -0.27592341609E+03  0.19192569032E+04  0.18993191751E+04 0.  0.
        1    1    3    3  502    0 -0.67064908317E+03 -0.56124771552E+03  0.23617366114E+03  0.90584059810E+03  0.50400001928E-02 0. -1.
       -1    1    3    3    0  502  0.67064908317E+03  0.56124771552E+03 -0.51209707722E+03  0.10134163051E+04  0.50400001928E-02 0.  1.
</event>
<event>
 5   0  0.3236653E-06  0.1901209E+04  0.7818609E-02  0.8654255E-01
        1   -1    0    0  501    0  0.00000000000E+00  0.00000000000E+00  0.21719934438E+04  0.21719934438E+04  0.50400001928E-02 0.  1.
       -1   -1    0    0    0  501  0.00000000000E+00  0.00000000000E+00 -0.41604593215E+03  0.41604593218E+03  0.50400001928E-02 0. -1.
    10030    2    1    2    0    0  0.00000000000E+00  0.00000000000E+00  0.17559475117E+04  0.25880393760E+04  0.19012091279E+04 0.  0.
        3    1    3    3  502    0 -0.55379416991E+03  0.12513516772E+03 -0.15989391709E+03  0.58984139202E+03  0.10100000352E+00 0. -1.
       -3    1    3    3    0  502  0.55379416991E+03 -0.12513516772E+03  0.19158414288E+04  0.19981979840E+04  0.10100000352E+00 0.  1.
</event>
<event>
 5   0  0.3236653E-06  0.1900236E+04  0.7818609E-02  0.8654739E-01
        1   -1    0    0  501    0  0.00000000000E+00  0.00000000000E+00  0.11601184902E+04  0.11601184902E+04  0.50400001928E-02 0.  1.
       -1   -1    0    0    0  501  0.00000000000E+00  0.00000000000E+00 -0.77813100988E+03  0.77813100990E+03  0.50400001928E-02 0. -1.
    10030    2    1    2    0    0  0.00000000000E+00  0.00000000000E+00  0.38198748035E+03  0.19382495001E+04  0.19002359563E+04 0.  0.
        3    1    3    3  502    0 -0.44507691302E+03  0.20191764271E+03  0.10220690685E+04  0.11329119047E+04  0.10100000352E+00 0.  1.
       -3    1    3    3    0  502  0.44507691302E+03 -0.20191764271E+03 -0.64008158812E+03  0.80533759542E+03  0.10100000352E+00 0. -1.
</event>
<event>
 5   0  0.7207648E-06  0.1900688E+04  0.7818609E-02  0.8654514E-01
       -2   -1    0    0    0  501  0.00000000000E+00  0.00000000000E+00  0.16990746700E+04  0.16990746700E+04  0.25500000920E-02 0. -1.
        2   -1    0    0  501    0  0.00000000000E+00  0.00000000000E+00 -0.53155626394E+03  0.53155626395E+03  0.25500000920E-02 0.  1.
    10030    2    1    2    0    0  0.00000000000E+00  0.00000000000E+00  0.11675184060E+04  0.22306309339E+04  0.19006880688E+04 0.  0.
        4    1    3    3  502    0 -0.67532635901E+03  0.60519561305E+03  0.91740761029E+03  0.12899479670E+04  0.12699999809E+01 0.  1.
       -4    1    3    3    0  502  0.67532635901E+03 -0.60519561305E+03  0.25011079575E+03  0.94068296693E+03  0.12699999809E+01 0. -1.
</event>
<event>
 5   0  0.3495279E-06  0.1899859E+04  0.7818609E-02  0.8654927E-01
        1   -1    0    0  501    0  0.00000000000E+00  0.00000000000E+00  0.67068606409E+03  0.67068606411E+03  0.50400001928E-02 0. -1.
       -1   -1    0    0    0  501  0.00000000000E+00  0.00000000000E+00 -0.13454374052E+04  0.13454374052E+04  0.50400001928E-02 0.  1.
    10030    2    1    2    0    0  0.00000000000E+00  0.00000000000E+00 -0.67475134108E+03  0.20161234693E+04  0.18998590661E+04 0.  0.
        2    1    3    3  502    0  0.64187940427E+03 -0.69177692209E+02 -0.10768486116E+04  0.12555467554E+04  0.25500000920E-02 0.  1.
       -2    1    3    3    0  502 -0.64187940427E+03  0.69177692209E+02  0.40209727051E+03  0.76057671387E+03  0.25500000920E-02 0. -1.
</event>
<event>
 5   0  0.3379108E-06  0.1900852E+04  0.7818609E-02  0.8654432E-01
        1   -1    0    0  501    0  0.00000000000E+00  0.00000000000E+00  0.12222500790E+04  0.12222500790E+04  0.50400001928E-02 0.  1.
       -1   -1    0    0    0  501  0.00000000000E+00  0.00000000000E+00 -0.73905482541E+03  0.73905482543E+03  0.50400001928E-02 0. -1.
    10030    2    1    2    0    0  0.00000000000E+00  0.00000000000E+00  0.48319525355E+03  0.19613049044E+04  0.19008522496E+04 0.  0.
        4    1    3    3  502    0 -0.32561239758E+03  0.34942084362E+03 -0.60623417857E+03  0.77177707376E+03  0.12699999809E+01 0. -1.
       -4    1    3    3    0  502  0.32561239758E+03 -0.34942084362E+03  0.10894294321E+04  0.11895278306E+04  0.12699999809E+01 0.  1.
</event>
<event>
 5   0  0.7207648E-06  0.1900162E+04  0.7818609E-02  0.8654776E-01
        2   -1    0    0  501    0  0.00000000000E+00  0.00000000000E+00  0.63952160473E+03  0.63952160473E+03  0.25500000920E-02 0.  1.
       -2   -1    0    0    0  501  0.00000000000E+00  0.00000000000E+00 -0.14114524453E+04  0.14114524453E+04  0.25500000920E-02 0. -1.
    10030    2    1    2    0    0  0.00000000000E+00  0.00000000000E+00 -0.77193084057E+03  0.20509740500E+04  0.19001624486E+04 0.  0.
        4    1    3    3  502    0 -0.27152945569E+02  0.22502828059E+03 -0.13818409595E+04  0.14003074875E+04  0.12699999809E+01 0. -1.
       -4    1    3    3    0  502  0.27152945569E+02 -0.22502828059E+03  0.60991011889E+03  0.65066656249E+03  0.12699999809E+01 0.  1.
</event>
<event>
 5   0  0.7577180E-06  0.1899997E+04  0.7818609E-02  0.8654858E-01
       -2   -1    0    0    0  501  0.00000000000E+00  0.00000000000E+00  0.58055243646E+03  0.58055243646E+03  0.25500000920E-02 0.  1.
        2   -1    0    0  501    0  0.00000000000E+00  0.00000000000E+00 -0.15545487031E+04  0.15545487031E+04  0.25500000920E-02 0. -1.
    10030    2    1    2    0    0  0.00000000000E+00  0.00000000000E+00 -0.97399626664E+03  0.21351011396E+04  0.18999968812E+04 0.  0.
        5    1    3    3  502    0 -0.14262630203E+03 -0.88354156357E+03 -0.12900825187E+03  0.90424176835E+03  0.46999998093E+01 0. -1.
       -5    1    3    3    0  502  0.14262630203E+03  0.88354156357E+03 -0.84498801477E+03  0.12308593712E+04  0.46999998093E+01 0.  1.
</event>
<event>
 5   0  0.3379108E-06  0.1899876E+04  0.7818609E-02  0.8654918E-01
        1   -1    0    0  501    0  0.00000000000E+00  0.00000000000E+00  0.16198838915E+04  0.16198838915E+04  0.50400001928E-02 0. -1.
       -1   -1    0    0    0  501  0.00000000000E+00  0.00000000000E+00 -0.55706577506E+03  0.55706577508E+03  0.50400001928E-02 0.  1.
    10030    2    1    2    0    0  0.00000000000E+00  0.00000000000E+00  0.10628181164E+04  0.21769496665E+04  0.18998756544E+04 0.  0.
        4    1    3    3  502    0  0.22400346405E+02  0.16529088625E+03 -0.54015310955E+03  0.56532278147E+03  0.12699999809E+01 0.  1.
       -4    1    3    3    0  502 -0.22400346405E+02 -0.16529088625E+03  0.16029712259E+04  0.16116268851E+04  0.12699999809E+01 0. -1.
</event>
<event>
 5   0  0.7207648E-06  0.1899114E+04  0.7818609E-02  0.8655298E-01
       -2   -1    0    0    0  501  0.00000000000E+00  0.00000000000E+00  0.69247721126E+03  0.69247721126E+03  0.25500000920E-02 0. -1.
        2   -1    0    0  501    0  0.00000000000E+00  0.00000000000E+00 -0.13020766462E+04  0.13020766462E+04  0.25500000920E-02 0.  1.
    10030    2    1    2    0    0  0.00000000000E+00  0.00000000000E+00 -0.60959943491E+03  0.19945538574E+04  0.18991139037E+04 0.  0.
        4    1    3    3  502    0  0.84557019181E+03  0.28515180673E+03 -0.64569813748E+03  0.11014663861E+04  0.12699999809E+01 0. -1.
       -4    1    3    3    0  502 -0.84557019181E+03 -0.28515180673E+03  0.36098702569E+02  0.89308747130E+03  0.12699999809E+01 0.  1.
</event>
<event>
 5   0  0.6862201E-06  0.1899534E+04  0.7818609E-02  0.8655089E-01
       -2   -1    0    0    0  501  0.00000000000E+00  0.00000000000E+00  0.14627930575E+04  0.14627930575E+04  0.25500000920E-02 0. -1.
        2   -1    0    0  501    0  0.00000000000E+00  0.00000000000E+00 -0.61666748291E+03  0.61666748292E+03  0.25500000920E-02 0.  1.
    10030    2    1    2    0    0  0.00000000000E+00  0.00000000000E+00  0.84612557455E+03  0.20794605404E+04  0.18995335351E+04 0.  0.
        3    1    3    3  502    0  0.37673302827E+03  0.74522702314E+03 -0.72310338731E+02  0.83816459355E+03  0.10100000352E+00 0.  1.
       -3    1    3    3    0  502 -0.37673302827E+03 -0.74522702314E+03  0.91843591328E+03  0.12412959468E+04  0.10100000352E+00 0. -1.
</event>
<event>
 5   0  0.3211263E-06  0.1901366E+04  0.7818609E-02  0.8654177E-01
        1   -1    0    0  501    0  0.00000000000E+00  0.00000000000E+00  0.18248009737E+04  0.18248009737E+04  0.50400001928E-02 0. -1.
       -1   -1    0    0    0  501  0.00000000000E+00  0.00000000000E+00 -0.49528590016E+03  0.49528590019E+03  0.50400001928E-02 0.  1.
    10030    2    1    2    0    0  0.00000000000E+00  0.00000000000E+00  0.13295150735E+04  0.23200868738E+04  0.19013660278E+04 0.  0.
        5    1    3    3  502    0  0.94209955276E+03 -0.77153272266E+02  0.78842745700E+03  0.12309119139E+04  0.46999998093E+01 0. -1.
       -5    1    3    3    0  502 -0.94209955276E+03  0.77153272266E+02  0.54108761649E+03  0.10891749600E+04  0.46999998093E+01 0.  1.
</event>
<event>
 5   0  0.6984466E-06  0.1899679E+04  0.7818609E-02  0.8655016E-01
       -2   -1    0    0    0  501  0.00000000000E+00  0.00000000000E+00  0.43678642365E+03  0.43678642366E+03  0.25500000920E-02 0.  1.
        2   -1    0    0  501    0  0.00000000000E+00  0.00000000000E+00 -0.20655295767E+04  0.20655295767E+04  0.25500000920E-02 0. -1.
    10030    2    1    2    0    0  0.00000000000E+00  0.00000000000E+00 -0.16287431530E+04  0.25023160003E+04  0.18996792116E+04 0.  0.
        2    1    3    3  502    0  0.24429820000E+03 -0.40715708523E+03  0.26923534673E+03  0.54584446000E+03  0.25500000920E-02 0.  1.
       -2    1    3    3    0  502 -0.24429820000E+03  0.40715708523E+03 -0.18979784997E+04  0.19564715403E+04  0.25500000920E-02 0. -1.
</event>
<event>
 5   0  0.3211263E-06  0.1899659E+04  0.7818609E-02  0.8655026E-01
       -1   -1    0    0    0  501  0.00000000000E+00  0.00000000000E+00  0.10821152708E+04  0.10821152709E+04  0.50400001928E-02 0. -1.
        1   -1    0    0  501    0  0.00000000000E+00  0.00000000000E+00 -0.83371495275E+03  0.83371495277E+03  0.50400001928E-02 0.  1.
    10030    2    1    2    0    0  0.00000000000E+00  0.00000000000E+00  0.24840031808E+03  0.19158302236E+04  0.18996585819E+04 0.  0.
        5    1    3    3  502    0 -0.42985126679E+03 -0.45363401034E+03  0.84554967246E+03  0.10514429445E+04  0.46999998093E+01 0. -1.
       -5    1    3    3    0  502  0.42985126679E+03  0.45363401034E+03 -0.59714935438E+03  0.86438727914E+03  0.46999998093E+01 0.  1.
</event>
<event>
 5   0  0.6984466E-06  0.1899192E+04  0.7818609E-02  0.8655259E-01
        2   -1    0    0  501    0  0.00000000000E+00  0.00000000000E+00  0.17867213401E+04  0.17867213401E+04  0.25500000920E-02 0. -1.
       -2   -1    0    0    0  501  0.00000000000E+00  0.00000000000E+00 -0.50468548448E+03  0.50468548448E+03  0.25500000920E-02 0.  1.
    10030    2    1    2    0    0  0.00000000000E+00  0.00000000000E+00  0.12820358556E+04  0.22914068246E+04  0.18991917493E+04 0.  0.
        2    1    3    3  502    0  0.49530518564E+02  0.42411688305E+03 -0.38232169046E+03  0.57314769280E+03  0.25500000920E-02 0.  1.
       -2    1    3    3    0  502 -0.49530518564E+02 -0.42411688305E+03  0.16643575461E+04  0.17182591318E+04  0.25500000920E-02 0. -1.
</event>
<event>
 5   0  0.3236653E-06  0.1900243E+04  0.7818609E-02  0.8654735E-01
       -1   -1    0    0    0  501  0.00000000000E+00  0.00000000000E+00  0.93520427829E+03  0.93520427831E+03  0.50400001928E-02 0.  1.
        1   -1    0    0  501    0  0.00000000000E+00  0.00000000000E+00 -0.96527701606E+03  0.96527701607E+03  0.50400001928E-02 0. -1.
    10030    2    1    2    0    0  0.00000000000E+00  0.00000000000E+00 -0.30072737767E+02  0.19004812944E+04  0.19002433478E+04 0.  0.
        3    1    3    3  502    0 -0.71504192718E+03  0.37722599713E+03 -0.51424491667E+03  0.95813999763E+03  0.10100000352E+00 0. -1.
       -3    1    3    3    0  502  0.71504192718E+03 -0.37722599713E+03  0.48417217890E+03  0.94234129675E+03  0.10100000352E+00 0.  1.
</event>
<event>
 5   0  0.6862201E-06  0.1898602E+04  0.7818609E-02  0.8655553E-01
       -2   -1    0    0    0  501  0.00000000000E+00  0.00000000000E+00  0.58194525279E+03  0.58194525279E+03  0.25500000920E-02 0. -1.
        2   -1    0    0  501    0  0.00000000000E+00  0.00000000000E+00 -0.15485520244E+04  0.15485520244E+04  0.25500000920E-02 0.  1.
    10030    2    1    2    0    0  0.00000000000E+00  0.00000000000E+00 -0.96660677158E+03  0.21304972772E+04  0.18986021166E+04 0.  0.
        3    1    3    3  502    0  0.73086772962E+03  0.58061153016E+03 -0.28928314375E+03  0.97722164048E+03  0.10100000352E+00 0. -1.
       -3    1    3    3    0  502 -0.73086772962E+03 -0.58061153016E+03 -0.67732362782E+03  0.11532756367E+04  0.10100000352E+00 0.  1.
</event>
<event>
 5   0  0.3379108E-06  0.1900395E+04  0.7818609E-02  0.8654660E-01
        1   -1    0    0  501    0  0.00000000000E+00  0.00000000000E+00  0.76735820635E+03  0.76735820637E+03  0.50400001928E-02 0. -1.
       -1   -1    0    0    0  501  0.00000000000E+00  0.00000000000E+00 -0.11766016919E+04  0.11766016919E+04  0.50400001928E-02 0.  1.
    10030    2    1    2    0    0  0.00000000000E+00  0.00000000000E+00 -0.40924348556E+03  0.19439598983E+04  0.19003946579E+04 0.  0.
        4    1    3    3  502    0  0.58103800328E+03 -0.51298579141E+03 -0.76687083020E+03  0.10903449301E+04  0.12699999809E+01 0.  1.
       -4    1    3    3    0  502 -0.58103800328E+03  0.51298579141E+03  0.35762734463E+03  0.85361496822E+03  0.12699999809E+01 0. -1.
</event>
<event>
 5   0  0.3398807E-06  0.1901056E+04  0.7818609E-02  0.8654331E-01
        1   -1    0    0  501    0  0.00000000000E+00  0.00000000000E+00  0.51725013874E+03  0.51725013876E+03  0.50400001928E-02 0.  1.
       -1   -1    0    0    0  501  0.00000000000E+00  0.00000000000E+00 -0.17467442496E+04  0.17467442496E+04  0.50400001928E-02 0. -1.
    10030    2    1    2    0    0  0.00000000000E+00  0.00000000000E+00 -0.12294941109E+04  0.22639943884E+04  0.19010562385E+04 0.  0.
        1    1    3    3  502    0 -0.40721044907E+03  0.34942030187E+03 -0.15491317998E+04  0.16394280193E+04  0.50400001928E-02 0. -1.
       -1    1    3    3    0  502  0.40721044907E+03 -0.34942030187E+03  0.31963768895E+03  0.62456636910E+03  0.50400001928E-02 0.  1.
</event>
<event>
 5   0  0.6984466E-06  0.1899783E+04  0.7818609E-02  0.8654965E-01
        2   -1    0    0  501    0  0.00000000000E+00  0.00000000000E+00  0.11307748373E+04  0.11307748373E+04  0.25500000920E-02 0.  1.
       -2   -1    0    0    0  501  0.00000000000E+00  0.00000000000E+00 -0.79794282419E+03  0.79794282419E+03  0.25500000920E-02 0. -1.
    10030    2    1    2    0    0  0.00000000000E+00  0.00000000000E+00  0.33283201309E+03  0.19287176615E+04  0.18997827951E+04 0.  0.
        2    1    3    3  502    0  0.78668162808E+03  0.51421384416E+03  0.30639199594E+03  0.98851399417E+03  0.25500000920E-02 0.  1.
       -2    1    3    3    0  502 -0.78668162808E+03 -0.51421384416E+03  0.26440017149E+02  0.94020366730E+03  0.25500000920E-02 0. -1.
</event>
<event>
 5   0  0.3236653E-06  0.1900616E+04  0.7818609E-02  0.8654550E-01
       -1   -1    0    0    0  501  0.00000000000E+00  0.00000000000E+00  0.75863155662E+03  0.75863155664E+03  0.50400001928E-02 0.  1.
        1   -1    0    0  501    0  0.00000000000E+00  0.00000000000E+00 -0.11904138750E+04  0.11904138750E+04  0.50400001928E-02 0. -1.
    10030    2    1    2    0    0  0.00000000000E+00  0.00000000000E+00 -0.43178231841E+03  0.19490454317E+04  0.19006162485E+04 0.  0.
        3    1    3    3  502    0 -0.79049801431E+03 -0.48783168898E+03 -0.42154711339E+03  0.10200827645E+04  0.10100000352E+00 0.  1.
       -3    1    3    3    0  502  0.79049801431E+03  0.48783168898E+03 -0.10235205017E+02  0.92896266718E+03  0.10100000352E+00 0. -1.
</event>
<event>
 5   0  0.7207648E-06  0.1901949E+04  0.7818609E-02  0.8653887E-01
       -2   -1    0    0    0  501  0.00000000000E+00  0.00000000000E+00  0.10079064213E+04  0.10079064213E+04  0.25500000920E-02 0.  1.
        2   -1    0    0  501    0  0.00000000000E+00  0.00000000000E+00 -0.89725799766E+03  0.89725799766E+03  0.25500000920E-02 0. -1.
    10030    2    1    2    0    0  0.00000000000E+00  0.00000000000E+00  0.11064842361E+03  0.19051644189E+04  0.19019485770E+04 0.  0.
        4    1    3    3  502    0  0.34269289177E+03 -0.19531360946E+03 -0.81145075613E+03  0.90224152345E+03  0.12699999809E+01 0. -1.
       -4    1    3    3    0  502 -0.34269289177E+03  0.19531360946E+03  0.92209917974E+03  0.10029228955E+04  0.12699999809E+01 0.  1.
</event>
<event>
 5   0  0.6862201E-06  0.1900620E+04  0.7818609E-02  0.8654548E-01
        2   -1    0    0  501    0  0.00000000000E+00  0.00000000000E+00  0.20187733977E+04  0.20187733977E+04  0.25500000920E-02 0.  1.
       -2   -1    0    0    0  501  0.00000000000E+00  0.00000000000E+00 -0.44734562308E+03  0.44734562309E+03  0.25500000920E-02 0. -1.
    10030    2    1    2    0    0  0.00000000000E+00  0.00000000000E+00  0.15714277746E+04  0.24661190208E+04  0.19006203655E+04 0.  0.
        3    1    3    3  502    0 -0.45257361729E+03 -0.11074490618E+03  0.18603993724E+04  0.19178563941E+04  0.10100000352E+00 0.  1.
       -3    1    3    3    0  502  0.45257361729E+03  0.11074490618E+03 -0.28897159779E+03  0.54826262670E+03  0.10100000352E+00 0. -1.
</event>
<event>
 5   0  0.7577180E-06  0.1899299E+04  0.7818609E-02  0.8655205E-01
       -2   -1    0    0    0  501  0.00000000000E+00  0.00000000000E+00  0.73261638472E+03  0.73261638472E+03  0.25500000920E-02 0.  1.
        2   -1    0    0  501    0  0.00000000000E+00  0.00000000000E+00 -0.12309777637E+04  0.12309777637E+04  0.25500000920E-02 0. -1.
    10030    2    1    2    0    0  0.00000000000E+00  0.00000000000E+00 -0.49836137902E+03  0.19635941485E+04  0.18992993223E+04 0.  0.
        5    1    3    3  502    0 -0.40666252680E+03 -0.52001381090E+03 -0.95494920102E+03  0.11609215481E+04  0.46999998093E+01 0. -1.
       -5    1    3    3    0  502  0.40666252680E+03  0.52001381090E+03  0.45658782200E+03  0.80267260040E+03  0.46999998093E+01 0.  1.
</event>
<event>
 5   0  0.3379108E-06  0.1899989E+04  0.7818609E-02  0.8654862E-01
        1   -1    0    0  501    0  0.00000000000E+00  0.00000000000E+00  0.16820616514E+04  0.16820616514E+04  0.50400001928E-02 0. -1.
       -1   -1    0    0    0  501  0.00000000000E+00  0.00000000000E+00 -0.53653765722E+03  0.53653765725E+03  0.50400001928E-02 0.  1.
    10030    2    1    2    0    0  0.00000000000E+00  0.00000000000E+00  0.11455239941E+04  0.22185993086E+04  0.18999888608E+04 0.  0.
        4    1    3    3  502    0  0.18445306419E+03 -0.90699911682E+03  0.32281760914E+03  0.98024647537E+03  0.12699999809E+01 0. -1.
       -4    1    3    3    0  502 -0.18445306419E+03  0.90699911682E+03  0.82270638499E+03  0.12383528332E+04  0.12699999809E+01 0.  1.
</event>
<event>
 5   0  0.3236653E-06  0.1899983E+04  0.7818609E-02  0.8654865E-01
        1   -1    0    0  501    0  0.00000000000E+00  0.00000000000E+00  0.13496784844E+04  0.13496784844E+04  0.50400001928E-02 0.  1.
       -1   -1    0    0    0  501  0.00000000000E+00  0.00000000000E+00 -0.66866574028E+03  0.66866574030E+03  0.50400001928E-02 0. -1.
    10030    2    1    2    0    0  0.00000000000E+00  0.00000000000E+00  0.68101274408E+03  0.20183442247E+04  0.18999829083E+04 0.  0.
        3    1    3    3  502    0 -0.75991406228E+03  0.22484512795E+03  0.89703090184E+03  0.11969499416E+04  0.10100000352E+00 0.  1.
       -3    1    3    3    0  502  0.75991406228E+03 -0.22484512795E+03 -0.21601815775E+03  0.82139428309E+03  0.10100000352E+00 0. -1.
</event>
<event>
 5   0  0.3211263E-06  0.1897012E+04  0.7818609E-02  0.8656345E-01
        1   -1    0    0  501    0  0.00000000000E+00  0.00000000000E+00  0.19990976164E+04  0.19990976164E+04  0.50400001928E-02 0.  1.
       -1   -1    0    0    0  501  0.00000000000E+00  0.00000000000E+00 -0.45003482113E+03  0.45003482115E+03  0.50400001928E-02 0. -1.
    10030    2    1    2    0    0  0.00000000000E+00  0.00000000000E+00  0.15490627952E+04  0.24491324375E+04  0.18970119011E+04 0.  0.
        5    1    3    3  502    0 -0.45888575178E+03  0.53464784967E+03 -0.45275612346E+02  0.70604279432E+03  0.46999998093E+01 0. -1.
       -5    1    3    3    0  502  0.45888575178E+03 -0.53464784967E+03  0.15943384076E+04  0.17430896432E+04  0.46999998093E+01 0.  1.
</event>
<event>
 5   0  0.7207648E-06  0.1899799E+04  0.7818609E-02  0.8654956E-01
        2   -1    0    0  501    0  0.00000000000E+00  0.00000000000E+00  0.21284105082E+04  0.21284105082E+04  0.25500000920E-02 0. -1.
       -2   -1    0    0    0  501  0.00000000000E+00  0.00000000000E+00 -0.42393580570E+03  0.42393580571E+03  0.25500000920E-02 0.  1.
    10030    2    1    2    0    0  0.00000000000E+00  0.00000000000E+00  0.17044747025E+04  0.25523463139E+04  0.18997993827E+04 0.  0.
        4    1    3    3  502    0 -0.84555238691E+02 -0.15849182489E+03  0.21053817298E+04  0.21130317291E+04  0.12699999809E+01 0. -1.
       -4    1    3    3    0  502  0.84555238691E+02  0.15849182489E+03 -0.40090702734E+03  0.43931458480E+03  0.12699999809E+01 0.  1.
</event>
<event>
 5   0  0.6870370E-06  0.1900061E+04  0.7818609E-02  0.8654826E-01
       -2   -1    0    0    0  501  0.00000000000E+00  0.00000000000E+00  0.12597207281E+04  0.12597207281E+04  0.25500000920E-02 0. -1.
        2   -1    0    0  501    0  0.00000000000E+00  0.00000000000E+00 -0.71647490475E+03  0.71647490476E+03  0.25500000920E-02 0.  1.
    10030    2    1    2    0    0  0.00000000000E+00  0.00000000000E+00  0.54324582332E+03  0.19761956328E+04  0.19000613555E+04 0.  0.
        1    1    3    3  502    0  0.87188319262E+03 -0.37712747467E+03  0.25876406507E+03  0.98456298688E+03  0.50400001928E-02 0.  1.
       -1    1    3    3    0  502 -0.87188319262E+03  0.37712747467E+03  0.28448175825E+03  0.99163264596E+03  0.50400001928E-02 0. -1.
</event>
<event>
 5   0  0.7577180E-06  0.1900110E+04  0.7818609E-02  0.8654802E-01
       -2   -1    0    0    0  501  0.00000000000E+00  0.00000000000E+00  0.77444305400E+03  0.77444305401E+03  0.25500000920E-02 0.  1.
        2   -1    0    0  501    0  0.00000000000E+00  0.00000000000E+00 -0.11654884317E+04  0.11654884317E+04  0.25500000920E-02 0. -1.
    10030    2    1    2    0    0  0.00000000000E+00  0.00000000000E+00 -0.39104537771E+03  0.19399314857E+04  0.19001099131E+04 0.  0.
        5    1    3    3  502    0 -0.45848190742E+03 -0.39770631628E+03 -0.94173462918E+03  0.11203848335E+04  0.46999998093E+01 0. -1.
       -5    1    3    3    0  502  0.45848190742E+03  0.39770631628E+03  0.55068925146E+03  0.81954665219E+03  0.46999998093E+01 0.  1.
</event>
<event>
 5   0  0.7207648E-06  0.1898880E+04  0.7818609E-02  0.8655414E-01
        2   -1    0    0  501    0  0.00000000000E+00  0.00000000000E+00  0.69600580228E+03  0.69600580229E+03  0.25500000920E-02 0.  1.
       -2   -1    0    0    0  501  0.00000000000E+00  0.00000000000E+00 -0.12951561639E+04  0.12951561639E+04  0.25500000920E-02 0. -1.
    10030    2    1    2    0    0  0.00000000000E+00  0.00000000000E+00 -0.59915036165E+03  0.19911619662E+04  0.18988798856E+04 0.  0.
        4    1    3    3  502    0 -0.55429676536E+03  0.22707713964E+03 -0.10720054031E+04  0.12280090100E+04  0.12699999809E+01 0. -1.
       -4    1    3    3    0  502  0.55429676536E+03 -0.22707713964E+03  0.47285504147E+03  0.76315295622E+03  0.12699999809E+01 0.  1.
</event>
<event>
 5   0  0.6984466E-06  0.1897316E+04  0.7818609E-02  0.8656194E-01
        2   -1    0    0  501    0  0.00000000000E+00  0.00000000000E+00  0.20713520250E+04  0.20713520250E+04  0.25500000920E-02 0.  1.
       -2   -1    0    0    0  501  0.00000000000E+00  0.00000000000E+00 -0.43447541536E+03  0.43447541537E+03  0.25500000920E-02 0. -1.
    10030    2    1    2    0    0  0.00000000000E+00  0.00000000000E+00  0.16368766097E+04  0.25058274404E+04  0.18973155051E+04 0.  0.
        2    1    3    3  502    0 -0.19289567101E+03 -0.91665008952E+03  0.62035014735E+03  0.11235169922E+04  0.25500000920E-02 0. -1.
       -2    1    3    3    0  502  0.19289567101E+03  0.91665008952E+03  0.10165264623E+04  0.13823104482E+04  0.25500000920E-02 0.  1.
</event>
<event>
 5   0  0.7577180E-06  0.1899462E+04  0.7818609E-02  0.8655124E-01
       -2   -1    0    0    0  501  0.00000000000E+00  0.00000000000E+00  0.91525201880E+03  0.91525201880E+03  0.25500000920E-02 0.  1.
        2   -1    0    0  501    0  0.00000000000E+00  0.00000000000E+00 -0.98550885395E+03  0.98550885395E+03  0.25500000920E-02 0. -1.
    10030    2    1    2    0    0  0.00000000000E+00  0.00000000000E+00 -0.70256835144E+02  0.19007608728E+04  0.18994619955E+04 0.  0.
        5    1    3    3  502    0 -0.75993702370E+03  0.34325917238E+03 -0.49001129903E+03  0.96719403564E+03  0.46999998093E+01 0. -1.
       -5    1    3    3    0  502  0.75993702370E+03 -0.34325917238E+03  0.41975446388E+03  0.93356683711E+03  0.46999998093E+01 0.  1.
</event>
<event>
 5   0  0.7577180E-06  0.1900356E+04  0.7818609E-02  0.8654679E-01
        2   -1    0    0  501    0  0.00000000000E+00  0.00000000000E+00  0.19890904697E+04  0.19890904697E+04  0.25500000920E-02 0.  1.
       -2   -1    0    0    0  501  0.00000000000E+00  0.00000000000E+00 -0.45389502570E+03  0.45389502571E+03  0.25500000920E-02 0. -1.
    10030    2    1    2    0    0  0.00000000000E+00  0.00000000000E+00  0.15351954440E+04  0.24429854954E+04  0.19003560402E+04 0.  0.
        5    1    3    3  502    0 -0.74779410168E+03  0.30430237904E+03  0.14116783971E+04  0.16262392024E+04  0.46999998093E+01 0.  1.
       -5    1    3    3    0  502  0.74779410168E+03 -0.30430237904E+03  0.12351704691E+03  0.81674629309E+03  0.46999998093E+01 0. -1.
</event>
<event>
 5   0  0.3495279E-06  0.1899454E+04  0.7818609E-02  0.8655128E-01
        1   -1    0    0  501    0  0.00000000000E+00  0.00000000000E+00  0.92274781930E+03  0.92274781931E+03  0.50400001928E-02 0.  1.
       -1   -1    0    0    0  501  0.00000000000E+00  0.00000000000E+00 -0.97749498692E+03  0.97749498693E+03  0.50400001928E-02 0. -1.
    10030    2    1    2    0    0  0.00000000000E+00  0.00000000000E+00 -0.54747167619E+02  0.19002428062E+04  0.18994539927E+04 0.  0.
        2    1    3    3  502    0 -0.67457946351E+03 -0.19127024933E+02  0.64115393701E+03  0.93086071279E+03  0.25500000920E-02 0.  1.
       -2    1    3    3    0  502  0.67457946351E+03  0.19127024933E+02 -0.69590110463E+03  0.96938209345E+03  0.25500000920E-02 0. -1.
</event>
<event>
 5   0  0.3495279E-06  0.1899452E+04  0.7818609E-02  0.8655129E-01
        1   -1    0    0  501    0  0.00000000000E+00  0.00000000000E+00  0.13119764886E+04  0.13119764886E+04  0.50400001928E-02 0. -1.
       -1   -1    0    0    0  501  0.00000000000E+00  0.00000000000E+00 -0.68749661313E+03  0.68749661315E+03  0.50400001928E-02 0.  1.
    10030    2    1    2    0    0  0.00000000000E+00  0.00000000000E+00  0.62447987550E+03  0.19994731018E+04  0.18994519130E+04 0.  0.
        2    1    3    3  502    0  0.14349562347E+02 -0.66860605169E+03 -0.39761330298E+03  0.77803361175E+03  0.25500000920E-02 0.  1.
       -2    1    3    3    0  502 -0.14349562347E+02  0.66860605169E+03  0.10220931785E+04  0.12214394900E+04  0.25500000920E-02 0. -1.
</event>
<event>
 5   0  0.3495279E-06  0.1899978E+04  0.7818609E-02  0.8654867E-01
        1   -1    0    0  501    0  0.00000000000E+00  0.00000000000E+00  0.12004124043E+04  0.12004124044E+04  0.50400001928E-02 0.  1.
       -1   -1    0    0    0  501  0.00000000000E+00  0.00000000000E+00 -0.75180743833E+03  0.75180743835E+03  0.50400001928E-02 0. -1.
    10030    2    1    2    0    0  0.00000000000E+00  0.00000000000E+00  0.44860496602E+03  0.19522198427E+04  0.18999778680E+04 0.  0.
        2    1    3    3  502    0 -0.52567966742E+03 -0.68844420627E+03 -0.17653220799E+03  0.88400122078E+03  0.25500000920E-02 0. -1.
       -2    1    3    3    0  502  0.52567966742E+03  0.68844420627E+03  0.62513717401E+03  0.10682186219E+04  0.25500000920E-02 0.  1.
</event>
<event>
 5   0  0.3211263E-06  0.1898922E+04  0.7818609E-02  0.8655393E-01
       -1   -1    0    0    0  501  0.00000000000E+00  0.00000000000E+00  0.11472678133E+04  0.11472678133E+04  0.50400001928E-02 0. -1.
        1   -1    0    0  501    0  0.00000000000E+00  0.00000000000E+00 -0.78575911429E+03  0.78575911431E+03  0.50400001928E-02 0.  1.
    10030    2    1    2    0    0  0.00000000000E+00  0.00000000000E+00  0.36150869901E+03  0.19330269276E+04  0.18989219477E+04 0.  0.
        5    1    3    3  502    0  0.53813499577E+02 -0.28008918806E+03  0.11026173152E+04  0.11389174157E+04  0.46999998093E+01 0. -1.
       -5    1    3    3    0  502 -0.53813499577E+02  0.28008918806E+03 -0.74110861617E+03  0.79410951195E+03  0.46999998093E+01 0.  1.
</event>
<event>
 5   0  0.6862201E-06  0.1898410E+04  0.7818609E-02  0.8655648E-01
       -2   -1    0    0    0  501  0.00000000000E+00  0.00000000000E+00  0.89486911727E+03  0.89486911727E+03  0.25500000920E-02 0. -1.
        2   -1    0    0  501    0  0.00000000000E+00  0.00000000000E+00 -0.10068406458E+04  0.10068406458E+04  0.25500000920E-02 0.  1.
    10030    2    1    2    0    0  0.00000000000E+00  0.00000000000E+00 -0.11197152853E+03  0.19017097631E+04  0.18984104930E+04 0.  0.
        3    1    3    3  502    0 -0.84128292505E+03 -0.31370921052E+03  0.25247821345E+03  0.93269270782E+03  0.10100000352E+00 0. -1.
       -3    1    3    3    0  502  0.84128292505E+03  0.31370921052E+03 -0.36444974198E+03  0.96901705526E+03  0.10100000352E+00 0.  1.
</event>
<event>
 5   0  0.3236653E-06  0.1899984E+04  0.7818609E-02  0.8654864E-01
        1   -1    0    0  501    0  0.00000000000E+00  0.00000000000E+00  0.67822271016E+03  0.67822271018E+03  0.50400001928E-02 0.  1.
       -1   -1    0    0    0  501  0.00000000000E+00  0.00000000000E+00 -0.13306616206E+04  0.13306616206E+04  0.50400001928E-02 0. -1.
    10030    2    1    2    0    0  0.00000000000E+00  0.00000000000E+00 -0.65243891047E+03  0.20088843308E+04  0.18999841375E+04 0.  0.
        3    1    3    3  502    0  0.87550558670E+03 -0.26617374410E+03 -0.56393589412E+02  0.91680899947E+03  0.10100000352E+00 0.  1.
       -3    1    3    3    0  502 -0.87550558670E+03  0.26617374410E+03 -0.59604532106E+03  0.10920753314E+04  0.10100000352E+00 0. -1.
</event>
<event>
 5   0  0.3495279E-06  0.1899727E+04  0.7818609E-02  0.8654992E-01
       -1   -1    0    0    0  501  0.00000000000E+00  0.00000000000E+00  0.14000164780E+04  0.14000164780E+04  0.50400001928E-02 0.  1.
        1   -1    0    0  501    0  0.00000000000E+00  0.00000000000E+00 -0.64445022154E+03  0.64445022156E+03  0.50400001928E-02 0. -1.
    10030    2    1    2    0    0  0.00000000000E+00  0.00000000000E+00  0.75556625644E+03  0.20444666995E+04  0.18997272746E+04 0.  0.
        2    1    3    3  502    0  0.69609151857E+02 -0.93432597029E+03  0.20957198855E+03  0.96006815964E+03  0.25500000920E-02 0. -1.
       -2    1    3    3    0  502 -0.69609151857E+02  0.93432597029E+03  0.54599426789E+03  0.10843985399E+04  0.25500000920E-02 0.  1.
</event>
<event>
 5   0  0.3211263E-06  0.1900461E+04  0.7818609E-02  0.8654627E-01
       -1   -1    0    0    0  501  0.00000000000E+00  0.00000000000E+00  0.92513830180E+03  0.92513830181E+03  0.50400001928E-02 0. -1.
        1   -1    0    0  501    0  0.00000000000E+00  0.00000000000E+00 -0.97600283941E+03  0.97600283942E+03  0.50400001928E-02 0.  1.
    10030    2    1    2    0    0  0.00000000000E+00  0.00000000000E+00 -0.50864537609E+02  0.19011411412E+04  0.19004605857E+04 0.  0.
        5    1    3    3  502    0 -0.29421537325E+03  0.11529726997E+03  0.87102443831E+03  0.92658610418E+03  0.46999998093E+01 0. -1.
       -5    1    3    3    0  502  0.29421537325E+03 -0.11529726997E+03 -0.92188897592E+03  0.97455503705E+03  0.46999998093E+01 0.  1.
</event>
<event>
 5   0  0.6984466E-06  0.1899683E+04  0.7818609E-02  0.8655014E-01
        2   -1    0    0  501    0  0.00000000000E+00  0.00000000000E+00  0.92541705875E+03  0.92541705876E+03  0.25500000920E-02 0.  1.
       -2   -1    0    0    0  501  0.00000000000E+00  0.00000000000E+00 -0.97491038036E+03  0.97491038037E+03  0.25500000920E-02 0. -1.
    10030    2    1    2    0    0  0.00000000000E+00  0.00000000000E+00 -0.49493321608E+02  0.19003274391E+04  0.18996828122E+04 0.  0.
        2    1    3    3  502    0  0.30936272924E+03  0.38537181725E+03  0.78668946607E+03  0.92903016733E+03  0.25500000920E-02 0.  1.
       -2    1    3    3    0  502 -0.30936272924E+03 -0.38537181725E+03 -0.83618278768E+03  0.97129727179E+03  0.25500000920E-02 0. -1.
</event>
<event>
 5   0  0.7207648E-06  0.1900198E+04  0.7818609E-02  0.8654758E-01
        2   -1    0    0  501    0  0.00000000000E+00  0.00000000000E+00  0.77756959020E+03  0.77756959021E+03  0.25500000920E-02 0.  1.
       -2   -1    0    0    0  501  0.00000000000E+00  0.00000000000E+00 -0.11609093212E+04  0.11609093212E+04  0.25500000920E-02 0. -1.
    10030    2    1    2    0    0  0.00000000000E+00  0.00000000000E+00 -0.38333973096E+03  0.19384789114E+04  0.19001976583E+04 0.  0.
        4    1    3    3  502    0 -0.18879498582E+03  0.59943504747E+03  0.53522992640E+03  0.82549294959E+03  0.12699999809E+01 0.  1.
       -4    1    3    3    0  502  0.18879498582E+03 -0.59943504747E+03 -0.91856965737E+03  0.11129859618E+04  0.12699999809E+01 0. -1.
</event>
<event>
 5   0  0.3236653E-06  0.1900158E+04  0.7818609E-02  0.8654778E-01
       -1   -1    0    0    0  501  0.00000000000E+00  0.00000000000E+00  0.42034116126E+03  0.42034116129E+03  0.50400001928E-02 0.  1.
        1   -1    0    0  501    0  0.00000000000E+00  0.00000000000E+00 -0.21474234325E+04  0.21474234325E+04  0.50400001928E-02 0. -1.
    10030    2    1    2    0    0  0.00000000000E+00  0.00000000000E+00 -0.17270822712E+04  0.25677645938E+04  0.19001583717E+04 0.  0.
        3    1    3    3  502    0 -0.47964885500E+03 -0.22037822267E+03  0.20395168290E+03  0.56588504512E+03  0.10100000352E+00 0.  1.
       -3    1    3    3    0  502  0.47964885500E+03  0.22037822267E+03 -0.19310339541E+04  0.20018795487E+04  0.10100000352E+00 0. -1.
</event>
<event>
 5   0  0.6984466E-06  0.1898785E+04  0.7818609E-02  0.8655461E-01
        2   -1    0    0  501    0  0.00000000000E+00  0.00000000000E+00  0.88229202287E+03  0.88229202288E+03  0.25500000920E-02 0.  1.
       -2   -1    0    0    0  501  0.00000000000E+00  0.00000000000E+00 -0.10215965714E+04  0.10215965715E+04  0.25500000920E-02 0. -1.
    10030    2    1    2    0    0  0.00000000000E+00  0.00000000000E+00 -0.13930454857E+03  0.19038885943E+04  0.18987854071E+04 0.  0.
        2    1    3    3  502    0 -0.59123436255E+03 -0.16374589193E+03  0.65684711654E+03  0.89878747382E+03  0.25500000920E-02 0.  1.
       -2    1    3    3    0  502  0.59123436255E+03  0.16374589193E+03 -0.79615166511E+03  0.10051011205E+04  0.25500000920E-02 0. -1.
</event>
<event>
 5   0  0.3211263E-06  0.1899942E+04  0.7818609E-02  0.8654885E-01
        1   -1    0    0  501    0  0.00000000000E+00  0.00000000000E+00  0.13719986337E+04  0.13719986337E+04  0.50400001928E-02 0.  1.
       -1   -1    0    0    0  501  0.00000000000E+00  0.00000000000E+00 -0.65775912759E+03  0.65775912761E+03  0.50400001928E-02 0. -1.
    10030    2    1    2    0    0  0.00000000000E+00  0.00000000000E+00  0.71423950609E+03  0.20297577613E+04  0.18999417090E+04 0.  0.
        5    1    3    3  502    0 -0.62911405833E+02  0.55177080730E+03 -0.46626373222E+03  0.72514331463E+03  0.46999998093E+01 0. -1.
       -5    1    3    3    0  502  0.62911405833E+02 -0.55177080730E+03  0.11805032383E+04  0.13046144467E+04  0.46999998093E+01 0.  1.
</event>
<event>
 5   0  0.2527750E-06  0.1904231E+04  0.7818609E-02  0.8652753E-01
       -3   -1    0    0    0  501  0.00000000000E+00  0.00000000000E+00  0.76628981525E+03  0.76628982190E+03  0.10100000352E+00 0. -1.
        3   -1    0    0  501    0  0.00000000000E+00  0.00000000000E+00 -0.11830038225E+04  0.11830038268E+04  0.10100000352E+00 0.  1.
    10030    2    1    2    0    0  0.00000000000E+00  0.00000000000E+00 -0.41671400726E+03  0.19492936487E+04  0.19042308592E+04 0.  0.
        3    1    3    3  502    0  0.26617609001E+03  0.21465210785E+03  0.70126474998E+03  0.78019068057E+03  0.10100000352E+00 0. -1.
       -3    1    3    3    0  502 -0.26617609001E+03 -0.21465210785E+03 -0.11179787572E+04  0.11691029681E+04  0.10100000352E+00 0.  1.
</event>
<event>
 5   0  0.3379108E-06  0.1900349E+04  0.7818609E-02  0.8654682E-01
        1   -1    0    0  501    0  0.00000000000E+00  0.00000000000E+00  0.11919097333E+04  0.11919097333E+04  0.50400001928E-02 0. -1.
       -1   -1    0    0    0  501  0.00000000000E+00  0.00000000000E+00 -0.75746677597E+03  0.75746677598E+03  0.50400001928E-02 0.  1.
    10030    2    1    2    0    0  0.00000000000E+00  0.00000000000E+00  0.43444295737E+03  0.19493765093E+04  0.19003494657E+04 0.  0.
        4    1    3    3  502    0  0.71650917623E+03 -0.35104082267E+03  0.74649333703E+03  0.10926431137E+04  0.12699999809E+01 0. -1.
       -4    1    3    3    0  502 -0.71650917623E+03  0.35104082267E+03 -0.31205037967E+03  0.85673339561E+03  0.12699999809E+01 0.  1.
</event>
<event>
 5   0  0.3495279E-06  0.1899043E+04  0.7818609E-02  0.8655333E-01
        1   -1    0    0  501    0  0.00000000000E+00  0.00000000000E+00  0.16200883276E+04  0.16200883276E+04  0.50400001928E-02 0. -1.
       -1   -1    0    0    0  501  0.00000000000E+00  0.00000000000E+00 -0.55650737596E+03  0.55650737598E+03  0.50400001928E-02 0.  1.
    10030    2    1    2    0    0  0.00000000000E+00  0.00000000000E+00  0.10635809517E+04  0.21765957036E+04  0.18990430264E+04 0.  0.
        2    1    3    3  502    0 -0.48439839045E+03  0.20337451983E+02  0.14675293409E+04  0.15455412576E+04  0.25500000920E-02 0. -1.
       -2    1    3    3    0  502  0.48439839045E+03 -0.20337451983E+02 -0.40394838923E+03  0.63105444598E+03  0.25500000920E-02 0.  1.
</event>
<event>
 5   0  0.3211263E-06  0.1889947E+04  0.7818609E-02  0.8659877E-01
        1   -1    0    0  501    0  0.00000000000E+00  0.00000000000E+00  0.89326339744E+03  0.89326339745E+03  0.50400001928E-02 0.  1.
       -1   -1    0    0    0  501  0.00000000000E+00  0.00000000000E+00 -0.99967659111E+03  0.99967659112E+03  0.50400001928E-02 0. -1.
    10030    2    1    2    0    0  0.00000000000E+00  0.00000000000E+00 -0.10641319367E+03  0.18929399886E+04  0.18899465687E+04 0.  0.
        5    1    3    3  502    0  0.24179262071E+03  0.90893364062E+03 -0.14461111866E+03  0.95160837540E+03  0.46999998093E+01 0.  1.
       -5    1    3    3    0  502 -0.24179262071E+03 -0.90893364062E+03  0.38197924985E+02  0.94133161317E+03  0.46999998093E+01 0. -1.
</event>
<event>
 5   0  0.3398807E-06  0.1902022E+04  0.7818609E-02  0.8653850E-01
       -1   -1    0    0    0  501  0.00000000000E+00  0.00000000000E+00  0.93043337536E+03  0.93043337538E+03  0.50400001928E-02 0. -1.
        1   -1    0    0  501    0  0.00000000000E+00  0.00000000000E+00 -0.97204422351E+03  0.97204422352E+03  0.50400001928E-02 0.  1.
    10030    2    1    2    0    0  0.00000000000E+00  0.00000000000E+00 -0.41610848144E+02  0.19024775989E+04  0.19020224898E+04 0.  0.
        1    1    3    3  502    0 -0.53291776004E+03  0.12014646586E+03 -0.79944263523E+03  0.96826909445E+03  0.50400001928E-02 0.  1.
       -1    1    3    3    0  502  0.53291776004E+03 -0.12014646586E+03  0.75783178709E+03  0.93420850444E+03  0.50400001928E-02 0. -1.
</event>
<event>
 5   0  0.6862201E-06  0.1899391E+04  0.7818609E-02  0.8655160E-01
       -2   -1    0    0    0  501  0.00000000000E+00  0.00000000000E+00  0.82434356828E+03  0.82434356828E+03  0.25500000920E-02 0. -1.
        2   -1    0    0  501    0  0.00000000000E+00  0.00000000000E+00 -0.10941087193E+04  0.10941087193E+04  0.25500000920E-02 0.  1.
    10030    2    1    2    0    0  0.00000000000E+00  0.00000000000E+00 -0.26976515100E+03  0.19184522876E+04  0.18993909400E+04 0.  0.
        3    1    3    3  502    0  0.83825196863E+03 -0.21011940128E+03 -0.53266855278E+03  0.10151612301E+04  0.10100000352E+00 0.  1.
       -3    1    3    3    0  502 -0.83825196863E+03  0.21011940128E+03  0.26290340178E+03  0.90329105751E+03  0.10100000352E+00 0. -1.
</event>
<event>
 5   0  0.6862201E-06  0.1898773E+04  0.7818609E-02  0.8655467E-01
        2   -1    0    0  501    0  0.00000000000E+00  0.00000000000E+00  0.11157206500E+04  0.11157206500E+04  0.25500000920E-02 0. -1.
       -2   -1    0    0    0  501  0.00000000000E+00  0.00000000000E+00 -0.80785012332E+03  0.80785012332E+03  0.25500000920E-02 0.  1.
    10030    2    1    2    0    0  0.00000000000E+00  0.00000000000E+00  0.30787052668E+03  0.19235707733E+04  0.18987733563E+04 0.  0.
        3    1    3    3  502    0  0.44718773690E+02 -0.83210803941E+03  0.61477332369E+03  0.10355432428E+04  0.10100000352E+00 0. -1.
       -3    1    3    3    0  502 -0.44718773690E+02  0.83210803941E+03 -0.30690279702E+03  0.88802753053E+03  0.10100000352E+00 0.  1.
</event>
<event>
 5   0  0.3211263E-06  0.1900618E+04  0.7818609E-02  0.8654549E-01
        1   -1    0    0  501    0  0.00000000000E+00  0.00000000000E+00  0.13124957506E+04  0.13124957506E+04  0.50400001928E-02 0.  1.
       -1   -1    0    0    0  501  0.00000000000E+00  0.00000000000E+00 -0.68806853579E+03  0.68806853581E+03  0.50400001928E-02 0. -1.
    10030    2    1    2    0    0  0.00000000000E+00  0.00000000000E+00  0.62442721481E+03  0.20005642864E+04  0.19006178252E+04 0.  0.
        5    1    3    3  502    0  0.93131771084E+03 -0.14705083575E+03  0.18727772099E+03  0.96128646178E+03  0.46999998093E+01 0. -1.
       -5    1    3    3    0  502 -0.93131771084E+03  0.14705083575E+03  0.43714949382E+03  0.10392778246E+04  0.46999998093E+01 0.  1.
</event>
<event>
 5   0  0.3236653E-06  0.1900555E+04  0.7818609E-02  0.8654580E-01
        1   -1    0    0  501    0  0.00000000000E+00  0.00000000000E+00  0.20608871554E+04  0.20608871555E+04  0.50400001928E-02 0. -1.
       -1   -1    0    0    0  501  0.00000000000E+00  0.00000000000E+00 -0.43817420182E+03  0.43817420185E+03  0.50400001928E-02 0.  1.
    10030    2    1    2    0    0  0.00000000000E+00  0.00000000000E+00  0.16227129536E+04  0.24990613573E+04  0.19005552709E+04 0.  0.
        3    1    3    3  502    0 -0.38200349858E+03 -0.36661263140E+03 -0.22625431703E+03  0.57577992376E+03  0.10100000352E+00 0.  1.
       -3    1    3    3    0  502  0.38200349858E+03  0.36661263140E+03  0.18489672707E+04  0.19232814335E+04  0.10100000352E+00 0. -1.
</event>
<event>
 5   0  0.3236653E-06  0.1900576E+04  0.7818609E-02  0.8654570E-01
       -1   -1    0    0    0  501  0.00000000000E+00  0.00000000000E+00  0.12789940995E+04  0.12789940995E+04  0.50400001928E-02 0. -1.
        1   -1    0    0  501    0  0.00000000000E+00  0.00000000000E+00 -0.70606078294E+03  0.70606078295E+03  0.50400001928E-02 0.  1.
    10030    2    1    2    0    0  0.00000000000E+00  0.00000000000E+00  0.57293331658E+03  0.19850548825E+04  0.19005763077E+04 0.  0.
        3    1    3    3  502    0 -0.61083944981E+03  0.33835114973E+03 -0.38673008412E+03  0.79822709935E+03  0.10100000352E+00 0.  1.
       -3    1    3    3    0  502  0.61083944981E+03 -0.33835114973E+03  0.95966340071E+03  0.11868277831E+04  0.10100000352E+00 0. -1.
</event>
<event>
 5   0  0.6984466E-06  0.1897970E+04  0.7818609E-02  0.8655868E-01
       -2   -1    0    0    0  501  0.00000000000E+00  0.00000000000E+00  0.13809310893E+04  0.13809310893E+04  0.25500000920E-02 0.  1.
        2   -1    0    0  501    0  0.00000000000E+00  0.00000000000E+00 -0.65214871217E+03  0.65214871218E+03  0.25500000920E-02 0. -1.
    10030    2    1    2    0    0  0.00000000000E+00  0.00000000000E+00  0.72878237710E+03  0.20330798015E+04  0.18979698959E+04 0.  0.
        2    1    3    3  502    0 -0.32277911988E+03 -0.45904056785E+03 -0.45537648795E+03  0.72268412806E+03  0.25500000920E-02 0. -1.
       -2    1    3    3    0  502  0.32277911988E+03  0.45904056785E+03  0.11841588650E+04  0.13103956734E+04  0.25500000920E-02 0.  1.
</event>
<event>
 5   0  0.6984466E-06  0.1900098E+04  0.7818609E-02  0.8654807E-01
        2   -1    0    0  501    0  0.00000000000E+00  0.00000000000E+00  0.11891254494E+04  0.11891254494E+04  0.25500000920E-02 0. -1.
       -2   -1    0    0    0  501  0.00000000000E+00  0.00000000000E+00 -0.75903974884E+03  0.75903974885E+03  0.25500000920E-02 0.  1.
    10030    2    1    2    0    0  0.00000000000E+00  0.00000000000E+00  0.43008570059E+03  0.19481651983E+04  0.19000984001E+04 0.  0.
        2    1    3    3  502    0  0.76221268255E+03 -0.47963299590E+03  0.52531591561E+03  0.10425798748E+04  0.25500000920E-02 0. -1.
       -2    1    3    3    0  502 -0.76221268255E+03  0.47963299590E+03 -0.95230215014E+02  0.90558532346E+03  0.25500000920E-02 0.  1.
</event>
<event>
 5   0  0.3379108E-06  0.1897722E+04  0.7818609E-02  0.8655991E-01
        1   -1    0    0  501    0  0.00000000000E+00  0.00000000000E+00  0.10170860139E+04  0.10170860139E+04  0.50400001928E-02 0.  1.
       -1   -1    0    0    0  501  0.00000000000E+00  0.00000000000E+00 -0.88521211993E+03  0.88521211995E+03  0.50400001928E-02 0. -1.
    10030    2    1    2    0    0  0.00000000000E+00  0.00000000000E+00  0.13187389393E+03  0.19022981338E+04  0.18977216514E+04 0.  0.
        4    1    3    3  502    0 -0.70361860341E+03 -0.22360136054E+03 -0.53153612487E+03  0.90973016464E+03  0.12699999809E+01 0. -1.
       -4    1    3    3    0  502  0.70361860341E+03  0.22360136054E+03  0.66341001880E+03  0.99256796918E+03  0.12699999809E+01 0.  1.
</event>
<event>
 5   0  0.6870370E-06  0.1900776E+04  0.7818609E-02  0.8654470E-01
        2   -1    0    0  501    0  0.00000000000E+00  0.00000000000E+00  0.18505069411E+04  0.18505069411E+04  0.25500000920E-02 0.  1.
       -2   -1    0    0    0  501  0.00000000000E+00  0.00000000000E+00 -0.48810266989E+03  0.48810266990E+03  0.25500000920E-02 0. -1.
    10030    2    1    2    0    0  0.00000000000E+00  0.00000000000E+00  0.13624042712E+04  0.23386096110E+04  0.19007760295E+04 0.  0.
        1    1    3    3  502    0  0.23710286191E+03 -0.64001501306E+03 -0.13250171072E+03  0.69526519217E+03  0.50400001928E-02 0. -1.
       -1    1    3    3    0  502 -0.23710286191E+03  0.64001501306E+03  0.14949059819E+04  0.16433444188E+04  0.50400001928E-02 0.  1.
</event>
<event>
 5   0  0.2527750E-06  0.1899159E+04  0.7818609E-02  0.8655275E-01
       -3   -1    0    0    0  501  0.00000000000E+00  0.00000000000E+00  0.12231080758E+04  0.12231080800E+04  0.10100000352E+00 0.  1.
        3   -1    0    0  501    0  0.00000000000E+00  0.00000000000E+00 -0.73722147360E+03  0.73722148052E+03  0.10100000352E+00 0. -1.
    10030    2    1    2    0    0  0.00000000000E+00  0.00000000000E+00  0.48588660222E+03  0.19603295605E+04  0.18991593392E+04 0.  0.
        1    1    3    3  502    0 -0.16368071600E+03  0.80197595019E+03  0.73984746393E+03  0.11033272730E+04  0.50400001928E-02 0.  1.
       -1    1    3    3    0  502  0.16368071600E+03 -0.80197595019E+03 -0.25396086171E+03  0.85700228750E+03  0.50400001928E-02 0. -1.
</event>
<event>
 5   0  0.7577180E-06  0.1898855E+04  0.7818609E-02  0.8655426E-01
       -2   -1    0    0    0  501  0.00000000000E+00  0.00000000000E+00  0.10596014718E+04  0.10596014718E+04  0.25500000920E-02 0. -1.
        2   -1    0    0  501    0  0.00000000000E+00  0.00000000000E+00 -0.85070931546E+03  0.85070931546E+03  0.25500000920E-02 0.  1.
    10030    2    1    2    0    0  0.00000000000E+00  0.00000000000E+00  0.20889215635E+03  0.19103107873E+04  0.18988552791E+04 0.  0.
        5    1    3    3  502    0  0.59813375740E+03  0.75055381125E+02  0.84235142323E+03  0.10358452163E+04  0.46999998093E+01 0. -1.
       -5    1    3    3    0  502 -0.59813375740E+03 -0.75055381125E+02 -0.63345926687E+03  0.87446557095E+03  0.46999998093E+01 0.  1.
</event>
<event>
 5   0  0.7577180E-06  0.1899515E+04  0.7818609E-02  0.8655098E-01
        2   -1    0    0  501    0  0.00000000000E+00  0.00000000000E+00  0.18105095594E+04  0.18105095594E+04  0.25500000920E-02 0.  1.
       -2   -1    0    0    0  501  0.00000000000E+00  0.00000000000E+00 -0.49822392202E+03  0.49822392203E+03  0.25500000920E-02 0. -1.
    10030    2    1    2    0    0  0.00000000000E+00  0.00000000000E+00  0.13122856374E+04  0.23087334815E+04  0.18995148576E+04 0.  0.
        5    1    3    3  502    0 -0.10503026187E+03 -0.67593538488E+03  0.14569436958E+04  0.16095424888E+04  0.46999998093E+01 0.  1.
       -5    1    3    3    0  502  0.10503026187E+03  0.67593538488E+03 -0.14465805837E+03  0.69919099271E+03  0.46999998093E+01 0. -1.
</event>
<event>
 5   0  0.6984466E-06  0.1898529E+04  0.7818609E-02  0.8655589E-01
       -2   -1    0    0    0  501  0.00000000000E+00  0.00000000000E+00  0.10064884527E+04  0.10064884527E+04  0.25500000920E-02 0. -1.
        2   -1    0    0  501    0  0.00000000000E+00  0.00000000000E+00 -0.89529405157E+03  0.89529405157E+03  0.25500000920E-02 0.  1.
    10030    2    1    2    0    0  0.00000000000E+00  0.00000000000E+00  0.11119440116E+03  0.19017825043E+04  0.18985290356E+04 0.  0.
        2    1    3    3  502    0 -0.66936838172E+03 -0.12850214309E+03 -0.60624397474E+03  0.91219438067E+03  0.25500000920E-02 0.  1.
       -2    1    3    3    0  502  0.66936838172E+03  0.12850214309E+03  0.71743837590E+03  0.98958812364E+03  0.25500000920E-02 0. -1.
</event>
<event>
 5   0  0.3211263E-06  0.1899899E+04  0.7818609E-02  0.8654907E-01
       -1   -1    0    0    0  501  0.00000000000E+00  0.00000000000E+00  0.10739630548E+04  0.10739630549E+04  0.50400001928E-02 0. -1.
        1   -1    0    0  501    0  0.00000000000E+00  0.00000000000E+00 -0.84025574124E+03  0.84025574126E+03  0.50400001928E-02 0.  1.
    10030    2    1    2    0    0  0.00000000000E+00  0.00000000000E+00  0.23370731360E+03  0.19142187961E+04  0.18998985475E+04 0.  0.
        5    1    3    3  502    0 -0.15807851595E+03  0.48541183748E+02 -0.82563089921E+03  0.84204129082E+03  0.46999998093E+01 0.  1.
       -5    1    3    3    0  502  0.15807851595E+03 -0.48541183748E+02  0.10593382128E+04  0.10721775053E+04  0.46999998093E+01 0. -1.
</event>
<event>
 5   0  0.6862201E-06  0.1903035E+04  0.7818609E-02  0.8653347E-01
        2   -1    0    0  501    0  0.00000000000E+00  0.00000000000E+00  0.11103809863E+04  0.11103809863E+04  0.25500000920E-02 0.  1.
       -2   -1    0    0    0  501  0.00000000000E+00  0.00000000000E+00 -0.81538268328E+03  0.81538268329E+03  0.25500000920E-02 0. -1.
    10030    2    1    2    0    0  0.00000000000E+00  0.00000000000E+00  0.29499830304E+03  0.19257636696E+04  0.19030348689E+04 0.  0.
        3    1    3    3  502    0  0.67370038766E+02  0.47603627964E+02 -0.81175736940E+03  0.81593802736E+03  0.10100000352E+00 0. -1.
       -3    1    3    3    0  502 -0.67370038766E+02 -0.47603627964E+02  0.11067556724E+04  0.11098256422E+04  0.10100000352E+00 0.  1.
</event>
<event>
 5   0  0.3236653E-06  0.1897271E+04  0.7818609E-02  0.8656216E-01
        1   -1    0    0  501    0  0.00000000000E+00  0.00000000000E+00  0.70809487653E+03  0.70809487655E+03  0.50400001928E-02 0. -1.
       -1   -1    0    0    0  501  0.00000000000E+00  0.00000000000E+00 -0.12708878107E+04  0.12708878107E+04  0.50400001928E-02 0.  1.
    10030    2    1    2    0    0  0.00000000000E+00  0.00000000000E+00 -0.56279293415E+03  0.19789826872E+04  0.18972708267E+04 0.  0.
        3    1    3    3  502    0 -0.78987624873E+01  0.94230405673E+03 -0.16756427250E+03  0.95711917826E+03  0.10100000352E+00 0. -1.
       -3    1    3    3    0  502  0.78987624873E+01 -0.94230405673E+03 -0.39522866165E+03  0.10218635090E+04  0.10100000352E+00 0.  1.
</event>
<event>
 5   0  0.7207648E-06  0.1898409E+04  0.7818609E-02  0.8655649E-01
       -2   -1    0    0    0  501  0.00000000000E+00  0.00000000000E+00  0.71717078933E+03  0.71717078934E+03  0.25500000920E-02 0.  1.
        2   -1    0    0  501    0  0.00000000000E+00  0.00000000000E+00 -0.12563105595E+04  0.12563105595E+04  0.25500000920E-02 0. -1.
    10030    2    1    2    0    0  0.00000000000E+00  0.00000000000E+00 -0.53913977016E+03  0.19734813488E+04  0.18984090556E+04 0.  0.
        4    1    3    3  502    0 -0.40303252680E+03  0.50351786393E+03 -0.99354564043E+03  0.11845252253E+04  0.12699999809E+01 0. -1.
       -4    1    3    3    0  502  0.40303252680E+03 -0.50351786393E+03  0.45440587027E+03  0.78895612349E+03  0.12699999809E+01 0.  1.
</event>
<event>
 5   0  0.3495279E-06  0.1898071E+04  0.7818609E-02  0.8655817E-01
       -1   -1    0    0    0  501  0.00000000000E+00  0.00000000000E+00  0.87323489527E+03  0.87323489529E+03  0.50400001928E-02 0. -1.
        1   -1    0    0  501    0  0.00000000000E+00  0.00000000000E+00 -0.10314163956E+04  0.10314163956E+04  0.50400001928E-02 0.  1.
    10030    2    1    2    0    0  0.00000000000E+00  0.00000000000E+00 -0.15818150029E+03  0.19046512909E+04  0.18980714298E+04 0.  0.
        2    1    3    3  502    0  0.28054701976E+03  0.81882182155E+03 -0.46966101934E+03  0.98476254947E+03  0.25500000920E-02 0.  1.
       -2    1    3    3    0  502 -0.28054701976E+03 -0.81882182155E+03  0.31147951905E+03  0.91988874139E+03  0.25500000920E-02 0. -1.
</event>
<event>
 5   0  0.3398807E-06  0.1900322E+04  0.7818609E-02  0.8654696E-01
        1   -1    0    0  501    0  0.00000000000E+00  0.00000000000E+00  0.11746947844E+04  0.11746947844E+04  0.50400001928E-02 0.  1.
       -1   -1    0    0    0  501  0.00000000000E+00  0.00000000000E+00 -0.76854547425E+03  0.76854547427E+03  0.50400001928E-02 0. -1.
    10030    2    1    2    0    0  0.00000000000E+00  0.00000000000E+00  0.40614931018E+03  0.19432402587E+04  0.19003224571E+04 0.  0.
        1    1    3    3  502    0  0.58552425547E+03 -0.12658439569E+03 -0.55110763985E+03  0.81399133515E+03  0.50400001928E-02 0. -1.
       -1    1    3    3    0  502 -0.58552425547E+03  0.12658439569E+03  0.95725695003E+03  0.11292489236E+04  0.50400001928E-02 0.  1.
</event>
<event>
 5   0  0.7577180E-06  0.1899588E+04  0.7818609E-02  0.8655061E-01
       -2   -1    0    0    0  501  0.00000000000E+00  0.00000000000E+00  0.63559881695E+03  0.63559881696E+03  0.25500000920E-02 0.  1.
        2   -1    0    0  501    0  0.00000000000E+00  0.00000000000E+00 -0.14193051218E+04  0.14193051218E+04  0.25500000920E-02 0. -1.
    10030    2    1    2    0    0  0.00000000000E+00  0.00000000000E+00 -0.78370630489E+03  0.20549039388E+04  0.18995880146E+04 0.  0.
        5    1    3    3  502    0  0.52697132900E+03 -0.46599607709E+03 -0.10821801960E+04  0.12907312625E+04  0.46999998093E+01 0. -1.
       -5    1    3    3    0  502 -0.52697132900E+03  0.46599607709E+03  0.29847389113E+03  0.76417267626E+03  0.46999998093E+01 0.  1.
</event>
<event>
 5   0  0.3211263E-06  0.1900046E+04  0.7818609E-02  0.8654833E-01
        1   -1    0    0  501    0  0.00000000000E+00  0.00000000000E+00  0.12002755476E+04  0.12002755476E+04  0.50400001928E-02 0. -1.
       -1   -1    0    0    0  501  0.00000000000E+00  0.00000000000E+00 -0.75194738595E+03  0.75194738596E+03  0.50400001928E-02 0.  1.
    10030    2    1    2    0    0  0.00000000000E+00  0.00000000000E+00  0.44832816162E+03  0.19522229335E+04  0.19000463788E+04 0.  0.
        5    1    3    3  502    0  0.79083837227E+03  0.41031463775E+03  0.56297465184E+03  0.10539193430E+04  0.46999998093E+01 0. -1.
       -5    1    3    3    0  502 -0.79083837227E+03 -0.41031463775E+03 -0.11464649021E+03  0.89830359051E+03  0.46999998093E+01 0.  1.
</event>
<event>
 5   0  0.6862201E-06  0.1900086E+04  0.7818609E-02  0.8654813E-01
       -2   -1    0    0    0  501  0.00000000000E+00  0.00000000000E+00  0.73048211639E+03  0.73048211639E+03  0.25500000920E-02 0.  1.
        2   -1    0    0  501    0  0.00000000000E+00  0.00000000000E+00 -0.12355977068E+04  0.12355977068E+04  0.25500000920E-02 0. -1.
    10030    2    1    2    0    0  0.00000000000E+00  0.00000000000E+00 -0.50511559043E+03  0.19660798232E+04  0.19000863432E+04 0.  0.
        3    1    3    3  502    0 -0.22400737900E+03 -0.65911415322E+03  0.41640353247E+03  0.81117364656E+03  0.10100000352E+00 0.  1.
       -3    1    3    3    0  502  0.22400737900E+03  0.65911415322E+03 -0.92151912290E+03  0.11549061767E+04  0.10100000352E+00 0. -1.
</event>
<event>
 5   0  0.6870370E-06  0.1897370E+04  0.7818609E-02  0.8656167E-01
        2   -1    0    0  501    0  0.00000000000E+00  0.00000000000E+00  0.90410716762E+03  0.90410716763E+03  0.25500000920E-02 0. -1.
       -2   -1    0    0    0  501  0.00000000000E+00  0.00000000000E+00 -0.99546044604E+03  0.99546044604E+03  0.25500000920E-02 0.  1.
    10030    2    1    2    0    0  0.00000000000E+00  0.00000000000E+00 -0.91353278418E+02  0.18995676137E+04  0.18973696786E+04 0.  0.
        1    1    3    3  502    0 -0.86101812230E+03 -0.22587024938E+03 -0.37413190209E+03  0.96557975159E+03  0.50400001928E-02 0. -1.
       -1    1    3    3    0  502  0.86101812230E+03  0.22587024938E+03  0.28277862367E+03  0.93398786208E+03  0.50400001928E-02 0.  1.
</event>
<event>
 5   0  0.3495279E-06  0.1901519E+04  0.7818609E-02  0.8654101E-01
       -1   -1    0    0    0  501  0.00000000000E+00  0.00000000000E+00  0.10511034732E+04  0.10511034732E+04  0.50400001928E-02 0.  1.
        1   -1    0    0  501    0  0.00000000000E+00  0.00000000000E+00 -0.85999488042E+03  0.85999488043E+03  0.50400001928E-02 0. -1.
    10030    2    1    2    0    0  0.00000000000E+00  0.00000000000E+00  0.19110859274E+03  0.19110983536E+04  0.19015189778E+04 0.  0.
        2    1    3    3  502    0  0.59197906969E+03  0.71971735744E+03  0.28494808611E+03  0.97448843263E+03  0.25500000920E-02 0.  1.
       -2    1    3    3    0  502 -0.59197906969E+03 -0.71971735744E+03 -0.93839493365E+02  0.93660992098E+03  0.25500000920E-02 0. -1.
</event>
<event>
 5   0  0.3495279E-06  0.1900031E+04  0.7818609E-02  0.8654841E-01
       -1   -1    0    0    0  501  0.00000000000E+00  0.00000000000E+00  0.60460518455E+03  0.60460518457E+03  0.50400001928E-02 0.  1.
        1   -1    0    0  501    0  0.00000000000E+00  0.00000000000E+00 -0.14927582546E+04  0.14927582546E+04  0.50400001928E-02 0. -1.
    10030    2    1    2    0    0  0.00000000000E+00  0.00000000000E+00 -0.88815307001E+03  0.20973634391E+04  0.19000309261E+04 0.  0.
        2    1    3    3  502    0  0.16387681056E+03 -0.46877132943E+03 -0.13380833872E+04  0.14272593736E+04  0.25500000920E-02 0. -1.
       -2    1    3    3    0  502 -0.16387681056E+03  0.46877132943E+03  0.44993031720E+03  0.67010406556E+03  0.25500000920E-02 0.  1.
</event>
<event>
 5   0  0.6862201E-06  0.1899413E+04  0.7818609E-02  0.8655148E-01
       -2   -1    0    0    0  501  0.00000000000E+00  0.00000000000E+00  0.53196446753E+03  0.53196446753E+03  0.25500000920E-02 0.  1.
        2   -1    0    0  501    0  0.00000000000E+00  0.00000000000E+00 -0.16954942285E+04  0.16954942285E+04  0.25500000920E-02 0. -1.
    10030    2    1    2    0    0  0.00000000000E+00  0.00000000000E+00 -0.11635297610E+04  0.22274586961E+04  0.18994132615E+04 0.  0.
        3    1    3    3  502    0 -0.38393903291E+03 -0.59648028947E+03 -0.13222864056E+04  0.15005463223E+04  0.10100000352E+00 0. -1.
       -3    1    3    3    0  502  0.38393903291E+03  0.59648028947E+03  0.15875664460E+03  0.72691237376E+03  0.10100000352E+00 0.  1.
</event>
<event>
 5   0  0.6862201E-06  0.1900280E+04  0.7818609E-02  0.8654717E-01
       -2   -1    0    0    0  501  0.00000000000E+00  0.00000000000E+00  0.52379670447E+03  0.52379670448E+03  0.25500000920E-02 0. -1.
        2   -1    0    0  501    0  0.00000000000E+00  0.00000000000E+00 -0.17235053788E+04  0.17235053788E+04  0.25500000920E-02 0.  1.
    10030    2    1    2    0    0  0.00000000000E+00  0.00000000000E+00 -0.11997086743E+04  0.22473020832E+04  0.19002804399E+04 0.  0.
        3    1    3    3  502    0 -0.52307882337E+03 -0.56458905623E+03 -0.12587255512E+04  0.14753854687E+04  0.10100000352E+00 0.  1.
       -3    1    3    3    0  502  0.52307882337E+03  0.56458905623E+03  0.59016876863E+02  0.77191661456E+03  0.10100000352E+00 0. -1.
</event>
<event>
 5   0  0.3379108E-06  0.1900187E+04  0.7818609E-02  0.8654763E-01
        1   -1    0    0  501    0  0.00000000000E+00  0.00000000000E+00  0.12333863386E+04  0.12333863386E+04  0.50400001928E-02 0. -1.
       -1   -1    0    0    0  501  0.00000000000E+00  0.00000000000E+00 -0.73186957145E+03  0.73186957147E+03  0.50400001928E-02 0.  1.
    10030    2    1    2    0    0  0.00000000000E+00  0.00000000000E+00  0.50151676717E+03  0.19652559101E+04  0.19001872867E+04 0.  0.
        4    1    3    3  502    0 -0.61188714923E+03 -0.15327371530E+03  0.98556446408E+03  0.11701442821E+04  0.12699999809E+01 0. -1.
       -4    1    3    3    0  502  0.61188714923E+03  0.15327371530E+03 -0.48404769691E+03  0.79511162800E+03  0.12699999809E+01 0.  1.
</event>
<event>
 5   0  0.3379108E-06  0.1898865E+04  0.7818609E-02  0.8655422E-01
        1   -1    0    0  501    0  0.00000000000E+00  0.00000000000E+00  0.12677079296E+04  0.12677079296E+04  0.50400001928E-02 0.  1.
       -1   -1    0    0    0  501  0.00000000000E+00  0.00000000000E+00 -0.71106432306E+03  0.71106432308E+03  0.50400001928E-02 0. -1.
    10030    2    1    2    0    0  0.00000000000E+00  0.00000000000E+00  0.55664360657E+03  0.19787722527E+04  0.18988647986E+04 0.  0.
        4    1    3    3  502    0  0.67747663608E+03 -0.15045691476E+02 -0.41465806159E+03  0.79444564711E+03  0.12699999809E+01 0. -1.
       -4    1    3    3    0  502 -0.67747663608E+03  0.15045691476E+02  0.97130166816E+03  0.11843266056E+04  0.12699999809E+01 0.  1.
</event>
<event>
 5   0  0.3398807E-06  0.1900205E+04  0.7818609E-02  0.8654755E-01
       -1   -1    0    0    0  501  0.00000000000E+00  0.00000000000E+00  0.82118342461E+03  0.82118342463E+03  0.50400001928E-02 0. -1.
        1   -1    0    0  501    0  0.00000000000E+00  0.00000000000E+00 -0.10992603431E+04  0.10992603431E+04  0.50400001928E-02 0.  1.
    10030    2    1    2    0    0  0.00000000000E+00  0.00000000000E+00 -0.27807691846E+03  0.19204437677E+04  0.19002045922E+04 0.  0.
        1    1    3    3  502    0 -0.36036728128E+03 -0.27409311971E+03  0.70514424794E+03  0.83798569565E+03  0.50400001928E-02 0. -1.
       -1    1    3    3    0  502  0.36036728128E+03  0.27409311971E+03 -0.98322116640E+03  0.10824580721E+04  0.50400001928E-02 0.  1.
</event>
<event>
 5   0  0.3398807E-06  0.1900482E+04  0.7818609E-02  0.8654616E-01
        1   -1    0    0  501    0  0.00000000000E+00  0.00000000000E+00  0.21501369734E+04  0.21501369734E+04  0.50400001928E-02 0. -1.
       -1   -1    0    0    0  501  0.00000000000E+00  0.00000000000E+00 -0.41995378127E+03  0.41995378130E+03  0.50400001928E-02 0.  1.
    10030    2    1    2    0    0  0.00000000000E+00  0.00000000000E+00  0.17301831921E+04  0.25700907547E+04  0.19004822044E+04 0.  0.
        1    1    3    3  502    0 -0.41100130147E+03  0.22397040899E+03  0.19834280671E+04  0.20379086612E+04  0.50400001928E-02 0. -1.
       -1    1    3    3    0  502  0.41100130147E+03 -0.22397040899E+03 -0.25324487500E+03  0.53218209351E+03  0.50400001928E-02 0.  1.
</event>
<event>
 5   0  0.3495279E-06  0.1899330E+04  0.7818609E-02  0.8655190E-01
       -1   -1    0    0    0  501  0.00000000000E+00  0.00000000000E+00  0.75182678741E+03  0.75182678743E+03  0.50400001928E-02 0.  1.
        1   -1    0    0  501    0  0.00000000000E+00  0.00000000000E+00 -0.11995631109E+04  0.11995631110E+04  0.50400001928E-02 0. -1.
    10030    2    1    2    0    0  0.00000000000E+00  0.00000000000E+00 -0.44773632354E+03  0.19513898984E+04  0.18993300714E+04 0.  0.
        2    1    3    3  502    0  0.69440452087E+03 -0.58824188585E+03  0.54932114777E+02  0.91172566713E+03  0.25500000920E-02 0.  1.
       -2    1    3    3    0  502 -0.69440452087E+03  0.58824188585E+03 -0.50266843831E+03  0.10396642313E+04  0.25500000920E-02 0. -1.
</event>
<event>
 5   0  0.3211263E-06  0.1900418E+04  0.7818609E-02  0.8654649E-01
       -1   -1    0    0    0  501  0.00000000000E+00  0.00000000000E+00  0.69185888669E+03  0.69185888671E+03  0.50400001928E-02 0.  1.
        1   -1    0    0  501    0  0.00000000000E+00  0.00000000000E+00 -0.13050301891E+04  0.13050301891E+04  0.50400001928E-02 0. -1.
    10030    2    1    2    0    0  0.00000000000E+00  0.00000000000E+00 -0.61317130236E+03  0.19968890758E+04  0.19004175686E+04 0.  0.
        5    1    3    3  502    0  0.84637944280E+03  0.22368374523E+03 -0.69477417889E+03  0.11176429791E+04  0.46999998093E+01 0. -1.
       -5    1    3    3    0  502 -0.84637944280E+03 -0.22368374523E+03  0.81602876527E+02  0.87924609668E+03  0.46999998093E+01 0.  1.
</event>
<event>
 5   0  0.3495279E-06  0.1898901E+04  0.7818609E-02  0.8655403E-01
        1   -1    0    0  501    0  0.00000000000E+00  0.00000000000E+00  0.12877636926E+04  0.12877636926E+04  0.50400001928E-02 0. -1.
       -1   -1    0    0    0  501  0.00000000000E+00  0.00000000000E+00 -0.70001710114E+03  0.70001710116E+03  0.50400001928E-02 0.  1.
    10030    2    1    2    0    0  0.00000000000E+00  0.00000000000E+00  0.58774659148E+03  0.19877807938E+04  0.18989013741E+04 0.  0.
        2    1    3    3  502    0 -0.81791406850E+03  0.71617360719E+01  0.79853993692E+03  0.11431101193E+04  0.25500000920E-02 0. -1.
       -2    1    3    3    0  502  0.81791406850E+03 -0.71617360719E+01 -0.21079334543E+03  0.84467067453E+03  0.25500000920E-02 0.  1.
</event>
<event>
 5   0  0.6870370E-06  0.1900000E+04  0.7818609E-02  0.8654856E-01
        2   -1    0    0  501    0  0.00000000000E+00  0.00000000000E+00  0.12033679229E+04  0.12033679229E+04  0.25500000920E-02 0. -1.
       -2   -1    0    0    0  501  0.00000000000E+00  0.00000000000E+00 -0.74997841639E+03  0.74997841639E+03  0.25500000920E-02 0.  1.
    10030    2    1    2    0    0  0.00000000000E+00  0.00000000000E+00  0.45338950650E+03  0.19533463393E+04  0.18999999675E+04 0.  0.
        1    1    3    3  502    0  0.66610650546E+03  0.44922781550E+03 -0.29448703534E+03  0.85570212156E+03  0.50400001928E-02 0.  1.
       -1    1    3    3    0  502 -0.66610650546E+03 -0.44922781550E+03  0.74787654184E+03  0.10976442177E+04  0.50400001928E-02 0. -1.
</event>
<event>
 5   0  0.6870370E-06  0.1899519E+04  0.7818609E-02  0.8655096E-01
       -2   -1    0    0    0  501  0.00000000000E+00  0.00000000000E+00  0.88848088010E+03  0.88848088010E+03  0.25500000920E-02 0. -1.
        2   -1    0    0  501    0  0.00000000000E+00  0.00000000000E+00 -0.10152645350E+04  0.10152645350E+04  0.25500000920E-02 0.  1.
    10030    2    1    2    0    0  0.00000000000E+00  0.00000000000E+00 -0.12678365488E+03  0.19037454151E+04  0.18995190208E+04 0.  0.
        1    1    3    3  502    0 -0.55388183040E+02  0.65236260215E+03 -0.75296217222E+03  0.99779599535E+03  0.50400001928E-02 0.  1.
       -1    1    3    3    0  502  0.55388183040E+02 -0.65236260215E+03  0.62617851735E+03  0.90594941973E+03  0.50400001928E-02 0. -1.
</event>
<event>
 5   0  0.6984466E-06  0.1900150E+04  0.7818609E-02  0.8654782E-01
       -2   -1    0    0    0  501  0.00000000000E+00  0.00000000000E+00  0.44879931648E+03  0.44879931649E+03  0.25500000920E-02 0. -1.
        2   -1    0    0  501    0  0.00000000000E+00  0.00000000000E+00 -0.20112391981E+04  0.20112391981E+04  0.25500000920E-02 0.  1.
    10030    2    1    2    0    0  0.00000000000E+00  0.00000000000E+00 -0.15624398816E+04  0.24600385146E+04  0.19001502861E+04 0.  0.
        2    1    3    3  502    0  0.93536108821E+03  0.12242286530E+02 -0.99627505927E+03  0.13666068318E+04  0.25500000920E-02 0. -1.
       -2    1    3    3    0  502 -0.93536108821E+03 -0.12242286530E+02 -0.56616482235E+03  0.10934316828E+04  0.25500000920E-02 0.  1.
</event>
<event>
 5   0  0.3379108E-06  0.1900472E+04  0.7818609E-02  0.8654621E-01
       -1   -1    0    0    0  501  0.00000000000E+00  0.00000000000E+00  0.10989267815E+04  0.10989267815E+04  0.50400001928E-02 0.  1.
        1   -1    0    0  501    0  0.00000000000E+00  0.00000000000E+00 -0.82166393685E+03  0.82166393687E+03  0.50400001928E-02 0. -1.
    10030    2    1    2    0    0  0.00000000000E+00  0.00000000000E+00  0.27726284462E+03  0.19205907183E+04  0.19004720525E+04 0.  0.
        4    1    3    3  502    0  0.67620333441E+03 -0.64703367783E+03  0.30482096281E+03  0.98428703231E+03  0.12699999809E+01 0.  1.
       -4    1    3    3    0  502 -0.67620333441E+03  0.64703367783E+03 -0.27558118187E+02  0.93630368604E+03  0.12699999809E+01 0. -1.
</event>
<event>
 5   0  0.3379108E-06  0.1900674E+04  0.7818609E-02  0.8654521E-01
       -1   -1    0    0    0  501  0.00000000000E+00  0.00000000000E+00  0.72600070061E+03  0.72600070063E+03  0.50400001928E-02 0.  1.
        1   -1    0    0  501    0  0.00000000000E+00  0.00000000000E+00 -0.12439932402E+04  0.12439932402E+04  0.50400001928E-02 0. -1.
    10030    2    1    2    0    0  0.00000000000E+00  0.00000000000E+00 -0.51799253960E+03  0.19699939408E+04  0.19006735269E+04 0.  0.
        4    1    3    3  502    0  0.42518270657E+03 -0.72071002234E+03 -0.72590923009E+03  0.11077676171E+04  0.12699999809E+01 0. -1.
       -4    1    3    3    0  502 -0.42518270657E+03  0.72071002234E+03  0.20791669049E+03  0.86222632374E+03  0.12699999809E+01 0.  1.
</event>
<event>
 5   0  0.3398807E-06  0.1899094E+04  0.7818609E-02  0.8655307E-01
        1   -1    0    0  501    0  0.00000000000E+00  0.00000000000E+00  0.81203045848E+03  0.81203045850E+03  0.50400001928E-02 0.  1.
       -1   -1    0    0    0  501  0.00000000000E+00  0.00000000000E+00 -0.11103521994E+04  0.11103521994E+04  0.50400001928E-02 0. -1.
    10030    2    1    2    0    0  0.00000000000E+00  0.00000000000E+00 -0.29832174089E+03  0.19223826579E+04  0.18990943163E+04 0.  0.
        1    1    3    3  502    0  0.73354708406E+03  0.34215419563E+03 -0.65171547507E+03  0.10391794256E+04  0.50400001928E-02 0. -1.
       -1    1    3    3    0  502 -0.73354708406E+03 -0.34215419563E+03  0.35339373419E+03  0.88320323228E+03  0.50400001928E-02 0.  1.
</event>
<event>
 5   0  0.3495279E-06  0.1899810E+04  0.7818609E-02  0.8654951E-01
       -1   -1    0    0    0  501  0.00000000000E+00  0.00000000000E+00  0.32416024602E+03  0.32416024606E+03  0.50400001928E-02 0.  1.
        1   -1    0    0  501    0  0.00000000000E+00  0.00000000000E+00 -0.27835595109E+04  0.27835595109E+04  0.50400001928E-02 0. -1.
    10030    2    1    2    0    0  0.00000000000E+00  0.00000000000E+00 -0.24593992649E+04  0.31077197569E+04  0.18998098178E+04 0.  0.
        2    1    3    3  502    0 -0.14983386558E+03 -0.65671070000E+03 -0.23253234255E+04  0.24209188677E+04  0.25500000920E-02 0. -1.
       -2    1    3    3    0  502  0.14983386558E+03  0.65671070000E+03 -0.13407583935E+03  0.68680088925E+03  0.25500000920E-02 0.  1.
</event>
<event>
 5   0  0.3495279E-06  0.1900500E+04  0.7818609E-02  0.8654608E-01
        1   -1    0    0  501    0  0.00000000000E+00  0.00000000000E+00  0.90954885449E+03  0.90954885451E+03  0.50400001928E-02 0. -1.
       -1   -1    0    0    0  501  0.00000000000E+00  0.00000000000E+00 -0.99277195619E+03  0.99277195620E+03  0.50400001928E-02 0.  1.
    10030    2    1    2    0    0  0.00000000000E+00  0.00000000000E+00 -0.83223101696E+02  0.19023208107E+04  0.19004995086E+04 0.  0.
        2    1    3    3  502    0  0.73508243647E+03 -0.60148315747E+03 -0.12490398917E+02  0.94988640752E+03  0.25500000920E-02 0. -1.
       -2    1    3    3    0  502 -0.73508243647E+03  0.60148315747E+03 -0.70732702779E+02  0.95243440319E+03  0.25500000920E-02 0.  1.
</event>
<event>
 5   0  0.6862201E-06  0.1900044E+04  0.7818609E-02  0.8654834E-01
        2   -1    0    0  501    0  0.00000000000E+00  0.00000000000E+00  0.10275329002E+04  0.10275329002E+04  0.25500000920E-02 0. -1.
       -2   -1    0    0    0  501  0.00000000000E+00  0.00000000000E+00 -0.87835819505E+03  0.87835819505E+03  0.25500000920E-02 0.  1.
    10030    2    1    2    0    0  0.00000000000E+00  0.00000000000E+00  0.14917470520E+03  0.19058910953E+04  0.19000441507E+04 0.  0.
        3    1    3    3  502    0 -0.10204318010E+03 -0.32930950766E+03  0.96257102669E+03  0.10224483136E+04  0.10100000352E+00 0. -1.
       -3    1    3    3    0  502  0.10204318010E+03  0.32930950766E+03 -0.81339632150E+03  0.88344278166E+03  0.10100000352E+00 0.  1.
</event>
<event>
 5   0  0.6870370E-06  0.1905135E+04  0.7818609E-02  0.8652305E-01
        2   -1    0    0  501    0  0.00000000000E+00  0.00000000000E+00  0.90883927936E+03  0.90883927936E+03  0.25500000920E-02 0. -1.
       -2   -1    0    0    0  501  0.00000000000E+00  0.00000000000E+00 -0.99839936236E+03  0.99839936236E+03  0.25500000920E-02 0.  1.
    10030    2    1    2    0    0  0.00000000000E+00  0.00000000000E+00 -0.89560083000E+02  0.19072386417E+04  0.19051347008E+04 0.  0.
        1    1    3    3  502    0  0.15881667199E+03  0.91744912961E+03  0.15656122435E+03  0.94416474077E+03  0.50400001928E-02 0. -1.
       -1    1    3    3    0  502 -0.15881667199E+03 -0.91744912961E+03 -0.24612130735E+03  0.96307390095E+03  0.50400001928E-02 0.  1.
</event>
<event>
 5   0  0.6862201E-06  0.1901709E+04  0.7818609E-02  0.8654006E-01
       -2   -1    0    0    0  501  0.00000000000E+00  0.00000000000E+00  0.42405911784E+03  0.42405911785E+03  0.25500000920E-02 0.  1.
        2   -1    0    0  501    0  0.00000000000E+00  0.00000000000E+00 -0.21320721149E+04  0.21320721150E+04  0.25500000920E-02 0. -1.
    10030    2    1    2    0    0  0.00000000000E+00  0.00000000000E+00 -0.17080129971E+04  0.25561312328E+04  0.19017093577E+04 0.  0.
        3    1    3    3  502    0 -0.64414642520E+03  0.22192993178E+03 -0.17455432123E+04  0.18737925786E+04  0.10100000352E+00 0. -1.
       -3    1    3    3    0  502  0.64414642520E+03 -0.22192993178E+03  0.37530215151E+02  0.68233865416E+03  0.10100000352E+00 0.  1.
</event>
<event>
 5   0  0.3398807E-06  0.1899808E+04  0.7818609E-02  0.8654952E-01
        1   -1    0    0  501    0  0.00000000000E+00  0.00000000000E+00  0.60002719104E+03  0.60002719106E+03  0.50400001928E-02 0.  1.
       -1   -1    0    0    0  501  0.00000000000E+00  0.00000000000E+00 -0.15037951672E+04  0.15037951672E+04  0.50400001928E-02 0. -1.
    10030    2    1    2    0    0  0.00000000000E+00  0.00000000000E+00 -0.90376797619E+03  0.21038223583E+04  0.18998084010E+04 0.  0.
        1    1    3    3  502    0  0.39882945910E+02  0.39398341916E+03 -0.14080303342E+04  0.14626561476E+04  0.50400001928E-02 0. -1.
       -1    1    3    3    0  502 -0.39882945910E+02 -0.39398341916E+03  0.50426235805E+03  0.64116621069E+03  0.50400001928E-02 0.  1.
</event>
<event>
 5   0  0.6984466E-06  0.1900237E+04  0.7818609E-02  0.8654739E-01
       -2   -1    0    0    0  501  0.00000000000E+00  0.00000000000E+00  0.62059760545E+03  0.62059760545E+03  0.25500000920E-02 0. -1.
        2   -1    0    0  501    0  0.00000000000E+00  0.00000000000E+00 -0.14546058300E+04  0.14546058300E+04  0.25500000920E-02 0.  1.
    10030    2    1    2    0    0  0.00000000000E+00  0.00000000000E+00 -0.83400822458E+03  0.20752034355E+04  0.19002367168E+04 0.  0.
        2    1    3    3  502    0  0.70584195341E+03 -0.29118484118E+03  0.20050048792E+03  0.78943139068E+03  0.25500000920E-02 0. -1.
       -2    1    3    3    0  502 -0.70584195341E+03  0.29118484118E+03 -0.10345087125E+04  0.12857720448E+04  0.25500000920E-02 0.  1.
</event>
<event>
 5   0  0.6984466E-06  0.1900522E+04  0.7818609E-02  0.8654597E-01
       -2   -1    0    0    0  501  0.00000000000E+00  0.00000000000E+00  0.35887631385E+03  0.35887631386E+03  0.25500000920E-02 0. -1.
        2   -1    0    0  501    0  0.00000000000E+00  0.00000000000E+00 -0.25161751962E+04  0.25161751962E+04  0.25500000920E-02 0.  1.
    10030    2    1    2    0    0  0.00000000000E+00  0.00000000000E+00 -0.21572988823E+04  0.28750515100E+04  0.19005216962E+04 0.  0.
        2    1    3    3  502    0  0.19508854783E+03  0.31433650297E+03  0.24545933570E+03  0.44397890049E+03  0.25500000920E-02 0. -1.
       -2    1    3    3    0  502 -0.19508854783E+03 -0.31433650297E+03 -0.24027582180E+04  0.24310726095E+04  0.25500000920E-02 0.  1.
</event>
<event>
 5   0  0.3398807E-06  0.1899331E+04  0.7818609E-02  0.8655189E-01
       -1   -1    0    0    0  501  0.00000000000E+00  0.00000000000E+00  0.10082007002E+04  0.10082007002E+04  0.50400001928E-02 0.  1.
        1   -1    0    0  501    0  0.00000000000E+00  0.00000000000E+00 -0.89452901483E+03  0.89452901485E+03  0.50400001928E-02 0. -1.
    10030    2    1    2    0    0  0.00000000000E+00  0.00000000000E+00  0.11367168535E+03  0.19027297150E+04  0.18993312287E+04 0.  0.
        1    1    3    3  502    0 -0.25298836051E+02 -0.29101249808E+03  0.96207678118E+03  0.10054451940E+04  0.50400001928E-02 0.  1.
       -1    1    3    3    0  502  0.25298836051E+02  0.29101249808E+03 -0.84840509582E+03  0.89728452109E+03  0.50400001928E-02 0. -1.
</event>
<event>
 5   0  0.3379108E-06  0.1899814E+04  0.7818609E-02  0.8654949E-01
        1   -1    0    0  501    0  0.00000000000E+00  0.00000000000E+00  0.10253297032E+04  0.10253297032E+04  0.50400001928E-02 0.  1.
       -1   -1    0    0    0  501  0.00000000000E+00  0.00000000000E+00 -0.88003274342E+03  0.88003274343E+03  0.50400001928E-02 0. -1.
    10030    2    1    2    0    0  0.00000000000E+00  0.00000000000E+00  0.14529695977E+03  0.19053624466E+04  0.18998144242E+04 0.  0.
        4    1    3    3  502    0  0.29722647687E+03  0.86835052341E+03  0.31820197610E+03  0.97140636222E+03  0.12699999809E+01 0.  1.
       -4    1    3    3    0  502 -0.29722647687E+03 -0.86835052341E+03 -0.17290501633E+03  0.93395608442E+03  0.12699999809E+01 0. -1.
</event>
<event>
 5   0  0.3211263E-06  0.1899435E+04  0.7818609E-02  0.8655137E-01
        1   -1    0    0  501    0  0.00000000000E+00  0.00000000000E+00  0.14356162048E+04  0.14356162048E+04  0.50400001928E-02 0. -1.
       -1   -1    0    0    0  501  0.00000000000E+00  0.00000000000E+00 -0.62827636678E+03  0.62827636680E+03  0.50400001928E-02 0.  1.
    10030    2    1    2    0    0  0.00000000000E+00  0.00000000000E+00  0.80733983805E+03  0.20638925716E+04  0.18994354248E+04 0.  0.
        5    1    3    3  502    0 -0.87512988381E+03  0.34302749975E+03  0.55114703205E+03  0.10896354069E+04  0.46999998093E+01 0.  1.
       -5    1    3    3    0  502  0.87512988381E+03 -0.34302749975E+03  0.25619280600E+03  0.97425716470E+03  0.46999998093E+01 0. -1.
</event>
<event>
 5   0  0.7207648E-06  0.1901789E+04  0.7818609E-02  0.8653966E-01
       -2   -1    0    0    0  501  0.00000000000E+00  0.00000000000E+00  0.12109227578E+04  0.12109227578E+04  0.25500000920E-02 0. -1.
        2   -1    0    0  501    0  0.00000000000E+00  0.00000000000E+00 -0.74670363579E+03  0.74670363580E+03  0.25500000920E-02 0.  1.
    10030    2    1    2    0    0  0.00000000000E+00  0.00000000000E+00  0.46421912204E+03  0.19576263936E+04  0.19017890797E+04 0.  0.
        4    1    3    3  502    0 -0.37384749996E+03  0.22423027451E+03  0.11019998986E+04  0.11850934810E+04  0.12699999809E+01 0. -1.
       -4    1    3    3    0  502  0.37384749996E+03 -0.22423027451E+03 -0.63778077658E+03  0.77253291264E+03  0.12699999809E+01 0.  1.
</event>
<event>
 5   0  0.3211263E-06  0.1895270E+04  0.7818609E-02  0.8657214E-01
       -1   -1    0    0    0  501  0.00000000000E+00  0.00000000000E+00  0.52653666373E+03  0.52653666376E+03  0.50400001928E-02 0. -1.
        1   -1    0    0  501    0  0.00000000000E+00  0.00000000000E+00 -0.17055079573E+04  0.17055079573E+04  0.50400001928E-02 0.  1.
    10030    2    1    2    0    0  0.00000000000E+00  0.00000000000E+00 -0.11789712935E+04  0.22320446210E+04  0.18952703974E+04 0.  0.
        5    1    3    3  502    0 -0.78511891937E+03 -0.95736808140E+02  0.25189576785E+02  0.79134939108E+03  0.46999998093E+01 0. -1.
       -5    1    3    3    0  502  0.78511891937E+03  0.95736808140E+02 -0.12041608703E+04  0.14406952299E+04  0.46999998093E+01 0.  1.
</event>
<event>
 5   0  0.6870370E-06  0.1900728E+04  0.7818609E-02  0.8654494E-01
       -2   -1    0    0    0  501  0.00000000000E+00  0.00000000000E+00  0.90956503534E+03  0.90956503535E+03  0.25500000920E-02 0. -1.
        2   -1    0    0  501    0  0.00000000000E+00  0.00000000000E+00 -0.99299333867E+03  0.99299333867E+03  0.25500000920E-02 0.  1.
    10030    2    1    2    0    0  0.00000000000E+00  0.00000000000E+00 -0.83428303327E+02  0.19025583740E+04  0.19007283038E+04 0.  0.
        1    1    3    3  502    0 -0.55374773743E+03 -0.27145603802E+03 -0.76550585404E+03  0.98301787872E+03  0.50400001928E-02 0.  1.
       -1    1    3    3    0  502  0.55374773743E+03  0.27145603802E+03  0.68207755071E+03  0.91954049530E+03  0.50400001928E-02 0. -1.
</event>
<event>
 5   0  0.3211263E-06  0.1898998E+04  0.7818609E-02  0.8655355E-01
        1   -1    0    0  501    0  0.00000000000E+00  0.00000000000E+00  0.17011327953E+04  0.17011327953E+04  0.50400001928E-02 0. -1.
       -1   -1    0    0    0  501  0.00000000000E+00  0.00000000000E+00 -0.52996934390E+03  0.52996934392E+03  0.50400001928E-02 0.  1.
    10030    2    1    2    0    0  0.00000000000E+00  0.00000000000E+00  0.11711634514E+04  0.22311021392E+04  0.18989978741E+04 0.  0.
        5    1    3    3  502    0 -0.55397732861E+02  0.92025046092E+02  0.16939579512E+04  0.16973665333E+04  0.46999998093E+01 0. -1.
       -5    1    3    3    0  502  0.55397732861E+02 -0.92025046092E+02 -0.52279449985E+03  0.53373560588E+03  0.46999998093E+01 0.  1.
</event>
<event>
 5   0  0.3236653E-06  0.1902072E+04  0.7818609E-02  0.8653826E-01
        1   -1    0    0  501    0  0.00000000000E+00  0.00000000000E+00  0.97367038616E+03  0.97367038617E+03  0.50400001928E-02 0. -1.
       -1   -1    0    0    0  501  0.00000000000E+00  0.00000000000E+00 -0.92892730235E+03  0.92892730236E+03  0.50400001928E-02 0.  1.
    10030    2    1    2    0    0  0.00000000000E+00  0.00000000000E+00  0.44743083809E+02  0.19025976885E+04  0.19020715078E+04 0.  0.
        3    1    3    3  502    0  0.12290343274E+03  0.72927916261E+03 -0.57571998512E+03  0.93723362203E+03  0.10100000352E+00 0.  1.
       -3    1    3    3    0  502 -0.12290343274E+03 -0.72927916261E+03  0.62046306892E+03  0.96536406650E+03  0.10100000352E+00 0. -1.
</event>
<event>
 5   0  0.3236653E-06  0.1899973E+04  0.7818609E-02  0.8654870E-01
       -1   -1    0    0    0  501  0.00000000000E+00  0.00000000000E+00  0.19314835392E+04  0.19314835392E+04  0.50400001928E-02 0. -1.
        1   -1    0    0  501    0  0.00000000000E+00  0.00000000000E+00 -0.46724409133E+03  0.46724409136E+03  0.50400001928E-02 0.  1.
    10030    2    1    2    0    0  0.00000000000E+00  0.00000000000E+00  0.14642394479E+04  0.23987276306E+04  0.18999729169E+04 0.  0.
        3    1    3    3  502    0 -0.26376133219E+03  0.91237696045E+03  0.70467646510E+03  0.11826118082E+04  0.10100000352E+00 0. -1.
       -3    1    3    3    0  502  0.26376133219E+03 -0.91237696045E+03  0.75956298277E+03  0.12161158223E+04  0.10100000352E+00 0.  1.
</event>
<event>
 5   0  0.3211263E-06  0.1893735E+04  0.7818609E-02  0.8657981E-01
       -1   -1    0    0    0  501  0.00000000000E+00  0.00000000000E+00  0.63648326461E+03  0.63648326463E+03  0.50400001928E-02 0. -1.
        1   -1    0    0  501    0  0.00000000000E+00  0.00000000000E+00 -0.14086120434E+04  0.14086120434E+04  0.50400001928E-02 0.  1.
    10030    2    1    2    0    0  0.00000000000E+00  0.00000000000E+00 -0.77212877876E+03  0.20450953080E+04  0.18937349254E+04 0.  0.
        5    1    3    3  502    0  0.23779518035E+03  0.55891775092E+01 -0.13758090755E+04  0.13962272340E+04  0.46999998093E+01 0.  1.
       -5    1    3    3    0  502 -0.23779518035E+03 -0.55891775092E+01  0.60368029679E+03  0.64886807398E+03  0.46999998093E+01 0. -1.
</event>
<event>
 5   0  0.7207648E-06  0.1895308E+04  0.7818609E-02  0.8657195E-01
       -2   -1    0    0    0  501  0.00000000000E+00  0.00000000000E+00  0.46676862352E+03  0.46676862353E+03  0.25500000920E-02 0.  1.
        2   -1    0    0  501    0  0.00000000000E+00  0.00000000000E+00 -0.19239694463E+04  0.19239694463E+04  0.25500000920E-02 0. -1.
    10030    2    1    2    0    0  0.00000000000E+00  0.00000000000E+00 -0.14572008228E+04  0.23907380699E+04  0.18953084922E+04 0.  0.
        4    1    3    3  502    0  0.56408258047E+03 -0.75300408393E+03 -0.87154884471E+03  0.12824988537E+04  0.12699999809E+01 0. -1.
       -4    1    3    3    0  502 -0.56408258047E+03  0.75300408393E+03 -0.58565197811E+03  0.11082392162E+04  0.12699999809E+01 0.  1.
</event>
<event>
 5   0  0.6862201E-06  0.1904927E+04  0.7818609E-02  0.8652408E-01
       -2   -1    0    0    0  501  0.00000000000E+00  0.00000000000E+00  0.17541109434E+04  0.17541109434E+04  0.25500000920E-02 0. -1.
        2   -1    0    0  501    0  0.00000000000E+00  0.00000000000E+00 -0.51717730096E+03  0.51717730097E+03  0.25500000920E-02 0.  1.
    10030    2    1    2    0    0  0.00000000000E+00  0.00000000000E+00  0.12369336424E+04  0.22712882444E+04  0.19049266267E+04 0.  0.
        3    1    3    3  502    0  0.51858978749E+03 -0.65772876798E+03  0.11591612157E+04  0.14301039242E+04  0.10100000352E+00 0.  1.
       -3    1    3    3    0  502 -0.51858978749E+03  0.65772876798E+03  0.77772426758E+02  0.84118432016E+03  0.10100000352E+00 0. -1.
</event>
<event>
 5   0  0.6984466E-06  0.1899253E+04  0.7818609E-02  0.8655229E-01
       -2   -1    0    0    0  501  0.00000000000E+00  0.00000000000E+00  0.82248084906E+03  0.82248084907E+03  0.25500000920E-02 0. -1.
        2   -1    0    0  501    0  0.00000000000E+00  0.00000000000E+00 -0.10964268114E+04  0.10964268114E+04  0.25500000920E-02 0.  1.
    10030    2    1    2    0    0  0.00000000000E+00  0.00000000000E+00 -0.27394596231E+03  0.19189076604E+04  0.18992525422E+04 0.  0.
        2    1    3    3  502    0 -0.39978521169E+03 -0.77204298872E+03 -0.52290966954E+03  0.10145506958E+04  0.25500000920E-02 0.  1.
       -2    1    3    3    0  502  0.39978521169E+03  0.77204298872E+03  0.24896370723E+03  0.90435696461E+03  0.25500000920E-02 0. -1.
</event>
<event>
 5   0  0.6870370E-06  0.1900579E+04  0.7818609E-02  0.8654568E-01
        2   -1    0    0  501    0  0.00000000000E+00  0.00000000000E+00  0.19767092681E+04  0.19767092681E+04  0.25500000920E-02 0. -1.
       -2   -1    0    0    0  501  0.00000000000E+00  0.00000000000E+00 -0.45684532381E+03  0.45684532382E+03  0.25500000920E-02 0.  1.
    10030    2    1    2    0    0  0.00000000000E+00  0.00000000000E+00  0.15198639443E+04  0.24335545920E+04  0.19005792651E+04 0.  0.
        1    1    3    3  502    0 -0.57966352701E+02 -0.30433905760E+03  0.19102294756E+04  0.19351896573E+04  0.50400001928E-02 0. -1.
       -1    1    3    3    0  502  0.57966352701E+02  0.30433905760E+03 -0.39036553133E+03  0.49836493467E+03  0.50400001928E-02 0.  1.
</event>
<event>
 5   0  0.7577180E-06  0.1897683E+04  0.7818609E-02  0.8656011E-01
       -2   -1    0    0    0  501  0.00000000000E+00  0.00000000000E+00  0.89973327267E+03  0.89973327267E+03  0.25500000920E-02 0. -1.
        2   -1    0    0  501    0  0.00000000000E+00  0.00000000000E+00 -0.10006300385E+04  0.10006300385E+04  0.25500000920E-02 0.  1.
    10030    2    1    2    0    0  0.00000000000E+00  0.00000000000E+00 -0.10089676579E+03  0.19003633111E+04  0.18976829443E+04 0.  0.
        5    1    3    3  502    0  0.80281069765E+03  0.37680061357E+03  0.28736223472E+03  0.93224613841E+03  0.46999998093E+01 0. -1.
       -5    1    3    3    0  502 -0.80281069765E+03 -0.37680061357E+03 -0.38825900051E+03  0.96811717272E+03  0.46999998093E+01 0.  1.
</event>
<event>
 5   0  0.6862201E-06  0.1900009E+04  0.7818609E-02  0.8654852E-01
        2   -1    0    0  501    0  0.00000000000E+00  0.00000000000E+00  0.10442123178E+04  0.10442123178E+04  0.25500000920E-02 0. -1.
       -2   -1    0    0    0  501  0.00000000000E+00  0.00000000000E+00 -0.86429639708E+03  0.86429639708E+03  0.25500000920E-02 0.  1.
    10030    2    1    2    0    0  0.00000000000E+00  0.00000000000E+00  0.17991592075E+03  0.19085087149E+04  0.19000094148E+04 0.  0.
        3    1    3    3  502    0 -0.52323157401E+03 -0.15468814131E+03  0.87113163753E+03  0.10278959292E+04  0.10100000352E+00 0.  1.
       -3    1    3    3    0  502  0.52323157401E+03  0.15468814131E+03 -0.69121571678E+03  0.88061278575E+03  0.10100000352E+00 0. -1.
</event>
<event>
 5   0  0.3398807E-06  0.1899847E+04  0.7818609E-02  0.8654932E-01
       -1   -1    0    0    0  501  0.00000000000E+00  0.00000000000E+00  0.15538467874E+04  0.15538467874E+04  0.50400001928E-02 0.  1.
        1   -1    0    0  501    0  0.00000000000E+00  0.00000000000E+00 -0.58072326346E+03  0.58072326348E+03  0.50400001928E-02 0. -1.
    10030    2    1    2    0    0  0.00000000000E+00  0.00000000000E+00  0.97312352390E+03  0.21345700508E+04  0.18998473384E+04 0.  0.
        1    1    3    3  502    0  0.21313957472E+02 -0.92236596399E+03  0.23247655773E+03  0.95145079023E+03  0.50400001928E-02 0. -1.
       -1    1    3    3    0  502 -0.21313957472E+02  0.92236596399E+03  0.74064696617E+03  0.11831192606E+04  0.50400001928E-02 0.  1.
</event>
<event>
 5   0  0.3236653E-06  0.1888313E+04  0.7818609E-02  0.8660696E-01
       -1   -1    0    0    0  501  0.00000000000E+00  0.00000000000E+00  0.84248525066E+03  0.84248525068E+03  0.50400001928E-02 0.  1.
        1   -1    0    0  501    0  0.00000000000E+00  0.00000000000E+00 -0.10580971157E+04  0.10580971158E+04  0.50400001928E-02 0. -1.
    10030    2    1    2    0    0  0.00000000000E+00  0.00000000000E+00 -0.21561186508E+03  0.19005823664E+04  0.18883127006E+04 0.  0.
        3    1    3    3  502    0  0.43062085720E+03 -0.10608692317E+03 -0.94673394869E+03  0.10454635038E+04  0.10100000352E+00 0. -1.
       -3    1    3    3    0  502 -0.43062085720E+03  0.10608692317E+03  0.73112208361E+03  0.85511886266E+03  0.10100000352E+00 0.  1.
</event>
<event>
 5   0  0.3211263E-06  0.1899996E+04  0.7818609E-02  0.8654858E-01
        1   -1    0    0  501    0  0.00000000000E+00  0.00000000000E+00  0.61515776088E+03  0.61515776090E+03  0.50400001928E-02 0.  1.
       -1   -1    0    0    0  501  0.00000000000E+00  0.00000000000E+00 -0.14670972058E+04  0.14670972058E+04  0.50400001928E-02 0. -1.
    10030    2    1    2    0    0  0.00000000000E+00  0.00000000000E+00 -0.85193944496E+03  0.20822549667E+04  0.18999960339E+04 0.  0.
        5    1    3    3  502    0  0.24142052269E+03 -0.77712078679E+03 -0.96316749146E+03  0.12609180357E+04  0.46999998093E+01 0. -1.
       -5    1    3    3    0  502 -0.24142052269E+03  0.77712078679E+03  0.11122804650E+03  0.82133693109E+03  0.46999998093E+01 0.  1.
</event>
<event>
 5   0  0.3236653E-06  0.1901278E+04  0.7818609E-02  0.8654221E-01
        1   -1    0    0  501    0  0.00000000000E+00  0.00000000000E+00  0.15447963022E+04  0.15447963022E+04  0.50400001928E-02 0.  1.
       -1   -1    0    0    0  501  0.00000000000E+00  0.00000000000E+00 -0.58500553140E+03  0.58500553142E+03  0.50400001928E-02 0. -1.
    10030    2    1    2    0    0  0.00000000000E+00  0.00000000000E+00  0.95979077081E+03  0.21298018336E+04  0.19012778668E+04 0.  0.
        3    1    3    3  502    0  0.82414569651E+03 -0.44786849641E+03  0.30667379144E+03  0.98683896544E+03  0.10100000352E+00 0.  1.
       -3    1    3    3    0  502 -0.82414569651E+03  0.44786849641E+03  0.65311697937E+03  0.11429628682E+04  0.10100000352E+00 0. -1.
</event>
<event>
 5   0  0.6984466E-06  0.1900447E+04  0.7818609E-02  0.8654634E-01
       -2   -1    0    0    0  501  0.00000000000E+00  0.00000000000E+00  0.45134231553E+03  0.45134231554E+03  0.25500000920E-02 0. -1.
        2   -1    0    0  501    0  0.00000000000E+00  0.00000000000E+00 -0.20005314394E+04  0.20005314394E+04  0.25500000920E-02 0.  1.
    10030    2    1    2    0    0  0.00000000000E+00  0.00000000000E+00 -0.15491891238E+04  0.24518737549E+04  0.19004467813E+04 0.  0.
        2    1    3    3  502    0 -0.35653588555E+03 -0.87783746244E+03 -0.68148812342E+03  0.11671086113E+04  0.25500000920E-02 0. -1.
       -2    1    3    3    0  502  0.35653588555E+03  0.87783746244E+03 -0.86770100041E+03  0.12847651436E+04  0.25500000920E-02 0.  1.
</event>
<event>
 5   0  0.6862201E-06  0.1899904E+04  0.7818609E-02  0.8654904E-01
       -2   -1    0    0    0  501  0.00000000000E+00  0.00000000000E+00  0.57071333877E+03  0.57071333878E+03  0.25500000920E-02 0. -1.
        2   -1    0    0  501    0  0.00000000000E+00  0.00000000000E+00 -0.15811952528E+04  0.15811952528E+04  0.25500000920E-02 0.  1.
    10030    2    1    2    0    0  0.00000000000E+00  0.00000000000E+00 -0.10104819141E+04  0.21519085916E+04  0.18999044418E+04 0.  0.
        3    1    3    3  502    0  0.10173597251E+03 -0.33839052191E+03  0.49350828789E+03  0.60696688035E+03  0.10100000352E+00 0. -1.
       -3    1    3    3    0  502 -0.10173597251E+03  0.33839052191E+03 -0.15039902020E+04  0.15449417113E+04  0.10100000352E+00 0.  1.
</event>
<event>
 5   0  0.3236653E-06  0.1900020E+04  0.7818609E-02  0.8654846E-01
       -1   -1    0    0    0  501  0.00000000000E+00  0.00000000000E+00  0.10985613498E+04  0.10985613498E+04  0.50400001928E-02 0. -1.
        1   -1    0    0  501    0  0.00000000000E+00  0.00000000000E+00 -0.82154638605E+03  0.82154638606E+03  0.50400001928E-02 0.  1.
    10030    2    1    2    0    0  0.00000000000E+00  0.00000000000E+00  0.27701496374E+03  0.19201077359E+04  0.19000201123E+04 0.  0.
        3    1    3    3  502    0 -0.33110935002E+03  0.55277487351E+03  0.84397500845E+03  0.10618320430E+04  0.10100000352E+00 0. -1.
       -3    1    3    3    0  502  0.33110935002E+03 -0.55277487351E+03 -0.56696004471E+03  0.85827569286E+03  0.10100000352E+00 0.  1.
</event>
<event>
 5   0  0.3495279E-06  0.1897900E+04  0.7818609E-02  0.8655902E-01
        1   -1    0    0  501    0  0.00000000000E+00  0.00000000000E+00  0.30189064179E+04  0.30189064179E+04  0.50400001928E-02 0.  1.
       -1   -1    0    0    0  501  0.00000000000E+00  0.00000000000E+00 -0.29828896764E+03  0.29828896768E+03  0.50400001928E-02 0. -1.
    10030    2    1    2    0    0  0.00000000000E+00  0.00000000000E+00  0.27206174502E+04  0.33171953855E+04  0.18979003966E+04 0.  0.
        2    1    3    3  502    0 -0.20144453776E+03  0.85296762290E+03  0.72439670775E+03  0.11370506839E+04  0.25500000920E-02 0. -1.
       -2    1    3    3    0  502  0.20144453776E+03 -0.85296762290E+03  0.19962207425E+04  0.21801447017E+04  0.25500000920E-02 0.  1.
</event>
<event>
 5   0  0.6984466E-06  0.1900378E+04  0.7818609E-02  0.8654668E-01
       -2   -1    0    0    0  501  0.00000000000E+00  0.00000000000E+00  0.31185021861E+03  0.31185021862E+03  0.25500000920E-02 0. -1.
        2   -1    0    0  501    0  0.00000000000E+00  0.00000000000E+00 -0.28951683049E+04  0.28951683049E+04  0.25500000920E-02 0.  1.
    10030    2    1    2    0    0  0.00000000000E+00  0.00000000000E+00 -0.25833180863E+04  0.32070185235E+04  0.19003777191E+04 0.  0.
        2    1    3    3  502    0  0.76477333697E+03 -0.50517993402E+03 -0.17144745510E+04  0.19440956789E+04  0.25500000920E-02 0.  1.
       -2    1    3    3    0  502 -0.76477333697E+03  0.50517993402E+03 -0.86884353530E+03  0.12629228446E+04  0.25500000920E-02 0. -1.
</event>
<event>
 5   0  0.3379108E-06  0.1899975E+04  0.7818609E-02  0.8654869E-01
        1   -1    0    0  501    0  0.00000000000E+00  0.00000000000E+00  0.28477275514E+04  0.28477275514E+04  0.50400001928E-02 0. -1.
       -1   -1    0    0    0  501  0.00000000000E+00  0.00000000000E+00 -0.31691093945E+03  0.31691093949E+03  0.50400001928E-02 0.  1.
    10030    2    1    2    0    0  0.00000000000E+00  0.00000000000E+00  0.25308166119E+04  0.31646384909E+04  0.18999747511E+04 0.  0.
        4    1    3    3  502    0 -0.22915470806E+03 -0.69799030781E+03  0.22686213872E+04  0.23846062488E+04  0.12699999809E+01 0. -1.
       -4    1    3    3    0  502  0.22915470806E+03  0.69799030781E+03  0.26219522469E+03  0.78003224214E+03  0.12699999809E+01 0.  1.
</event>
<event>
 5   0  0.2527750E-06  0.1899921E+04  0.7818609E-02  0.8654895E-01
        3   -1    0    0  501    0  0.00000000000E+00  0.00000000000E+00  0.77364598801E+03  0.77364599460E+03  0.10100000352E+00 0. -1.
       -3   -1    0    0    0  501  0.00000000000E+00  0.00000000000E+00 -0.11664577750E+04  0.11664577794E+04  0.10100000352E+00 0.  1.
    10030    2    1    2    0    0  0.00000000000E+00  0.00000000000E+00 -0.39281178704E+03  0.19401037740E+04  0.18999214599E+04 0.  0.
        5    1    3    3  502    0 -0.90797548959E+03 -0.27902005726E+03 -0.18469083738E+03  0.96767994578E+03  0.46999998093E+01 0.  1.
       -5    1    3    3    0  502  0.90797548959E+03  0.27902005726E+03 -0.20812094966E+03  0.97242382824E+03  0.46999998093E+01 0. -1.
</event>
<event>
 5   0  0.6870370E-06  0.1900653E+04  0.7818609E-02  0.8654532E-01
        2   -1    0    0  501    0  0.00000000000E+00  0.00000000000E+00  0.15712332150E+04  0.15712332150E+04  0.25500000920E-02 0. -1.
       -2   -1    0    0    0  501  0.00000000000E+00  0.00000000000E+00 -0.57478420785E+03  0.57478420785E+03  0.25500000920E-02 0.  1.
    10030    2    1    2    0    0  0.00000000000E+00  0.00000000000E+00  0.99644900712E+03  0.21460174228E+04  0.19006525604E+04 0.  0.
        1    1    3    3  502    0  0.17568952654E+03 -0.53917888952E+03 -0.36280902552E+03  0.67320953177E+03  0.50400001928E-02 0.  1.
       -1    1    3    3    0  502 -0.17568952654E+03  0.53917888952E+03  0.13592580326E+04  0.14728078911E+04  0.50400001928E-02 0. -1.
</event>
<event>
 5   0  0.3379108E-06  0.1900202E+04  0.7818609E-02  0.8654756E-01
       -1   -1    0    0    0  501  0.00000000000E+00  0.00000000000E+00  0.67428600601E+03  0.67428600603E+03  0.50400001928E-02 0. -1.
        1   -1    0    0  501    0  0.00000000000E+00  0.00000000000E+00 -0.13387372679E+04  0.13387372679E+04  0.50400001928E-02 0.  1.
    10030    2    1    2    0    0  0.00000000000E+00  0.00000000000E+00 -0.66445126186E+03  0.20130232739E+04  0.19002018898E+04 0.  0.
        4    1    3    3  502    0 -0.15218361436E+03  0.35161158032E+03 -0.12532712024E+04  0.13105269457E+04  0.12699999809E+01 0.  1.
       -4    1    3    3    0  502  0.15218361436E+03 -0.35161158032E+03  0.58881994050E+03  0.70249632819E+03  0.12699999809E+01 0. -1.
</event>
<event>
 5   0  0.3236653E-06  0.1900619E+04  0.7818609E-02  0.8654548E-01
        1   -1    0    0  501    0  0.00000000000E+00  0.00000000000E+00  0.10745644353E+04  0.10745644353E+04  0.50400001928E-02 0. -1.
       -1   -1    0    0    0  501  0.00000000000E+00  0.00000000000E+00 -0.84042293772E+03  0.84042293773E+03  0.50400001928E-02 0.  1.
    10030    2    1    2    0    0  0.00000000000E+00  0.00000000000E+00  0.23414149757E+03  0.19149873730E+04  0.19006194774E+04 0.  0.
        3    1    3    3  502    0 -0.18000060870E+03  0.55595660237E+03  0.87213608133E+03  0.10498139442E+04  0.10100000352E+00 0. -1.
       -3    1    3    3    0  502  0.18000060870E+03 -0.55595660237E+03 -0.63799458376E+03  0.86517342884E+03  0.10100000352E+00 0.  1.
</event>
<event>
 5   0  0.3495279E-06  0.1900010E+04  0.7818609E-02  0.8654851E-01
        1   -1    0    0  501    0  0.00000000000E+00  0.00000000000E+00  0.12848076370E+04  0.12848076370E+04  0.50400001928E-02 0. -1.
       -1   -1    0    0    0  501  0.00000000000E+00  0.00000000000E+00 -0.70244741120E+03  0.70244741122E+03  0.50400001928E-02 0.  1.
    10030    2    1    2    0    0  0.00000000000E+00  0.00000000000E+00  0.58236022579E+03  0.19872550482E+04  0.19000103142E+04 0.  0.
        2    1    3    3  502    0  0.27446054270E+03  0.72030589225E+03 -0.28960172737E+03  0.82343082795E+03  0.25500000920E-02 0.  1.
       -2    1    3    3    0  502 -0.27446054270E+03 -0.72030589225E+03  0.87196195316E+03  0.11638242203E+04  0.25500000920E-02 0. -1.
</event>
<event>
 5   0  0.6870370E-06  0.1889874E+04  0.7818609E-02  0.8659913E-01
       -2   -1    0    0    0  501  0.00000000000E+00  0.00000000000E+00  0.35722124361E+03  0.35722124362E+03  0.25500000920E-02 0. -1.
        2   -1    0    0  501    0  0.00000000000E+00  0.00000000000E+00 -0.24995884095E+04  0.24995884095E+04  0.25500000920E-02 0.  1.
    10030    2    1    2    0    0  0.00000000000E+00  0.00000000000E+00 -0.21423671659E+04  0.28568096531E+04  0.18898741547E+04 0.  0.
        1    1    3    3  502    0  0.75324744813E+03 -0.28541029218E+03 -0.18179786869E+04  0.19884383971E+04  0.50400001928E-02 0.  1.
       -1    1    3    3    0  502 -0.75324744813E+03  0.28541029218E+03 -0.32438847902E+03  0.86837125606E+03  0.50400001928E-02 0. -1.
</event>
<event>
 5   0  0.7577180E-06  0.1899421E+04  0.7818609E-02  0.8655145E-01
       -2   -1    0    0    0  501  0.00000000000E+00  0.00000000000E+00  0.12177092675E+04  0.12177092675E+04  0.25500000920E-02 0. -1.
        2   -1    0    0  501    0  0.00000000000E+00  0.00000000000E+00 -0.74069388478E+03  0.74069388478E+03  0.25500000920E-02 0.  1.
    10030    2    1    2    0    0  0.00000000000E+00  0.00000000000E+00  0.47701538270E+03  0.19584031523E+04  0.18994207621E+04 0.  0.
        5    1    3    3  502    0 -0.49354572812E+03  0.72578331173E+03 -0.13549443524E+03  0.88810451711E+03  0.46999998093E+01 0.  1.
       -5    1    3    3    0  502  0.49354572812E+03 -0.72578331173E+03  0.61250981794E+03  0.10702986352E+04  0.46999998093E+01 0. -1.
</event>
<event>
 5   0  0.3211263E-06  0.1899923E+04  0.7818609E-02  0.8654895E-01
       -1   -1    0    0    0  501  0.00000000000E+00  0.00000000000E+00  0.38755534856E+03  0.38755534859E+03  0.50400001928E-02 0. -1.
        1   -1    0    0  501    0  0.00000000000E+00  0.00000000000E+00 -0.23285100955E+04  0.23285100955E+04  0.50400001928E-02 0.  1.
    10030    2    1    2    0    0  0.00000000000E+00  0.00000000000E+00 -0.19409547469E+04  0.27160654441E+04  0.18999226739E+04 0.  0.
        5    1    3    3  502    0  0.18944795456E+03 -0.63672011695E+03  0.26174905019E+00  0.66432310913E+03  0.46999998093E+01 0. -1.
       -5    1    3    3    0  502 -0.18944795456E+03  0.63672011695E+03 -0.19412164959E+04  0.20517423349E+04  0.46999998093E+01 0.  1.
</event>
<event>
 5   0  0.7207648E-06  0.1900267E+04  0.7818609E-02  0.8654724E-01
       -2   -1    0    0    0  501  0.00000000000E+00  0.00000000000E+00  0.77327932906E+03  0.77327932907E+03  0.25500000920E-02 0.  1.
        2   -1    0    0  501    0  0.00000000000E+00  0.00000000000E+00 -0.11674352440E+04  0.11674352440E+04  0.25500000920E-02 0. -1.
    10030    2    1    2    0    0  0.00000000000E+00  0.00000000000E+00 -0.39415591489E+03  0.19407145730E+04  0.19002668678E+04 0.  0.
        4    1    3    3  502    0  0.47027757304E+03 -0.59080942655E+03  0.39185499267E+03  0.85074597994E+03  0.12699999809E+01 0.  1.
       -4    1    3    3    0  502 -0.47027757304E+03  0.59080942655E+03 -0.78601090756E+03  0.10899685931E+04  0.12699999809E+01 0. -1.
</event>
<event>
 5   0  0.3398807E-06  0.1899219E+04  0.7818609E-02  0.8655245E-01
       -1   -1    0    0    0  501  0.00000000000E+00  0.00000000000E+00  0.96420379933E+03  0.96420379935E+03  0.50400001928E-02 0.  1.
        1   -1    0    0  501    0  0.00000000000E+00  0.00000000000E+00 -0.93523654024E+03  0.93523654026E+03  0.50400001928E-02 0. -1.
    10030    2    1    2    0    0  0.00000000000E+00  0.00000000000E+00  0.28967259089E+02  0.18994403396E+04  0.18992194454E+04 0.  0.
        1    1    3    3  502    0 -0.72637944129E+03  0.52670022331E+03 -0.29654837356E+03  0.94497680175E+03  0.50400001928E-02 0. -1.
       -1    1    3    3    0  502  0.72637944129E+03 -0.52670022331E+03  0.32551563265E+03  0.95446353785E+03  0.50400001928E-02 0.  1.
</event>
<event>
 5   0  0.3211263E-06  0.1900163E+04  0.7818609E-02  0.8654775E-01
       -1   -1    0    0    0  501  0.00000000000E+00  0.00000000000E+00  0.11577969830E+04  0.11577969831E+04  0.50400001928E-02 0. -1.
        1   -1    0    0  501    0  0.00000000000E+00  0.00000000000E+00 -0.77963138711E+03  0.77963138713E+03  0.50400001928E-02 0.  1.
    10030    2    1    2    0    0  0.00000000000E+00  0.00000000000E+00  0.37816559593E+03  0.19374283702E+04  0.19001630119E+04 0.  0.
        5    1    3    3  502    0  0.94903618753E+03  0.43820587304E+02  0.18240852313E+03  0.96741143699E+03  0.46999998093E+01 0. -1.
       -5    1    3    3    0  502 -0.94903618753E+03 -0.43820587304E+02  0.19575707280E+03  0.97001693319E+03  0.46999998093E+01 0.  1.
</event>
<event>
 5   0  0.3495279E-06  0.1900265E+04  0.7818609E-02  0.8654724E-01
        1   -1    0    0  501    0  0.00000000000E+00  0.00000000000E+00  0.14067996265E+04  0.14067996265E+04  0.50400001928E-02 0. -1.
       -1   -1    0    0    0  501  0.00000000000E+00  0.00000000000E+00 -0.64170625333E+03  0.64170625335E+03  0.50400001928E-02 0.  1.
    10030    2    1    2    0    0  0.00000000000E+00  0.00000000000E+00  0.76509337314E+03  0.20485058798E+04  0.19002653683E+04 0.  0.
        2    1    3    3  502    0  0.79060659200E+03  0.41125181232E+03  0.73774299359E+03  0.11569146732E+04  0.25500000920E-02 0. -1.
       -2    1    3    3    0  502 -0.79060659200E+03 -0.41125181232E+03  0.27350379545E+02  0.89159120662E+03  0.25500000920E-02 0.  1.
</event>
<event>
 5   0  0.3495279E-06  0.1899586E+04  0.7818609E-02  0.8655062E-01
        1   -1    0    0  501    0  0.00000000000E+00  0.00000000000E+00  0.92929896293E+03  0.92929896295E+03  0.50400001928E-02 0.  1.
       -1   -1    0    0    0  501  0.00000000000E+00  0.00000000000E+00 -0.97073933811E+03  0.97073933813E+03  0.50400001928E-02 0. -1.
    10030    2    1    2    0    0  0.00000000000E+00  0.00000000000E+00 -0.41440375180E+02  0.19000383011E+04  0.18995863341E+04 0.  0.
        2    1    3    3  502    0  0.88108981835E+03 -0.24714007491E+01 -0.37546170723E+03  0.95775616387E+03  0.25500000920E-02 0. -1.
       -2    1    3    3    0  502 -0.88108981835E+03  0.24714007491E+01  0.33402133205E+03  0.94228213721E+03  0.25500000920E-02 0.  1.
</event>
<event>
 5   0  0.3211263E-06  0.1899999E+04  0.7818609E-02  0.8654857E-01
       -1   -1    0    0    0  501  0.00000000000E+00  0.00000000000E+00  0.96467227260E+03  0.96467227261E+03  0.50400001928E-02 0.  1.
        1   -1    0    0  501    0  0.00000000000E+00  0.00000000000E+00 -0.93554990201E+03  0.93554990202E+03  0.50400001928E-02 0. -1.
    10030    2    1    2    0    0  0.00000000000E+00  0.00000000000E+00  0.29122370594E+02  0.19002221746E+04  0.18999990001E+04 0.  0.
        5    1    3    3  502    0 -0.70791855265E+03 -0.49296332499E+03 -0.38337428298E+03  0.94401241931E+03  0.46999998093E+01 0. -1.
       -5    1    3    3    0  502  0.70791855265E+03  0.49296332499E+03  0.41249665357E+03  0.95620975532E+03  0.46999998093E+01 0.  1.
</event>
<event>
 5   0  0.3211263E-06  0.1899940E+04  0.7818609E-02  0.8654886E-01
       -1   -1    0    0    0  501  0.00000000000E+00  0.00000000000E+00  0.10502850565E+04  0.10502850565E+04  0.50400001928E-02 0.  1.
        1   -1    0    0  501    0  0.00000000000E+00  0.00000000000E+00 -0.85923636629E+03  0.85923636631E+03  0.50400001928E-02 0. -1.
    10030    2    1    2    0    0  0.00000000000E+00  0.00000000000E+00  0.19104869019E+03  0.19095214228E+04  0.18999401207E+04 0.  0.
        5    1    3    3  502    0 -0.43304463978E+03 -0.35114510024E+03  0.86855232060E+03  0.10321025943E+04  0.46999998093E+01 0.  1.
       -5    1    3    3    0  502  0.43304463978E+03  0.35114510024E+03 -0.67750363041E+03  0.87741882854E+03  0.46999998093E+01 0. -1.
</event>
<event>
 5   0  0.3495279E-06  0.1900670E+04  0.7818609E-02  0.8654523E-01
       -1   -1    0    0    0  501  0.00000000000E+00  0.00000000000E+00  0.17192739077E+04  0.17192739077E+04  0.50400001928E-02 0.  1.
        1   -1    0    0  501    0  0.00000000000E+00  0.00000000000E+00 -0.52530105733E+03  0.52530105735E+03  0.50400001928E-02 0. -1.
    10030    2    1    2    0    0  0.00000000000E+00  0.00000000000E+00  0.11939728503E+04  0.22445749650E+04  0.19006697783E+04 0.  0.
        2    1    3    3  502    0 -0.79470281578E+03 -0.49163552470E+03  0.39285694532E+03  0.10137034251E+04  0.25500000920E-02 0. -1.
       -2    1    3    3    0  502  0.79470281578E+03  0.49163552470E+03  0.80111590500E+03  0.12308715399E+04  0.25500000920E-02 0.  1.
</event>
<event>
 5   0  0.3495279E-06  0.1900563E+04  0.7818609E-02  0.8654576E-01
        1   -1    0    0  501    0  0.00000000000E+00  0.00000000000E+00  0.11854331979E+04  0.11854331980E+04  0.50400001928E-02 0. -1.
       -1   -1    0    0    0  501  0.00000000000E+00  0.00000000000E+00 -0.76177631582E+03  0.76177631584E+03  0.50400001928E-02 0.  1.
    10030    2    1    2    0    0  0.00000000000E+00  0.00000000000E+00  0.42365688212E+03  0.19472095138E+04  0.19005630052E+04 0.  0.
        2    1    3    3  502    0  0.14999844190E+03  0.69152605319E+03 -0.43803194657E+03  0.83221379527E+03  0.25500000920E-02 0.  1.
       -2    1    3    3    0  502 -0.14999844190E+03 -0.69152605319E+03  0.86168882869E+03  0.11149957185E+04  0.25500000920E-02 0. -1.
</event>
<event>
 5   0  0.3495279E-06  0.1900088E+04  0.7818609E-02  0.8654813E-01
       -1   -1    0    0    0  501  0.00000000000E+00  0.00000000000E+00  0.60965533903E+03  0.60965533906E+03  0.50400001928E-02 0.  1.
        1   -1    0    0  501    0  0.00000000000E+00  0.00000000000E+00 -0.14804819774E+04  0.14804819774E+04  0.50400001928E-02 0. -1.
    10030    2    1    2    0    0  0.00000000000E+00  0.00000000000E+00 -0.87082663839E+03  0.20901373165E+04  0.19000881473E+04 0.  0.
        2    1    3    3  502    0 -0.37999879321E+03  0.72634981104E+03 -0.96365333479E+03  0.12651525127E+04  0.25500000920E-02 0.  1.
       -2    1    3    3    0  502  0.37999879321E+03 -0.72634981104E+03  0.92826696399E+02  0.82498480375E+03  0.25500000920E-02 0. -1.
</event>
<event>
 5   0  0.6870370E-06  0.1899834E+04  0.7818609E-02  0.8654939E-01
        2   -1    0    0  501    0  0.00000000000E+00  0.00000000000E+00  0.12435322490E+04  0.12435322490E+04  0.25500000920E-02 0. -1.
       -2   -1    0    0    0  501  0.00000000000E+00  0.00000000000E+00 -0.72562830854E+03  0.72562830855E+03  0.25500000920E-02 0.  1.
    10030    2    1    2    0    0  0.00000000000E+00  0.00000000000E+00  0.51790394045E+03  0.19691605575E+04  0.18998338901E+04 0.  0.
        1    1    3    3  502    0 -0.40258412702E+03  0.50760194405E+03  0.97900250343E+03  0.11739589493E+04  0.50400001928E-02 0. -1.
       -1    1    3    3    0  502  0.40258412702E+03 -0.50760194405E+03 -0.46109856298E+03  0.79520160823E+03  0.50400001928E-02 0.  1.
</event>
<event>
 5   0  0.3211263E-06  0.1900306E+04  0.7818609E-02  0.8654704E-01
       -1   -1    0    0    0  501  0.00000000000E+00  0.00000000000E+00  0.78964497365E+03  0.78964497366E+03  0.50400001928E-02 0. -1.
        1   -1    0    0  501    0  0.00000000000E+00  0.00000000000E+00 -0.11432867673E+04  0.11432867673E+04  0.50400001928E-02 0.  1.
    10030    2    1    2    0    0  0.00000000000E+00  0.00000000000E+00 -0.35364179368E+03  0.19329317410E+04  0.19003059220E+04 0.  0.
        5    1    3    3  502    0  0.65196757818E+01  0.56323060609E+03  0.60149420675E+03  0.82406831789E+03  0.46999998093E+01 0. -1.
       -5    1    3    3    0  502 -0.65196757818E+01 -0.56323060609E+03 -0.95513600043E+03  0.11088634231E+04  0.46999998093E+01 0.  1.
</event>
<event>
 5   0  0.3495279E-06  0.1900641E+04  0.7818609E-02  0.8654537E-01
       -1   -1    0    0    0  501  0.00000000000E+00  0.00000000000E+00  0.53058920214E+03  0.53058920217E+03  0.50400001928E-02 0. -1.
        1   -1    0    0  501    0  0.00000000000E+00  0.00000000000E+00 -0.17020871849E+04  0.17020871849E+04  0.50400001928E-02 0.  1.
    10030    2    1    2    0    0  0.00000000000E+00  0.00000000000E+00 -0.11714979827E+04  0.22326763871E+04  0.19006410302E+04 0.  0.
        2    1    3    3  502    0 -0.27357826434E+03 -0.82681981378E+02 -0.16504075559E+04  0.16749705900E+04  0.25500000920E-02 0.  1.
       -2    1    3    3    0  502  0.27357826434E+03  0.82681981378E+02  0.47890957318E+03  0.55770579704E+03  0.25500000920E-02 0. -1.
</event>
<event>
 5   0  0.3398807E-06  0.1898752E+04  0.7818609E-02  0.8655478E-01
        1   -1    0    0  501    0  0.00000000000E+00  0.00000000000E+00  0.18214660198E+04  0.18214660198E+04  0.50400001928E-02 0. -1.
       -1   -1    0    0    0  501  0.00000000000E+00  0.00000000000E+00 -0.49482908037E+03  0.49482908040E+03  0.50400001928E-02 0.  1.
    10030    2    1    2    0    0  0.00000000000E+00  0.00000000000E+00  0.13266369394E+04  0.23162951002E+04  0.18987515430E+04 0.  0.
        1    1    3    3  502    0 -0.29463473156E+02 -0.59921741081E+03  0.15609100277E+04  0.16722349465E+04  0.50400001928E-02 0. -1.
       -1    1    3    3    0  502  0.29463473156E+02  0.59921741081E+03 -0.23427308829E+03  0.64406015370E+03  0.50400001928E-02 0.  1.
</event>
<event>
 5   0  0.7577180E-06  0.1899861E+04  0.7818609E-02  0.8654926E-01
        2   -1    0    0  501    0  0.00000000000E+00  0.00000000000E+00  0.14728625591E+04  0.14728625591E+04  0.25500000920E-02 0.  1.
       -2   -1    0    0    0  501  0.00000000000E+00  0.00000000000E+00 -0.61266257347E+03  0.61266257348E+03  0.25500000920E-02 0. -1.
    10030    2    1    2    0    0  0.00000000000E+00  0.00000000000E+00  0.86019998562E+03  0.20855251326E+04  0.18998608010E+04 0.  0.
        5    1    3    3  502    0 -0.66475389585E+03 -0.51894505854E+03 -0.49825627879E+02  0.84481145768E+03  0.46999998093E+01 0. -1.
       -5    1    3    3    0  502  0.66475389585E+03  0.51894505854E+03  0.91002561350E+03  0.12407136749E+04  0.46999998093E+01 0.  1.
</event>
<event>
 5   0  0.7577180E-06  0.1899772E+04  0.7818609E-02  0.8654970E-01
        2   -1    0    0  501    0  0.00000000000E+00  0.00000000000E+00  0.17677387786E+04  0.17677387786E+04  0.25500000920E-02 0.  1.
       -2   -1    0    0    0  501  0.00000000000E+00  0.00000000000E+00 -0.51041683283E+03  0.51041683284E+03  0.25500000920E-02 0. -1.
    10030    2    1    2    0    0  0.00000000000E+00  0.00000000000E+00  0.12573219457E+04  0.22781556114E+04  0.18997722270E+04 0.  0.
        5    1    3    3  502    0  0.57111894435E+03 -0.75082359482E+03  0.49540365865E+03  0.10655326340E+04  0.46999998093E+01 0. -1.
       -5    1    3    3    0  502 -0.57111894435E+03  0.75082359482E+03  0.76191828707E+03  0.12126229774E+04  0.46999998093E+01 0.  1.
</event>
<event>
 5   0  0.7207648E-06  0.1900582E+04  0.7818609E-02  0.8654567E-01
        2   -1    0    0  501    0  0.00000000000E+00  0.00000000000E+00  0.99857543958E+03  0.99857543958E+03  0.25500000920E-02 0. -1.
       -2   -1    0    0    0  501  0.00000000000E+00  0.00000000000E+00 -0.90434080952E+03  0.90434080952E+03  0.25500000920E-02 0.  1.
    10030    2    1    2    0    0  0.00000000000E+00  0.00000000000E+00  0.94234630057E+02  0.19029162491E+04  0.19005815125E+04 0.  0.
        4    1    3    3  502    0  0.44151459887E+03 -0.70563639750E+03 -0.41191402948E+03  0.92872635748E+03  0.12699999809E+01 0.  1.
       -4    1    3    3    0  502 -0.44151459887E+03  0.70563639750E+03  0.50614865954E+03  0.97418989163E+03  0.12699999809E+01 0. -1.
</event>
<event>
 5   0  0.3211263E-06  0.1896759E+04  0.7818609E-02  0.8656471E-01
        1   -1    0    0  501    0  0.00000000000E+00  0.00000000000E+00  0.13524345625E+04  0.13524345625E+04  0.50400001928E-02 0.  1.
       -1   -1    0    0    0  501  0.00000000000E+00  0.00000000000E+00 -0.66504053409E+03  0.66504053411E+03  0.50400001928E-02 0. -1.
    10030    2    1    2    0    0  0.00000000000E+00  0.00000000000E+00  0.68739402837E+03  0.20174750966E+04  0.18967591347E+04 0.  0.
        5    1    3    3  502    0  0.37778737939E+03 -0.84925755647E+03  0.54393336949E+03  0.10769620707E+04  0.46999998093E+01 0.  1.
       -5    1    3    3    0  502 -0.37778737939E+03  0.84925755647E+03  0.14346065889E+03  0.94051302590E+03  0.46999998093E+01 0. -1.
</event>
<event>
 5   0  0.6984466E-06  0.1899899E+04  0.7818609E-02  0.8654907E-01
       -2   -1    0    0    0  501  0.00000000000E+00  0.00000000000E+00  0.62124461553E+03  0.62124461553E+03  0.25500000920E-02 0.  1.
        2   -1    0    0  501    0  0.00000000000E+00  0.00000000000E+00 -0.14525745873E+04  0.14525745873E+04  0.25500000920E-02 0. -1.
    10030    2    1    2    0    0  0.00000000000E+00  0.00000000000E+00 -0.83132997179E+03  0.20738192029E+04  0.18998990931E+04 0.  0.
        2    1    3    3  502    0 -0.89143611079E+03 -0.30318961779E+03 -0.55296452666E+03  0.10919487404E+04  0.25500000920E-02 0. -1.
       -2    1    3    3    0  502  0.89143611079E+03  0.30318961779E+03 -0.27836544513E+03  0.98187046244E+03  0.25500000920E-02 0.  1.
</event>
<event>
 5   0  0.3495279E-06  0.1900434E+04  0.7818609E-02  0.8654640E-01
       -1   -1    0    0    0  501  0.00000000000E+00  0.00000000000E+00  0.11583762548E+04  0.11583762548E+04  0.50400001928E-02 0.  1.
        1   -1    0    0  501    0  0.00000000000E+00  0.00000000000E+00 -0.77946411122E+03  0.77946411124E+03  0.50400001928E-02 0. -1.
    10030    2    1    2    0    0  0.00000000000E+00  0.00000000000E+00  0.37891214359E+03  0.19378403661E+04  0.19004343903E+04 0.  0.
        2    1    3    3  502    0  0.75025765860E+02 -0.73745483963E+03 -0.41675735946E+03  0.85038532601E+03  0.25500000920E-02 0. -1.
       -2    1    3    3    0  502 -0.75025765860E+02  0.73745483963E+03  0.79566950305E+03  0.10874550400E+04  0.25500000920E-02 0.  1.
</event>
<event>
 5   0  0.6984466E-06  0.1900755E+04  0.7818609E-02  0.8654481E-01
       -2   -1    0    0    0  501  0.00000000000E+00  0.00000000000E+00  0.76478563259E+03  0.76478563259E+03  0.25500000920E-02 0. -1.
        2   -1    0    0  501    0  0.00000000000E+00  0.00000000000E+00 -0.11810073922E+04  0.11810073922E+04  0.25500000920E-02 0.  1.
    10030    2    1    2    0    0  0.00000000000E+00  0.00000000000E+00 -0.41622175959E+03  0.19457930248E+04  0.19007550979E+04 0.  0.
        2    1    3    3  502    0 -0.81514380288E+03 -0.39526727067E+03  0.85961989057E+02  0.90999181216E+03  0.25500000920E-02 0. -1.
       -2    1    3    3    0  502  0.81514380288E+03  0.39526727067E+03 -0.50218374865E+03  0.10358012126E+04  0.25500000920E-02 0.  1.
</event>
<event>
 5   0  0.3211263E-06  0.1899565E+04  0.7818609E-02  0.8655073E-01
        1   -1    0    0  501    0  0.00000000000E+00  0.00000000000E+00  0.17260346498E+04  0.17260346498E+04  0.50400001928E-02 0. -1.
       -1   -1    0    0    0  501  0.00000000000E+00  0.00000000000E+00 -0.52263560872E+03  0.52263560875E+03  0.50400001928E-02 0.  1.
    10030    2    1    2    0    0  0.00000000000E+00  0.00000000000E+00  0.12033990410E+04  0.22486702585E+04  0.18995653923E+04 0.  0.
        5    1    3    3  502    0 -0.25492949981E+02 -0.18373973814E+02 -0.52200627495E+03  0.52297240319E+03  0.46999998093E+01 0.  1.
       -5    1    3    3    0  502  0.25492949981E+02  0.18373973814E+02  0.17254053160E+04  0.17256978553E+04  0.46999998093E+01 0. -1.
</event>
<event>
 5   0  0.7207648E-06  0.1901144E+04  0.7818609E-02  0.8654287E-01
       -2   -1    0    0    0  501  0.00000000000E+00  0.00000000000E+00  0.42564122157E+03  0.42564122158E+03  0.25500000920E-02 0.  1.
        2   -1    0    0  501    0  0.00000000000E+00  0.00000000000E+00 -0.21228854924E+04  0.21228854924E+04  0.25500000920E-02 0. -1.
    10030    2    1    2    0    0  0.00000000000E+00  0.00000000000E+00 -0.16972442708E+04  0.25485267140E+04  0.19011444703E+04 0.  0.
        4    1    3    3  502    0 -0.37195633867E+03 -0.52326596932E+03  0.91109075400E+02  0.64842984897E+03  0.12699999809E+01 0. -1.
       -4    1    3    3    0  502  0.37195633867E+03  0.52326596932E+03 -0.17883533462E+04  0.19000968650E+04  0.12699999809E+01 0.  1.
</event>
<event>
 5   0  0.3398807E-06  0.1899362E+04  0.7818609E-02  0.8655174E-01
       -1   -1    0    0    0  501  0.00000000000E+00  0.00000000000E+00  0.51672629691E+03  0.51672629693E+03  0.50400001928E-02 0. -1.
        1   -1    0    0  501    0  0.00000000000E+00  0.00000000000E+00 -0.17453990614E+04  0.17453990614E+04  0.50400001928E-02 0.  1.
    10030    2    1    2    0    0  0.00000000000E+00  0.00000000000E+00 -0.12286727644E+04  0.22621253583E+04  0.18993615703E+04 0.  0.
        1    1    3    3  502    0 -0.78563167284E+03 -0.46854675017E+03 -0.31036390052E+03  0.96596010955E+03  0.50400001928E-02 0. -1.
       -1    1    3    3    0  502  0.78563167284E+03  0.46854675017E+03 -0.91830886393E+03  0.12961652487E+04  0.50400001928E-02 0.  1.
</event>
<event>
 5   0  0.3211263E-06  0.1899177E+04  0.7818609E-02  0.8655266E-01
       -1   -1    0    0    0  501  0.00000000000E+00  0.00000000000E+00  0.60362298178E+03  0.60362298180E+03  0.50400001928E-02 0. -1.
        1   -1    0    0  501    0  0.00000000000E+00  0.00000000000E+00 -0.14938435504E+04  0.14938435504E+04  0.50400001928E-02 0.  1.
    10030    2    1    2    0    0  0.00000000000E+00  0.00000000000E+00 -0.89022056860E+03  0.20974665322E+04  0.18991769778E+04 0.  0.
        5    1    3    3  502    0 -0.22487129280E+03  0.84047955407E+02 -0.14597633270E+04  0.14793789974E+04  0.46999998093E+01 0.  1.
       -5    1    3    3    0  502  0.22487129280E+03 -0.84047955407E+02  0.56954275835E+03  0.61808753483E+03  0.46999998093E+01 0. -1.
</event>
<event>
 5   0  0.3398807E-06  0.1895865E+04  0.7818609E-02  0.8656917E-01
       -1   -1    0    0    0  501  0.00000000000E+00  0.00000000000E+00  0.15028002517E+04  0.15028002517E+04  0.50400001928E-02 0.  1.
        1   -1    0    0  501    0  0.00000000000E+00  0.00000000000E+00 -0.59793442135E+03  0.59793442137E+03  0.50400001928E-02 0. -1.
    10030    2    1    2    0    0  0.00000000000E+00  0.00000000000E+00  0.90486583035E+03  0.21007346731E+04  0.18958649730E+04 0.  0.
        1    1    3    3  502    0  0.85512009668E+02  0.89049749000E+03  0.10506334697E+03  0.90074213313E+03  0.50400001928E-02 0. -1.
       -1    1    3    3    0  502 -0.85512009668E+02 -0.89049749000E+03  0.79980248338E+03  0.11999925400E+04  0.50400001928E-02 0.  1.
</event>
<event>
 5   0  0.6984466E-06  0.1910113E+04  0.7818609E-02  0.8649839E-01
       -2   -1    0    0    0  501  0.00000000000E+00  0.00000000000E+00  0.59856846555E+03  0.59856846556E+03  0.25500000920E-02 0. -1.
        2   -1    0    0  501    0  0.00000000000E+00  0.00000000000E+00 -0.15238574165E+04  0.15238574165E+04  0.25500000920E-02 0.  1.
    10030    2    1    2    0    0  0.00000000000E+00  0.00000000000E+00 -0.92528895099E+03  0.21224258821E+04  0.19101130810E+04 0.  0.
        2    1    3    3  502    0  0.57922986159E+03 -0.10088573398E+03 -0.12989277549E+04  0.14257974878E+04  0.25500000920E-02 0.  1.
       -2    1    3    3    0  502 -0.57922986159E+03  0.10088573398E+03  0.37363880392E+03  0.69662839425E+03  0.25500000920E-02 0. -1.
</event>
<event>
 5   0  0.6862201E-06  0.1900158E+04  0.7818609E-02  0.8654778E-01
       -2   -1    0    0    0  501  0.00000000000E+00  0.00000000000E+00  0.74490924927E+03  0.74490924928E+03  0.25500000920E-02 0.  1.
        2   -1    0    0  501    0  0.00000000000E+00  0.00000000000E+00 -0.12117586613E+04  0.12117586613E+04  0.25500000920E-02 0. -1.
    10030    2    1    2    0    0  0.00000000000E+00  0.00000000000E+00 -0.46684941202E+03  0.19566679106E+04  0.19001581352E+04 0.  0.
        3    1    3    3  502    0 -0.86511379011E+03  0.14214672535E+03  0.14355372187E+03  0.88838912793E+03  0.10100000352E+00 0.  1.
       -3    1    3    3    0  502  0.86511379011E+03 -0.14214672535E+03 -0.61040313389E+03  0.10682787826E+04  0.10100000352E+00 0. -1.
</event>
<event>
 5   0  0.3211263E-06  0.1898984E+04  0.7818609E-02  0.8655362E-01
       -1   -1    0    0    0  501  0.00000000000E+00  0.00000000000E+00  0.11578313456E+04  0.11578313456E+04  0.50400001928E-02 0.  1.
        1   -1    0    0  501    0  0.00000000000E+00  0.00000000000E+00 -0.77864093050E+03  0.77864093052E+03  0.50400001928E-02 0. -1.
    10030    2    1    2    0    0  0.00000000000E+00  0.00000000000E+00  0.37919041506E+03  0.19364722761E+04  0.18989838086E+04 0.  0.
        5    1    3    3  502    0 -0.67362618561E+03  0.11349167744E+03 -0.48286229961E+03  0.83655883784E+03  0.46999998093E+01 0. -1.
       -5    1    3    3    0  502  0.67362618561E+03 -0.11349167744E+03  0.86205271467E+03  0.10999134383E+04  0.46999998093E+01 0.  1.
</event>
<event>
 5   0  0.7577180E-06  0.1900853E+04  0.7818609E-02  0.8654432E-01
        2   -1    0    0  501    0  0.00000000000E+00  0.00000000000E+00  0.22341192624E+04  0.22341192624E+04  0.25500000920E-02 0. -1.
       -2   -1    0    0    0  501  0.00000000000E+00  0.00000000000E+00 -0.40432505394E+03  0.40432505395E+03  0.25500000920E-02 0.  1.
    10030    2    1    2    0    0  0.00000000000E+00  0.00000000000E+00  0.18297942084E+04  0.26384443163E+04  0.19008528520E+04 0.  0.
        5    1    3    3  502    0  0.90027773499E+03 -0.45649492733E+02  0.13329330925E+04  0.16091353565E+04  0.46999998093E+01 0. -1.
       -5    1    3    3    0  502 -0.90027773499E+03  0.45649492733E+02  0.49686111589E+03  0.10293089598E+04  0.46999998093E+01 0.  1.
</event>
<event>
 5   0  0.7577180E-06  0.1904224E+04  0.7818609E-02  0.8652757E-01
       -2   -1    0    0    0  501  0.00000000000E+00  0.00000000000E+00  0.57088397094E+03  0.57088397094E+03  0.25500000920E-02 0. -1.
        2   -1    0    0  501    0  0.00000000000E+00  0.00000000000E+00 -0.15879184883E+04  0.15879184883E+04  0.25500000920E-02 0.  1.
    10030    2    1    2    0    0  0.00000000000E+00  0.00000000000E+00 -0.10170345173E+04  0.21588024592E+04  0.19042239491E+04 0.  0.
        5    1    3    3  502    0 -0.34899095278E+03  0.55415661284E+03 -0.12920046097E+04  0.14485103514E+04  0.46999998093E+01 0.  1.
       -5    1    3    3    0  502  0.34899095278E+03 -0.55415661284E+03  0.27497009238E+03  0.71029210778E+03  0.46999998093E+01 0. -1.
</event>
<event>
 5   0  0.7577180E-06  0.1900062E+04  0.7818609E-02  0.8654825E-01
       -2   -1    0    0    0  501  0.00000000000E+00  0.00000000000E+00  0.60769006861E+03  0.60769006861E+03  0.25500000920E-02 0.  1.
        2   -1    0    0  501    0  0.00000000000E+00  0.00000000000E+00 -0.14852294838E+04  0.14852294838E+04  0.25500000920E-02 0. -1.
    10030    2    1    2    0    0  0.00000000000E+00  0.00000000000E+00 -0.87753941514E+03  0.20929195524E+04  0.19000623220E+04 0.  0.
        5    1    3    3  502    0 -0.69760511586E+02 -0.93415700163E+03 -0.61300634746E+03  0.11195153883E+04  0.46999998093E+01 0. -1.
       -5    1    3    3    0  502  0.69760511586E+02  0.93415700163E+03 -0.26453306769E+03  0.97340416404E+03  0.46999998093E+01 0.  1.
</event>
<event>
 5   0  0.3398807E-06  0.1899085E+04  0.7818609E-02  0.8655312E-01
       -1   -1    0    0    0  501  0.00000000000E+00  0.00000000000E+00  0.85382091587E+03  0.85382091589E+03  0.50400001928E-02 0.  1.
        1   -1    0    0  501    0  0.00000000000E+00  0.00000000000E+00 -0.10559952297E+04  0.10559952297E+04  0.50400001928E-02 0. -1.
    10030    2    1    2    0    0  0.00000000000E+00  0.00000000000E+00 -0.20217431380E+03  0.19098161456E+04  0.18990848472E+04 0.  0.
        1    1    3    3  502    0 -0.60602799059E+03  0.17785395618E+03 -0.81412749635E+03  0.10303909624E+04  0.50400001928E-02 0. -1.
       -1    1    3    3    0  502  0.60602799059E+03 -0.17785395618E+03  0.61195318255E+03  0.87942518315E+03  0.50400001928E-02 0.  1.
</event>
<event>
 5   0  0.7207648E-06  0.1899737E+04  0.7818609E-02  0.8654988E-01
        2   -1    0    0  501    0  0.00000000000E+00  0.00000000000E+00  0.85724778465E+03  0.85724778465E+03  0.25500000920E-02 0.  1.
       -2   -1    0    0    0  501  0.00000000000E+00  0.00000000000E+00 -0.10524958149E+04  0.10524958149E+04  0.25500000920E-02 0. -1.
    10030    2    1    2    0    0  0.00000000000E+00  0.00000000000E+00 -0.19524803029E+03  0.19097435996E+04  0.18997365141E+04 0.  0.
        4    1    3    3  502    0 -0.84632496635E+03  0.25345270473E+03 -0.44838012564E+03  0.99073234134E+03  0.12699999809E+01 0. -1.
       -4    1    3    3    0  502  0.84632496635E+03 -0.25345270473E+03  0.25313209535E+03  0.91901125825E+03  0.12699999809E+01 0.  1.
</event>
<event>
 5   0  0.3398807E-06  0.1897510E+04  0.7818609E-02  0.8656097E-01
        1   -1    0    0  501    0  0.00000000000E+00  0.00000000000E+00  0.17231753996E+04  0.17231753996E+04  0.50400001928E-02 0. -1.
       -1   -1    0    0    0  501  0.00000000000E+00  0.00000000000E+00 -0.52237052246E+03  0.52237052249E+03  0.50400001928E-02 0.  1.
    10030    2    1    2    0    0  0.00000000000E+00  0.00000000000E+00  0.12008048771E+04  0.22455459221E+04  0.18975099829E+04 0.  0.
        1    1    3    3  502    0 -0.85141137128E+03 -0.14222084869E+03  0.10663261846E+04  0.13719255173E+04  0.50400001928E-02 0.  1.
       -1    1    3    3    0  502  0.85141137128E+03  0.14222084869E+03  0.13447869254E+03  0.87362040482E+03  0.50400001928E-02 0. -1.
</event>
<event>
 5   0  0.3236653E-06  0.1906249E+04  0.7818609E-02  0.8651752E-01
        1   -1    0    0  501    0  0.00000000000E+00  0.00000000000E+00  0.13890400083E+04  0.13890400083E+04  0.50400001928E-02 0.  1.
       -1   -1    0    0    0  501  0.00000000000E+00  0.00000000000E+00 -0.65401005958E+03  0.65401005959E+03  0.50400001928E-02 0. -1.
    10030    2    1    2    0    0  0.00000000000E+00  0.00000000000E+00  0.73502994875E+03  0.20430500679E+04  0.19062488176E+04 0.  0.
        3    1    3    3  502    0  0.35324637865E+03  0.86082480941E+03  0.58883832087E+03  0.11011507321E+04  0.10100000352E+00 0. -1.
       -3    1    3    3    0  502 -0.35324637865E+03 -0.86082480941E+03  0.14619162788E+03  0.94189933581E+03  0.10100000352E+00 0.  1.
</event>
<event>
 5   0  0.3495279E-06  0.1900439E+04  0.7818609E-02  0.8654638E-01
       -1   -1    0    0    0  501  0.00000000000E+00  0.00000000000E+00  0.71847977919E+03  0.71847977921E+03  0.50400001928E-02 0. -1.
        1   -1    0    0  501    0  0.00000000000E+00  0.00000000000E+00 -0.12567055753E+04  0.12567055754E+04  0.50400001928E-02 0.  1.
    10030    2    1    2    0    0  0.00000000000E+00  0.00000000000E+00 -0.53822579615E+03  0.19751853546E+04  0.19004394695E+04 0.  0.
        2    1    3    3  502    0 -0.77821932063E+03  0.14486699231E+03  0.27720924882E+03  0.83872327027E+03  0.25500000920E-02 0. -1.
       -2    1    3    3    0  502  0.77821932063E+03 -0.14486699231E+03 -0.81543504497E+03  0.11364620843E+04  0.25500000920E-02 0.  1.
</event>
<event>
 5   0  0.7207648E-06  0.1900150E+04  0.7818609E-02  0.8654782E-01
        2   -1    0    0  501    0  0.00000000000E+00  0.00000000000E+00  0.21374323269E+04  0.21374323269E+04  0.25500000920E-02 0. -1.
       -2   -1    0    0    0  501  0.00000000000E+00  0.00000000000E+00 -0.42230210306E+03  0.42230210307E+03  0.25500000920E-02 0.  1.
    10030    2    1    2    0    0  0.00000000000E+00  0.00000000000E+00  0.17151302238E+04  0.25597344299E+04  0.19001496434E+04 0.  0.
        4    1    3    3  502    0 -0.69116921421E+03 -0.24016300722E+03  0.16739340484E+04  0.18268688962E+04  0.12699999809E+01 0. -1.
       -4    1    3    3    0  502  0.69116921421E+03  0.24016300722E+03  0.41196175387E+02  0.73286553369E+03  0.12699999809E+01 0.  1.
</event>
<event>
 5   0  0.3379108E-06  0.1906968E+04  0.7818609E-02  0.8651396E-01
       -1   -1    0    0    0  501  0.00000000000E+00  0.00000000000E+00  0.85622799829E+03  0.85622799831E+03  0.50400001928E-02 0. -1.
        1   -1    0    0  501    0  0.00000000000E+00  0.00000000000E+00 -0.10617864398E+04  0.10617864399E+04  0.50400001928E-02 0.  1.
    10030    2    1    2    0    0  0.00000000000E+00  0.00000000000E+00 -0.20555844155E+03  0.19180144382E+04  0.19069675173E+04 0.  0.
        4    1    3    3  502    0 -0.50505220727E+02 -0.40052301347E+03 -0.97158883406E+03  0.10521197351E+04  0.12699999809E+01 0.  1.
       -4    1    3    3    0  502  0.50505220727E+02  0.40052301347E+03  0.76603039251E+03  0.86589470306E+03  0.12699999809E+01 0. -1.
</event>
<event>
 5   0  0.3236653E-06  0.1899891E+04  0.7818609E-02  0.8654911E-01
        1   -1    0    0  501    0  0.00000000000E+00  0.00000000000E+00  0.58178666546E+03  0.58178666548E+03  0.50400001928E-02 0.  1.
       -1   -1    0    0    0  501  0.00000000000E+00  0.00000000000E+00 -0.15510774102E+04  0.15510774102E+04  0.50400001928E-02 0. -1.
    10030    2    1    2    0    0  0.00000000000E+00  0.00000000000E+00 -0.96929074473E+03  0.21328640757E+04  0.18998906857E+04 0.  0.
        3    1    3    3  502    0 -0.75788741609E+02  0.42451970638E+03  0.46557214527E+03  0.63460093532E+03  0.10100000352E+00 0.  1.
       -3    1    3    3    0  502  0.75788741609E+02 -0.42451970638E+03 -0.14348628900E+04  0.14982631404E+04  0.10100000352E+00 0. -1.
</event>
<event>
 5   0  0.6870370E-06  0.1900133E+04  0.7818609E-02  0.8654790E-01
       -2   -1    0    0    0  501  0.00000000000E+00  0.00000000000E+00  0.83635170325E+03  0.83635170325E+03  0.25500000920E-02 0. -1.
        2   -1    0    0  501    0  0.00000000000E+00  0.00000000000E+00 -0.10792421725E+04  0.10792421725E+04  0.25500000920E-02 0.  1.
    10030    2    1    2    0    0  0.00000000000E+00  0.00000000000E+00 -0.24289046925E+03  0.19155938758E+04  0.19001326577E+04 0.  0.
        1    1    3    3  502    0 -0.75246462158E+03  0.18321336666E+03  0.43335613691E+03  0.88745010331E+03  0.50400001928E-02 0.  1.
       -1    1    3    3    0  502  0.75246462158E+03 -0.18321336666E+03 -0.67624660615E+03  0.10281437724E+04  0.50400001928E-02 0. -1.
</event>
<event>
 5   0  0.7577180E-06  0.1900197E+04  0.7818609E-02  0.8654758E-01
        2   -1    0    0  501    0  0.00000000000E+00  0.00000000000E+00  0.14095537925E+04  0.14095537925E+04  0.25500000920E-02 0. -1.
       -2   -1    0    0    0  501  0.00000000000E+00  0.00000000000E+00 -0.64040610794E+03  0.64040610794E+03  0.25500000920E-02 0.  1.
    10030    2    1    2    0    0  0.00000000000E+00  0.00000000000E+00  0.76914768452E+03  0.20499599004E+04  0.19001966826E+04 0.  0.
        5    1    3    3  502    0  0.89356645178E+03 -0.13232608176E+03  0.70221755256E+03  0.11441602933E+04  0.46999998093E+01 0.  1.
       -5    1    3    3    0  502 -0.89356645178E+03  0.13232608176E+03  0.66930131959E+02  0.90579960710E+03  0.46999998093E+01 0. -1.
</event>
<event>
 5   0  0.3379108E-06  0.1901124E+04  0.7818609E-02  0.8654297E-01
        1   -1    0    0  501    0  0.00000000000E+00  0.00000000000E+00  0.66307190140E+03  0.66307190142E+03  0.50400001928E-02 0. -1.
       -1   -1    0    0    0  501  0.00000000000E+00  0.00000000000E+00 -0.13627005905E+04  0.13627005905E+04  0.50400001928E-02 0.  1.
    10030    2    1    2    0    0  0.00000000000E+00  0.00000000000E+00 -0.69962868912E+03  0.20257724920E+04  0.19011243743E+04 0.  0.
        4    1    3    3  502    0  0.84672560345E+02  0.54751297404E+03  0.47324580814E+03  0.72863098138E+03  0.12699999809E+01 0. -1.
       -4    1    3    3    0  502 -0.84672560345E+02 -0.54751297404E+03 -0.11728744973E+04  0.12971415106E+04  0.12699999809E+01 0.  1.
</event>
<event>
 5   0  0.7207648E-06  0.1897060E+04  0.7818609E-02  0.8656321E-01
       -2   -1    0    0    0  501  0.00000000000E+00  0.00000000000E+00  0.78937700870E+03  0.78937700870E+03  0.25500000920E-02 0. -1.
        2   -1    0    0  501    0  0.00000000000E+00  0.00000000000E+00 -0.11397710700E+04  0.11397710700E+04  0.25500000920E-02 0.  1.
    10030    2    1    2    0    0  0.00000000000E+00  0.00000000000E+00 -0.35039406132E+03  0.19291480787E+04  0.18970599125E+04 0.  0.
        4    1    3    3  502    0 -0.37579680509E+03 -0.42286258783E+03  0.59904274051E+03  0.82394770754E+03  0.12699999809E+01 0. -1.
       -4    1    3    3    0  502  0.37579680509E+03  0.42286258783E+03 -0.94943680183E+03  0.11052003712E+04  0.12699999809E+01 0.  1.
</event>
<event>
 5   0  0.6984466E-06  0.1895501E+04  0.7818609E-02  0.8657099E-01
       -2   -1    0    0    0  501  0.00000000000E+00  0.00000000000E+00  0.68127479529E+03  0.68127479529E+03  0.25500000920E-02 0.  1.
        2   -1    0    0  501    0  0.00000000000E+00  0.00000000000E+00 -0.13184562581E+04  0.13184562581E+04  0.25500000920E-02 0. -1.
    10030    2    1    2    0    0  0.00000000000E+00  0.00000000000E+00 -0.63718146283E+03  0.19997310534E+04  0.18955010075E+04 0.  0.
        2    1    3    3  502    0 -0.66738514260E+03 -0.61132873194E+03 -0.61531309552E+03  0.10944112356E+04  0.25500000920E-02 0. -1.
       -2    1    3    3    0  502  0.66738514260E+03  0.61132873194E+03 -0.21868367310E+02  0.90531981782E+03  0.25500000920E-02 0.  1.
</event>
<event>
 5   0  0.3398807E-06  0.1895225E+04  0.7818609E-02  0.8657237E-01
       -1   -1    0    0    0  501  0.00000000000E+00  0.00000000000E+00  0.61923849174E+03  0.61923849176E+03  0.50400001928E-02 0. -1.
        1   -1    0    0  501    0  0.00000000000E+00  0.00000000000E+00 -0.14501186595E+04  0.14501186596E+04  0.50400001928E-02 0.  1.
    10030    2    1    2    0    0  0.00000000000E+00  0.00000000000E+00 -0.83088016781E+03  0.20693571513E+04  0.18952248327E+04 0.  0.
        1    1    3    3  502    0 -0.33192851603E+03 -0.50614451820E+03 -0.12115471531E+04  0.13543283639E+04  0.50400001928E-02 0.  1.
       -1    1    3    3    0  502  0.33192851603E+03  0.50614451820E+03  0.38066698532E+03  0.71502878739E+03  0.50400001928E-02 0. -1.
</event>
<event>
 5   0  0.6984466E-06  0.1899904E+04  0.7818609E-02  0.8654904E-01
       -2   -1    0    0    0  501  0.00000000000E+00  0.00000000000E+00  0.10240012241E+04  0.10240012241E+04  0.25500000920E-02 0. -1.
        2   -1    0    0  501    0  0.00000000000E+00  0.00000000000E+00 -0.88125774725E+03  0.88125774725E+03  0.25500000920E-02 0.  1.
    10030    2    1    2    0    0  0.00000000000E+00  0.00000000000E+00  0.14274347690E+03  0.19052589714E+04  0.18999042207E+04 0.  0.
        2    1    3    3  502    0  0.24685630549E+03 -0.55663942904E+03  0.80255190423E+03  0.10074100697E+04  0.25500000920E-02 0. -1.
       -2    1    3    3    0  502 -0.24685630549E+03  0.55663942904E+03 -0.65980842733E+03  0.89784890171E+03  0.25500000920E-02 0.  1.
</event>
<event>
 5   0  0.3495279E-06  0.1899860E+04  0.7818609E-02  0.8654926E-01
        1   -1    0    0  501    0  0.00000000000E+00  0.00000000000E+00  0.11348429019E+04  0.11348429019E+04  0.50400001928E-02 0. -1.
       -1   -1    0    0    0  501  0.00000000000E+00  0.00000000000E+00 -0.79514726692E+03  0.79514726694E+03  0.50400001928E-02 0.  1.
    10030    2    1    2    0    0  0.00000000000E+00  0.00000000000E+00  0.33969563500E+03  0.19299901689E+04  0.18998602389E+04 0.  0.
        2    1    3    3  502    0  0.11343221818E+03 -0.94308091271E+03  0.17994301516E+03  0.96677193006E+03  0.25500000920E-02 0. -1.
       -2    1    3    3    0  502 -0.11343221818E+03  0.94308091271E+03  0.15975261984E+03  0.96321823882E+03  0.25500000920E-02 0.  1.
</event>
<event>
 5   0  0.3379108E-06  0.1899056E+04  0.7818609E-02  0.8655326E-01
       -1   -1    0    0    0  501  0.00000000000E+00  0.00000000000E+00  0.76113958935E+03  0.76113958937E+03  0.50400001928E-02 0. -1.
        1   -1    0    0  501    0  0.00000000000E+00  0.00000000000E+00 -0.11845447027E+04  0.11845447028E+04  0.50400001928E-02 0.  1.
    10030    2    1    2    0    0  0.00000000000E+00  0.00000000000E+00 -0.42340511339E+03  0.19456842921E+04  0.18990564696E+04 0.  0.
        4    1    3    3  502    0  0.53685823629E+03  0.45587516533E+03 -0.86417748828E+03  0.11148288103E+04  0.12699999809E+01 0.  1.
       -4    1    3    3    0  502 -0.53685823629E+03 -0.45587516533E+03  0.44077237489E+03  0.83085548178E+03  0.12699999809E+01 0. -1.
</event>
<event>
 5   0  0.6870370E-06  0.1900216E+04  0.7818609E-02  0.8654749E-01
        2   -1    0    0  501    0  0.00000000000E+00  0.00000000000E+00  0.14250719317E+04  0.14250719317E+04  0.25500000920E-02 0.  1.
       -2   -1    0    0    0  501  0.00000000000E+00  0.00000000000E+00 -0.63344528745E+03  0.63344528746E+03  0.25500000920E-02 0. -1.
    10030    2    1    2    0    0  0.00000000000E+00  0.00000000000E+00  0.79162664420E+03  0.20585172191E+04  0.19002158818E+04 0.  0.
        1    1    3    3  502    0  0.15854326817E+03 -0.80329112587E+03  0.91793190818E+03  0.12300453605E+04  0.50400001928E-02 0.  1.
       -1    1    3    3    0  502 -0.15854326817E+03  0.80329112587E+03 -0.12630526397E+03  0.82847185862E+03  0.50400001928E-02 0. -1.
</event>
<event>
 5   0  0.6984466E-06  0.1903475E+04  0.7818609E-02  0.8653128E-01
        2   -1    0    0  501    0  0.00000000000E+00  0.00000000000E+00  0.13092794802E+04  0.13092794802E+04  0.25500000920E-02 0.  1.
       -2   -1    0    0    0  501  0.00000000000E+00  0.00000000000E+00 -0.69183447075E+03  0.69183447075E+03  0.25500000920E-02 0. -1.
    10030    2    1    2    0    0  0.00000000000E+00  0.00000000000E+00  0.61744500950E+03  0.20011139510E+04  0.19034754280E+04 0.  0.
        2    1    3    3  502    0 -0.46258447585E+03 -0.60072402986E+03 -0.29606991674E+03  0.81394788098E+03  0.25500000920E-02 0. -1.
       -2    1    3    3    0  502  0.46258447585E+03  0.60072402986E+03  0.91351492623E+03  0.11871660700E+04  0.25500000920E-02 0.  1.
</event>
<event>
 5   0  0.3398807E-06  0.1899337E+04  0.7818609E-02  0.8655187E-01
        1   -1    0    0  501    0  0.00000000000E+00  0.00000000000E+00  0.13456828171E+04  0.13456828171E+04  0.50400001928E-02 0.  1.
       -1   -1    0    0    0  501  0.00000000000E+00  0.00000000000E+00 -0.67019504060E+03  0.67019504062E+03  0.50400001928E-02 0. -1.
    10030    2    1    2    0    0  0.00000000000E+00  0.00000000000E+00  0.67548777648E+03  0.20158778577E+04  0.18993366740E+04 0.  0.
        1    1    3    3  502    0  0.18504767455E+03 -0.69815104172E+03 -0.31670452150E+03  0.78864394557E+03  0.50400001928E-02 0. -1.
       -1    1    3    3    0  502 -0.18504767455E+03  0.69815104172E+03  0.99219229798E+03  0.12272339121E+04  0.50400001928E-02 0.  1.
</event>
<event>
 5   0  0.3495279E-06  0.1900073E+04  0.7818609E-02  0.8654820E-01
        1   -1    0    0  501    0  0.00000000000E+00  0.00000000000E+00  0.14758125698E+04  0.14758125698E+04  0.50400001928E-02 0. -1.
       -1   -1    0    0    0  501  0.00000000000E+00  0.00000000000E+00 -0.61157427091E+03  0.61157427093E+03  0.50400001928E-02 0.  1.
    10030    2    1    2    0    0  0.00000000000E+00  0.00000000000E+00  0.86423829890E+03  0.20873868407E+04  0.19000726264E+04 0.  0.
        2    1    3    3  502    0 -0.69916593714E+03  0.47050448729E+03 -0.49708630436E+02  0.84420283592E+03  0.25500000920E-02 0.  1.
       -2    1    3    3    0  502  0.69916593714E+03 -0.47050448729E+03  0.91394692934E+03  0.12431840048E+04  0.25500000920E-02 0. -1.
</event>
<event>
 5   0  0.6870370E-06  0.1899860E+04  0.7818609E-02  0.8654926E-01
        2   -1    0    0  501    0  0.00000000000E+00  0.00000000000E+00  0.13275695414E+04  0.13275695414E+04  0.25500000920E-02 0.  1.
       -2   -1    0    0    0  501  0.00000000000E+00  0.00000000000E+00 -0.67971323252E+03  0.67971323252E+03  0.25500000920E-02 0. -1.
    10030    2    1    2    0    0  0.00000000000E+00  0.00000000000E+00  0.64785630889E+03  0.20072827739E+04  0.18998595573E+04 0.  0.
        1    1    3    3  502    0  0.32095346464E+03 -0.44167625380E+03 -0.49737839791E+03  0.73856232667E+03  0.50400001928E-02 0. -1.
       -1    1    3    3    0  502 -0.32095346464E+03  0.44167625380E+03  0.11452347068E+04  0.12687204473E+04  0.50400001928E-02 0.  1.
</event>
<event>
 5   0  0.3495279E-06  0.1900009E+04  0.7818609E-02  0.8654852E-01
        1   -1    0    0  501    0  0.00000000000E+00  0.00000000000E+00  0.18424983267E+04  0.18424983267E+04  0.50400001928E-02 0. -1.
       -1   -1    0    0    0  501  0.00000000000E+00  0.00000000000E+00 -0.48982846792E+03  0.48982846795E+03  0.50400001928E-02 0.  1.
    10030    2    1    2    0    0  0.00000000000E+00  0.00000000000E+00  0.13526698587E+04  0.23323267946E+04  0.19000085606E+04 0.  0.
        2    1    3    3  502    0 -0.27136360565E+03 -0.73314820673E+03  0.13389350580E+04  0.15504488347E+04  0.25500000920E-02 0. -1.
       -2    1    3    3    0  502  0.27136360565E+03  0.73314820673E+03  0.13734800782E+02  0.78187795995E+03  0.25500000920E-02 0.  1.
</event>
<event>
 5   0  0.3236653E-06  0.1899751E+04  0.7818609E-02  0.8654980E-01
       -1   -1    0    0    0  501  0.00000000000E+00  0.00000000000E+00  0.73294190741E+03  0.73294190742E+03  0.50400001928E-02 0.  1.
        1   -1    0    0  501    0  0.00000000000E+00  0.00000000000E+00 -0.12310168078E+04  0.12310168078E+04  0.50400001928E-02 0. -1.
    10030    2    1    2    0    0  0.00000000000E+00  0.00000000000E+00 -0.49807490040E+03  0.19639587152E+04  0.18997513597E+04 0.  0.
        3    1    3    3  502    0  0.79042647412E+03 -0.21230999513E+03 -0.74742475152E+03  0.11083741762E+04  0.10100000352E+00 0. -1.
       -3    1    3    3    0  502 -0.79042647412E+03  0.21230999513E+03  0.24934985112E+03  0.85558453906E+03  0.10100000352E+00 0.  1.
</event>
<event>
 5   0  0.7207648E-06  0.1901819E+04  0.7818609E-02  0.8653952E-01
        2   -1    0    0  501    0  0.00000000000E+00  0.00000000000E+00  0.10676753959E+04  0.10676753959E+04  0.25500000920E-02 0. -1.
       -2   -1    0    0    0  501  0.00000000000E+00  0.00000000000E+00 -0.84691351086E+03  0.84691351087E+03  0.25500000920E-02 0.  1.
    10030    2    1    2    0    0  0.00000000000E+00  0.00000000000E+00  0.22076188504E+03  0.19145889068E+04  0.19018188326E+04 0.  0.
        4    1    3    3  502    0 -0.22073281995E+02 -0.77924201950E+03 -0.43781355519E+03  0.89408482637E+03  0.12699999809E+01 0.  1.
       -4    1    3    3    0  502  0.22073281995E+02  0.77924201950E+03  0.65857544023E+03  0.10205040804E+04  0.12699999809E+01 0. -1.
</event>
<event>
 5   0  0.7207648E-06  0.1900125E+04  0.7818609E-02  0.8654794E-01
       -2   -1    0    0    0  501  0.00000000000E+00  0.00000000000E+00  0.65866866491E+03  0.65866866492E+03  0.25500000920E-02 0. -1.
        2   -1    0    0  501    0  0.00000000000E+00  0.00000000000E+00 -0.13703688392E+04  0.13703688392E+04  0.25500000920E-02 0.  1.
    10030    2    1    2    0    0  0.00000000000E+00  0.00000000000E+00 -0.71170017433E+03  0.20290375042E+04  0.19001252735E+04 0.  0.
        4    1    3    3  502    0 -0.18620321536E+03 -0.63217788224E+03  0.37489932747E+03  0.75820289557E+03  0.12699999809E+01 0.  1.
       -4    1    3    3    0  502  0.18620321536E+03  0.63217788224E+03 -0.10865995018E+04  0.12708346086E+04  0.12699999809E+01 0. -1.
</event>
<event>
 5   0  0.7207648E-06  0.1898220E+04  0.7818609E-02  0.8655743E-01
        2   -1    0    0  501    0  0.00000000000E+00  0.00000000000E+00  0.82171054462E+03  0.82171054463E+03  0.25500000920E-02 0. -1.
       -2   -1    0    0    0  501  0.00000000000E+00  0.00000000000E+00 -0.10962619841E+04  0.10962619841E+04  0.25500000920E-02 0.  1.
    10030    2    1    2    0    0  0.00000000000E+00  0.00000000000E+00 -0.27455143948E+03  0.19179725287E+04  0.18982202528E+04 0.  0.
        4    1    3    3  502    0 -0.70101477381E+02 -0.37729233880E+03  0.73982665635E+03  0.83343195307E+03  0.12699999809E+01 0. -1.
       -4    1    3    3    0  502  0.70101477381E+02  0.37729233880E+03 -0.10143780958E+04  0.10845405757E+04  0.12699999809E+01 0.  1.
</event>
<event>
 5   0  0.6862201E-06  0.1900249E+04  0.7818609E-02  0.8654732E-01
       -2   -1    0    0    0  501  0.00000000000E+00  0.00000000000E+00  0.81641226196E+03  0.81641226196E+03  0.25500000920E-02 0.  1.
        2   -1    0    0  501    0  0.00000000000E+00  0.00000000000E+00 -0.11057366293E+04  0.11057366293E+04  0.25500000920E-02 0. -1.
    10030    2    1    2    0    0  0.00000000000E+00  0.00000000000E+00 -0.28932436731E+03  0.19221488912E+04  0.19002493969E+04 0.  0.
        3    1    3    3  502    0  0.87116107414E+03 -0.31759379714E+03 -0.35429315893E+03  0.99262837444E+03  0.10100000352E+00 0.  1.
       -3    1    3    3    0  502 -0.87116107414E+03  0.31759379714E+03  0.64968791615E+02  0.92952051680E+03  0.10100000352E+00 0. -1.
</event>
<event>
 5   0  0.3398807E-06  0.1899140E+04  0.7818609E-02  0.8655285E-01
       -1   -1    0    0    0  501  0.00000000000E+00  0.00000000000E+00  0.91370719099E+03  0.91370719100E+03  0.50400001928E-02 0.  1.
        1   -1    0    0  501    0  0.00000000000E+00  0.00000000000E+00 -0.98684024903E+03  0.98684024904E+03  0.50400001928E-02 0. -1.
    10030    2    1    2    0    0  0.00000000000E+00  0.00000000000E+00 -0.73133058045E+02  0.19005474400E+04  0.18991398389E+04 0.  0.
        1    1    3    3  502    0  0.28231833325E+03 -0.85129897727E+03  0.27554512300E+03  0.93826366487E+03  0.50400001928E-02 0.  1.
       -1    1    3    3    0  502 -0.28231833325E+03  0.85129897727E+03 -0.34867818104E+03  0.96228377517E+03  0.50400001928E-02 0. -1.
</event>
<event>
 5   0  0.6984466E-06  0.1900719E+04  0.7818609E-02  0.8654499E-01
        2   -1    0    0  501    0  0.00000000000E+00  0.00000000000E+00  0.72177459544E+03  0.72177459544E+03  0.25500000920E-02 0. -1.
       -2   -1    0    0    0  501  0.00000000000E+00  0.00000000000E+00 -0.12513366980E+04  0.12513366980E+04  0.25500000920E-02 0.  1.
    10030    2    1    2    0    0  0.00000000000E+00  0.00000000000E+00 -0.52956210259E+03  0.19731112935E+04  0.19007188524E+04 0.  0.
        2    1    3    3  502    0 -0.46326017155E+03  0.80102096338E+03 -0.48968555821E+03  0.10469176263E+04  0.25500000920E-02 0. -1.
       -2    1    3    3    0  502  0.46326017155E+03 -0.80102096338E+03 -0.39876544376E+02  0.92619366718E+03  0.25500000920E-02 0.  1.
</event>
<event>
 5   0  0.6870370E-06  0.1900565E+04  0.7818609E-02  0.8654575E-01
        2   -1    0    0  501    0  0.00000000000E+00  0.00000000000E+00  0.13266539934E+04  0.13266539934E+04  0.25500000920E-02 0. -1.
       -2   -1    0    0    0  501  0.00000000000E+00  0.00000000000E+00 -0.68068764119E+03  0.68068764120E+03  0.25500000920E-02 0.  1.
    10030    2    1    2    0    0  0.00000000000E+00  0.00000000000E+00  0.64596635218E+03  0.20073416346E+04  0.19005651554E+04 0.  0.
        1    1    3    3  502    0  0.32850475982E+03 -0.91419247636E+01 -0.61875999599E+03  0.70061607509E+03  0.50400001928E-02 0.  1.
       -1    1    3    3    0  502 -0.32850475982E+03  0.91419247636E+01  0.12647263482E+04  0.13067255595E+04  0.50400001928E-02 0. -1.
</event>
<event>
 5   0  0.3495279E-06  0.1899904E+04  0.7818609E-02  0.8654904E-01
        1   -1    0    0  501    0  0.00000000000E+00  0.00000000000E+00  0.24425421148E+04  0.24425421148E+04  0.50400001928E-02 0. -1.
       -1   -1    0    0    0  501  0.00000000000E+00  0.00000000000E+00 -0.36945490047E+03  0.36945490050E+03  0.50400001928E-02 0.  1.
    10030    2    1    2    0    0  0.00000000000E+00  0.00000000000E+00  0.20730872143E+04  0.28119970153E+04  0.18999043702E+04 0.  0.
        2    1    3    3  502    0  0.46596666910E+03  0.77066036975E+03  0.58916279987E+03  0.10761761691E+04  0.25500000920E-02 0. -1.
       -2    1    3    3    0  502 -0.46596666910E+03 -0.77066036975E+03  0.14839244145E+04  0.17358208462E+04  0.25500000920E-02 0.  1.
</event>
<event>
 5   0  0.3495279E-06  0.1900184E+04  0.7818609E-02  0.8654765E-01
       -1   -1    0    0    0  501  0.00000000000E+00  0.00000000000E+00  0.85313845705E+03  0.85313845706E+03  0.50400001928E-02 0.  1.
        1   -1    0    0  501    0  0.00000000000E+00  0.00000000000E+00 -0.10580635941E+04  0.10580635941E+04  0.50400001928E-02 0. -1.
    10030    2    1    2    0    0  0.00000000000E+00  0.00000000000E+00 -0.20492513702E+03  0.19112020511E+04  0.19001839302E+04 0.  0.
        2    1    3    3  502    0  0.30426792260E+03 -0.59329197268E+03  0.57829315506E+03  0.88260824082E+03  0.25500000920E-02 0.  1.
       -2    1    3    3    0  502 -0.30426792260E+03  0.59329197268E+03 -0.78321829208E+03  0.10285938103E+04  0.25500000920E-02 0. -1.
</event>
<event>
 5   0  0.6870370E-06  0.1899082E+04  0.7818609E-02  0.8655314E-01
       -2   -1    0    0    0  501  0.00000000000E+00  0.00000000000E+00  0.11426584537E+04  0.11426584537E+04  0.25500000920E-02 0.  1.
        2   -1    0    0  501    0  0.00000000000E+00  0.00000000000E+00 -0.78906169738E+03  0.78906169738E+03  0.25500000920E-02 0. -1.
    10030    2    1    2    0    0  0.00000000000E+00  0.00000000000E+00  0.35359675628E+03  0.19317201510E+04  0.18990819034E+04 0.  0.
        1    1    3    3  502    0  0.85646327394E+03 -0.40415502799E+03  0.24695764070E+03  0.97870256083E+03  0.50400001928E-02 0.  1.
       -1    1    3    3    0  502 -0.85646327394E+03  0.40415502799E+03  0.10663911558E+03  0.95301759021E+03  0.50400001928E-02 0. -1.
</event>
<event>
 5   0  0.7207648E-06  0.1900435E+04  0.7818609E-02  0.8654640E-01
       -2   -1    0    0    0  501  0.00000000000E+00  0.00000000000E+00  0.79588669387E+03  0.79588669387E+03  0.25500000920E-02 0.  1.
        2   -1    0    0  501    0  0.00000000000E+00  0.00000000000E+00 -0.11344750683E+04  0.11344750683E+04  0.25500000920E-02 0. -1.
    10030    2    1    2    0    0  0.00000000000E+00  0.00000000000E+00 -0.33858837445E+03  0.19303617622E+04  0.19004353306E+04 0.  0.
        4    1    3    3  502    0 -0.57813890344E+03 -0.20070848015E+02  0.59640978402E+03  0.83087524574E+03  0.12699999809E+01 0.  1.
       -4    1    3    3    0  502  0.57813890344E+03  0.20070848015E+02 -0.93499815847E+03  0.10994865165E+04  0.12699999809E+01 0. -1.
</event>
<event>
 5   0  0.7207648E-06  0.1900521E+04  0.7818609E-02  0.8654597E-01
        2   -1    0    0  501    0  0.00000000000E+00  0.00000000000E+00  0.16379276868E+04  0.16379276868E+04  0.25500000920E-02 0. -1.
       -2   -1    0    0    0  501  0.00000000000E+00  0.00000000000E+00 -0.55130311936E+03  0.55130311936E+03  0.25500000920E-02 0.  1.
    10030    2    1    2    0    0  0.00000000000E+00  0.00000000000E+00  0.10866245675E+04  0.21892308062E+04  0.19005206056E+04 0.  0.
        4    1    3    3  502    0  0.58051523398E+02 -0.31005785536E+03  0.15758559886E+04  0.16071184035E+04  0.12699999809E+01 0. -1.
       -4    1    3    3    0  502 -0.58051523398E+02  0.31005785536E+03 -0.48923142115E+03  0.58211240271E+03  0.12699999809E+01 0.  1.
</event>
<event>
 5   0  0.3236653E-06  0.1900298E+04  0.7818609E-02  0.8654708E-01
        1   -1    0    0  501    0  0.00000000000E+00  0.00000000000E+00  0.71162461866E+03  0.71162461868E+03  0.50400001928E-02 0. -1.
       -1   -1    0    0    0  501  0.00000000000E+00  0.00000000000E+00 -0.12686223531E+04  0.12686223531E+04  0.50400001928E-02 0.  1.
    10030    2    1    2    0    0  0.00000000000E+00  0.00000000000E+00 -0.55699773446E+03  0.19802469718E+04  0.19002977644E+04 0.  0.
        3    1    3    3  502    0  0.42013867947E+03 -0.24117752198E+03  0.57326333734E+03  0.75054245132E+03  0.10100000352E+00 0. -1.
       -3    1    3    3    0  502 -0.42013867947E+03  0.24117752198E+03 -0.11302610718E+04  0.12297045205E+04  0.10100000352E+00 0.  1.
</event>
<event>
 5   0  0.3211263E-06  0.1899962E+04  0.7818609E-02  0.8654875E-01
        1   -1    0    0  501    0  0.00000000000E+00  0.00000000000E+00  0.15233335527E+04  0.15233335527E+04  0.50400001928E-02 0.  1.
       -1   -1    0    0    0  501  0.00000000000E+00  0.00000000000E+00 -0.59242691940E+03  0.59242691942E+03  0.50400001928E-02 0. -1.
    10030    2    1    2    0    0  0.00000000000E+00  0.00000000000E+00  0.93090663332E+03  0.21157604721E+04  0.18999618984E+04 0.  0.
        5    1    3    3  502    0  0.74360764469E+03  0.13083813691E+03  0.11074503434E+04  0.13403504394E+04  0.46999998093E+01 0.  1.
       -5    1    3    3    0  502 -0.74360764469E+03 -0.13083813691E+03 -0.17654371008E+03  0.77541003274E+03  0.46999998093E+01 0. -1.
</event>
<event>
 5   0  0.6984466E-06  0.1896723E+04  0.7818609E-02  0.8656489E-01
       -2   -1    0    0    0  501  0.00000000000E+00  0.00000000000E+00  0.94899025878E+03  0.94899025878E+03  0.25500000920E-02 0.  1.
        2   -1    0    0  501    0  0.00000000000E+00  0.00000000000E+00 -0.94773351810E+03  0.94773351810E+03  0.25500000920E-02 0. -1.
    10030    2    1    2    0    0  0.00000000000E+00  0.00000000000E+00  0.12567406826E+01  0.18967237769E+04  0.18967233605E+04 0.  0.
        2    1    3    3  502    0 -0.39856159208E+03  0.61583606714E+03  0.60169794280E+03  0.94876014811E+03  0.25500000920E-02 0.  1.
       -2    1    3    3    0  502  0.39856159208E+03 -0.61583606714E+03 -0.60044120212E+03  0.94796362877E+03  0.25500000920E-02 0. -1.
</event>
<event>
 5   0  0.3495279E-06  0.1899972E+04  0.7818609E-02  0.8654870E-01
        1   -1    0    0  501    0  0.00000000000E+00  0.00000000000E+00  0.14327011041E+04  0.14327011041E+04  0.50400001928E-02 0.  1.
       -1   -1    0    0    0  501  0.00000000000E+00  0.00000000000E+00 -0.62991057800E+03  0.62991057802E+03  0.50400001928E-02 0. -1.
    10030    2    1    2    0    0  0.00000000000E+00  0.00000000000E+00  0.80279052607E+03  0.20626116821E+04  0.18999721899E+04 0.  0.
        2    1    3    3  502    0  0.64925108662E+03 -0.17274075232E+03  0.11305339258E+04  0.13150944067E+04  0.25500000920E-02 0.  1.
       -2    1    3    3    0  502 -0.64925108662E+03  0.17274075232E+03 -0.32774339975E+03  0.74751727544E+03  0.25500000920E-02 0. -1.
</event>
<event>
 5   0  0.3495279E-06  0.1899237E+04  0.7818609E-02  0.8655236E-01
       -1   -1    0    0    0  501  0.00000000000E+00  0.00000000000E+00  0.15358688627E+04  0.15358688627E+04  0.50400001928E-02 0. -1.
        1   -1    0    0  501    0  0.00000000000E+00  0.00000000000E+00 -0.58714359486E+03  0.58714359488E+03  0.50400001928E-02 0.  1.
    10030    2    1    2    0    0  0.00000000000E+00  0.00000000000E+00  0.94872526784E+03  0.21230124576E+04  0.18992372841E+04 0.  0.
        2    1    3    3  502    0 -0.81609193495E+03 -0.48111294477E+03  0.54766198648E+03  0.10942620177E+04  0.25500000920E-02 0. -1.
       -2    1    3    3    0  502  0.81609193495E+03  0.48111294477E+03  0.40106328136E+03  0.10287504399E+04  0.25500000920E-02 0.  1.
</event>
<event>
 5   0  0.3398807E-06  0.1900045E+04  0.7818609E-02  0.8654834E-01
       -1   -1    0    0    0  501  0.00000000000E+00  0.00000000000E+00  0.11493925189E+04  0.11493925189E+04  0.50400001928E-02 0.  1.
        1   -1    0    0  501    0  0.00000000000E+00  0.00000000000E+00 -0.78523458177E+03  0.78523458178E+03  0.50400001928E-02 0. -1.
    10030    2    1    2    0    0  0.00000000000E+00  0.00000000000E+00  0.36415793714E+03  0.19346271007E+04  0.19000450036E+04 0.  0.
        1    1    3    3  502    0 -0.47340468238E+03 -0.44213047573E+03  0.88967452284E+03  0.11005053873E+04  0.50400001928E-02 0.  1.
       -1    1    3    3    0  502  0.47340468238E+03  0.44213047573E+03 -0.52551658571E+03  0.83412171339E+03  0.50400001928E-02 0. -1.
</event>
<event>
 5   0  0.6984466E-06  0.1900247E+04  0.7818609E-02  0.8654733E-01
        2   -1    0    0  501    0  0.00000000000E+00  0.00000000000E+00  0.12414274970E+04  0.12414274970E+04  0.25500000920E-02 0.  1.
       -2   -1    0    0    0  501  0.00000000000E+00  0.00000000000E+00 -0.72717497882E+03  0.72717497882E+03  0.25500000920E-02 0. -1.
    10030    2    1    2    0    0  0.00000000000E+00  0.00000000000E+00  0.51425251823E+03  0.19686024759E+04  0.19002473669E+04 0.  0.
        2    1    3    3  502    0  0.72483896652E+03  0.57029561932E+03  0.20646816422E+02  0.92252637460E+03  0.25500000920E-02 0.  1.
       -2    1    3    3    0  502 -0.72483896652E+03 -0.57029561932E+03  0.49360570181E+03  0.10460761013E+04  0.25500000920E-02 0. -1.
</event>
<event>
 5   0  0.7207648E-06  0.1899516E+04  0.7818609E-02  0.8655097E-01
       -2   -1    0    0    0  501  0.00000000000E+00  0.00000000000E+00  0.59613441102E+03  0.59613441103E+03  0.25500000920E-02 0. -1.
        2   -1    0    0  501    0  0.00000000000E+00  0.00000000000E+00 -0.15131492275E+04  0.15131492275E+04  0.25500000920E-02 0.  1.
    10030    2    1    2    0    0  0.00000000000E+00  0.00000000000E+00 -0.91701481645E+03  0.21092836385E+04  0.18995160684E+04 0.  0.
        4    1    3    3  502    0 -0.43239693898E+03  0.28293865554E+03 -0.13433882570E+04  0.14393453434E+04  0.12699999809E+01 0.  1.
       -4    1    3    3    0  502  0.43239693898E+03 -0.28293865554E+03  0.42637344050E+03  0.66993829515E+03  0.12699999809E+01 0. -1.
</event>
<event>
 5   0  0.3398807E-06  0.1896254E+04  0.7818609E-02  0.8656723E-01
        1   -1    0    0  501    0  0.00000000000E+00  0.00000000000E+00  0.92449265826E+03  0.92449265827E+03  0.50400001928E-02 0.  1.
       -1   -1    0    0    0  501  0.00000000000E+00  0.00000000000E+00 -0.97236577186E+03  0.97236577187E+03  0.50400001928E-02 0. -1.
    10030    2    1    2    0    0  0.00000000000E+00  0.00000000000E+00 -0.47873113600E+02  0.18968584301E+04  0.18962542206E+04 0.  0.
        1    1    3    3  502    0  0.65340622048E+02 -0.79259143498E+03  0.49243954626E+03  0.93539686039E+03  0.50400001928E-02 0.  1.
       -1    1    3    3    0  502 -0.65340622048E+02  0.79259143498E+03 -0.54031265986E+03  0.96146156975E+03  0.50400001928E-02 0. -1.
</event>
<event>
 5   0  0.6870370E-06  0.1899157E+04  0.7818609E-02  0.8655276E-01
       -2   -1    0    0    0  501  0.00000000000E+00  0.00000000000E+00  0.60240741589E+03  0.60240741589E+03  0.25500000920E-02 0.  1.
        2   -1    0    0  501    0  0.00000000000E+00  0.00000000000E+00 -0.14968256549E+04  0.14968256549E+04  0.25500000920E-02 0. -1.
    10030    2    1    2    0    0  0.00000000000E+00  0.00000000000E+00 -0.89441823903E+03  0.20992330708E+04  0.18991565231E+04 0.  0.
        1    1    3    3  502    0 -0.73806556072E+03  0.47294878186E+03 -0.43676724911E+02  0.87768387162E+03  0.50400001928E-02 0.  1.
       -1    1    3    3    0  502  0.73806556072E+03 -0.47294878186E+03 -0.85074151412E+03  0.12215491992E+04  0.50400001928E-02 0. -1.
</event>
<event>
 5   0  0.3495279E-06  0.1900395E+04  0.7818609E-02  0.8654660E-01
        1   -1    0    0  501    0  0.00000000000E+00  0.00000000000E+00  0.56142744150E+03  0.56142744152E+03  0.50400001928E-02 0. -1.
       -1   -1    0    0    0  501  0.00000000000E+00  0.00000000000E+00 -0.16081773543E+04  0.16081773543E+04  0.50400001928E-02 0.  1.
    10030    2    1    2    0    0  0.00000000000E+00  0.00000000000E+00 -0.10467499128E+04  0.21696047958E+04  0.19003945880E+04 0.  0.
        2    1    3    3  502    0  0.68916286232E+03 -0.55220679857E+03 -0.92376593181E+03  0.12779754677E+04  0.25500000920E-02 0.  1.
       -2    1    3    3    0  502 -0.68916286232E+03  0.55220679857E+03 -0.12298398095E+03  0.89162932812E+03  0.25500000920E-02 0. -1.
</event>
<event>
 5   0  0.3398807E-06  0.1901641E+04  0.7818609E-02  0.8654040E-01
        1   -1    0    0  501    0  0.00000000000E+00  0.00000000000E+00  0.96260947487E+03  0.96260947489E+03  0.50400001928E-02 0.  1.
       -1   -1    0    0    0  501  0.00000000000E+00  0.00000000000E+00 -0.93917583161E+03  0.93917583162E+03  0.50400001928E-02 0. -1.
    10030    2    1    2    0    0  0.00000000000E+00  0.00000000000E+00  0.23433643265E+02  0.19017853065E+04  0.19016409273E+04 0.  0.
        1    1    3    3  502    0  0.69335662909E+03  0.33771634765E+03 -0.54444032347E+03  0.94403973032E+03  0.50400001928E-02 0.  1.
       -1    1    3    3    0  502 -0.69335662909E+03 -0.33771634765E+03  0.56787396674E+03  0.95774557618E+03  0.50400001928E-02 0. -1.
</event>
<event>
 5   0  0.3236653E-06  0.1900159E+04  0.7818609E-02  0.8654777E-01
        1   -1    0    0  501    0  0.00000000000E+00  0.00000000000E+00  0.76219028099E+03  0.76219028101E+03  0.50400001928E-02 0.  1.
       -1   -1    0    0    0  501  0.00000000000E+00  0.00000000000E+00 -0.11842860226E+04  0.11842860226E+04  0.50400001928E-02 0. -1.
    10030    2    1    2    0    0  0.00000000000E+00  0.00000000000E+00 -0.42209574157E+03  0.19464763036E+04  0.19001592526E+04 0.  0.
        3    1    3    3  502    0 -0.48208476605E+03 -0.76465788836E+03 -0.51065599671E+03  0.10382085364E+04  0.10100000352E+00 0.  1.
       -3    1    3    3    0  502  0.48208476605E+03  0.76465788836E+03  0.88560255141E+02  0.90826776717E+03  0.10100000352E+00 0. -1.
</event>
<event>
 5   0  0.3398807E-06  0.1900565E+04  0.7818609E-02  0.8654575E-01
        1   -1    0    0  501    0  0.00000000000E+00  0.00000000000E+00  0.96250313783E+03  0.96250313784E+03  0.50400001928E-02 0.  1.
       -1   -1    0    0    0  501  0.00000000000E+00  0.00000000000E+00 -0.93821737095E+03  0.93821737096E+03  0.50400001928E-02 0. -1.
    10030    2    1    2    0    0  0.00000000000E+00  0.00000000000E+00  0.24285766880E+02  0.19007205088E+04  0.19005653512E+04 0.  0.
        1    1    3    3  502    0 -0.53239465355E+03  0.60597973924E+02  0.79701328719E+03  0.96038865130E+03  0.50400001928E-02 0.  1.
       -1    1    3    3    0  502  0.53239465355E+03 -0.60597973924E+02 -0.77272752031E+03  0.94033185750E+03  0.50400001928E-02 0. -1.
</event>
<event>
 5   0  0.3398807E-06  0.1902488E+04  0.7818609E-02  0.8653619E-01
        1   -1    0    0  501    0  0.00000000000E+00  0.00000000000E+00  0.17859547557E+04  0.17859547557E+04  0.50400001928E-02 0.  1.
       -1   -1    0    0    0  501  0.00000000000E+00  0.00000000000E+00 -0.50665630794E+03  0.50665630797E+03  0.50400001928E-02 0. -1.
    10030    2    1    2    0    0  0.00000000000E+00  0.00000000000E+00  0.12792984478E+04  0.22926110637E+04  0.19024881001E+04 0.  0.
        1    1    3    3  502    0 -0.50446084498E+03 -0.29526285559E+03  0.15440094070E+04  0.16509469849E+04  0.50400001928E-02 0.  1.
       -1    1    3    3    0  502  0.50446084498E+03  0.29526285559E+03 -0.26471095925E+03  0.64166407877E+03  0.50400001928E-02 0. -1.
</event>
<event>
 5   0  0.3495279E-06  0.1900748E+04  0.7818609E-02  0.8654484E-01
       -1   -1    0    0    0  501  0.00000000000E+00  0.00000000000E+00  0.90588483945E+03  0.90588483947E+03  0.50400001928E-02 0.  1.
        1   -1    0    0  501    0  0.00000000000E+00  0.00000000000E+00 -0.99704776108E+03  0.99704776109E+03  0.50400001928E-02 0. -1.
    10030    2    1    2    0    0  0.00000000000E+00  0.00000000000E+00 -0.91162921624E+02  0.19029326006E+04  0.19007476960E+04 0.  0.
        2    1    3    3  502    0 -0.47088764123E+03 -0.81762650685E+03  0.68400962083E+02  0.94600579648E+03  0.25500000920E-02 0.  1.
       -2    1    3    3    0  502  0.47088764123E+03  0.81762650685E+03 -0.15956388371E+03  0.95692680407E+03  0.25500000920E-02 0. -1.
</event>
<event>
 5   0  0.3398807E-06  0.1900541E+04  0.7818609E-02  0.8654587E-01
        1   -1    0    0  501    0  0.00000000000E+00  0.00000000000E+00  0.22252157919E+04  0.22252157919E+04  0.50400001928E-02 0. -1.
       -1   -1    0    0    0  501  0.00000000000E+00  0.00000000000E+00 -0.40580982782E+03  0.40580982785E+03  0.50400001928E-02 0.  1.
    10030    2    1    2    0    0  0.00000000000E+00  0.00000000000E+00  0.18194059641E+04  0.26310256198E+04  0.19005414359E+04 0.  0.
        1    1    3    3  502    0 -0.52985281252E+03  0.72237138339E+03  0.47094730792E+03  0.10121046316E+04  0.50400001928E-02 0.  1.
       -1    1    3    3    0  502  0.52985281252E+03 -0.72237138339E+03  0.13484586562E+04  0.16189209881E+04  0.50400001928E-02 0. -1.
</event>
<event>
 5   0  0.6984466E-06  0.1899635E+04  0.7818609E-02  0.8655038E-01
       -2   -1    0    0    0  501  0.00000000000E+00  0.00000000000E+00  0.94478043189E+03  0.94478043189E+03  0.25500000920E-02 0.  1.
        2   -1    0    0  501    0  0.00000000000E+00  0.00000000000E+00 -0.95488185932E+03  0.95488185932E+03  0.25500000920E-02 0. -1.
    10030    2    1    2    0    0  0.00000000000E+00  0.00000000000E+00 -0.10101427430E+02  0.18996622912E+04  0.18996354339E+04 0.  0.
        2    1    3    3  502    0  0.74021431255E+03  0.58513289814E+03 -0.11393732305E+03  0.95041014861E+03  0.25500000920E-02 0. -1.
       -2    1    3    3    0  502 -0.74021431255E+03 -0.58513289814E+03  0.10383589562E+03  0.94925214260E+03  0.25500000920E-02 0.  1.
</event>
<event>
 5   0  0.3495279E-06  0.1899671E+04  0.7818609E-02  0.8655020E-01
        1   -1    0    0  501    0  0.00000000000E+00  0.00000000000E+00  0.96965804934E+03  0.96965804935E+03  0.50400001928E-02 0.  1.
       -1   -1    0    0    0  501  0.00000000000E+00  0.00000000000E+00 -0.93041827430E+03  0.93041827431E+03  0.50400001928E-02 0. -1.
    10030    2    1    2    0    0  0.00000000000E+00  0.00000000000E+00  0.39239775043E+02  0.19000763237E+04  0.18996710967E+04 0.  0.
        2    1    3    3  502    0 -0.92448282514E+03 -0.75353495242E+02  0.22421406671E+03  0.95426337609E+03  0.25500000920E-02 0.  1.
       -2    1    3    3    0  502  0.92448282514E+03  0.75353495242E+02 -0.18497429166E+03  0.94581294758E+03  0.25500000920E-02 0. -1.
</event>
<event>
 5   0  0.3211263E-06  0.1900130E+04  0.7818609E-02  0.8654791E-01
        1   -1    0    0  501    0  0.00000000000E+00  0.00000000000E+00  0.15602068135E+04  0.15602068135E+04  0.50400001928E-02 0.  1.
       -1   -1    0    0    0  501  0.00000000000E+00  0.00000000000E+00 -0.57852839945E+03  0.57852839947E+03  0.50400001928E-02 0. -1.
    10030    2    1    2    0    0  0.00000000000E+00  0.00000000000E+00  0.98167841407E+03  0.21387352130E+04  0.19001304699E+04 0.  0.
        5    1    3    3  502    0 -0.19141344092E+03  0.76659400830E+03  0.10846216848E+04  0.13419134726E+04  0.46999998093E+01 0.  1.
       -5    1    3    3    0  502  0.19141344092E+03 -0.76659400830E+03 -0.10294327073E+03  0.79682174036E+03  0.46999998093E+01 0. -1.
</event>
<event>
 5   0  0.6870370E-06  0.1900605E+04  0.7818609E-02  0.8654555E-01
        2   -1    0    0  501    0  0.00000000000E+00  0.00000000000E+00  0.53175637446E+03  0.53175637447E+03  0.25500000920E-02 0. -1.
       -2   -1    0    0    0  501  0.00000000000E+00  0.00000000000E+00 -0.16982863816E+04  0.16982863816E+04  0.25500000920E-02 0.  1.
    10030    2    1    2    0    0  0.00000000000E+00  0.00000000000E+00 -0.11665300072E+04  0.22300427561E+04  0.19006047554E+04 0.  0.
        1    1    3    3  502    0  0.67248668774E+03  0.36141625729E+03  0.80694988289E+02  0.76770550172E+03  0.50400001928E-02 0. -1.
       -1    1    3    3    0  502 -0.67248668774E+03 -0.36141625729E+03 -0.12472249954E+04  0.14623372544E+04  0.50400001928E-02 0.  1.
</event>
<event>
 5   0  0.6870370E-06  0.1900073E+04  0.7818609E-02  0.8654820E-01
        2   -1    0    0  501    0  0.00000000000E+00  0.00000000000E+00  0.10171934658E+04  0.10171934658E+04  0.25500000920E-02 0.  1.
       -2   -1    0    0    0  501  0.00000000000E+00  0.00000000000E+00 -0.88731316548E+03  0.88731316548E+03  0.25500000920E-02 0. -1.
    10030    2    1    2    0    0  0.00000000000E+00  0.00000000000E+00  0.12988030034E+03  0.19045066313E+04  0.19000727924E+04 0.  0.
        1    1    3    3  502    0  0.86234805504E+03 -0.17664860757E+03 -0.29327350665E+03  0.92782447064E+03  0.50400001928E-02 0. -1.
       -1    1    3    3    0  502 -0.86234805504E+03  0.17664860757E+03  0.42315380699E+03  0.97668216067E+03  0.50400001928E-02 0.  1.
</event>
<event>
 5   0  0.6984466E-06  0.1903293E+04  0.7818609E-02  0.8653219E-01
        2   -1    0    0  501    0  0.00000000000E+00  0.00000000000E+00  0.13396537333E+04  0.13396537333E+04  0.25500000920E-02 0.  1.
       -2   -1    0    0    0  501  0.00000000000E+00  0.00000000000E+00 -0.67601864471E+03  0.67601864471E+03  0.25500000920E-02 0. -1.
    10030    2    1    2    0    0  0.00000000000E+00  0.00000000000E+00  0.66363508859E+03  0.20156723780E+04  0.19032928321E+04 0.  0.
        2    1    3    3  502    0  0.95828310705E+02 -0.94620147872E+03  0.36774083242E+03  0.10196634853E+04  0.25500000920E-02 0. -1.
       -2    1    3    3    0  502 -0.95828310705E+02  0.94620147872E+03  0.29589425617E+03  0.99600889269E+03  0.25500000920E-02 0.  1.
</event>
<event>
 5   0  0.7577180E-06  0.1900412E+04  0.7818609E-02  0.8654651E-01
        2   -1    0    0  501    0  0.00000000000E+00  0.00000000000E+00  0.88761291974E+03  0.88761291975E+03  0.25500000920E-02 0. -1.
       -2   -1    0    0    0  501  0.00000000000E+00  0.00000000000E+00 -0.10172130161E+04  0.10172130161E+04  0.25500000920E-02 0.  1.
    10030    2    1    2    0    0  0.00000000000E+00  0.00000000000E+00 -0.12960009639E+03  0.19048259359E+04  0.19004119714E+04 0.  0.
        5    1    3    3  502    0 -0.45015067810E+03 -0.53572906763E+03 -0.70912127551E+03  0.99625114318E+03  0.46999998093E+01 0.  1.
       -5    1    3    3    0  502  0.45015067810E+03  0.53572906763E+03  0.57952117912E+03  0.90857479271E+03  0.46999998093E+01 0. -1.
</event>
<event>
 5   0  0.3379108E-06  0.1900123E+04  0.7818609E-02  0.8654795E-01
        1   -1    0    0  501    0  0.00000000000E+00  0.00000000000E+00  0.28276319367E+04  0.28276319367E+04  0.50400001928E-02 0.  1.
       -1   -1    0    0    0  501  0.00000000000E+00  0.00000000000E+00 -0.31921296511E+03  0.31921296515E+03  0.50400001928E-02 0. -1.
    10030    2    1    2    0    0  0.00000000000E+00  0.00000000000E+00  0.25084189716E+04  0.31468449019E+04  0.19001229169E+04 0.  0.
        4    1    3    3  502    0  0.21365054646E+03  0.85041359860E+03  0.18599204073E+04  0.20562478885E+04  0.12699999809E+01 0.  1.
       -4    1    3    3    0  502 -0.21365054646E+03 -0.85041359860E+03  0.64849856428E+03  0.10905970133E+04  0.12699999809E+01 0. -1.
</event>
<event>
 5   0  0.6870370E-06  0.1899110E+04  0.7818609E-02  0.8655300E-01
        2   -1    0    0  501    0  0.00000000000E+00  0.00000000000E+00  0.66523735076E+03  0.66523735076E+03  0.25500000920E-02 0. -1.
       -2   -1    0    0    0  501  0.00000000000E+00  0.00000000000E+00 -0.13553877648E+04  0.13553877648E+04  0.25500000920E-02 0.  1.
    10030    2    1    2    0    0  0.00000000000E+00  0.00000000000E+00 -0.69015041405E+03  0.20206251156E+04  0.18991098609E+04 0.  0.
        1    1    3    3  502    0 -0.37810816628E+03  0.41415234635E+03  0.47022271440E+03  0.73184516979E+03  0.50400001928E-02 0. -1.
       -1    1    3    3    0  502  0.37810816628E+03 -0.41415234635E+03 -0.11603731285E+04  0.12887799458E+04  0.50400001928E-02 0.  1.
</event>
<event>
 5   0  0.3398807E-06  0.1899744E+04  0.7818609E-02  0.8654984E-01
        1   -1    0    0  501    0  0.00000000000E+00  0.00000000000E+00  0.78434761413E+03  0.78434761415E+03  0.50400001928E-02 0.  1.
       -1   -1    0    0    0  501  0.00000000000E+00  0.00000000000E+00 -0.11503272469E+04  0.11503272469E+04  0.50400001928E-02 0. -1.
    10030    2    1    2    0    0  0.00000000000E+00  0.00000000000E+00 -0.36597963278E+03  0.19346748611E+04  0.18997435949E+04 0.  0.
        1    1    3    3  502    0  0.69649293134E+03  0.64018469311E+03 -0.95874013548E+02  0.95085786067E+03  0.50400001928E-02 0.  1.
       -1    1    3    3    0  502 -0.69649293134E+03 -0.64018469311E+03 -0.27010561924E+03  0.98381700040E+03  0.50400001928E-02 0. -1.
</event>
<event>
 5   0  0.3495279E-06  0.1899032E+04  0.7818609E-02  0.8655339E-01
       -1   -1    0    0    0  501  0.00000000000E+00  0.00000000000E+00  0.10467472975E+04  0.10467472975E+04  0.50400001928E-02 0. -1.
        1   -1    0    0  501    0  0.00000000000E+00  0.00000000000E+00 -0.86131604080E+03  0.86131604081E+03  0.50400001928E-02 0.  1.
    10030    2    1    2    0    0  0.00000000000E+00  0.00000000000E+00  0.18543125673E+03  0.19080633384E+04  0.18990315827E+04 0.  0.
        2    1    3    3  502    0 -0.15125559304E+03 -0.45563182144E+03  0.91581969116E+03  0.10340233643E+04  0.25500000920E-02 0. -1.
       -2    1    3    3    0  502  0.15125559304E+03  0.45563182144E+03 -0.73038843443E+03  0.87403997408E+03  0.25500000920E-02 0.  1.
</event>
<event>
 5   0  0.3398807E-06  0.1908633E+04  0.7818609E-02  0.8650571E-01
       -1   -1    0    0    0  501  0.00000000000E+00  0.00000000000E+00  0.10258848178E+04  0.10258848178E+04  0.50400001928E-02 0.  1.
        1   -1    0    0  501    0  0.00000000000E+00  0.00000000000E+00 -0.88774064712E+03  0.88774064714E+03  0.50400001928E-02 0. -1.
    10030    2    1    2    0    0  0.00000000000E+00  0.00000000000E+00  0.13814417071E+03  0.19136254650E+04  0.19086326541E+04 0.  0.
        1    1    3    3  502    0 -0.11002977661E+03  0.93439319076E+03 -0.91103346484E+02  0.94524970587E+03  0.50400001928E-02 0. -1.
       -1    1    3    3    0  502  0.11002977661E+03 -0.93439319076E+03  0.22924751720E+03  0.96837575912E+03  0.50400001928E-02 0.  1.
</event>
<event>
 5   0  0.3211263E-06  0.1898134E+04  0.7818609E-02  0.8655786E-01
       -1   -1    0    0    0  501  0.00000000000E+00  0.00000000000E+00  0.87561453779E+03  0.87561453780E+03  0.50400001928E-02 0.  1.
        1   -1    0    0  501    0  0.00000000000E+00  0.00000000000E+00 -0.10286813120E+04  0.10286813121E+04  0.50400001928E-02 0. -1.
    10030    2    1    2    0    0  0.00000000000E+00  0.00000000000E+00 -0.15306677425E+03  0.19042958499E+04  0.18981341487E+04 0.  0.
        5    1    3    3  502    0  0.87375066747E+02  0.93572854046E+03  0.56122612751E+02  0.94148507231E+03  0.46999998093E+01 0.  1.
       -5    1    3    3    0  502 -0.87375066747E+02 -0.93572854046E+03 -0.20918938700E+03  0.96281077754E+03  0.46999998093E+01 0. -1.
</event>
<event>
 5   0  0.3495279E-06  0.1900342E+04  0.7818609E-02  0.8654686E-01
        1   -1    0    0  501    0  0.00000000000E+00  0.00000000000E+00  0.82033035155E+03  0.82033035157E+03  0.50400001928E-02 0. -1.
       -1   -1    0    0    0  501  0.00000000000E+00  0.00000000000E+00 -0.11005627376E+04  0.11005627376E+04  0.50400001928E-02 0.  1.
    10030    2    1    2    0    0  0.00000000000E+00  0.00000000000E+00 -0.28023238601E+03  0.19208930891E+04  0.19003420928E+04 0.  0.
        2    1    3    3  502    0 -0.32096234626E+03  0.85555731816E+03  0.12314199178E+03  0.92204072715E+03  0.25500000920E-02 0. -1.
       -2    1    3    3    0  502  0.32096234626E+03 -0.85555731816E+03 -0.40337437779E+03  0.99885236199E+03  0.25500000920E-02 0.  1.
</event>
<event>
 5   0  0.6870370E-06  0.1899933E+04  0.7818609E-02  0.8654890E-01
        2   -1    0    0  501    0  0.00000000000E+00  0.00000000000E+00  0.16243979164E+04  0.16243979164E+04  0.25500000920E-02 0. -1.
       -2   -1    0    0    0  501  0.00000000000E+00  0.00000000000E+00 -0.55555130696E+03  0.55555130696E+03  0.25500000920E-02 0.  1.
    10030    2    1    2    0    0  0.00000000000E+00  0.00000000000E+00  0.10688466095E+04  0.21799492234E+04  0.18999330362E+04 0.  0.
        1    1    3    3  502    0  0.82039462246E+03  0.73174285582E+02  0.10775055505E+04  0.13562521978E+04  0.50400001928E-02 0. -1.
       -1    1    3    3    0  502 -0.82039462246E+03 -0.73174285582E+02 -0.86589410850E+01  0.82369702556E+03  0.50400001928E-02 0.  1.
</event>
<event>
 5   0  0.6862201E-06  0.1899360E+04  0.7818609E-02  0.8655175E-01
        2   -1    0    0  501    0  0.00000000000E+00  0.00000000000E+00  0.13121972644E+04  0.13121972644E+04  0.25500000920E-02 0. -1.
       -2   -1    0    0    0  501  0.00000000000E+00  0.00000000000E+00 -0.68731451335E+03  0.68731451335E+03  0.25500000920E-02 0.  1.
    10030    2    1    2    0    0  0.00000000000E+00  0.00000000000E+00  0.62488275105E+03  0.19995117778E+04  0.18993601283E+04 0.  0.
        3    1    3    3  502    0 -0.90317562913E+01  0.10880508244E+03 -0.68068575113E+03  0.68938611864E+03  0.10100000352E+00 0.  1.
       -3    1    3    3    0  502  0.90317562913E+01 -0.10880508244E+03  0.13055685022E+04  0.13101256591E+04  0.10100000352E+00 0. -1.
</event>
<event>
 5   0  0.3398807E-06  0.1901083E+04  0.7818609E-02  0.8654317E-01
        1   -1    0    0  501    0  0.00000000000E+00  0.00000000000E+00  0.69601815333E+03  0.69601815334E+03  0.50400001928E-02 0. -1.
       -1   -1    0    0    0  501  0.00000000000E+00  0.00000000000E+00 -0.12981406270E+04  0.12981406270E+04  0.50400001928E-02 0.  1.
    10030    2    1    2    0    0  0.00000000000E+00  0.00000000000E+00 -0.60212247369E+03  0.19941587804E+04  0.19010833143E+04 0.  0.
        1    1    3    3  502    0 -0.22125017972E+03 -0.74797340217E+03 -0.87090157533E+03  0.11691387455E+04  0.50400001928E-02 0.  1.
       -1    1    3    3    0  502  0.22125017972E+03  0.74797340217E+03  0.26877910164E+03  0.82502003484E+03  0.50400001928E-02 0. -1.
</event>
<event>
 5   0  0.3495279E-06  0.1896494E+04  0.7818609E-02  0.8656603E-01
       -1   -1    0    0    0  501  0.00000000000E+00  0.00000000000E+00  0.46657962928E+03  0.46657962931E+03  0.50400001928E-02 0. -1.
        1   -1    0    0  501    0  0.00000000000E+00  0.00000000000E+00 -0.19271580263E+04  0.19271580263E+04  0.50400001928E-02 0.  1.
    10030    2    1    2    0    0  0.00000000000E+00  0.00000000000E+00 -0.14605783970E+04  0.23937376556E+04  0.18964943211E+04 0.  0.
        2    1    3    3  502    0 -0.85494702797E+02  0.77184012726E+03 -0.43436852180E+02  0.77777457299E+03  0.25500000920E-02 0. -1.
       -2    1    3    3    0  502  0.85494702797E+02 -0.77184012726E+03 -0.14171415448E+04  0.16159630826E+04  0.25500000920E-02 0.  1.
</event>
<event>
 5   0  0.2527750E-06  0.1900118E+04  0.7818609E-02  0.8654798E-01
       -3   -1    0    0    0  501  0.00000000000E+00  0.00000000000E+00  0.86564741842E+03  0.86564742431E+03  0.10100000352E+00 0. -1.
        3   -1    0    0  501    0  0.00000000000E+00  0.00000000000E+00 -0.10427015679E+04  0.10427015728E+04  0.10100000352E+00 0.  1.
    10030    2    1    2    0    0  0.00000000000E+00  0.00000000000E+00 -0.17705414945E+03  0.19083489971E+04  0.19001178181E+04 0.  0.
        5    1    3    3  502    0 -0.28615138603E+03  0.30577629134E+03  0.76793200857E+03  0.87471333353E+03  0.46999998093E+01 0. -1.
       -5    1    3    3    0  502  0.28615138603E+03 -0.30577629134E+03 -0.94498615802E+03  0.10336356635E+04  0.46999998093E+01 0.  1.
</event>
<event>
 5   0  0.3398807E-06  0.1899609E+04  0.7818609E-02  0.8655051E-01
       -1   -1    0    0    0  501  0.00000000000E+00  0.00000000000E+00  0.89720833009E+03  0.89720833010E+03  0.50400001928E-02 0. -1.
        1   -1    0    0  501    0  0.00000000000E+00  0.00000000000E+00 -0.10054835231E+04  0.10054835231E+04  0.50400001928E-02 0.  1.
    10030    2    1    2    0    0  0.00000000000E+00  0.00000000000E+00 -0.10827519300E+03  0.19026918532E+04  0.18996085836E+04 0.  0.
        1    1    3    3  502    0  0.15188496519E+03  0.28041511547E+03  0.84198012951E+03  0.90035116380E+03  0.50400001928E-02 0. -1.
       -1    1    3    3    0  502 -0.15188496519E+03 -0.28041511547E+03 -0.95025532251E+03  0.10023406894E+04  0.50400001928E-02 0.  1.
</event>
<event>
 5   0  0.3379108E-06  0.1899981E+04  0.7818609E-02  0.8654866E-01
        1   -1    0    0  501    0  0.00000000000E+00  0.00000000000E+00  0.16639678821E+04  0.16639678821E+04  0.50400001928E-02 0.  1.
       -1   -1    0    0    0  501  0.00000000000E+00  0.00000000000E+00 -0.54236736521E+03  0.54236736523E+03  0.50400001928E-02 0. -1.
    10030    2    1    2    0    0  0.00000000000E+00  0.00000000000E+00  0.11216005169E+04  0.22063352474E+04  0.18999809221E+04 0.  0.
        4    1    3    3  502    0 -0.68556334028E+03 -0.63997171712E+03  0.73660217662E+03  0.11925373251E+04  0.12699999809E+01 0. -1.
       -4    1    3    3    0  502  0.68556334028E+03  0.63997171712E+03  0.38499834029E+03  0.10137979223E+04  0.12699999809E+01 0.  1.
</event>
<event>
 5   0  0.3236653E-06  0.1899182E+04  0.7818609E-02  0.8655263E-01
       -1   -1    0    0    0  501  0.00000000000E+00  0.00000000000E+00  0.47227625095E+03  0.47227625098E+03  0.50400001928E-02 0. -1.
        1   -1    0    0  501    0  0.00000000000E+00  0.00000000000E+00 -0.19093134405E+04  0.19093134405E+04  0.50400001928E-02 0.  1.
    10030    2    1    2    0    0  0.00000000000E+00  0.00000000000E+00 -0.14370371895E+04  0.23815896915E+04  0.18991823437E+04 0.  0.
        3    1    3    3  502    0 -0.61713107441E+03  0.32195779922E+03  0.91473255153E+02  0.70205053528E+03  0.10100000352E+00 0. -1.
       -3    1    3    3    0  502  0.61713107441E+03 -0.32195779922E+03 -0.15285104447E+04  0.16795391562E+04  0.10100000352E+00 0.  1.
</event>
<event>
 5   0  0.6870370E-06  0.1899829E+04  0.7818609E-02  0.8654942E-01
       -2   -1    0    0    0  501  0.00000000000E+00  0.00000000000E+00  0.64153716671E+03  0.64153716671E+03  0.25500000920E-02 0.  1.
        2   -1    0    0  501    0  0.00000000000E+00  0.00000000000E+00 -0.14065237435E+04  0.14065237435E+04  0.25500000920E-02 0. -1.
    10030    2    1    2    0    0  0.00000000000E+00  0.00000000000E+00 -0.76498657677E+03  0.20480609102E+04  0.18998286842E+04 0.  0.
        1    1    3    3  502    0  0.50493166609E+03 -0.35627432397E+03 -0.11602036457E+04  0.13145188781E+04  0.50400001928E-02 0. -1.
       -1    1    3    3    0  502 -0.50493166609E+03  0.35627432397E+03  0.39521706889E+03  0.73354203213E+03  0.50400001928E-02 0.  1.
</event>
<event>
 5   0  0.3211263E-06  0.1900973E+04  0.7818609E-02  0.8654372E-01
        1   -1    0    0  501    0  0.00000000000E+00  0.00000000000E+00  0.12689765404E+04  0.12689765404E+04  0.50400001928E-02 0. -1.
       -1   -1    0    0    0  501  0.00000000000E+00  0.00000000000E+00 -0.71193155096E+03  0.71193155098E+03  0.50400001928E-02 0.  1.
    10030    2    1    2    0    0  0.00000000000E+00  0.00000000000E+00  0.55704498944E+03  0.19809080914E+04  0.19009728421E+04 0.  0.
        5    1    3    3  502    0  0.12511648918E+03 -0.79903707539E+03  0.79880481434E+03  0.11367610150E+04  0.46999998093E+01 0. -1.
       -5    1    3    3    0  502 -0.12511648918E+03  0.79903707539E+03 -0.24175982489E+03  0.84414707643E+03  0.46999998093E+01 0.  1.
</event>
<event>
 5   0  0.6984466E-06  0.1899394E+04  0.7818609E-02  0.8655158E-01
       -2   -1    0    0    0  501  0.00000000000E+00  0.00000000000E+00  0.57793764716E+03  0.57793764717E+03  0.25500000920E-02 0.  1.
        2   -1    0    0  501    0  0.00000000000E+00  0.00000000000E+00 -0.15605912842E+04  0.15605912843E+04  0.25500000920E-02 0. -1.
    10030    2    1    2    0    0  0.00000000000E+00  0.00000000000E+00 -0.98265363709E+03  0.21385289314E+04  0.18993940665E+04 0.  0.
        2    1    3    3  502    0  0.56428246349E+03 -0.19023709469E+03 -0.13242799307E+04  0.14520062623E+04  0.25500000920E-02 0. -1.
       -2    1    3    3    0  502 -0.56428246349E+03  0.19023709469E+03  0.34162629360E+03  0.68652266917E+03  0.25500000920E-02 0.  1.
</event>
<event>
 5   0  0.3379108E-06  0.1900931E+04  0.7818609E-02  0.8654393E-01
       -1   -1    0    0    0  501  0.00000000000E+00  0.00000000000E+00  0.12481612183E+04  0.12481612184E+04  0.50400001928E-02 0.  1.
        1   -1    0    0  501    0  0.00000000000E+00  0.00000000000E+00 -0.72377267623E+03  0.72377267625E+03  0.50400001928E-02 0. -1.
    10030    2    1    2    0    0  0.00000000000E+00  0.00000000000E+00  0.52438854211E+03  0.19719338946E+04  0.19009313353E+04 0.  0.
        4    1    3    3  502    0 -0.74325078448E+03 -0.59236258255E+03  0.27076198226E+03  0.98824532469E+03  0.12699999809E+01 0. -1.
       -4    1    3    3    0  502  0.74325078448E+03  0.59236258255E+03  0.25362655985E+03  0.98368856992E+03  0.12699999809E+01 0.  1.
</event>
<event>
 5   0  0.6862201E-06  0.1898481E+04  0.7818609E-02  0.8655613E-01
       -2   -1    0    0    0  501  0.00000000000E+00  0.00000000000E+00  0.93767961082E+03  0.93767961082E+03  0.25500000920E-02 0. -1.
        2   -1    0    0  501    0  0.00000000000E+00  0.00000000000E+00 -0.96094393717E+03  0.96094393717E+03  0.25500000920E-02 0.  1.
    10030    2    1    2    0    0  0.00000000000E+00  0.00000000000E+00 -0.23264326346E+02  0.18986235480E+04  0.18984810107E+04 0.  0.
        3    1    3    3  502    0  0.23879666626E+02 -0.25717976886E+03 -0.92512608450E+03  0.96050505174E+03  0.10100000352E+00 0.  1.
       -3    1    3    3    0  502 -0.23879666626E+02  0.25717976886E+03  0.90186175815E+03  0.93811849625E+03  0.10100000352E+00 0. -1.
</event>
<event>
 5   0  0.3398807E-06  0.1900699E+04  0.7818609E-02  0.8654508E-01
        1   -1    0    0  501    0  0.00000000000E+00  0.00000000000E+00  0.98753454527E+03  0.98753454528E+03  0.50400001928E-02 0. -1.
       -1   -1    0    0    0  501  0.00000000000E+00  0.00000000000E+00 -0.91456477414E+03  0.91456477415E+03  0.50400001928E-02 0.  1.
    10030    2    1    2    0    0  0.00000000000E+00  0.00000000000E+00  0.72969771136E+02  0.19020993194E+04  0.19006991433E+04 0.  0.
        1    1    3    3  502    0 -0.24763912662E+03  0.54948951563E+03  0.77180535084E+03  0.97925857894E+03  0.50400001928E-02 0. -1.
       -1    1    3    3    0  502  0.24763912662E+03 -0.54948951563E+03 -0.69883557971E+03  0.92284074049E+03  0.50400001928E-02 0.  1.
</event>
<event>
 5   0  0.6862201E-06  0.1899645E+04  0.7818609E-02  0.8655033E-01
       -2   -1    0    0    0  501  0.00000000000E+00  0.00000000000E+00  0.55369504876E+03  0.55369504876E+03  0.25500000920E-02 0.  1.
        2   -1    0    0  501    0  0.00000000000E+00  0.00000000000E+00 -0.16293501973E+04  0.16293501973E+04  0.25500000920E-02 0. -1.
    10030    2    1    2    0    0  0.00000000000E+00  0.00000000000E+00 -0.10756551486E+04  0.21830452461E+04  0.18996453742E+04 0.  0.
        3    1    3    3  502    0 -0.91886670233E+03  0.28561897392E+02 -0.26338786836E+03  0.95629753635E+03  0.10100000352E+00 0. -1.
       -3    1    3    3    0  502  0.91886670233E+03 -0.28561897392E+02 -0.81226728020E+03  0.12267477097E+04  0.10100000352E+00 0.  1.
</event>
<event>
 5   0  0.3236653E-06  0.1898205E+04  0.7818609E-02  0.8655750E-01
        1   -1    0    0  501    0  0.00000000000E+00  0.00000000000E+00  0.14192476283E+04  0.14192476283E+04  0.50400001928E-02 0.  1.
       -1   -1    0    0    0  501  0.00000000000E+00  0.00000000000E+00 -0.63469943280E+03  0.63469943282E+03  0.50400001928E-02 0. -1.
    10030    2    1    2    0    0  0.00000000000E+00  0.00000000000E+00  0.78454819550E+03  0.20539470611E+04  0.18982051151E+04 0.  0.
        3    1    3    3  502    0 -0.40086652431E+03 -0.23638834783E+03  0.12873187406E+04  0.13688546203E+04  0.10100000352E+00 0.  1.
       -3    1    3    3    0  502  0.40086652431E+03  0.23638834783E+03 -0.50277054511E+03  0.68509244087E+03  0.10100000352E+00 0. -1.
</event>
<event>
 5   0  0.3211263E-06  0.1899543E+04  0.7818609E-02  0.8655084E-01
       -1   -1    0    0    0  501  0.00000000000E+00  0.00000000000E+00  0.10883335352E+04  0.10883335352E+04  0.50400001928E-02 0.  1.
        1   -1    0    0  501    0  0.00000000000E+00  0.00000000000E+00 -0.82885034139E+03  0.82885034141E+03  0.50400001928E-02 0. -1.
    10030    2    1    2    0    0  0.00000000000E+00  0.00000000000E+00  0.25948319381E+03  0.19171838766E+04  0.18995427052E+04 0.  0.
        5    1    3    3  502    0 -0.91710974931E+03 -0.24386949954E+03  0.16858154310E+03  0.96384877017E+03  0.46999998093E+01 0.  1.
       -5    1    3    3    0  502  0.91710974931E+03  0.24386949954E+03  0.90901650715E+02  0.95333510645E+03  0.46999998093E+01 0. -1.
</event>
<event>
 5   0  0.3236653E-06  0.1899980E+04  0.7818609E-02  0.8654867E-01
        1   -1    0    0  501    0  0.00000000000E+00  0.00000000000E+00  0.11439582637E+04  0.11439582637E+04  0.50400001928E-02 0.  1.
       -1   -1    0    0    0  501  0.00000000000E+00  0.00000000000E+00 -0.78891044283E+03  0.78891044285E+03  0.50400001928E-02 0. -1.
    10030    2    1    2    0    0  0.00000000000E+00  0.00000000000E+00  0.35504782085E+03  0.19328687065E+04  0.18999796003E+04 0.  0.
        3    1    3    3  502    0  0.57930469151E+03 -0.56164051639E+02 -0.58629405703E+03  0.82612895956E+03  0.10100000352E+00 0. -1.
       -3    1    3    3    0  502 -0.57930469151E+03  0.56164051639E+02  0.94134187788E+03  0.11067397470E+04  0.10100000352E+00 0.  1.
</event>
<event>
 5   0  0.7577180E-06  0.1900692E+04  0.7818609E-02  0.8654512E-01
       -2   -1    0    0    0  501  0.00000000000E+00  0.00000000000E+00  0.68255014881E+03  0.68255014881E+03  0.25500000920E-02 0. -1.
        2   -1    0    0  501    0  0.00000000000E+00  0.00000000000E+00 -0.13232099210E+04  0.13232099210E+04  0.25500000920E-02 0.  1.
    10030    2    1    2    0    0  0.00000000000E+00  0.00000000000E+00 -0.64065977216E+03  0.20057600698E+04  0.19006915883E+04 0.  0.
        5    1    3    3  502    0  0.32788614516E+03 -0.48019458688E+02  0.61959140627E+03  0.70265979914E+03  0.46999998093E+01 0. -1.
       -5    1    3    3    0  502 -0.32788614516E+03  0.48019458688E+02 -0.12602511784E+04  0.13031002706E+04  0.46999998093E+01 0.  1.
</event>
<event>
 5   0  0.6870370E-06  0.1900164E+04  0.7818609E-02  0.8654775E-01
       -2   -1    0    0    0  501  0.00000000000E+00  0.00000000000E+00  0.54323609869E+03  0.54323609870E+03  0.25500000920E-02 0. -1.
        2   -1    0    0  501    0  0.00000000000E+00  0.00000000000E+00 -0.16616275353E+04  0.16616275353E+04  0.25500000920E-02 0.  1.
    10030    2    1    2    0    0  0.00000000000E+00  0.00000000000E+00 -0.11183914366E+04  0.22048636340E+04  0.19001642663E+04 0.  0.
        1    1    3    3  502    0 -0.29858552214E+03  0.68347913714E+03 -0.12420905652E+04  0.14488222863E+04  0.50400001928E-02 0.  1.
       -1    1    3    3    0  502  0.29858552214E+03 -0.68347913714E+03  0.12369912868E+03  0.75604134768E+03  0.50400001928E-02 0. -1.
</event>
<event>
 5   0  0.6870370E-06  0.1900191E+04  0.7818609E-02  0.8654761E-01
       -2   -1    0    0    0  501  0.00000000000E+00  0.00000000000E+00  0.64065761936E+03  0.64065761937E+03  0.25500000920E-02 0.  1.
        2   -1    0    0  501    0  0.00000000000E+00  0.00000000000E+00 -0.14089917038E+04  0.14089917038E+04  0.25500000920E-02 0. -1.
    10030    2    1    2    0    0  0.00000000000E+00  0.00000000000E+00 -0.76833408448E+03  0.20496493232E+04  0.19001908017E+04 0.  0.
        1    1    3    3  502    0  0.51666790813E+02 -0.83108349295E+03 -0.87765829424E+03  0.12098154037E+04  0.50400001928E-02 0. -1.
       -1    1    3    3    0  502 -0.51666790813E+02  0.83108349295E+03  0.10932420976E+03  0.83983391953E+03  0.50400001928E-02 0.  1.
</event>
<event>
 5   0  0.3495279E-06  0.1908503E+04  0.7818609E-02  0.8650636E-01
        1   -1    0    0  501    0  0.00000000000E+00  0.00000000000E+00  0.10889543771E+04  0.10889543771E+04  0.50400001928E-02 0. -1.
       -1   -1    0    0    0  501  0.00000000000E+00  0.00000000000E+00 -0.83621105434E+03  0.83621105436E+03  0.50400001928E-02 0.  1.
    10030    2    1    2    0    0  0.00000000000E+00  0.00000000000E+00  0.25274332274E+03  0.19251654315E+04  0.19085027512E+04 0.  0.
        2    1    3    3  502    0  0.91599176962E+03 -0.18804358267E+03  0.31828087075E+03  0.98777731483E+03  0.25500000920E-02 0. -1.
       -2    1    3    3    0  502 -0.91599176962E+03  0.18804358267E+03 -0.65537548006E+02  0.93738811663E+03  0.25500000920E-02 0.  1.
</event>
<event>
 5   0  0.2527750E-06  0.1900507E+04  0.7818609E-02  0.8654604E-01
       -4   -1    0    0    0  501  0.00000000000E+00  0.00000000000E+00  0.15958493903E+04  0.15958498956E+04  0.12699999809E+01 0.  1.
        4   -1    0    0  501    0  0.00000000000E+00  0.00000000000E+00 -0.56583027856E+03  0.56583170381E+03  0.12699999809E+01 0. -1.
    10030    2    1    2    0    0  0.00000000000E+00  0.00000000000E+00  0.10300191117E+04  0.21616815994E+04  0.19005072920E+04 0.  0.
        5    1    3    3  502    0  0.70958603402E+03 -0.36499039524E+03  0.11018909396E+04  0.13604837600E+04  0.46999998093E+01 0.  1.
       -5    1    3    3    0  502 -0.70958603402E+03  0.36499039524E+03 -0.71871827935E+02  0.80119783945E+03  0.46999998093E+01 0. -1.
</event>
<event>
 5   0  0.6984466E-06  0.1899641E+04  0.7818609E-02  0.8655035E-01
        2   -1    0    0  501    0  0.00000000000E+00  0.00000000000E+00  0.27848255946E+04  0.27848255946E+04  0.25500000920E-02 0. -1.
       -2   -1    0    0    0  501  0.00000000000E+00  0.00000000000E+00 -0.32395541141E+03  0.32395541142E+03  0.25500000920E-02 0.  1.
    10030    2    1    2    0    0  0.00000000000E+00  0.00000000000E+00  0.24608701832E+04  0.31087810060E+04  0.18996413569E+04 0.  0.
        2    1    3    3  502    0 -0.39890602480E+02  0.94881210520E+03  0.12598763509E+04  0.15776958169E+04  0.25500000920E-02 0.  1.
       -2    1    3    3    0  502  0.39890602480E+02 -0.94881210520E+03  0.12009938323E+04  0.15310851891E+04  0.25500000920E-02 0. -1.
</event>
<event>
 5   0  0.3211263E-06  0.1900285E+04  0.7818609E-02  0.8654715E-01
       -1   -1    0    0    0  501  0.00000000000E+00  0.00000000000E+00  0.12459067239E+04  0.12459067239E+04  0.50400001928E-02 0.  1.
        1   -1    0    0  501    0  0.00000000000E+00  0.00000000000E+00 -0.72458940971E+03  0.72458940973E+03  0.50400001928E-02 0. -1.
    10030    2    1    2    0    0  0.00000000000E+00  0.00000000000E+00  0.52131731420E+03  0.19704961337E+04  0.19002850498E+04 0.  0.
        5    1    3    3  502    0  0.41793316428E+03  0.78876789756E+03 -0.76828860968E+02  0.89596187971E+03  0.46999998093E+01 0. -1.
       -5    1    3    3    0  502 -0.41793316428E+03 -0.78876789756E+03  0.59814617517E+03  0.10745342539E+04  0.46999998093E+01 0.  1.
</event>
<event>
 5   0  0.3379108E-06  0.1899950E+04  0.7818609E-02  0.8654881E-01
        1   -1    0    0  501    0  0.00000000000E+00  0.00000000000E+00  0.14383596152E+04  0.14383596152E+04  0.50400001928E-02 0. -1.
       -1   -1    0    0    0  501  0.00000000000E+00  0.00000000000E+00 -0.62741761153E+03  0.62741761155E+03  0.50400001928E-02 0.  1.
    10030    2    1    2    0    0  0.00000000000E+00  0.00000000000E+00  0.81094200366E+03  0.20657772268E+04  0.18999496355E+04 0.  0.
        4    1    3    3  502    0  0.40407802107E+03 -0.82541435522E+03  0.14392956462E+03  0.93021784405E+03  0.12699999809E+01 0.  1.
       -4    1    3    3    0  502 -0.40407802107E+03  0.82541435522E+03  0.66701243904E+03  0.11355593827E+04  0.12699999809E+01 0. -1.
</event>
<event>
 5   0  0.3236653E-06  0.1899251E+04  0.7818609E-02  0.8655229E-01
        1   -1    0    0  501    0  0.00000000000E+00  0.00000000000E+00  0.57133426719E+03  0.57133426721E+03  0.50400001928E-02 0.  1.
       -1   -1    0    0    0  501  0.00000000000E+00  0.00000000000E+00 -0.15783902949E+04  0.15783902949E+04  0.50400001928E-02 0. -1.
    10030    2    1    2    0    0  0.00000000000E+00  0.00000000000E+00 -0.10070560277E+04  0.21497245621E+04  0.18992508655E+04 0.  0.
        3    1    3    3  502    0 -0.17628922676E+02 -0.52431100276E+03  0.39242913862E+03  0.65514383578E+03  0.10100000352E+00 0.  1.
       -3    1    3    3    0  502  0.17628922676E+02  0.52431100276E+03 -0.13994851663E+04  0.14945807263E+04  0.10100000352E+00 0. -1.
</event>
<event>
 5   0  0.3211263E-06  0.1899364E+04  0.7818609E-02  0.8655173E-01
        1   -1    0    0  501    0  0.00000000000E+00  0.00000000000E+00  0.17541598528E+04  0.17541598528E+04  0.50400001928E-02 0. -1.
       -1   -1    0    0    0  501  0.00000000000E+00  0.00000000000E+00 -0.51414707960E+03  0.51414707963E+03  0.50400001928E-02 0.  1.
    10030    2    1    2    0    0  0.00000000000E+00  0.00000000000E+00  0.12400127732E+04  0.22683069325E+04  0.18993642784E+04 0.  0.
        5    1    3    3  502    0  0.10766710625E+03  0.35471133865E+03 -0.42416413987E+03  0.56333795104E+03  0.46999998093E+01 0.  1.
       -5    1    3    3    0  502 -0.10766710625E+03 -0.35471133865E+03  0.16641769131E+04  0.17049689814E+04  0.46999998093E+01 0. -1.
</event>
<event>
 5   0  0.6984466E-06  0.1899442E+04  0.7818609E-02  0.8655134E-01
       -2   -1    0    0    0  501  0.00000000000E+00  0.00000000000E+00  0.37365532112E+03  0.37365532113E+03  0.25500000920E-02 0.  1.
        2   -1    0    0  501    0  0.00000000000E+00  0.00000000000E+00 -0.24139102463E+04  0.24139102463E+04  0.25500000920E-02 0. -1.
    10030    2    1    2    0    0  0.00000000000E+00  0.00000000000E+00 -0.20402549252E+04  0.27875655674E+04  0.18994424532E+04 0.  0.
        2    1    3    3  502    0 -0.73065839593E+03  0.45524331199E+03 -0.43151966409E+03  0.96297320064E+03  0.25500000920E-02 0.  1.
       -2    1    3    3    0  502  0.73065839593E+03 -0.45524331199E+03 -0.16087352611E+04  0.18245923668E+04  0.25500000920E-02 0. -1.
</event>
<event>
 5   0  0.6984466E-06  0.1899708E+04  0.7818609E-02  0.8655002E-01
        2   -1    0    0  501    0  0.00000000000E+00  0.00000000000E+00  0.83808987337E+03  0.83808987337E+03  0.25500000920E-02 0.  1.
       -2   -1    0    0    0  501  0.00000000000E+00  0.00000000000E+00 -0.10765222247E+04  0.10765222247E+04  0.25500000920E-02 0. -1.
    10030    2    1    2    0    0  0.00000000000E+00  0.00000000000E+00 -0.23843235129E+03  0.19146120980E+04  0.18997077406E+04 0.  0.
        2    1    3    3  502    0 -0.79804297626E+03  0.51100744278E+03 -0.53735861052E+02  0.94915159027E+03  0.25500000920E-02 0.  1.
       -2    1    3    3    0  502  0.79804297626E+03 -0.51100744278E+03 -0.18469649023E+03  0.96546050776E+03  0.25500000920E-02 0. -1.
</event>
<event>
 5   0  0.3379108E-06  0.1900870E+04  0.7818609E-02  0.8654423E-01
        1   -1    0    0  501    0  0.00000000000E+00  0.00000000000E+00  0.10999487459E+04  0.10999487459E+04  0.50400001928E-02 0.  1.
       -1   -1    0    0    0  501  0.00000000000E+00  0.00000000000E+00 -0.82124448467E+03  0.82124448468E+03  0.50400001928E-02 0. -1.
    10030    2    1    2    0    0  0.00000000000E+00  0.00000000000E+00  0.27870426125E+03  0.19211932306E+04  0.19008701597E+04 0.  0.
        4    1    3    3  502    0 -0.94864222058E+03  0.48430867671E+02  0.17222084431E+03  0.96536482416E+03  0.12699999809E+01 0. -1.
       -4    1    3    3    0  502  0.94864222058E+03 -0.48430867671E+02  0.10648341694E+03  0.95582840646E+03  0.12699999809E+01 0.  1.
</event>
<event>
 5   0  0.3398807E-06  0.1901394E+04  0.7818609E-02  0.8654163E-01
       -1   -1    0    0    0  501  0.00000000000E+00  0.00000000000E+00  0.85458600921E+03  0.85458600922E+03  0.50400001928E-02 0.  1.
        1   -1    0    0  501    0  0.00000000000E+00  0.00000000000E+00 -0.10576171415E+04  0.10576171415E+04  0.50400001928E-02 0. -1.
    10030    2    1    2    0    0  0.00000000000E+00  0.00000000000E+00 -0.20303113227E+03  0.19122031507E+04  0.19013940278E+04 0.  0.
        1    1    3    3  502    0 -0.55551543682E+03  0.82497345484E+02  0.66993163394E+03  0.87419197361E+03  0.50400001928E-02 0.  1.
       -1    1    3    3    0  502  0.55551543682E+03 -0.82497345484E+02 -0.87296276621E+03  0.10380111771E+04  0.50400001928E-02 0. -1.
</event>
<event>
 5   0  0.3398807E-06  0.1900394E+04  0.7818609E-02  0.8654660E-01
       -1   -1    0    0    0  501  0.00000000000E+00  0.00000000000E+00  0.95701237057E+03  0.95701237058E+03  0.50400001928E-02 0.  1.
        1   -1    0    0  501    0  0.00000000000E+00  0.00000000000E+00 -0.94343036928E+03  0.94343036930E+03  0.50400001928E-02 0. -1.
    10030    2    1    2    0    0  0.00000000000E+00  0.00000000000E+00  0.13582001286E+02  0.19004427399E+04  0.19003942056E+04 0.  0.
        1    1    3    3  502    0 -0.74834181898E+03  0.17273545659E+02  0.59209278462E+03  0.95440437920E+03  0.50400001928E-02 0.  1.
       -1    1    3    3    0  502  0.74834181898E+03 -0.17273545659E+02 -0.57851078333E+03  0.94603836068E+03  0.50400001928E-02 0. -1.
</event>
<event>
 5   0  0.3211263E-06  0.1900239E+04  0.7818609E-02  0.8654738E-01
       -1   -1    0    0    0  501  0.00000000000E+00  0.00000000000E+00  0.59360300307E+03  0.59360300309E+03  0.50400001928E-02 0. -1.
        1   -1    0    0  501    0  0.00000000000E+00  0.00000000000E+00 -0.15207583565E+04  0.15207583565E+04  0.50400001928E-02 0.  1.
    10030    2    1    2    0    0  0.00000000000E+00  0.00000000000E+00 -0.92715535345E+03  0.21143613596E+04  0.19002386454E+04 0.  0.
        5    1    3    3  502    0 -0.25566971557E+03 -0.20531946182E+03  0.52863372970E+03  0.62209227213E+03  0.46999998093E+01 0. -1.
       -5    1    3    3    0  502  0.25566971557E+03  0.20531946182E+03 -0.14557890832E+04  0.14922690875E+04  0.46999998093E+01 0.  1.
</event>
<event>
 5   0  0.6870370E-06  0.1885543E+04  0.7818609E-02  0.8662086E-01
        2   -1    0    0  501    0  0.00000000000E+00  0.00000000000E+00  0.48494968304E+03  0.48494968304E+03  0.25500000920E-02 0.  1.
       -2   -1    0    0    0  501  0.00000000000E+00  0.00000000000E+00 -0.18328051950E+04  0.18328051950E+04  0.25500000920E-02 0. -1.
    10030    2    1    2    0    0  0.00000000000E+00  0.00000000000E+00 -0.13478555119E+04  0.23177548780E+04  0.18855432091E+04 0.  0.
        1    1    3    3  502    0 -0.56498659518E+02 -0.26749009178E+03 -0.17830088200E+04  0.18038468616E+04  0.50400001928E-02 0. -1.
       -1    1    3    3    0  502  0.56498659518E+02  0.26749009178E+03  0.43515330812E+03  0.51390801640E+03  0.50400001928E-02 0.  1.
</event>
<event>
 5   0  0.6862201E-06  0.1900036E+04  0.7818609E-02  0.8654838E-01
        2   -1    0    0  501    0  0.00000000000E+00  0.00000000000E+00  0.13141411270E+04  0.13141411270E+04  0.25500000920E-02 0.  1.
       -2   -1    0    0    0  501  0.00000000000E+00  0.00000000000E+00 -0.68678639926E+03  0.68678639926E+03  0.25500000920E-02 0. -1.
    10030    2    1    2    0    0  0.00000000000E+00  0.00000000000E+00  0.62735472771E+03  0.20009275262E+04  0.19000360552E+04 0.  0.
        3    1    3    3  502    0 -0.15072042372E+03 -0.17547044269E+03  0.12840319247E+04  0.13047009298E+04  0.10100000352E+00 0.  1.
       -3    1    3    3    0  502  0.15072042372E+03  0.17547044269E+03 -0.65667719697E+03  0.69622659645E+03  0.10100000352E+00 0. -1.
</event>
<event>
 5   0  0.6870370E-06  0.1899189E+04  0.7818609E-02  0.8655260E-01
       -2   -1    0    0    0  501  0.00000000000E+00  0.00000000000E+00  0.43992768954E+03  0.43992768954E+03  0.25500000920E-02 0. -1.
        2   -1    0    0  501    0  0.00000000000E+00  0.00000000000E+00 -0.20497214944E+04  0.20497214944E+04  0.25500000920E-02 0.  1.
    10030    2    1    2    0    0  0.00000000000E+00  0.00000000000E+00 -0.16097938049E+04  0.24896491840E+04  0.18991885017E+04 0.  0.
        1    1    3    3  502    0 -0.75239366273E+02 -0.78510537568E+03 -0.14981616261E+04  0.16930858428E+04  0.50400001928E-02 0.  1.
       -1    1    3    3    0  502  0.75239366273E+02  0.78510537568E+03 -0.11163217881E+03  0.79656334119E+03  0.50400001928E-02 0. -1.
</event>
<event>
 5   0  0.6862201E-06  0.1899836E+04  0.7818609E-02  0.8654938E-01
       -2   -1    0    0    0  501  0.00000000000E+00  0.00000000000E+00  0.45550864855E+03  0.45550864855E+03  0.25500000920E-02 0.  1.
        2   -1    0    0  501    0  0.00000000000E+00  0.00000000000E+00 -0.19809594423E+04  0.19809594423E+04  0.25500000920E-02 0. -1.
    10030    2    1    2    0    0  0.00000000000E+00  0.00000000000E+00 -0.15254507938E+04  0.24364680909E+04  0.18998359491E+04 0.  0.
        3    1    3    3  502    0 -0.89395326977E+03  0.31778694181E+03 -0.70252940496E+03  0.11805458754E+04  0.10100000352E+00 0. -1.
       -3    1    3    3    0  502  0.89395326977E+03 -0.31778694181E+03 -0.82292138879E+03  0.12559222154E+04  0.10100000352E+00 0.  1.
</event>
<event>
 5   0  0.7577180E-06  0.1900139E+04  0.7818609E-02  0.8654787E-01
       -2   -1    0    0    0  501  0.00000000000E+00  0.00000000000E+00  0.79929091844E+03  0.79929091844E+03  0.25500000920E-02 0.  1.
        2   -1    0    0  501    0  0.00000000000E+00  0.00000000000E+00 -0.11292907585E+04  0.11292907585E+04  0.25500000920E-02 0. -1.
    10030    2    1    2    0    0  0.00000000000E+00  0.00000000000E+00 -0.32999984004E+03  0.19285816769E+04  0.19001387818E+04 0.  0.
        5    1    3    3  502    0  0.83610992208E+03 -0.45027524902E+03 -0.13661423612E+03  0.95943376071E+03  0.46999998093E+01 0. -1.
       -5    1    3    3    0  502 -0.83610992208E+03  0.45027524902E+03 -0.19338560392E+03  0.96914791621E+03  0.46999998093E+01 0.  1.
</event>
<event>
 5   0  0.2527750E-06  0.1899179E+04  0.7818609E-02  0.8655265E-01
       -4   -1    0    0    0  501  0.00000000000E+00  0.00000000000E+00  0.10197880648E+04  0.10197888556E+04  0.12699999809E+01 0.  1.
        4   -1    0    0  501    0  0.00000000000E+00  0.00000000000E+00 -0.88422143219E+03  0.88422234423E+03  0.12699999809E+01 0. -1.
    10030    2    1    2    0    0  0.00000000000E+00  0.00000000000E+00  0.13556663257E+03  0.19040111998E+04  0.18991788586E+04 0.  0.
        5    1    3    3  502    0 -0.52601797582E+03 -0.46022370300E+03 -0.57665644847E+03  0.90612113828E+03  0.46999998093E+01 0. -1.
       -5    1    3    3    0  502  0.52601797582E+03  0.46022370300E+03  0.71222308104E+03  0.99789006151E+03  0.46999998093E+01 0.  1.
</event>
<event>
 5   0  0.3236653E-06  0.1900121E+04  0.7818609E-02  0.8654796E-01
       -1   -1    0    0    0  501  0.00000000000E+00  0.00000000000E+00  0.11436206127E+04  0.11436206127E+04  0.50400001928E-02 0.  1.
        1   -1    0    0  501    0  0.00000000000E+00  0.00000000000E+00 -0.78926121775E+03  0.78926121776E+03  0.50400001928E-02 0. -1.
    10030    2    1    2    0    0  0.00000000000E+00  0.00000000000E+00  0.35435939490E+03  0.19328818304E+04  0.19001214671E+04 0.  0.
        3    1    3    3  502    0 -0.26348207022E+03 -0.59375956872E+03  0.88241634232E+03  0.10957334704E+04  0.10100000352E+00 0.  1.
       -3    1    3    3    0  502  0.26348207022E+03  0.59375956872E+03 -0.52805694741E+03  0.83714836002E+03  0.10100000352E+00 0. -1.
</event>
<event>
 5   0  0.6870370E-06  0.1899693E+04  0.7818609E-02  0.8655009E-01
        2   -1    0    0  501    0  0.00000000000E+00  0.00000000000E+00  0.24378048129E+04  0.24378048129E+04  0.25500000920E-02 0.  1.
       -2   -1    0    0    0  501  0.00000000000E+00  0.00000000000E+00 -0.37009061316E+03  0.37009061316E+03  0.25500000920E-02 0. -1.
    10030    2    1    2    0    0  0.00000000000E+00  0.00000000000E+00  0.20677141998E+04  0.28078954261E+04  0.18996933205E+04 0.  0.
        1    1    3    3  502    0  0.72667238291E+03 -0.15133674691E+02  0.13001870331E+03  0.73836755307E+03  0.50400001928E-02 0. -1.
       -1    1    3    3    0  502 -0.72667238291E+03  0.15133674691E+02  0.19376954965E+04  0.20695278730E+04  0.50400001928E-02 0.  1.
</event>
<event>
 5   0  0.3236653E-06  0.1903013E+04  0.7818609E-02  0.8653358E-01
       -1   -1    0    0    0  501  0.00000000000E+00  0.00000000000E+00  0.91908937799E+03  0.91908937801E+03  0.50400001928E-02 0.  1.
        1   -1    0    0  501    0  0.00000000000E+00  0.00000000000E+00 -0.98506709629E+03  0.98506709631E+03  0.50400001928E-02 0. -1.
    10030    2    1    2    0    0  0.00000000000E+00  0.00000000000E+00 -0.65977718301E+02  0.19041564743E+04  0.19030130896E+04 0.  0.
        3    1    3    3  502    0 -0.26074070895E+03  0.28318596400E+03  0.83769755792E+03  0.92190954885E+03  0.10100000352E+00 0.  1.
       -3    1    3    3    0  502  0.26074070895E+03 -0.28318596400E+03 -0.90367527623E+03  0.98224692546E+03  0.10100000352E+00 0. -1.
</event>
<event>
 5   0  0.3495279E-06  0.1899518E+04  0.7818609E-02  0.8655096E-01
       -1   -1    0    0    0  501  0.00000000000E+00  0.00000000000E+00  0.10727615946E+04  0.10727615946E+04  0.50400001928E-02 0.  1.
        1   -1    0    0  501    0  0.00000000000E+00  0.00000000000E+00 -0.84085985491E+03  0.84085985493E+03  0.50400001928E-02 0. -1.
    10030    2    1    2    0    0  0.00000000000E+00  0.00000000000E+00  0.23190173968E+03  0.19136214495E+04  0.18995180008E+04 0.  0.
        2    1    3    3  502    0  0.15936000142E+03 -0.29264743800E+03  0.10119383964E+04  0.10653907505E+04  0.25500000920E-02 0.  1.
       -2    1    3    3    0  502 -0.15936000142E+03  0.29264743800E+03 -0.78003665673E+03  0.84823069908E+03  0.25500000920E-02 0. -1.
</event>
<event>
 5   0  0.3379108E-06  0.1899386E+04  0.7818609E-02  0.8655162E-01
        1   -1    0    0  501    0  0.00000000000E+00  0.00000000000E+00  0.19046722262E+04  0.19046722262E+04  0.50400001928E-02 0.  1.
       -1   -1    0    0    0  501  0.00000000000E+00  0.00000000000E+00 -0.47352881915E+03  0.47352881917E+03  0.50400001928E-02 0. -1.
    10030    2    1    2    0    0  0.00000000000E+00  0.00000000000E+00  0.14311434070E+04  0.23782010454E+04  0.18993864169E+04 0.  0.
        4    1    3    3  502    0 -0.50986026642E+02 -0.81209643939E+03  0.13287316106E+04  0.15580852055E+04  0.12699999809E+01 0.  1.
       -4    1    3    3    0  502  0.50986026642E+02  0.81209643939E+03  0.10241179644E+03  0.82011583983E+03  0.12699999809E+01 0. -1.
</event>
<event>
 5   0  0.7207648E-06  0.1899918E+04  0.7818609E-02  0.8654897E-01
        2   -1    0    0  501    0  0.00000000000E+00  0.00000000000E+00  0.20127399179E+04  0.20127399179E+04  0.25500000920E-02 0.  1.
       -2   -1    0    0    0  501  0.00000000000E+00  0.00000000000E+00 -0.44835498720E+03  0.44835498721E+03  0.25500000920E-02 0. -1.
    10030    2    1    2    0    0  0.00000000000E+00  0.00000000000E+00  0.15643849307E+04  0.24610949051E+04  0.18999178721E+04 0.  0.
        4    1    3    3  502    0  0.76385217478E+03 -0.27053441029E+03  0.14243629340E+04  0.16387404897E+04  0.12699999809E+01 0. -1.
       -4    1    3    3    0  502 -0.76385217478E+03  0.27053441029E+03  0.14002199674E+03  0.82235441540E+03  0.12699999809E+01 0.  1.
</event>
<event>
 5   0  0.3211263E-06  0.1899105E+04  0.7818609E-02  0.8655302E-01
        1   -1    0    0  501    0  0.00000000000E+00  0.00000000000E+00  0.13002476578E+04  0.13002476578E+04  0.50400001928E-02 0. -1.
       -1   -1    0    0    0  501  0.00000000000E+00  0.00000000000E+00 -0.69344460759E+03  0.69344460761E+03  0.50400001928E-02 0.  1.
    10030    2    1    2    0    0  0.00000000000E+00  0.00000000000E+00  0.60680305019E+03  0.19936922654E+04  0.18991047647E+04 0.  0.
        5    1    3    3  502    0 -0.67725011277E+03  0.66141260360E+03  0.22559331223E+03  0.97316431294E+03  0.46999998093E+01 0.  1.
       -5    1    3    3    0  502  0.67725011277E+03 -0.66141260360E+03  0.38120973796E+03  0.10205279525E+04  0.46999998093E+01 0. -1.
</event>
<event>
 5   0  0.3211263E-06  0.1891411E+04  0.7818609E-02  0.8659143E-01
       -1   -1    0    0    0  501  0.00000000000E+00  0.00000000000E+00  0.10173684555E+04  0.10173684555E+04  0.50400001928E-02 0. -1.
        1   -1    0    0  501    0  0.00000000000E+00  0.00000000000E+00 -0.87909068107E+03  0.87909068109E+03  0.50400001928E-02 0.  1.
    10030    2    1    2    0    0  0.00000000000E+00  0.00000000000E+00  0.13827777439E+03  0.18964591366E+04  0.18914112492E+04 0.  0.
        5    1    3    3  502    0  0.57597656289E+03  0.74976193689E+03  0.90292002297E+02  0.94977191930E+03  0.46999998093E+01 0.  1.
       -5    1    3    3    0  502 -0.57597656289E+03 -0.74976193689E+03  0.47985772089E+02  0.94668721726E+03  0.46999998093E+01 0. -1.
</event>
<event>
 5   0  0.3211263E-06  0.1900044E+04  0.7818609E-02  0.8654835E-01
       -1   -1    0    0    0  501  0.00000000000E+00  0.00000000000E+00  0.10005521066E+04  0.10005521066E+04  0.50400001928E-02 0.  1.
        1   -1    0    0  501    0  0.00000000000E+00  0.00000000000E+00 -0.90204334801E+03  0.90204334803E+03  0.50400001928E-02 0. -1.
    10030    2    1    2    0    0  0.00000000000E+00  0.00000000000E+00  0.98508758536E+02  0.19025954546E+04  0.19000435491E+04 0.  0.
        5    1    3    3  502    0  0.44846427923E+03  0.10177369654E+02 -0.78930423333E+03  0.90788052702E+03  0.46999998093E+01 0. -1.
       -5    1    3    3    0  502 -0.44846427923E+03 -0.10177369654E+02  0.88781299187E+03  0.99471492757E+03  0.46999998093E+01 0.  1.
</event>
<event>
 5   0  0.7577180E-06  0.1900129E+04  0.7818609E-02  0.8654792E-01
       -2   -1    0    0    0  501  0.00000000000E+00  0.00000000000E+00  0.13068191157E+04  0.13068191157E+04  0.25500000920E-02 0. -1.
        2   -1    0    0  501    0  0.00000000000E+00  0.00000000000E+00 -0.69070204215E+03  0.69070204216E+03  0.25500000920E-02 0.  1.
    10030    2    1    2    0    0  0.00000000000E+00  0.00000000000E+00  0.61611707353E+03  0.19975211578E+04  0.19001290819E+04 0.  0.
        5    1    3    3  502    0 -0.61790788501E+02 -0.67046272811E+03  0.10126837977E+04  0.12160957756E+04  0.46999998093E+01 0. -1.
       -5    1    3    3    0  502  0.61790788501E+02  0.67046272811E+03 -0.39656672415E+03  0.78142538226E+03  0.46999998093E+01 0.  1.
</event>
<event>
 5   0  0.6870370E-06  0.1898404E+04  0.7818609E-02  0.8655651E-01
       -2   -1    0    0    0  501  0.00000000000E+00  0.00000000000E+00  0.76481396560E+03  0.76481396560E+03  0.25500000920E-02 0. -1.
        2   -1    0    0  501    0  0.00000000000E+00  0.00000000000E+00 -0.11780443788E+04  0.11780443788E+04  0.25500000920E-02 0.  1.
    10030    2    1    2    0    0  0.00000000000E+00  0.00000000000E+00 -0.41323041322E+03  0.19428583444E+04  0.18984043753E+04 0.  0.
        1    1    3    3  502    0  0.41701512092E+03  0.67835880852E+03 -0.73534876359E+03  0.10838865662E+04  0.50400001928E-02 0.  1.
       -1    1    3    3    0  502 -0.41701512092E+03 -0.67835880852E+03  0.32211835037E+03  0.85897177826E+03  0.50400001928E-02 0. -1.
</event>
<event>
 5   0  0.3495279E-06  0.1900574E+04  0.7818609E-02  0.8654571E-01
       -1   -1    0    0    0  501  0.00000000000E+00  0.00000000000E+00  0.10433594866E+04  0.10433594866E+04  0.50400001928E-02 0. -1.
        1   -1    0    0  501    0  0.00000000000E+00  0.00000000000E+00 -0.86551669443E+03  0.86551669444E+03  0.50400001928E-02 0.  1.
    10030    2    1    2    0    0  0.00000000000E+00  0.00000000000E+00  0.17784279219E+03  0.19088761811E+04  0.19005736544E+04 0.  0.
        2    1    3    3  502    0  0.76617268118E+03 -0.27797215399E+03  0.57968253220E+03  0.10001604541E+04  0.25500000920E-02 0. -1.
       -2    1    3    3    0  502 -0.76617268118E+03  0.27797215399E+03 -0.40183974002E+03  0.90871572697E+03  0.25500000920E-02 0.  1.
</event>
<event>
 5   0  0.2527750E-06  0.1901699E+04  0.7818609E-02  0.8654011E-01
       -4   -1    0    0    0  501  0.00000000000E+00  0.00000000000E+00  0.13262365683E+04  0.13262371764E+04  0.12699999809E+01 0.  1.
        4   -1    0    0  501    0  0.00000000000E+00  0.00000000000E+00 -0.68171329358E+03  0.68171447656E+03  0.12699999809E+01 0. -1.
    10030    2    1    2    0    0  0.00000000000E+00  0.00000000000E+00  0.64452327476E+03  0.20079516530E+04  0.19016991321E+04 0.  0.
        3    1    3    3  502    0  0.50472262617E+03  0.29448342567E+03 -0.46974787995E+03  0.74975229128E+03  0.10100000352E+00 0. -1.
       -3    1    3    3    0  502 -0.50472262617E+03 -0.29448342567E+03  0.11142711547E+04  0.12581993617E+04  0.10100000352E+00 0.  1.
</event>
<event>
 5   0  0.6870370E-06  0.1902939E+04  0.7818609E-02  0.8653395E-01
       -2   -1    0    0    0  501  0.00000000000E+00  0.00000000000E+00  0.47068289128E+03  0.47068289128E+03  0.25500000920E-02 0.  1.
        2   -1    0    0  501    0  0.00000000000E+00  0.00000000000E+00 -0.19233628955E+04  0.19233628955E+04  0.25500000920E-02 0. -1.
    10030    2    1    2    0    0  0.00000000000E+00  0.00000000000E+00 -0.14526800042E+04  0.23940457868E+04  0.19029387890E+04 0.  0.
        1    1    3    3  502    0 -0.84609182020E+03  0.45044611141E+02 -0.12709492827E+04  0.15274856675E+04  0.50400001928E-02 0. -1.
       -1    1    3    3    0  502  0.84609182020E+03 -0.45044611141E+02 -0.18173072156E+03  0.86656011931E+03  0.50400001928E-02 0.  1.
</event>
<event>
 5   0  0.2527750E-06  0.1901671E+04  0.7818609E-02  0.8654025E-01
       -3   -1    0    0    0  501  0.00000000000E+00  0.00000000000E+00  0.89130139901E+03  0.89130140473E+03  0.10100000352E+00 0. -1.
        3   -1    0    0  501    0  0.00000000000E+00  0.00000000000E+00 -0.10143460289E+04  0.10143460339E+04  0.10100000352E+00 0.  1.
    10030    2    1    2    0    0  0.00000000000E+00  0.00000000000E+00 -0.12304462986E+03  0.19056474386E+04  0.19016708915E+04 0.  0.
        3    1    3    3  502    0 -0.90133579203E+03 -0.11309139079E+03  0.21994250828E+03  0.93464998251E+03  0.10100000352E+00 0. -1.
       -3    1    3    3    0  502  0.90133579203E+03  0.11309139079E+03 -0.34298713814E+03  0.97099745612E+03  0.10100000352E+00 0.  1.
</event>
<event>
 5   0  0.6870370E-06  0.1905317E+04  0.7818609E-02  0.8652214E-01
       -2   -1    0    0    0  501  0.00000000000E+00  0.00000000000E+00  0.55409666614E+03  0.55409666615E+03  0.25500000920E-02 0. -1.
        2   -1    0    0  501    0  0.00000000000E+00  0.00000000000E+00 -0.16379062143E+04  0.16379062143E+04  0.25500000920E-02 0.  1.
    10030    2    1    2    0    0  0.00000000000E+00  0.00000000000E+00 -0.10838095482E+04  0.21920028805E+04  0.19053171629E+04 0.  0.
        1    1    3    3  502    0  0.70619405733E+03  0.63226082571E+03 -0.43219002036E+03  0.10417542954E+04  0.50400001928E-02 0. -1.
       -1    1    3    3    0  502 -0.70619405733E+03 -0.63226082571E+03 -0.65161952782E+03  0.11502485850E+04  0.50400001928E-02 0.  1.
</event>
<event>
 5   0  0.6862201E-06  0.1900656E+04  0.7818609E-02  0.8654530E-01
        2   -1    0    0  501    0  0.00000000000E+00  0.00000000000E+00  0.11117629763E+04  0.11117629763E+04  0.25500000920E-02 0. -1.
       -2   -1    0    0    0  501  0.00000000000E+00  0.00000000000E+00 -0.81233437076E+03  0.81233437077E+03  0.25500000920E-02 0.  1.
    10030    2    1    2    0    0  0.00000000000E+00  0.00000000000E+00  0.29942860550E+03  0.19240973470E+04  0.19006559686E+04 0.  0.
        3    1    3    3  502    0  0.59195237298E+03  0.42158716672E+02  0.90112090836E+03  0.10789827946E+04  0.10100000352E+00 0. -1.
       -3    1    3    3    0  502 -0.59195237298E+03 -0.42158716672E+02 -0.60169230287E+03  0.84511455247E+03  0.10100000352E+00 0.  1.
</event>
<event>
 5   0  0.3379108E-06  0.1898980E+04  0.7818609E-02  0.8655364E-01
       -1   -1    0    0    0  501  0.00000000000E+00  0.00000000000E+00  0.90028206538E+03  0.90028206540E+03  0.50400001928E-02 0.  1.
        1   -1    0    0  501    0  0.00000000000E+00  0.00000000000E+00 -0.10013879950E+04  0.10013879950E+04  0.50400001928E-02 0. -1.
    10030    2    1    2    0    0  0.00000000000E+00  0.00000000000E+00 -0.10110592961E+03  0.19016700604E+04  0.18989804132E+04 0.  0.
        4    1    3    3  502    0  0.83031032483E+03  0.46055921396E+03 -0.50673254418E+02  0.95084142563E+03  0.12699999809E+01 0. -1.
       -4    1    3    3    0  502 -0.83031032483E+03 -0.46055921396E+03 -0.50432675194E+02  0.95082863477E+03  0.12699999809E+01 0.  1.
</event>
<event>
 5   0  0.3379108E-06  0.1900462E+04  0.7818609E-02  0.8654626E-01
        1   -1    0    0  501    0  0.00000000000E+00  0.00000000000E+00  0.20388160408E+04  0.20388160408E+04  0.50400001928E-02 0.  1.
       -1   -1    0    0    0  501  0.00000000000E+00  0.00000000000E+00 -0.44287428128E+03  0.44287428131E+03  0.50400001928E-02 0. -1.
    10030    2    1    2    0    0  0.00000000000E+00  0.00000000000E+00  0.15959417595E+04  0.24816903221E+04  0.19004622477E+04 0.  0.
        4    1    3    3  502    0 -0.36292388263E+03  0.66556129594E+01 -0.34877209442E+03  0.50339013549E+03  0.12699999809E+01 0. -1.
       -4    1    3    3    0  502  0.36292388263E+03 -0.66556129594E+01  0.19447138539E+04  0.19783001866E+04  0.12699999809E+01 0.  1.
</event>
<event>
 5   0  0.3398807E-06  0.1899871E+04  0.7818609E-02  0.8654920E-01
        1   -1    0    0  501    0  0.00000000000E+00  0.00000000000E+00  0.14911621601E+04  0.14911621601E+04  0.50400001928E-02 0.  1.
       -1   -1    0    0    0  501  0.00000000000E+00  0.00000000000E+00 -0.60515069602E+03  0.60515069604E+03  0.50400001928E-02 0. -1.
    10030    2    1    2    0    0  0.00000000000E+00  0.00000000000E+00  0.88601146407E+03  0.20963128561E+04  0.18998713842E+04 0.  0.
        1    1    3    3  502    0  0.16789947458E+03  0.20460971476E+03  0.14496538845E+04  0.14736185917E+04  0.50400001928E-02 0.  1.
       -1    1    3    3    0  502 -0.16789947458E+03 -0.20460971476E+03 -0.56364242038E+03  0.62269426448E+03  0.50400001928E-02 0. -1.
</event>
<event>
 5   0  0.7577180E-06  0.1900092E+04  0.7818609E-02  0.8654810E-01
       -2   -1    0    0    0  501  0.00000000000E+00  0.00000000000E+00  0.99748808426E+03  0.99748808426E+03  0.25500000920E-02 0.  1.
        2   -1    0    0  501    0  0.00000000000E+00  0.00000000000E+00 -0.90486067143E+03  0.90486067144E+03  0.25500000920E-02 0. -1.
    10030    2    1    2    0    0  0.00000000000E+00  0.00000000000E+00  0.92627412824E+02  0.19023487557E+04  0.19000923532E+04 0.  0.
        5    1    3    3  502    0  0.92884207246E+02  0.81981062330E+03  0.51788122777E+03  0.97413550910E+03  0.46999998093E+01 0.  1.
       -5    1    3    3    0  502 -0.92884207246E+02 -0.81981062330E+03 -0.42525381494E+03  0.92821324659E+03  0.46999998093E+01 0. -1.
</event>
<event>
 5   0  0.3236653E-06  0.1901006E+04  0.7818609E-02  0.8654356E-01
       -1   -1    0    0    0  501  0.00000000000E+00  0.00000000000E+00  0.75356597974E+03  0.75356597975E+03  0.50400001928E-02 0. -1.
        1   -1    0    0  501    0  0.00000000000E+00  0.00000000000E+00 -0.11989076560E+04  0.11989076560E+04  0.50400001928E-02 0.  1.
    10030    2    1    2    0    0  0.00000000000E+00  0.00000000000E+00 -0.44534167627E+03  0.19524736358E+04  0.19010060730E+04 0.  0.
        3    1    3    3  502    0 -0.62258932912E+03 -0.44887383237E+03  0.35317863560E+03  0.84489073197E+03  0.10100000352E+00 0. -1.
       -3    1    3    3    0  502  0.62258932912E+03  0.44887383237E+03 -0.79852031187E+03  0.11075829038E+04  0.10100000352E+00 0.  1.
</event>
<event>
 5   0  0.2527750E-06  0.1900134E+04  0.7818609E-02  0.8654790E-01
       -3   -1    0    0    0  501  0.00000000000E+00  0.00000000000E+00  0.12034496437E+04  0.12034496480E+04  0.10100000352E+00 0. -1.
        3   -1    0    0  501    0  0.00000000000E+00  0.00000000000E+00 -0.75003309698E+03  0.75003310378E+03  0.10100000352E+00 0.  1.
    10030    2    1    2    0    0  0.00000000000E+00  0.00000000000E+00  0.45341654674E+03  0.19534827517E+04  0.19001337575E+04 0.  0.
        5    1    3    3  502    0 -0.57563765084E+03  0.63814359612E+03  0.64307165451E+03  0.10733821301E+04  0.46999998093E+01 0. -1.
       -5    1    3    3    0  502  0.57563765084E+03 -0.63814359612E+03 -0.18965510777E+03  0.88010062165E+03  0.46999998093E+01 0.  1.
</event>
<event>
 5   0  0.7577180E-06  0.1900224E+04  0.7818609E-02  0.8654745E-01
       -2   -1    0    0    0  501  0.00000000000E+00  0.00000000000E+00  0.39945057042E+03  0.39945057043E+03  0.25500000920E-02 0.  1.
        2   -1    0    0  501    0  0.00000000000E+00  0.00000000000E+00 -0.22598857486E+04  0.22598857486E+04  0.25500000920E-02 0. -1.
    10030    2    1    2    0    0  0.00000000000E+00  0.00000000000E+00 -0.18604351782E+04  0.26593363190E+04  0.19002238304E+04 0.  0.
        5    1    3    3  502    0  0.63907456338E+03 -0.70834902713E+02  0.48679161290E+02  0.64484543244E+03  0.46999998093E+01 0.  1.
       -5    1    3    3    0  502 -0.63907456338E+03  0.70834902713E+02 -0.19091143394E+04  0.20144908866E+04  0.46999998093E+01 0. -1.
</event>
<event>
 5   0  0.6870370E-06  0.1899095E+04  0.7818609E-02  0.8655307E-01
        2   -1    0    0  501    0  0.00000000000E+00  0.00000000000E+00  0.19535208057E+04  0.19535208057E+04  0.25500000920E-02 0. -1.
       -2   -1    0    0    0  501  0.00000000000E+00  0.00000000000E+00 -0.46154631728E+03  0.46154631729E+03  0.25500000920E-02 0.  1.
    10030    2    1    2    0    0  0.00000000000E+00  0.00000000000E+00  0.14919744884E+04  0.24150671230E+04  0.18990948724E+04 0.  0.
        1    1    3    3  502    0 -0.44186940410E+03 -0.58834676142E+03  0.15092576470E+04  0.16790649562E+04  0.50400001928E-02 0. -1.
       -1    1    3    3    0  502  0.44186940410E+03  0.58834676142E+03 -0.17283158594E+02  0.73600216681E+03  0.50400001928E-02 0.  1.
</event>
<event>
 5   0  0.7207648E-06  0.1900550E+04  0.7818609E-02  0.8654583E-01
       -2   -1    0    0    0  501  0.00000000000E+00  0.00000000000E+00  0.66160116188E+03  0.66160116188E+03  0.25500000920E-02 0.  1.
        2   -1    0    0  501    0  0.00000000000E+00  0.00000000000E+00 -0.13649049169E+04  0.13649049169E+04  0.25500000920E-02 0. -1.
    10030    2    1    2    0    0  0.00000000000E+00  0.00000000000E+00 -0.70330375505E+03  0.20265060788E+04  0.19005501087E+04 0.  0.
        4    1    3    3  502    0 -0.68331055451E+03 -0.53001556699E+03 -0.77170305182E+03  0.11590327986E+04  0.12699999809E+01 0. -1.
       -4    1    3    3    0  502  0.68331055451E+03  0.53001556699E+03  0.68399296773E+02  0.86747328020E+03  0.12699999809E+01 0.  1.
</event>
<event>
 5   0  0.7577180E-06  0.1899710E+04  0.7818609E-02  0.8655001E-01
       -2   -1    0    0    0  501  0.00000000000E+00  0.00000000000E+00  0.69392507838E+03  0.69392507839E+03  0.25500000920E-02 0.  1.
        2   -1    0    0  501    0  0.00000000000E+00  0.00000000000E+00 -0.13001752211E+04  0.13001752211E+04  0.25500000920E-02 0. -1.
    10030    2    1    2    0    0  0.00000000000E+00  0.00000000000E+00 -0.60625014272E+03  0.19941002995E+04  0.18997096538E+04 0.  0.
        5    1    3    3  502    0 -0.75997914825E+03 -0.56999544473E+02 -0.89820111660E+03  0.11779662940E+04  0.46999998093E+01 0. -1.
       -5    1    3    3    0  502  0.75997914825E+03  0.56999544473E+02  0.29195097388E+03  0.81613400553E+03  0.46999998093E+01 0.  1.
</event>
<event>
 5   0  0.3379108E-06  0.1900807E+04  0.7818609E-02  0.8654455E-01
       -1   -1    0    0    0  501  0.00000000000E+00  0.00000000000E+00  0.17525519738E+04  0.17525519738E+04  0.50400001928E-02 0. -1.
        1   -1    0    0  501    0  0.00000000000E+00  0.00000000000E+00 -0.51540063619E+03  0.51540063622E+03  0.50400001928E-02 0.  1.
    10030    2    1    2    0    0  0.00000000000E+00  0.00000000000E+00  0.12371513376E+04  0.22679526100E+04  0.19008065681E+04 0.  0.
        4    1    3    3  502    0  0.41867842586E+03 -0.74611001940E+03  0.11123924730E+04  0.14033497113E+04  0.12699999809E+01 0. -1.
       -4    1    3    3    0  502 -0.41867842586E+03  0.74611001940E+03  0.12475886464E+03  0.86460289875E+03  0.12699999809E+01 0.  1.
</event>
<event>
 5   0  0.6870370E-06  0.1900017E+04  0.7818609E-02  0.8654848E-01
        2   -1    0    0  501    0  0.00000000000E+00  0.00000000000E+00  0.97876823231E+03  0.97876823231E+03  0.25500000920E-02 0.  1.
       -2   -1    0    0    0  501  0.00000000000E+00  0.00000000000E+00 -0.92209335803E+03  0.92209335804E+03  0.25500000920E-02 0. -1.
    10030    2    1    2    0    0  0.00000000000E+00  0.00000000000E+00  0.56674874278E+02  0.19008615904E+04  0.19000165116E+04 0.  0.
        1    1    3    3  502    0  0.58523965046E+03  0.49297861874E+03 -0.53492480464E+03  0.93363692817E+03  0.50400001928E-02 0.  1.
       -1    1    3    3    0  502 -0.58523965046E+03 -0.49297861874E+03  0.59159967892E+03  0.96722466218E+03  0.50400001928E-02 0. -1.
</event>
<event>
 5   0  0.3379108E-06  0.1900051E+04  0.7818609E-02  0.8654831E-01
        1   -1    0    0  501    0  0.00000000000E+00  0.00000000000E+00  0.14497826272E+04  0.14497826272E+04  0.50400001928E-02 0.  1.
       -1   -1    0    0    0  501  0.00000000000E+00  0.00000000000E+00 -0.62254057080E+03  0.62254057082E+03  0.50400001928E-02 0. -1.
    10030    2    1    2    0    0  0.00000000000E+00  0.00000000000E+00  0.82724205641E+03  0.20723231980E+04  0.19000510565E+04 0.  0.
        4    1    3    3  502    0  0.33308415922E+03  0.75448995424E+02 -0.55327199594E+03  0.65019160439E+03  0.12699999809E+01 0. -1.
       -4    1    3    3    0  502 -0.33308415922E+03 -0.75448995424E+02  0.13805140523E+04  0.14221315936E+04  0.12699999809E+01 0.  1.
</event>
<event>
 5   0  0.3495279E-06  0.1897757E+04  0.7818609E-02  0.8655973E-01
       -1   -1    0    0    0  501  0.00000000000E+00  0.00000000000E+00  0.81501966629E+03  0.81501966631E+03  0.50400001928E-02 0. -1.
        1   -1    0    0  501    0  0.00000000000E+00  0.00000000000E+00 -0.11047227850E+04  0.11047227850E+04  0.50400001928E-02 0.  1.
    10030    2    1    2    0    0  0.00000000000E+00  0.00000000000E+00 -0.28970311867E+03  0.19197424513E+04  0.18977574087E+04 0.  0.
        2    1    3    3  502    0 -0.86034711748E+03  0.33203091268E+03 -0.37088836856E+03  0.99398182653E+03  0.25500000920E-02 0.  1.
       -2    1    3    3    0  502  0.86034711748E+03 -0.33203091268E+03  0.81185249895E+02  0.92576062475E+03  0.25500000920E-02 0. -1.
</event>
<event>
 5   0  0.3495279E-06  0.1899910E+04  0.7818609E-02  0.8654901E-01
       -1   -1    0    0    0  501  0.00000000000E+00  0.00000000000E+00  0.55185422644E+03  0.55185422646E+03  0.50400001928E-02 0.  1.
        1   -1    0    0  501    0  0.00000000000E+00  0.00000000000E+00 -0.16352402514E+04  0.16352402514E+04  0.50400001928E-02 0. -1.
    10030    2    1    2    0    0  0.00000000000E+00  0.00000000000E+00 -0.10833860250E+04  0.21870944779E+04  0.18999097284E+04 0.  0.
        2    1    3    3  502    0 -0.24089240987E+03 -0.89414539080E+03 -0.29779678678E+03  0.97273226494E+03  0.25500000920E-02 0. -1.
       -2    1    3    3    0  502  0.24089240987E+03  0.89414539080E+03 -0.78558923817E+03  0.12143622129E+04  0.25500000920E-02 0.  1.
</event>
<event>
 5   0  0.3398807E-06  0.1899724E+04  0.7818609E-02  0.8654994E-01
        1   -1    0    0  501    0  0.00000000000E+00  0.00000000000E+00  0.60605104836E+03  0.60605104838E+03  0.50400001928E-02 0.  1.
       -1   -1    0    0    0  501  0.00000000000E+00  0.00000000000E+00 -0.14887160577E+04  0.14887160577E+04  0.50400001928E-02 0. -1.
    10030    2    1    2    0    0  0.00000000000E+00  0.00000000000E+00 -0.88266500933E+03  0.20947671061E+04  0.18997241142E+04 0.  0.
        1    1    3    3  502    0  0.29311108135E+03 -0.65568267687E+03 -0.11267671376E+04  0.13362028518E+04  0.50400001928E-02 0. -1.
       -1    1    3    3    0  502 -0.29311108135E+03  0.65568267687E+03  0.24410212830E+03  0.75856425425E+03  0.50400001928E-02 0.  1.
</event>
<event>
 5   0  0.3379108E-06  0.1901296E+04  0.7818609E-02  0.8654211E-01
        1   -1    0    0  501    0  0.00000000000E+00  0.00000000000E+00  0.94880682375E+03  0.94880682376E+03  0.50400001928E-02 0.  1.
       -1   -1    0    0    0  501  0.00000000000E+00  0.00000000000E+00 -0.95249297928E+03  0.95249297929E+03  0.50400001928E-02 0. -1.
    10030    2    1    2    0    0  0.00000000000E+00  0.00000000000E+00 -0.36861555310E+01  0.19012998031E+04  0.19012962298E+04 0.  0.
        4    1    3    3  502    0  0.55838718580E+02 -0.71602595902E+02  0.94445956787E+03  0.94881525203E+03  0.12699999809E+01 0.  1.
       -4    1    3    3    0  502 -0.55838718580E+02  0.71602595902E+02 -0.94814572340E+03  0.95248455103E+03  0.12699999809E+01 0. -1.
</event>
<event>
 5   0  0.7207648E-06  0.1900014E+04  0.7818609E-02  0.8654849E-01
       -2   -1    0    0    0  501  0.00000000000E+00  0.00000000000E+00  0.10523065373E+04  0.10523065373E+04  0.25500000920E-02 0.  1.
        2   -1    0    0  501    0  0.00000000000E+00  0.00000000000E+00 -0.85765275152E+03  0.85765275152E+03  0.25500000920E-02 0. -1.
    10030    2    1    2    0    0  0.00000000000E+00  0.00000000000E+00  0.19465378583E+03  0.19099592889E+04  0.19000143128E+04 0.  0.
        4    1    3    3  502    0 -0.78818219944E+03  0.13880933571E+03 -0.41722415808E+03  0.90253909732E+03  0.12699999809E+01 0. -1.
       -4    1    3    3    0  502  0.78818219944E+03 -0.13880933571E+03  0.61187794391E+03  0.10074201915E+04  0.12699999809E+01 0.  1.
</event>
<event>
 5   0  0.7207648E-06  0.1900196E+04  0.7818609E-02  0.8654759E-01
       -2   -1    0    0    0  501  0.00000000000E+00  0.00000000000E+00  0.39611406498E+03  0.39611406498E+03  0.25500000920E-02 0.  1.
        2   -1    0    0  501    0  0.00000000000E+00  0.00000000000E+00 -0.22788536965E+04  0.22788536965E+04  0.25500000920E-02 0. -1.
    10030    2    1    2    0    0  0.00000000000E+00  0.00000000000E+00 -0.18827396315E+04  0.26749677614E+04  0.19001957806E+04 0.  0.
        4    1    3    3  502    0 -0.42212133147E+03 -0.59636671931E+03 -0.86417328589E+02  0.73573721529E+03  0.12699999809E+01 0.  1.
       -4    1    3    3    0  502  0.42212133147E+03  0.59636671931E+03 -0.17963223029E+04  0.19392305462E+04  0.12699999809E+01 0. -1.
</event>
<event>
 5   0  0.3211263E-06  0.1899632E+04  0.7818609E-02  0.8655039E-01
        1   -1    0    0  501    0  0.00000000000E+00  0.00000000000E+00  0.18666717944E+04  0.18666717944E+04  0.50400001928E-02 0. -1.
       -1   -1    0    0    0  501  0.00000000000E+00  0.00000000000E+00 -0.48329377620E+03  0.48329377622E+03  0.50400001928E-02 0.  1.
    10030    2    1    2    0    0  0.00000000000E+00  0.00000000000E+00  0.13833780182E+04  0.23499655706E+04  0.18996324491E+04 0.  0.
        5    1    3    3  502    0 -0.52716844739E+03  0.17282102421E+03 -0.26201786710E+03  0.61355450533E+03  0.46999998093E+01 0.  1.
       -5    1    3    3    0  502  0.52716844739E+03 -0.17282102421E+03  0.16453958853E+04  0.17364110653E+04  0.46999998093E+01 0. -1.
</event>
<event>
 5   0  0.6984466E-06  0.1900063E+04  0.7818609E-02  0.8654825E-01
       -2   -1    0    0    0  501  0.00000000000E+00  0.00000000000E+00  0.95640394791E+03  0.95640394791E+03  0.25500000920E-02 0. -1.
        2   -1    0    0  501    0  0.00000000000E+00  0.00000000000E+00 -0.94370121396E+03  0.94370121397E+03  0.25500000920E-02 0.  1.
    10030    2    1    2    0    0  0.00000000000E+00  0.00000000000E+00  0.12702733945E+02  0.19001051619E+04  0.19000627007E+04 0.  0.
        2    1    3    3  502    0 -0.72162681999E+03  0.15876630531E+03  0.60353098669E+03  0.95404489356E+03  0.25500000920E-02 0. -1.
       -2    1    3    3    0  502  0.72162681999E+03 -0.15876630531E+03 -0.59082825275E+03  0.94606026831E+03  0.25500000920E-02 0.  1.
</event>
<event>
 5   0  0.3211263E-06  0.1898654E+04  0.7818609E-02  0.8655527E-01
        1   -1    0    0  501    0  0.00000000000E+00  0.00000000000E+00  0.86068752676E+03  0.86068752678E+03  0.50400001928E-02 0.  1.
       -1   -1    0    0    0  501  0.00000000000E+00  0.00000000000E+00 -0.10470949249E+04  0.10470949249E+04  0.50400001928E-02 0. -1.
    10030    2    1    2    0    0  0.00000000000E+00  0.00000000000E+00 -0.18640739810E+03  0.19077824516E+04  0.18986537770E+04 0.  0.
        5    1    3    3  502    0  0.64641595917E+03 -0.34900512608E+03  0.51097028202E+03  0.89485802751E+03  0.46999998093E+01 0.  1.
       -5    1    3    3    0  502 -0.64641595917E+03  0.34900512608E+03 -0.69737768012E+03  0.10129244241E+04  0.46999998093E+01 0. -1.
</event>
<event>
 5   0  0.6870370E-06  0.1900468E+04  0.7818609E-02  0.8654623E-01
        2   -1    0    0  501    0  0.00000000000E+00  0.00000000000E+00  0.17165991287E+04  0.17165991287E+04  0.25500000920E-02 0.  1.
       -2   -1    0    0    0  501  0.00000000000E+00  0.00000000000E+00 -0.52600796728E+03  0.52600796729E+03  0.25500000920E-02 0. -1.
    10030    2    1    2    0    0  0.00000000000E+00  0.00000000000E+00  0.11905911614E+04  0.22426070960E+04  0.19004681722E+04 0.  0.
        1    1    3    3  502    0  0.14955394937E+03  0.74108901549E+03 -0.83980371631E+02  0.76067865456E+03  0.50400001928E-02 0. -1.
       -1    1    3    3    0  502 -0.14955394937E+03 -0.74108901549E+03  0.12745715331E+04  0.14819284414E+04  0.50400001928E-02 0.  1.
</event>
<event>
 5   0  0.7207648E-06  0.1899967E+04  0.7818609E-02  0.8654873E-01
       -2   -1    0    0    0  501  0.00000000000E+00  0.00000000000E+00  0.63704181714E+03  0.63704181715E+03  0.25500000920E-02 0. -1.
        2   -1    0    0  501    0  0.00000000000E+00  0.00000000000E+00 -0.14166554243E+04  0.14166554243E+04  0.25500000920E-02 0.  1.
    10030    2    1    2    0    0  0.00000000000E+00  0.00000000000E+00 -0.77961360712E+03  0.20536972414E+04  0.18999671005E+04 0.  0.
        4    1    3    3  502    0  0.76792806958E+03 -0.52187676196E+03 -0.17255086384E+03  0.94437507815E+03  0.12699999809E+01 0.  1.
       -4    1    3    3    0  502 -0.76792806958E+03  0.52187676196E+03 -0.60706274328E+03  0.11093221633E+04  0.12699999809E+01 0. -1.
</event>
<event>
 5   0  0.3211263E-06  0.1901630E+04  0.7818609E-02  0.8654045E-01
       -1   -1    0    0    0  501  0.00000000000E+00  0.00000000000E+00  0.81646272587E+03  0.81646272589E+03  0.50400001928E-02 0. -1.
        1   -1    0    0  501    0  0.00000000000E+00  0.00000000000E+00 -0.11072755376E+04  0.11072755376E+04  0.50400001928E-02 0.  1.
    10030    2    1    2    0    0  0.00000000000E+00  0.00000000000E+00 -0.29081281170E+03  0.19237382635E+04  0.19016300415E+04 0.  0.
        5    1    3    3  502    0  0.43711891274E+03 -0.76490231866E+03 -0.50716504541E+03  0.10165564294E+04  0.46999998093E+01 0.  1.
       -5    1    3    3    0  502 -0.43711891274E+03  0.76490231866E+03  0.21635223371E+03  0.90718183403E+03  0.46999998093E+01 0. -1.
</event>
<event>
 5   0  0.7207648E-06  0.1904453E+04  0.7818609E-02  0.8652643E-01
       -2   -1    0    0    0  501  0.00000000000E+00  0.00000000000E+00  0.34332917647E+03  0.34332917648E+03  0.25500000920E-02 0. -1.
        2   -1    0    0  501    0  0.00000000000E+00  0.00000000000E+00 -0.26410076091E+04  0.26410076091E+04  0.25500000920E-02 0.  1.
    10030    2    1    2    0    0  0.00000000000E+00  0.00000000000E+00 -0.22976784326E+04  0.29843367856E+04  0.19044526431E+04 0.  0.
        4    1    3    3  502    0  0.18911351970E+02  0.26948505139E+03 -0.25796970820E+04  0.25938038630E+04  0.12699999809E+01 0.  1.
       -4    1    3    3    0  502 -0.18911351970E+02 -0.26948505139E+03  0.28201864932E+03  0.39053292258E+03  0.12699999809E+01 0. -1.
</event>
<event>
 5   0  0.7577180E-06  0.1900318E+04  0.7818609E-02  0.8654698E-01
       -2   -1    0    0    0  501  0.00000000000E+00  0.00000000000E+00  0.90253274098E+03  0.90253274098E+03  0.25500000920E-02 0. -1.
        2   -1    0    0  501    0  0.00000000000E+00  0.00000000000E+00 -0.10002989591E+04  0.10002989591E+04  0.25500000920E-02 0.  1.
    10030    2    1    2    0    0  0.00000000000E+00  0.00000000000E+00 -0.97766218152E+02  0.19028317001E+04  0.19003184590E+04 0.  0.
        5    1    3    3  502    0 -0.30798665866E+03 -0.88431738001E+03 -0.21005392944E+03  0.95969669885E+03  0.46999998093E+01 0.  1.
       -5    1    3    3    0  502  0.30798665866E+03  0.88431738001E+03  0.11228771129E+03  0.94313500126E+03  0.46999998093E+01 0. -1.
</event>
<event>
 5   0  0.6870370E-06  0.1901611E+04  0.7818609E-02  0.8654055E-01
       -2   -1    0    0    0  501  0.00000000000E+00  0.00000000000E+00  0.53227677113E+03  0.53227677114E+03  0.25500000920E-02 0.  1.
        2   -1    0    0  501    0  0.00000000000E+00  0.00000000000E+00 -0.16984223012E+04  0.16984223012E+04  0.25500000920E-02 0. -1.
    10030    2    1    2    0    0  0.00000000000E+00  0.00000000000E+00 -0.11661455301E+04  0.22306990724E+04  0.19016106211E+04 0.  0.
        1    1    3    3  502    0  0.91116083679E+03  0.19356863241E+03 -0.35942798238E+03  0.99843445478E+03  0.50400001928E-02 0. -1.
       -1    1    3    3    0  502 -0.91116083679E+03 -0.19356863241E+03 -0.80671754773E+03  0.12322646176E+04  0.50400001928E-02 0.  1.
</event>
<event>
 5   0  0.3379108E-06  0.1898879E+04  0.7818609E-02  0.8655415E-01
        1   -1    0    0  501    0  0.00000000000E+00  0.00000000000E+00  0.97602437521E+03  0.97602437522E+03  0.50400001928E-02 0. -1.
       -1   -1    0    0    0  501  0.00000000000E+00  0.00000000000E+00 -0.92357862809E+03  0.92357862810E+03  0.50400001928E-02 0.  1.
    10030    2    1    2    0    0  0.00000000000E+00  0.00000000000E+00  0.52445747122E+02  0.18996030033E+04  0.18988788834E+04 0.  0.
        4    1    3    3  502    0 -0.37881345536E+03  0.73850521720E+03  0.48742368135E+03  0.96253469955E+03  0.12699999809E+01 0. -1.
       -4    1    3    3    0  502  0.37881345536E+03 -0.73850521720E+03 -0.43497793422E+03  0.93706830378E+03  0.12699999809E+01 0.  1.
</event>
<event>
 5   0  0.6870370E-06  0.1895177E+04  0.7818609E-02  0.8657261E-01
       -2   -1    0    0    0  501  0.00000000000E+00  0.00000000000E+00  0.66967273946E+03  0.66967273946E+03  0.25500000920E-02 0.  1.
        2   -1    0    0  501    0  0.00000000000E+00  0.00000000000E+00 -0.13408399884E+04  0.13408399884E+04  0.25500000920E-02 0. -1.
    10030    2    1    2    0    0  0.00000000000E+00  0.00000000000E+00 -0.67116724892E+03  0.20105127278E+04  0.18951770241E+04 0.  0.
        1    1    3    3  502    0  0.11684605219E+03 -0.18734228380E+03  0.64200322733E+03  0.67890962222E+03  0.50400001928E-02 0.  1.
       -1    1    3    3    0  502 -0.11684605219E+03  0.18734228380E+03 -0.13131704763E+04  0.13316031056E+04  0.50400001928E-02 0. -1.
</event>
<event>
 5   0  0.3495279E-06  0.1903821E+04  0.7818609E-02  0.8652957E-01
        1   -1    0    0  501    0  0.00000000000E+00  0.00000000000E+00  0.20874304185E+04  0.20874304185E+04  0.50400001928E-02 0.  1.
       -1   -1    0    0    0  501  0.00000000000E+00  0.00000000000E+00 -0.43409052157E+03  0.43409052160E+03  0.50400001928E-02 0. -1.
    10030    2    1    2    0    0  0.00000000000E+00  0.00000000000E+00  0.16533398969E+04  0.25215209401E+04  0.19038211672E+04 0.  0.
        2    1    3    3  502    0 -0.44206949091E+03 -0.79501439439E+03  0.45520776637E+03  0.10171958674E+04  0.25500000920E-02 0. -1.
       -2    1    3    3    0  502  0.44206949091E+03  0.79501439439E+03  0.11981321305E+04  0.15043250727E+04  0.25500000920E-02 0.  1.
</event>
<event>
 5   0  0.6862201E-06  0.1903920E+04  0.7818609E-02  0.8652908E-01
        2   -1    0    0  501    0  0.00000000000E+00  0.00000000000E+00  0.17203376033E+04  0.17203376033E+04  0.25500000920E-02 0. -1.
       -2   -1    0    0    0  501  0.00000000000E+00  0.00000000000E+00 -0.52677321269E+03  0.52677321270E+03  0.25500000920E-02 0.  1.
    10030    2    1    2    0    0  0.00000000000E+00  0.00000000000E+00  0.11935643906E+04  0.22471108160E+04  0.19039199208E+04 0.  0.
        3    1    3    3  502    0  0.41777990710E+03  0.81705821233E+03  0.29795717055E+03  0.96483296938E+03  0.10100000352E+00 0.  1.
       -3    1    3    3    0  502 -0.41777990710E+03 -0.81705821233E+03  0.89560722008E+03  0.12822778466E+04  0.10100000352E+00 0. -1.
</event>
<event>
 5   0  0.3379108E-06  0.1897767E+04  0.7818609E-02  0.8655969E-01
        1   -1    0    0  501    0  0.00000000000E+00  0.00000000000E+00  0.82583136239E+03  0.82583136241E+03  0.50400001928E-02 0.  1.
       -1   -1    0    0    0  501  0.00000000000E+00  0.00000000000E+00 -0.10902703748E+04  0.10902703748E+04  0.50400001928E-02 0. -1.
    10030    2    1    2    0    0  0.00000000000E+00  0.00000000000E+00 -0.26443901240E+03  0.19161017372E+04  0.18977665494E+04 0.  0.
        4    1    3    3  502    0  0.14471812180E+03  0.37978329129E+03 -0.99794116354E+03  0.10775281258E+04  0.12699999809E+01 0. -1.
       -4    1    3    3    0  502 -0.14471812180E+03 -0.37978329129E+03  0.73350215114E+03  0.83857361140E+03  0.12699999809E+01 0.  1.
</event>
<event>
 5   0  0.3398807E-06  0.1898872E+04  0.7818609E-02  0.8655418E-01
        1   -1    0    0  501    0  0.00000000000E+00  0.00000000000E+00  0.13141642070E+04  0.13141642070E+04  0.50400001928E-02 0. -1.
       -1   -1    0    0    0  501  0.00000000000E+00  0.00000000000E+00 -0.68593326438E+03  0.68593326440E+03  0.50400001928E-02 0.  1.
    10030    2    1    2    0    0  0.00000000000E+00  0.00000000000E+00  0.62823094259E+03  0.20000974714E+04  0.18988722384E+04 0.  0.
        1    1    3    3  502    0  0.34049827547E+03  0.46436619433E+03 -0.48101277285E+03  0.75029882427E+03  0.50400001928E-02 0.  1.
       -1    1    3    3    0  502 -0.34049827547E+03 -0.46436619433E+03  0.11092437154E+04  0.12497986471E+04  0.50400001928E-02 0. -1.
</event>
<event>
 5   0  0.6870370E-06  0.1900915E+04  0.7818609E-02  0.8654401E-01
       -2   -1    0    0    0  501  0.00000000000E+00  0.00000000000E+00  0.72374229037E+03  0.72374229037E+03  0.25500000920E-02 0. -1.
        2   -1    0    0  501    0  0.00000000000E+00  0.00000000000E+00 -0.12481917421E+04  0.12481917421E+04  0.25500000920E-02 0.  1.
    10030    2    1    2    0    0  0.00000000000E+00  0.00000000000E+00 -0.52444945177E+03  0.19719340325E+04  0.19009146749E+04 0.  0.
        1    1    3    3  502    0 -0.17398552186E+03 -0.41573954766E+03  0.60585387752E+03  0.75509552657E+03  0.50400001928E-02 0. -1.
       -1    1    3    3    0  502  0.17398552186E+03  0.41573954766E+03 -0.11303033293E+04  0.12168385059E+04  0.50400001928E-02 0.  1.
</event>
<event>
 5   0  0.7207648E-06  0.1896111E+04  0.7818609E-02  0.8656795E-01
        2   -1    0    0  501    0  0.00000000000E+00  0.00000000000E+00  0.15389836167E+04  0.15389836167E+04  0.25500000920E-02 0.  1.
       -2   -1    0    0    0  501  0.00000000000E+00  0.00000000000E+00 -0.58402780783E+03  0.58402780783E+03  0.25500000920E-02 0. -1.
    10030    2    1    2    0    0  0.00000000000E+00  0.00000000000E+00  0.95495580892E+03  0.21230114246E+04  0.18961109967E+04 0.  0.
        4    1    3    3  502    0  0.58956231446E+03  0.24651965243E+03  0.12616056272E+04  0.14142156954E+04  0.12699999809E+01 0.  1.
       -4    1    3    3    0  502 -0.58956231446E+03 -0.24651965243E+03 -0.30664981832E+03  0.70879572913E+03  0.12699999809E+01 0. -1.
</event>
<event>
 5   0  0.3211263E-06  0.1900058E+04  0.7818609E-02  0.8654827E-01
       -1   -1    0    0    0  501  0.00000000000E+00  0.00000000000E+00  0.12189406813E+04  0.12189406813E+04  0.50400001928E-02 0.  1.
        1   -1    0    0  501    0  0.00000000000E+00  0.00000000000E+00 -0.74044243737E+03  0.74044243739E+03  0.50400001928E-02 0. -1.
    10030    2    1    2    0    0  0.00000000000E+00  0.00000000000E+00  0.47849824390E+03  0.19593831187E+04  0.19000583244E+04 0.  0.
        5    1    3    3  502    0 -0.83104499808E+03  0.26549034859E+02  0.71315474232E+03  0.10954233960E+04  0.46999998093E+01 0.  1.
       -5    1    3    3    0  502  0.83104499808E+03 -0.26549034859E+02 -0.23465649843E+03  0.86395972263E+03  0.46999998093E+01 0. -1.
</event>
<event>
 5   0  0.6870370E-06  0.1900268E+04  0.7818609E-02  0.8654723E-01
        2   -1    0    0  501    0  0.00000000000E+00  0.00000000000E+00  0.14165671206E+04  0.14165671206E+04  0.25500000920E-02 0.  1.
       -2   -1    0    0    0  501  0.00000000000E+00  0.00000000000E+00 -0.63728347354E+03  0.63728347355E+03  0.25500000920E-02 0. -1.
    10030    2    1    2    0    0  0.00000000000E+00  0.00000000000E+00  0.77928364710E+03  0.20538505942E+04  0.19002682076E+04 0.  0.
        1    1    3    3  502    0 -0.66320980243E+03  0.28464245881E+03 -0.27827280101E+03  0.77350134014E+03  0.50400001928E-02 0. -1.
       -1    1    3    3    0  502  0.66320980243E+03 -0.28464245881E+03  0.10575564481E+04  0.12803492541E+04  0.50400001928E-02 0.  1.
</event>
<event>
 5   0  0.6862201E-06  0.1901195E+04  0.7818609E-02  0.8654262E-01
        2   -1    0    0  501    0  0.00000000000E+00  0.00000000000E+00  0.86485712350E+03  0.86485712350E+03  0.25500000920E-02 0.  1.
       -2   -1    0    0    0  501  0.00000000000E+00  0.00000000000E+00 -0.10448379156E+04  0.10448379156E+04  0.25500000920E-02 0. -1.
    10030    2    1    2    0    0  0.00000000000E+00  0.00000000000E+00 -0.17998079211E+03  0.19096950391E+04  0.19011949024E+04 0.  0.
        3    1    3    3  502    0 -0.57872947295E+03  0.66723096395E+03  0.26302154188E+03  0.92157761681E+03  0.10100000352E+00 0.  1.
       -3    1    3    3    0  502  0.57872947295E+03 -0.66723096395E+03 -0.44300233398E+03  0.98811742229E+03  0.10100000352E+00 0. -1.
</event>
<event>
 5   0  0.3398807E-06  0.1899719E+04  0.7818609E-02  0.8654996E-01
        1   -1    0    0  501    0  0.00000000000E+00  0.00000000000E+00  0.18963085328E+04  0.18963085328E+04  0.50400001928E-02 0. -1.
       -1   -1    0    0    0  501  0.00000000000E+00  0.00000000000E+00 -0.47578384686E+03  0.47578384689E+03  0.50400001928E-02 0.  1.
    10030    2    1    2    0    0  0.00000000000E+00  0.00000000000E+00  0.14205246859E+04  0.23720923797E+04  0.18997188935E+04 0.  0.
        1    1    3    3  502    0 -0.85304707951E+02 -0.84838293371E+03  0.12329140492E+04  0.14990355394E+04  0.50400001928E-02 0. -1.
       -1    1    3    3    0  502  0.85304707951E+02  0.84838293371E+03  0.18761063668E+03  0.87305684032E+03  0.50400001928E-02 0.  1.
</event>
<event>
 5   0  0.3398807E-06  0.1899278E+04  0.7818609E-02  0.8655216E-01
        1   -1    0    0  501    0  0.00000000000E+00  0.00000000000E+00  0.72493969926E+03  0.72493969928E+03  0.50400001928E-02 0. -1.
       -1   -1    0    0    0  501  0.00000000000E+00  0.00000000000E+00 -0.12439854094E+04  0.12439854094E+04  0.50400001928E-02 0.  1.
    10030    2    1    2    0    0  0.00000000000E+00  0.00000000000E+00 -0.51904571017E+03  0.19689251087E+04  0.18992781878E+04 0.  0.
        1    1    3    3  502    0  0.12451144249E+03  0.88520521286E+03  0.72734458507E+02  0.89687327403E+03  0.50400001928E-02 0.  1.
       -1    1    3    3    0  502 -0.12451144249E+03 -0.88520521286E+03 -0.59178016868E+03  0.10720518347E+04  0.50400001928E-02 0. -1.
</event>
<event>
 5   0  0.3236653E-06  0.1900790E+04  0.7818609E-02  0.8654463E-01
        1   -1    0    0  501    0  0.00000000000E+00  0.00000000000E+00  0.13965786522E+04  0.13965786522E+04  0.50400001928E-02 0.  1.
       -1   -1    0    0    0  501  0.00000000000E+00  0.00000000000E+00 -0.64675956238E+03  0.64675956240E+03  0.50400001928E-02 0. -1.
    10030    2    1    2    0    0  0.00000000000E+00  0.00000000000E+00  0.74981908982E+03  0.20433382146E+04  0.19007899389E+04 0.  0.
        3    1    3    3  502    0  0.88443083059E+02  0.88980719947E+03  0.28782174949E+02  0.89465493626E+03  0.10100000352E+00 0. -1.
       -3    1    3    3    0  502 -0.88443083059E+02 -0.88980719947E+03  0.72103691487E+03  0.11486832784E+04  0.10100000352E+00 0.  1.
</event>
<event>
 5   0  0.3211263E-06  0.1899894E+04  0.7818609E-02  0.8654909E-01
       -1   -1    0    0    0  501  0.00000000000E+00  0.00000000000E+00  0.61242335907E+03  0.61242335909E+03  0.50400001928E-02 0. -1.
        1   -1    0    0  501    0  0.00000000000E+00  0.00000000000E+00 -0.14734899299E+04  0.14734899299E+04  0.50400001928E-02 0.  1.
    10030    2    1    2    0    0  0.00000000000E+00  0.00000000000E+00 -0.86106657081E+03  0.20859132890E+04  0.18998943681E+04 0.  0.
        5    1    3    3  502    0 -0.82141363573E+02 -0.69110014143E+03 -0.11403735437E+04  0.13359792357E+04  0.46999998093E+01 0.  1.
       -5    1    3    3    0  502  0.82141363573E+02  0.69110014143E+03  0.27930697291E+03  0.74993405324E+03  0.46999998093E+01 0. -1.
</event>
<event>
 5   0  0.3236653E-06  0.1900126E+04  0.7818609E-02  0.8654794E-01
        1   -1    0    0  501    0  0.00000000000E+00  0.00000000000E+00  0.65672280320E+03  0.65672280322E+03  0.50400001928E-02 0.  1.
       -1   -1    0    0    0  501  0.00000000000E+00  0.00000000000E+00 -0.13744305452E+04  0.13744305452E+04  0.50400001928E-02 0. -1.
    10030    2    1    2    0    0  0.00000000000E+00  0.00000000000E+00 -0.71770774198E+03  0.20311533484E+04  0.19001261858E+04 0.  0.
        3    1    3    3  502    0 -0.35952628755E+03  0.87899583669E+03 -0.38767684544E+03  0.10257612681E+04  0.10100000352E+00 0. -1.
       -3    1    3    3    0  502  0.35952628755E+03 -0.87899583669E+03 -0.33003089654E+03  0.10053920803E+04  0.10100000352E+00 0.  1.
</event>
<event>
 5   0  0.7207648E-06  0.1899863E+04  0.7818609E-02  0.8654925E-01
        2   -1    0    0  501    0  0.00000000000E+00  0.00000000000E+00  0.20068000444E+04  0.20068000444E+04  0.25500000920E-02 0.  1.
       -2   -1    0    0    0  501  0.00000000000E+00  0.00000000000E+00 -0.44965607820E+03  0.44965607820E+03  0.25500000920E-02 0. -1.
    10030    2    1    2    0    0  0.00000000000E+00  0.00000000000E+00  0.15571439662E+04  0.24564561226E+04  0.18998629821E+04 0.  0.
        4    1    3    3  502    0 -0.38642122673E+02 -0.94701071120E+03  0.86081231555E+03  0.12803600885E+04  0.12699999809E+01 0.  1.
       -4    1    3    3    0  502  0.38642122673E+02  0.94701071120E+03  0.69633165063E+03  0.11760960341E+04  0.12699999809E+01 0. -1.
</event>
<event>
 5   0  0.6870370E-06  0.1902717E+04  0.7818609E-02  0.8653505E-01
       -2   -1    0    0    0  501  0.00000000000E+00  0.00000000000E+00  0.19825429914E+04  0.19825429914E+04  0.25500000920E-02 0.  1.
        2   -1    0    0  501    0  0.00000000000E+00  0.00000000000E+00 -0.45652628476E+03  0.45652628477E+03  0.25500000920E-02 0. -1.
    10030    2    1    2    0    0  0.00000000000E+00  0.00000000000E+00  0.15260167066E+04  0.24390692762E+04  0.19027169903E+04 0.  0.
        1    1    3    3  502    0  0.60283738945E+02 -0.14624678393E+03 -0.43955028379E+03  0.46714741035E+03  0.50400001928E-02 0. -1.
       -1    1    3    3    0  502 -0.60283738945E+02  0.14624678393E+03  0.19655669904E+04  0.19719218658E+04  0.50400001928E-02 0.  1.
</event>
<event>
 5   0  0.3495279E-06  0.1900072E+04  0.7818609E-02  0.8654820E-01
       -1   -1    0    0    0  501  0.00000000000E+00  0.00000000000E+00  0.15278996751E+04  0.15278996751E+04  0.50400001928E-02 0.  1.
        1   -1    0    0  501    0  0.00000000000E+00  0.00000000000E+00 -0.59072520653E+03  0.59072520655E+03  0.50400001928E-02 0. -1.
    10030    2    1    2    0    0  0.00000000000E+00  0.00000000000E+00  0.93717446854E+03  0.21186248816E+04  0.19000724735E+04 0.  0.
        2    1    3    3  502    0 -0.17135105277E+03 -0.39698680502E+03  0.14118264378E+04  0.14765546374E+04  0.25500000920E-02 0.  1.
       -2    1    3    3    0  502  0.17135105277E+03  0.39698680502E+03 -0.47465196926E+03  0.64207024427E+03  0.25500000920E-02 0. -1.
</event>
<event>
 5   0  0.7577180E-06  0.1900428E+04  0.7818609E-02  0.8654643E-01
        2   -1    0    0  501    0  0.00000000000E+00  0.00000000000E+00  0.49638165518E+03  0.49638165518E+03  0.25500000920E-02 0.  1.
       -2   -1    0    0    0  501  0.00000000000E+00  0.00000000000E+00 -0.18189774176E+04  0.18189774176E+04  0.25500000920E-02 0. -1.
    10030    2    1    2    0    0  0.00000000000E+00  0.00000000000E+00 -0.13225957624E+04  0.23153590728E+04  0.19004283952E+04 0.  0.
        5    1    3    3  502    0  0.58712666170E+03  0.67366403964E+03 -0.10548484391E+04  0.13824862656E+04  0.46999998093E+01 0.  1.
       -5    1    3    3    0  502 -0.58712666170E+03 -0.67366403964E+03 -0.26774732333E+03  0.93287280716E+03  0.46999998093E+01 0. -1.
</event>
<event>
 5   0  0.3495279E-06  0.1899726E+04  0.7818609E-02  0.8654993E-01
        1   -1    0    0  501    0  0.00000000000E+00  0.00000000000E+00  0.14969019271E+04  0.14969019271E+04  0.50400001928E-02 0. -1.
       -1   -1    0    0    0  501  0.00000000000E+00  0.00000000000E+00 -0.60273782312E+03  0.60273782314E+03  0.50400001928E-02 0.  1.
    10030    2    1    2    0    0  0.00000000000E+00  0.00000000000E+00  0.89416410398E+03  0.20996397502E+04  0.18997256739E+04 0.  0.
        2    1    3    3  502    0  0.13722919829E+03 -0.87405848296E+03  0.82903457408E+03  0.12124802718E+04  0.25500000920E-02 0. -1.
       -2    1    3    3    0  502 -0.13722919829E+03  0.87405848296E+03  0.65129529895E+02  0.88715947843E+03  0.25500000920E-02 0.  1.
</event>
<event>
 5   0  0.6984466E-06  0.1900201E+04  0.7818609E-02  0.8654756E-01
       -2   -1    0    0    0  501  0.00000000000E+00  0.00000000000E+00  0.73585797820E+03  0.73585797821E+03  0.25500000920E-02 0. -1.
        2   -1    0    0  501    0  0.00000000000E+00  0.00000000000E+00 -0.12267195816E+04  0.12267195816E+04  0.25500000920E-02 0.  1.
    10030    2    1    2    0    0  0.00000000000E+00  0.00000000000E+00 -0.49086160335E+03  0.19625775598E+04  0.19002014537E+04 0.  0.
        2    1    3    3  502    0  0.77053201724E+03  0.53360370581E+03 -0.84631737564E+02  0.94107121700E+03  0.25500000920E-02 0. -1.
       -2    1    3    3    0  502 -0.77053201724E+03 -0.53360370581E+03 -0.40622986579E+03  0.10215063428E+04  0.25500000920E-02 0.  1.
</event>
<event>
 5   0  0.6862201E-06  0.1899956E+04  0.7818609E-02  0.8654878E-01
       -2   -1    0    0    0  501  0.00000000000E+00  0.00000000000E+00  0.83328030522E+03  0.83328030522E+03  0.25500000920E-02 0.  1.
        2   -1    0    0  501    0  0.00000000000E+00  0.00000000000E+00 -0.10830184644E+04  0.10830184644E+04  0.25500000920E-02 0. -1.
    10030    2    1    2    0    0  0.00000000000E+00  0.00000000000E+00 -0.24973815917E+03  0.19162987696E+04  0.18999557432E+04 0.  0.
        3    1    3    3  502    0  0.29633190929E+03 -0.26861952518E+03 -0.99395900925E+03  0.10714119525E+04  0.10100000352E+00 0. -1.
       -3    1    3    3    0  502 -0.29633190929E+03  0.26861952518E+03  0.74422085008E+03  0.84488681707E+03  0.10100000352E+00 0.  1.
</event>
<event>
 5   0  0.2527750E-06  0.1900823E+04  0.7818609E-02  0.8654447E-01
        3   -1    0    0  501    0  0.00000000000E+00  0.00000000000E+00  0.11360889405E+04  0.11360889449E+04  0.10100000352E+00 0.  1.
       -3   -1    0    0    0  501  0.00000000000E+00  0.00000000000E+00 -0.79508068606E+03  0.79508069248E+03  0.10100000352E+00 0. -1.
    10030    2    1    2    0    0  0.00000000000E+00  0.00000000000E+00  0.34100825439E+03  0.19311696374E+04  0.19008233845E+04 0.  0.
        3    1    3    3  502    0 -0.66884893040E+03  0.44805867865E+03 -0.34270081508E+03  0.87496247352E+03  0.10100000352E+00 0. -1.
       -3    1    3    3    0  502  0.66884893040E+03 -0.44805867865E+03  0.68370906947E+03  0.10562071639E+04  0.10100000352E+00 0.  1.
</event>
<event>
 5   0  0.6870370E-06  0.1901543E+04  0.7818609E-02  0.8654089E-01
        2   -1    0    0  501    0  0.00000000000E+00  0.00000000000E+00  0.83423195121E+03  0.83423195121E+03  0.25500000920E-02 0.  1.
       -2   -1    0    0    0  501  0.00000000000E+00  0.00000000000E+00 -0.10835909531E+04  0.10835909531E+04  0.25500000920E-02 0. -1.
    10030    2    1    2    0    0  0.00000000000E+00  0.00000000000E+00 -0.24935900188E+03  0.19178229043E+04  0.19015427370E+04 0.  0.
        1    1    3    3  502    0 -0.16141750588E+03  0.40671978994E+03 -0.97599722261E+03  0.10696014105E+04  0.50400001928E-02 0. -1.
       -1    1    3    3    0  502  0.16141750588E+03 -0.40671978994E+03  0.72663822073E+03  0.84822149382E+03  0.50400001928E-02 0.  1.
</event>
<event>
 5   0  0.7207648E-06  0.1899678E+04  0.7818609E-02  0.8655017E-01
        2   -1    0    0  501    0  0.00000000000E+00  0.00000000000E+00  0.21806044451E+04  0.21806044451E+04  0.25500000920E-02 0.  1.
       -2   -1    0    0    0  501  0.00000000000E+00  0.00000000000E+00 -0.41373580695E+03  0.41373580696E+03  0.25500000920E-02 0. -1.
    10030    2    1    2    0    0  0.00000000000E+00  0.00000000000E+00  0.17668686382E+04  0.25943402521E+04  0.18996780146E+04 0.  0.
        4    1    3    3  502    0  0.11739277828E+03 -0.26466049205E+02 -0.40328179757E+03  0.42085548269E+03  0.12699999809E+01 0. -1.
       -4    1    3    3    0  502 -0.11739277828E+03  0.26466049205E+02  0.21701504358E+04  0.21734847694E+04  0.12699999809E+01 0.  1.
</event>
<event>
 5   0  0.3211263E-06  0.1899711E+04  0.7818609E-02  0.8655000E-01
       -1   -1    0    0    0  501  0.00000000000E+00  0.00000000000E+00  0.82447916852E+03  0.82447916853E+03  0.50400001928E-02 0.  1.
        1   -1    0    0  501    0  0.00000000000E+00  0.00000000000E+00 -0.10942979686E+04  0.10942979686E+04  0.50400001928E-02 0. -1.
    10030    2    1    2    0    0  0.00000000000E+00  0.00000000000E+00 -0.26981880011E+03  0.19187771372E+04  0.18997114300E+04 0.  0.
        5    1    3    3  502    0 -0.28163181574E+03  0.10928962259E+02 -0.10510783322E+04  0.10882204153E+04  0.46999998093E+01 0. -1.
       -5    1    3    3    0  502  0.28163181574E+03 -0.10928962259E+02  0.78125953206E+03  0.83055672190E+03  0.46999998093E+01 0.  1.
</event>
<event>
 5   0  0.3379108E-06  0.1899102E+04  0.7818609E-02  0.8655303E-01
       -1   -1    0    0    0  501  0.00000000000E+00  0.00000000000E+00  0.65490608174E+03  0.65490608176E+03  0.50400001928E-02 0. -1.
        1   -1    0    0  501    0  0.00000000000E+00  0.00000000000E+00 -0.13767581855E+04  0.13767581855E+04  0.50400001928E-02 0.  1.
    10030    2    1    2    0    0  0.00000000000E+00  0.00000000000E+00 -0.72185210376E+03  0.20316642673E+04  0.18991022182E+04 0.  0.
        4    1    3    3  502    0 -0.43529796425E+03  0.79969368429E+03 -0.64927977534E+03  0.11182844656E+04  0.12699999809E+01 0.  1.
       -4    1    3    3    0  502  0.43529796425E+03 -0.79969368429E+03 -0.72572328413E+02  0.91337980168E+03  0.12699999809E+01 0. -1.
</event>
<event>
 5   0  0.3211263E-06  0.1899917E+04  0.7818609E-02  0.8654898E-01
       -1   -1    0    0    0  501  0.00000000000E+00  0.00000000000E+00  0.61989198680E+03  0.61989198682E+03  0.50400001928E-02 0.  1.
        1   -1    0    0  501    0  0.00000000000E+00  0.00000000000E+00 -0.14557721387E+04  0.14557721387E+04  0.50400001928E-02 0. -1.
    10030    2    1    2    0    0  0.00000000000E+00  0.00000000000E+00 -0.83588015191E+03  0.20756641255E+04  0.18999173492E+04 0.  0.
        5    1    3    3  502    0 -0.63931726633E+03 -0.66533175893E+03 -0.66467750467E+03  0.11371944388E+04  0.46999998093E+01 0. -1.
       -5    1    3    3    0  502  0.63931726633E+03  0.66533175893E+03 -0.17120264724E+03  0.93846968672E+03  0.46999998093E+01 0.  1.
</event>
<event>
 5   0  0.6862201E-06  0.1898081E+04  0.7818609E-02  0.8655812E-01
       -2   -1    0    0    0  501  0.00000000000E+00  0.00000000000E+00  0.72266479146E+03  0.72266479147E+03  0.25500000920E-02 0.  1.
        2   -1    0    0  501    0  0.00000000000E+00  0.00000000000E+00 -0.12463282523E+04  0.12463282523E+04  0.25500000920E-02 0. -1.
    10030    2    1    2    0    0  0.00000000000E+00  0.00000000000E+00 -0.52366346087E+03  0.19689930438E+04  0.18980806585E+04 0.  0.
        3    1    3    3  502    0  0.87955158786E+03 -0.24404879541E+03  0.76957437132E+01  0.91281435403E+03  0.10100000352E+00 0.  1.
       -3    1    3    3    0  502 -0.87955158786E+03  0.24404879541E+03 -0.53135920458E+03  0.10561786898E+04  0.10100000352E+00 0. -1.
</event>
<event>
 5   0  0.6984466E-06  0.1900079E+04  0.7818609E-02  0.8654817E-01
        2   -1    0    0  501    0  0.00000000000E+00  0.00000000000E+00  0.71293473895E+03  0.71293473896E+03  0.25500000920E-02 0.  1.
       -2   -1    0    0    0  501  0.00000000000E+00  0.00000000000E+00 -0.12659998081E+04  0.12659998081E+04  0.25500000920E-02 0. -1.
    10030    2    1    2    0    0  0.00000000000E+00  0.00000000000E+00 -0.55306506915E+03  0.19789345471E+04  0.19000792012E+04 0.  0.
        2    1    3    3  502    0 -0.49840467865E+03 -0.52077385914E+03 -0.92105477994E+03  0.11695958891E+04  0.25500000920E-02 0. -1.
       -2    1    3    3    0  502  0.49840467865E+03  0.52077385914E+03  0.36798971080E+03  0.80933865799E+03  0.25500000920E-02 0.  1.
</event>
<event>
 5   0  0.7577180E-06  0.1899983E+04  0.7818609E-02  0.8654865E-01
        2   -1    0    0  501    0  0.00000000000E+00  0.00000000000E+00  0.20021638509E+04  0.20021638509E+04  0.25500000920E-02 0. -1.
       -2   -1    0    0    0  501  0.00000000000E+00  0.00000000000E+00 -0.45075438263E+03  0.45075438264E+03  0.25500000920E-02 0.  1.
    10030    2    1    2    0    0  0.00000000000E+00  0.00000000000E+00  0.15514094683E+04  0.24529182335E+04  0.18999832953E+04 0.  0.
        5    1    3    3  502    0  0.32441878900E+03 -0.31053944763E+03  0.18564517825E+04  0.19100046100E+04  0.46999998093E+01 0. -1.
       -5    1    3    3    0  502 -0.32441878900E+03  0.31053944763E+03 -0.30504231427E+03  0.54291362359E+03  0.46999998093E+01 0.  1.
</event>
<event>
 5   0  0.3379108E-06  0.1899878E+04  0.7818609E-02  0.8654917E-01
       -1   -1    0    0    0  501  0.00000000000E+00  0.00000000000E+00  0.54082811526E+03  0.54082811528E+03  0.50400001928E-02 0. -1.
        1   -1    0    0  501    0  0.00000000000E+00  0.00000000000E+00 -0.16685227502E+04  0.16685227503E+04  0.50400001928E-02 0.  1.
    10030    2    1    2    0    0  0.00000000000E+00  0.00000000000E+00 -0.11276946350E+04  0.22093508655E+04  0.18998779059E+04 0.  0.
        4    1    3    3  502    0  0.29285744782E+03 -0.86244165555E+03 -0.87763682235E+03  0.12648395546E+04  0.12699999809E+01 0.  1.
       -4    1    3    3    0  502 -0.29285744782E+03  0.86244165555E+03 -0.25005781264E+03  0.94451131096E+03  0.12699999809E+01 0. -1.
</event>
<event>
 5   0  0.3398807E-06  0.1899687E+04  0.7818609E-02  0.8655012E-01
        1   -1    0    0  501    0  0.00000000000E+00  0.00000000000E+00  0.14311896438E+04  0.14311896438E+04  0.50400001928E-02 0. -1.
       -1   -1    0    0    0  501  0.00000000000E+00  0.00000000000E+00 -0.63038670449E+03  0.63038670451E+03  0.50400001928E-02 0.  1.
    10030    2    1    2    0    0  0.00000000000E+00  0.00000000000E+00  0.80080293933E+03  0.20615763483E+04  0.18996872617E+04 0.  0.
        1    1    3    3  502    0  0.48903389639E+02  0.70182866246E+03  0.10929444708E+04  0.12998009960E+04  0.50400001928E-02 0. -1.
       -1    1    3    3    0  502 -0.48903389639E+02 -0.70182866246E+03 -0.29214153147E+03  0.76177535232E+03  0.50400001928E-02 0.  1.
</event>
<event>
 5   0  0.6984466E-06  0.1901840E+04  0.7818609E-02  0.8653941E-01
        2   -1    0    0  501    0  0.00000000000E+00  0.00000000000E+00  0.10726817535E+04  0.10726817535E+04  0.25500000920E-02 0.  1.
       -2   -1    0    0    0  501  0.00000000000E+00  0.00000000000E+00 -0.84297941642E+03  0.84297941642E+03  0.25500000920E-02 0. -1.
    10030    2    1    2    0    0  0.00000000000E+00  0.00000000000E+00  0.22970233712E+03  0.19156611700E+04  0.19018397815E+04 0.  0.
        2    1    3    3  502    0  0.29358428240E+03 -0.10551060488E+03 -0.78996676174E+03  0.84933603672E+03  0.25500000920E-02 0. -1.
       -2    1    3    3    0  502 -0.29358428240E+03  0.10551060488E+03  0.10196690989E+04  0.10663251332E+04  0.25500000920E-02 0.  1.
</event>
<event>
 5   0  0.2527750E-06  0.1900115E+04  0.7818609E-02  0.8654799E-01
       -3   -1    0    0    0  501  0.00000000000E+00  0.00000000000E+00  0.68116809738E+03  0.68116810487E+03  0.10100000352E+00 0.  1.
        3   -1    0    0  501    0  0.00000000000E+00  0.00000000000E+00 -0.13250899364E+04  0.13250899402E+04  0.10100000352E+00 0. -1.
    10030    2    1    2    0    0  0.00000000000E+00  0.00000000000E+00 -0.64392183897E+03  0.20062580451E+04  0.19001147357E+04 0.  0.
        1    1    3    3  502    0 -0.30959739020E+03 -0.79420772426E+03  0.12098846837E+03  0.86096147579E+03  0.50400001928E-02 0.  1.
       -1    1    3    3    0  502  0.30959739020E+03  0.79420772426E+03 -0.76491030734E+03  0.11452965693E+04  0.50400001928E-02 0. -1.
</event>
<event>
 5   0  0.3379108E-06  0.1900080E+04  0.7818609E-02  0.8654817E-01
       -1   -1    0    0    0  501  0.00000000000E+00  0.00000000000E+00  0.69590105843E+03  0.69590105845E+03  0.50400001928E-02 0. -1.
        1   -1    0    0  501    0  0.00000000000E+00  0.00000000000E+00 -0.12969884133E+04  0.12969884133E+04  0.50400001928E-02 0.  1.
    10030    2    1    2    0    0  0.00000000000E+00  0.00000000000E+00 -0.60108735485E+03  0.19928894717E+04  0.19000795874E+04 0.  0.
        4    1    3    3  502    0  0.19350206436E+03 -0.67516115330E+03 -0.97154923915E+03  0.11988307507E+04  0.12699999809E+01 0.  1.
       -4    1    3    3    0  502 -0.19350206436E+03  0.67516115330E+03  0.37046188430E+03  0.79405872104E+03  0.12699999809E+01 0. -1.
</event>
<event>
 5   0  0.7207648E-06  0.1896820E+04  0.7818609E-02  0.8656441E-01
        2   -1    0    0  501    0  0.00000000000E+00  0.00000000000E+00  0.16658704152E+04  0.16658704152E+04  0.25500000920E-02 0. -1.
       -2   -1    0    0    0  501  0.00000000000E+00  0.00000000000E+00 -0.53994667698E+03  0.53994667699E+03  0.25500000920E-02 0.  1.
    10030    2    1    2    0    0  0.00000000000E+00  0.00000000000E+00  0.11259237382E+04  0.22058170922E+04  0.18968196488E+04 0.  0.
        4    1    3    3  502    0  0.43016617562E+03  0.34786217176E+03 -0.33287241093E+03  0.64564439442E+03  0.12699999809E+01 0.  1.
       -4    1    3    3    0  502 -0.43016617562E+03 -0.34786217176E+03  0.14587961491E+04  0.15601726978E+04  0.12699999809E+01 0. -1.
</event>
<event>
 5   0  0.3211263E-06  0.1901930E+04  0.7818609E-02  0.8653896E-01
       -1   -1    0    0    0  501  0.00000000000E+00  0.00000000000E+00  0.83489791237E+03  0.83489791238E+03  0.50400001928E-02 0. -1.
        1   -1    0    0  501    0  0.00000000000E+00  0.00000000000E+00 -0.10831675604E+04  0.10831675604E+04  0.50400001928E-02 0.  1.
    10030    2    1    2    0    0  0.00000000000E+00  0.00000000000E+00 -0.24826964802E+03  0.19180654728E+04  0.19019298987E+04 0.  0.
        5    1    3    3  502    0  0.18542032785E+03 -0.20911737939E+03  0.79253282234E+03  0.84038154479E+03  0.46999998093E+01 0. -1.
       -5    1    3    3    0  502 -0.18542032785E+03  0.20911737939E+03 -0.10408024704E+04  0.10776839280E+04  0.46999998093E+01 0.  1.
</event>
<event>
 5   0  0.6862201E-06  0.1898648E+04  0.7818609E-02  0.8655530E-01
        2   -1    0    0  501    0  0.00000000000E+00  0.00000000000E+00  0.21178620162E+04  0.21178620162E+04  0.25500000920E-02 0.  1.
       -2   -1    0    0    0  501  0.00000000000E+00  0.00000000000E+00 -0.42553091875E+03  0.42553091876E+03  0.25500000920E-02 0. -1.
    10030    2    1    2    0    0  0.00000000000E+00  0.00000000000E+00  0.16923310974E+04  0.25433929349E+04  0.18986476972E+04 0.  0.
        3    1    3    3  502    0  0.19961645467E+03 -0.75458425878E+03  0.15700002479E+04  0.17533239636E+04  0.10100000352E+00 0.  1.
       -3    1    3    3    0  502 -0.19961645467E+03  0.75458425878E+03  0.12233084950E+03  0.79006897136E+03  0.10100000352E+00 0. -1.
</event>
<event>
 5   0  0.6870370E-06  0.1900989E+04  0.7818609E-02  0.8654364E-01
        2   -1    0    0  501    0  0.00000000000E+00  0.00000000000E+00  0.99633173509E+03  0.99633173509E+03  0.25500000920E-02 0. -1.
       -2   -1    0    0    0  501  0.00000000000E+00  0.00000000000E+00 -0.90676572744E+03  0.90676572744E+03  0.25500000920E-02 0.  1.
    10030    2    1    2    0    0  0.00000000000E+00  0.00000000000E+00  0.89566007651E+02  0.19030974625E+04  0.19009886591E+04 0.  0.
        1    1    3    3  502    0 -0.26388173157E+03  0.63286897158E+03  0.70375538422E+03  0.98256213254E+03  0.50400001928E-02 0. -1.
       -1    1    3    3    0  502  0.26388173157E+03 -0.63286897158E+03 -0.61418937657E+03  0.92053533000E+03  0.50400001928E-02 0.  1.
</event>
<event>
 5   0  0.3236653E-06  0.1900071E+04  0.7818609E-02  0.8654821E-01
        1   -1    0    0  501    0  0.00000000000E+00  0.00000000000E+00  0.90888570644E+03  0.90888570645E+03  0.50400001928E-02 0. -1.
       -1   -1    0    0    0  501  0.00000000000E+00  0.00000000000E+00 -0.99304819082E+03  0.99304819084E+03  0.50400001928E-02 0.  1.
    10030    2    1    2    0    0  0.00000000000E+00  0.00000000000E+00 -0.84162484383E+02  0.19019338973E+04  0.19000708476E+04 0.  0.
        3    1    3    3  502    0 -0.31889881673E+03 -0.63232021698E+03  0.59181845478E+03  0.92291625066E+03  0.10100000352E+00 0. -1.
       -3    1    3    3    0  502  0.31889881673E+03  0.63232021698E+03 -0.67598093916E+03  0.97901764663E+03  0.10100000352E+00 0.  1.
</event>
<event>
 5   0  0.3379108E-06  0.1900529E+04  0.7818609E-02  0.8654593E-01
       -1   -1    0    0    0  501  0.00000000000E+00  0.00000000000E+00  0.53537432675E+03  0.53537432677E+03  0.50400001928E-02 0. -1.
        1   -1    0    0  501    0  0.00000000000E+00  0.00000000000E+00 -0.16866758662E+04  0.16866758662E+04  0.50400001928E-02 0.  1.
    10030    2    1    2    0    0  0.00000000000E+00  0.00000000000E+00 -0.11513015395E+04  0.22220501930E+04  0.19005293540E+04 0.  0.
        4    1    3    3  502    0  0.63546500849E+03 -0.24431069747E+03 -0.13507506330E+04  0.15126243352E+04  0.12699999809E+01 0.  1.
       -4    1    3    3    0  502 -0.63546500849E+03  0.24431069747E+03  0.19944909355E+03  0.70942585781E+03  0.12699999809E+01 0. -1.
</event>
<event>
 5   0  0.3379108E-06  0.1900099E+04  0.7818609E-02  0.8654807E-01
       -1   -1    0    0    0  501  0.00000000000E+00  0.00000000000E+00  0.58739315373E+03  0.58739315375E+03  0.50400001928E-02 0.  1.
        1   -1    0    0  501    0  0.00000000000E+00  0.00000000000E+00 -0.15366104293E+04  0.15366104293E+04  0.50400001928E-02 0. -1.
    10030    2    1    2    0    0  0.00000000000E+00  0.00000000000E+00 -0.94921727556E+03  0.21240035830E+04  0.19000994144E+04 0.  0.
        4    1    3    3  502    0 -0.86284904300E+02  0.88953343177E+03 -0.83488913817E+03  0.12230111597E+04  0.12699999809E+01 0. -1.
       -4    1    3    3    0  502  0.86284904300E+02 -0.88953343177E+03 -0.11432813739E+03  0.90099242330E+03  0.12699999809E+01 0.  1.
</event>
<event>
 5   0  0.3379108E-06  0.1899892E+04  0.7818609E-02  0.8654910E-01
        1   -1    0    0  501    0  0.00000000000E+00  0.00000000000E+00  0.98023793265E+03  0.98023793266E+03  0.50400001928E-02 0.  1.
       -1   -1    0    0    0  501  0.00000000000E+00  0.00000000000E+00 -0.92059022179E+03  0.92059022180E+03  0.50400001928E-02 0. -1.
    10030    2    1    2    0    0  0.00000000000E+00  0.00000000000E+00  0.59647710858E+02  0.19008281545E+04  0.18998920557E+04 0.  0.
        4    1    3    3  502    0 -0.38933258406E+03 -0.82768279259E+03  0.28638182431E+03  0.95846482896E+03  0.12699999809E+01 0.  1.
       -4    1    3    3    0  502  0.38933258406E+03  0.82768279259E+03 -0.22673411345E+03  0.94236332551E+03  0.12699999809E+01 0. -1.
</event>
<event>
 5   0  0.3236653E-06  0.1899717E+04  0.7818609E-02  0.8654997E-01
       -1   -1    0    0    0  501  0.00000000000E+00  0.00000000000E+00  0.69895435990E+03  0.69895435991E+03  0.50400001928E-02 0.  1.
        1   -1    0    0  501    0  0.00000000000E+00  0.00000000000E+00 -0.12908304165E+04  0.12908304166E+04  0.50400001928E-02 0. -1.
    10030    2    1    2    0    0  0.00000000000E+00  0.00000000000E+00 -0.59187605665E+03  0.19897847765E+04  0.18997173975E+04 0.  0.
        3    1    3    3  502    0 -0.17996999081E+03  0.73620874270E+03 -0.89565650592E+03  0.11732830422E+04  0.10100000352E+00 0. -1.
       -3    1    3    3    0  502  0.17996999081E+03 -0.73620874270E+03  0.30378044928E+03  0.81650173422E+03  0.10100000352E+00 0.  1.
</event>
<event>
 5   0  0.7577180E-06  0.1898990E+04  0.7818609E-02  0.8655359E-01
        2   -1    0    0  501    0  0.00000000000E+00  0.00000000000E+00  0.13610688474E+04  0.13610688474E+04  0.25500000920E-02 0. -1.
       -2   -1    0    0    0  501  0.00000000000E+00  0.00000000000E+00 -0.66237734091E+03  0.66237734092E+03  0.25500000920E-02 0.  1.
    10030    2    1    2    0    0  0.00000000000E+00  0.00000000000E+00  0.69869150645E+03  0.20234461883E+04  0.18989904306E+04 0.  0.
        5    1    3    3  502    0  0.13013380998E+03  0.15167225859E+03 -0.63970057481E+03  0.67020757824E+03  0.46999998093E+01 0.  1.
       -5    1    3    3    0  502 -0.13013380998E+03 -0.15167225859E+03  0.13383920813E+04  0.13532386100E+04  0.46999998093E+01 0. -1.
</event>
<event>
 5   0  0.6984466E-06  0.1899307E+04  0.7818609E-02  0.8655202E-01
       -2   -1    0    0    0  501  0.00000000000E+00  0.00000000000E+00  0.64811541996E+03  0.64811541996E+03  0.25500000920E-02 0. -1.
        2   -1    0    0  501    0  0.00000000000E+00  0.00000000000E+00 -0.13914828779E+04  0.13914828779E+04  0.25500000920E-02 0.  1.
    10030    2    1    2    0    0  0.00000000000E+00  0.00000000000E+00 -0.74336745793E+03  0.20395982979E+04  0.18993067259E+04 0.  0.
        2    1    3    3  502    0 -0.90836649950E+02  0.67684495195E+03 -0.10803295261E+04  0.12780775684E+04  0.25500000920E-02 0.  1.
       -2    1    3    3    0  502  0.90836649950E+02 -0.67684495195E+03  0.33696206816E+03  0.76152072943E+03  0.25500000920E-02 0. -1.
</event>
<event>
 5   0  0.3495279E-06  0.1900372E+04  0.7818609E-02  0.8654671E-01
       -1   -1    0    0    0  501  0.00000000000E+00  0.00000000000E+00  0.11716465980E+04  0.11716465980E+04  0.50400001928E-02 0. -1.
        1   -1    0    0  501    0  0.00000000000E+00  0.00000000000E+00 -0.77058527912E+03  0.77058527914E+03  0.50400001928E-02 0.  1.
    10030    2    1    2    0    0  0.00000000000E+00  0.00000000000E+00  0.40106131884E+03  0.19422318771E+04  0.19003721959E+04 0.  0.
        2    1    3    3  502    0 -0.72600817461E+03  0.40263876383E+02 -0.42461631582E+03  0.84202616646E+03  0.25500000920E-02 0.  1.
       -2    1    3    3    0  502  0.72600817461E+03 -0.40263876383E+02  0.82567763466E+03  0.11002057106E+04  0.25500000920E-02 0. -1.
</event>
<event>
 5   0  0.3398807E-06  0.1900316E+04  0.7818609E-02  0.8654699E-01
       -1   -1    0    0    0  501  0.00000000000E+00  0.00000000000E+00  0.78938433742E+03  0.78938433744E+03  0.50400001928E-02 0.  1.
        1   -1    0    0  501    0  0.00000000000E+00  0.00000000000E+00 -0.11436768109E+04  0.11436768109E+04  0.50400001928E-02 0. -1.
    10030    2    1    2    0    0  0.00000000000E+00  0.00000000000E+00 -0.35429247351E+03  0.19330611484E+04  0.19003163544E+04 0.  0.
        1    1    3    3  502    0  0.73256973417E+03 -0.50531605899E+03 -0.51574495304E+03  0.10285891267E+04  0.50400001928E-02 0. -1.
       -1    1    3    3    0  502 -0.73256973417E+03  0.50531605899E+03  0.16145247953E+03  0.90447202171E+03  0.50400001928E-02 0.  1.
</event>
<event>
 5   0  0.3236653E-06  0.1898644E+04  0.7818609E-02  0.8655532E-01
       -1   -1    0    0    0  501  0.00000000000E+00  0.00000000000E+00  0.68129810725E+03  0.68129810727E+03  0.50400001928E-02 0.  1.
        1   -1    0    0  501    0  0.00000000000E+00  0.00000000000E+00 -0.13227871323E+04  0.13227871323E+04  0.50400001928E-02 0. -1.
    10030    2    1    2    0    0  0.00000000000E+00  0.00000000000E+00 -0.64148902506E+03  0.20040852396E+04  0.18986441157E+04 0.  0.
        3    1    3    3  502    0  0.91386287382E+03 -0.18942941592E+03 -0.13736219931E+03  0.94334364881E+03  0.10100000352E+00 0.  1.
       -3    1    3    3    0  502 -0.91386287382E+03  0.18942941592E+03 -0.50412682575E+03  0.10607415908E+04  0.10100000352E+00 0. -1.
</event>
<event>
 5   0  0.3398807E-06  0.1898447E+04  0.7818609E-02  0.8655630E-01
       -1   -1    0    0    0  501  0.00000000000E+00  0.00000000000E+00  0.15631390297E+04  0.15631390298E+04  0.50400001928E-02 0. -1.
        1   -1    0    0  501    0  0.00000000000E+00  0.00000000000E+00 -0.57642022545E+03  0.57642022547E+03  0.50400001928E-02 0.  1.
    10030    2    1    2    0    0  0.00000000000E+00  0.00000000000E+00  0.98671880430E+03  0.21395592552E+04  0.18984466829E+04 0.  0.
        1    1    3    3  502    0  0.46394919471E+03  0.58789941600E+03  0.11506560087E+04  0.13729107141E+04  0.50400001928E-02 0. -1.
       -1    1    3    3    0  502 -0.46394919471E+03 -0.58789941600E+03 -0.16393720437E+03  0.76664854112E+03  0.50400001928E-02 0.  1.
</event>
<event>
 5   0  0.3379108E-06  0.1900154E+04  0.7818609E-02  0.8654780E-01
        1   -1    0    0  501    0  0.00000000000E+00  0.00000000000E+00  0.74259901140E+03  0.74259901142E+03  0.50400001928E-02 0. -1.
       -1   -1    0    0    0  501  0.00000000000E+00  0.00000000000E+00 -0.12155226676E+04  0.12155226676E+04  0.50400001928E-02 0.  1.
    10030    2    1    2    0    0  0.00000000000E+00  0.00000000000E+00 -0.47292365621E+03  0.19581216790E+04  0.19001536057E+04 0.  0.
        4    1    3    3  502    0 -0.72880600294E+03 -0.60275780729E+03 -0.14332112447E+03  0.95656558676E+03  0.12699999809E+01 0. -1.
       -4    1    3    3    0  502  0.72880600294E+03  0.60275780729E+03 -0.32960253174E+03  0.10015560923E+04  0.12699999809E+01 0.  1.
</event>
<event>
 5   0  0.3379108E-06  0.1898380E+04  0.7818609E-02  0.8655663E-01
        1   -1    0    0  501    0  0.00000000000E+00  0.00000000000E+00  0.20944326726E+04  0.20944326726E+04  0.50400001928E-02 0. -1.
       -1   -1    0    0    0  501  0.00000000000E+00  0.00000000000E+00 -0.43016957395E+03  0.43016957398E+03  0.50400001928E-02 0.  1.
    10030    2    1    2    0    0  0.00000000000E+00  0.00000000000E+00  0.16642630987E+04  0.25246022466E+04  0.18983795305E+04 0.  0.
        4    1    3    3  502    0 -0.14368188099E+03 -0.41507024425E+01 -0.41561032841E+03  0.43976728986E+03  0.12699999809E+01 0.  1.
       -4    1    3    3    0  502  0.14368188099E+03  0.41507024425E+01  0.20798734271E+04  0.20848349567E+04  0.12699999809E+01 0. -1.
</event>
<event>
 5   0  0.3236653E-06  0.1900719E+04  0.7818609E-02  0.8654499E-01
        1   -1    0    0  501    0  0.00000000000E+00  0.00000000000E+00  0.61160115377E+03  0.61160115379E+03  0.50400001928E-02 0. -1.
       -1   -1    0    0    0  501  0.00000000000E+00  0.00000000000E+00 -0.14767511482E+04  0.14767511482E+04  0.50400001928E-02 0.  1.
    10030    2    1    2    0    0  0.00000000000E+00  0.00000000000E+00 -0.86514999441E+03  0.20883523020E+04  0.19007185021E+04 0.  0.
        3    1    3    3  502    0 -0.41080270720E+03  0.24749680981E+03 -0.13340383354E+04  0.14176289450E+04  0.10100000352E+00 0.  1.
       -3    1    3    3    0  502  0.41080270720E+03 -0.24749680981E+03  0.46888834100E+03  0.67072335701E+03  0.10100000352E+00 0. -1.
</event>
<event>
 5   0  0.6984466E-06  0.1899342E+04  0.7818609E-02  0.8655184E-01
       -2   -1    0    0    0  501  0.00000000000E+00  0.00000000000E+00  0.10436791939E+04  0.10436791939E+04  0.25500000920E-02 0. -1.
        2   -1    0    0  501    0  0.00000000000E+00  0.00000000000E+00 -0.86413056658E+03  0.86413056659E+03  0.25500000920E-02 0.  1.
    10030    2    1    2    0    0  0.00000000000E+00  0.00000000000E+00  0.17954862735E+03  0.19078097605E+04  0.18993420895E+04 0.  0.
        2    1    3    3  502    0 -0.13481526179E+03  0.32501266246E+03  0.97578771425E+03  0.10372897613E+04  0.25500000920E-02 0. -1.
       -2    1    3    3    0  502  0.13481526179E+03 -0.32501266246E+03 -0.79623908690E+03  0.87051999924E+03  0.25500000920E-02 0.  1.
</event>
<event>
 5   0  0.3211263E-06  0.1900005E+04  0.7818609E-02  0.8654854E-01
        1   -1    0    0  501    0  0.00000000000E+00  0.00000000000E+00  0.55181991519E+03  0.55181991522E+03  0.50400001928E-02 0. -1.
       -1   -1    0    0    0  501  0.00000000000E+00  0.00000000000E+00 -0.16355057308E+04  0.16355057308E+04  0.50400001928E-02 0.  1.
    10030    2    1    2    0    0  0.00000000000E+00  0.00000000000E+00 -0.10836858156E+04  0.21873256460E+04  0.19000048776E+04 0.  0.
        5    1    3    3  502    0 -0.82710092824E+03  0.45403201720E+03 -0.41447016494E+03  0.10305574345E+04  0.46999998093E+01 0. -1.
       -5    1    3    3    0  502  0.82710092824E+03 -0.45403201720E+03 -0.66921565064E+03  0.11567682115E+04  0.46999998093E+01 0.  1.
</event>
<event>
 5   0  0.6870370E-06  0.1898885E+04  0.7818609E-02  0.8655412E-01
       -2   -1    0    0    0  501  0.00000000000E+00  0.00000000000E+00  0.56315194955E+03  0.56315194956E+03  0.25500000920E-02 0. -1.
        2   -1    0    0  501    0  0.00000000000E+00  0.00000000000E+00 -0.16007061994E+04  0.16007061994E+04  0.25500000920E-02 0.  1.
    10030    2    1    2    0    0  0.00000000000E+00  0.00000000000E+00 -0.10375542499E+04  0.21638581490E+04  0.18988847431E+04 0.  0.
        1    1    3    3  502    0 -0.72065316337E+03  0.12809151864E+03 -0.12078864840E+04  0.14123520019E+04  0.50400001928E-02 0.  1.
       -1    1    3    3    0  502  0.72065316337E+03 -0.12809151864E+03  0.17033223417E+03  0.75150614704E+03  0.50400001928E-02 0. -1.
</event>
<event>
 5   0  0.3236653E-06  0.1901814E+04  0.7818609E-02  0.8653954E-01
       -1   -1    0    0    0  501  0.00000000000E+00  0.00000000000E+00  0.40890866124E+03  0.40890866128E+03  0.50400001928E-02 0. -1.
        1   -1    0    0  501    0  0.00000000000E+00  0.00000000000E+00 -0.22113096881E+04  0.22113096881E+04  0.50400001928E-02 0.  1.
    10030    2    1    2    0    0  0.00000000000E+00  0.00000000000E+00 -0.18024010268E+04  0.26202183493E+04  0.19018135389E+04 0.  0.
        3    1    3    3  502    0  0.17071420983E+03 -0.32768104135E+03  0.30596512736E+03  0.47972166479E+03  0.10100000352E+00 0. -1.
       -3    1    3    3    0  502 -0.17071420983E+03  0.32768104135E+03 -0.21083661542E+04  0.21404966846E+04  0.10100000352E+00 0.  1.
</event>
<event>
 5   0  0.6870370E-06  0.1898892E+04  0.7818609E-02  0.8655408E-01
        2   -1    0    0  501    0  0.00000000000E+00  0.00000000000E+00  0.23484609725E+04  0.23484609725E+04  0.25500000920E-02 0.  1.
       -2   -1    0    0    0  501  0.00000000000E+00  0.00000000000E+00 -0.38384608482E+03  0.38384608483E+03  0.25500000920E-02 0. -1.
    10030    2    1    2    0    0  0.00000000000E+00  0.00000000000E+00  0.19646148877E+04  0.27323070573E+04  0.18988918344E+04 0.  0.
        1    1    3    3  502    0  0.68745942871E+03 -0.50613225228E+03  0.15802325777E+04  0.17960805446E+04  0.50400001928E-02 0.  1.
       -1    1    3    3    0  502 -0.68745942871E+03  0.50613225228E+03  0.38438230993E+03  0.93622651272E+03  0.50400001928E-02 0. -1.
</event>
<event>
 5   0  0.3398807E-06  0.1900469E+04  0.7818609E-02  0.8654623E-01
       -1   -1    0    0    0  501  0.00000000000E+00  0.00000000000E+00  0.58182362473E+03  0.58182362476E+03  0.50400001928E-02 0. -1.
        1   -1    0    0  501    0  0.00000000000E+00  0.00000000000E+00 -0.15519231894E+04  0.15519231894E+04  0.50400001928E-02 0.  1.
    10030    2    1    2    0    0  0.00000000000E+00  0.00000000000E+00 -0.97009956462E+03  0.21337468141E+04  0.19004689688E+04 0.  0.
        1    1    3    3  502    0 -0.31966733656E+03  0.98002884343E+00 -0.14897409531E+04  0.15236522812E+04  0.50400001928E-02 0.  1.
       -1    1    3    3    0  502  0.31966733656E+03 -0.98002884343E+00  0.51964138847E+03  0.61009453297E+03  0.50400001928E-02 0. -1.
</event>
<event>
 5   0  0.7577180E-06  0.1899727E+04  0.7818609E-02  0.8654993E-01
        2   -1    0    0  501    0  0.00000000000E+00  0.00000000000E+00  0.86211609807E+03  0.86211609807E+03  0.25500000920E-02 0. -1.
       -2   -1    0    0    0  501  0.00000000000E+00  0.00000000000E+00 -0.10465414306E+04  0.10465414306E+04  0.25500000920E-02 0.  1.
    10030    2    1    2    0    0  0.00000000000E+00  0.00000000000E+00 -0.18442533250E+03  0.19086575286E+04  0.18997265220E+04 0.  0.
        5    1    3    3  502    0 -0.28169369383E+03 -0.14938586462E+03 -0.99115396132E+03  0.10411895787E+04  0.46999998093E+01 0.  1.
       -5    1    3    3    0  502  0.28169369383E+03  0.14938586462E+03  0.80672862882E+03  0.86746794998E+03  0.46999998093E+01 0. -1.
</event>
<event>
 5   0  0.3495279E-06  0.1899956E+04  0.7818609E-02  0.8654878E-01
        1   -1    0    0  501    0  0.00000000000E+00  0.00000000000E+00  0.11391029604E+04  0.11391029604E+04  0.50400001928E-02 0. -1.
       -1   -1    0    0    0  501  0.00000000000E+00  0.00000000000E+00 -0.79225303776E+03  0.79225303778E+03  0.50400001928E-02 0.  1.
    10030    2    1    2    0    0  0.00000000000E+00  0.00000000000E+00  0.34684992267E+03  0.19313559982E+04  0.18999555582E+04 0.  0.
        2    1    3    3  502    0  0.94455744011E+03 -0.14826508505E+01  0.70425022593E+02  0.94718036283E+03  0.25500000920E-02 0. -1.
       -2    1    3    3    0  502 -0.94455744011E+03  0.14826508505E+01  0.27642490008E+03  0.98417563539E+03  0.25500000920E-02 0.  1.
</event>
<event>
 5   0  0.6862201E-06  0.1899392E+04  0.7818609E-02  0.8655159E-01
       -2   -1    0    0    0  501  0.00000000000E+00  0.00000000000E+00  0.39273902017E+03  0.39273902018E+03  0.25500000920E-02 0. -1.
        2   -1    0    0  501    0  0.00000000000E+00  0.00000000000E+00 -0.22964931643E+04  0.22964931643E+04  0.25500000920E-02 0.  1.
    10030    2    1    2    0    0  0.00000000000E+00  0.00000000000E+00 -0.19037541441E+04  0.26892321845E+04  0.18993919819E+04 0.  0.
        3    1    3    3  502    0 -0.43612217851E+03 -0.10176074156E+02  0.24248680859E+03  0.49910516889E+03  0.10100000352E+00 0. -1.
       -3    1    3    3    0  502  0.43612217851E+03  0.10176074156E+02 -0.21462409527E+04  0.21901270156E+04  0.10100000352E+00 0.  1.
</event>
<event>
 5   0  0.6984466E-06  0.1899673E+04  0.7818609E-02  0.8655019E-01
       -2   -1    0    0    0  501  0.00000000000E+00  0.00000000000E+00  0.92992516073E+03  0.92992516074E+03  0.25500000920E-02 0.  1.
        2   -1    0    0  501    0  0.00000000000E+00  0.00000000000E+00 -0.97017376528E+03  0.97017376528E+03  0.25500000920E-02 0. -1.
    10030    2    1    2    0    0  0.00000000000E+00  0.00000000000E+00 -0.40248604545E+02  0.19000989260E+04  0.18996725977E+04 0.  0.
        2    1    3    3  502    0 -0.15801854348E+03 -0.32816211997E+03  0.85730044929E+03  0.93146352448E+03  0.25500000920E-02 0.  1.
       -2    1    3    3    0  502  0.15801854348E+03  0.32816211997E+03 -0.89754905384E+03  0.96863540154E+03  0.25500000920E-02 0. -1.
</event>
<event>
 5   0  0.3495279E-06  0.1899682E+04  0.7818609E-02  0.8655015E-01
       -1   -1    0    0    0  501  0.00000000000E+00  0.00000000000E+00  0.11152129464E+04  0.11152129464E+04  0.50400001928E-02 0.  1.
        1   -1    0    0  501    0  0.00000000000E+00  0.00000000000E+00 -0.80899150929E+03  0.80899150930E+03  0.50400001928E-02 0. -1.
    10030    2    1    2    0    0  0.00000000000E+00  0.00000000000E+00  0.30622143714E+03  0.19242044557E+04  0.18996818731E+04 0.  0.
        2    1    3    3  502    0  0.11702489161E+03  0.75276768060E+03  0.72774682390E+03  0.10535508749E+04  0.25500000920E-02 0.  1.
       -2    1    3    3    0  502 -0.11702489161E+03 -0.75276768060E+03 -0.42152538676E+03  0.87065358088E+03  0.25500000920E-02 0. -1.
</event>
<event>
 5   0  0.7577180E-06  0.1899958E+04  0.7818609E-02  0.8654877E-01
       -2   -1    0    0    0  501  0.00000000000E+00  0.00000000000E+00  0.16378752836E+04  0.16378752836E+04  0.25500000920E-02 0.  1.
        2   -1    0    0  501    0  0.00000000000E+00  0.00000000000E+00 -0.55099419364E+03  0.55099419365E+03  0.25500000920E-02 0. -1.
    10030    2    1    2    0    0  0.00000000000E+00  0.00000000000E+00  0.10868810900E+04  0.21888694773E+04  0.18999576534E+04 0.  0.
        5    1    3    3  502    0  0.50997754322E+03  0.17341716402E+03  0.14449151342E+04  0.15420611021E+04  0.46999998093E+01 0.  1.
       -5    1    3    3    0  502 -0.50997754322E+03 -0.17341716402E+03 -0.35803404426E+03  0.64680837519E+03  0.46999998093E+01 0. -1.
</event>
<event>
 5   0  0.7577180E-06  0.1901268E+04  0.7818609E-02  0.8654225E-01
        2   -1    0    0  501    0  0.00000000000E+00  0.00000000000E+00  0.13404776561E+04  0.13404776561E+04  0.25500000920E-02 0. -1.
       -2   -1    0    0    0  501  0.00000000000E+00  0.00000000000E+00 -0.67416646833E+03  0.67416646833E+03  0.25500000920E-02 0.  1.
    10030    2    1    2    0    0  0.00000000000E+00  0.00000000000E+00  0.66631118776E+03  0.20146441244E+04  0.19012680898E+04 0.  0.
        5    1    3    3  502    0  0.50353740321E+03 -0.57561512315E+03 -0.26513799686E+03  0.80944606603E+03  0.46999998093E+01 0.  1.
       -5    1    3    3    0  502 -0.50353740321E+03  0.57561512315E+03  0.93144918463E+03  0.12051980584E+04  0.46999998093E+01 0. -1.
</event>
<event>
 5   0  0.6862201E-06  0.1899231E+04  0.7818609E-02  0.8655239E-01
        2   -1    0    0  501    0  0.00000000000E+00  0.00000000000E+00  0.76228224797E+03  0.76228224797E+03  0.25500000920E-02 0.  1.
       -2   -1    0    0    0  501  0.00000000000E+00  0.00000000000E+00 -0.11829860183E+04  0.11829860183E+04  0.25500000920E-02 0. -1.
    10030    2    1    2    0    0  0.00000000000E+00  0.00000000000E+00 -0.42070377030E+03  0.19452682662E+04  0.18992306246E+04 0.  0.
        3    1    3    3  502    0  0.47522276327E+03 -0.66017018348E+03  0.29153403116E+03  0.86409111059E+03  0.10100000352E+00 0.  1.
       -3    1    3    3    0  502 -0.47522276327E+03  0.66017018348E+03 -0.71223780145E+03  0.10811771557E+04  0.10100000352E+00 0. -1.
</event>
<event>
 5   0  0.6870370E-06  0.1889852E+04  0.7818609E-02  0.8659924E-01
       -2   -1    0    0    0  501  0.00000000000E+00  0.00000000000E+00  0.97154179987E+03  0.97154179987E+03  0.25500000920E-02 0.  1.
        2   -1    0    0  501    0  0.00000000000E+00  0.00000000000E+00 -0.91903913151E+03  0.91903913151E+03  0.25500000920E-02 0. -1.
    10030    2    1    2    0    0  0.00000000000E+00  0.00000000000E+00  0.52502668362E+02  0.18905809314E+04  0.18898517741E+04 0.  0.
        1    1    3    3  502    0  0.72451555753E+03  0.16827483753E+03 -0.55676483882E+03  0.92909972544E+03  0.50400001928E-02 0. -1.
       -1    1    3    3    0  502 -0.72451555753E+03 -0.16827483753E+03  0.60926750718E+03  0.96148120594E+03  0.50400001928E-02 0.  1.
</event>
<event>
 5   0  0.3211263E-06  0.1899945E+04  0.7818609E-02  0.8654884E-01
       -1   -1    0    0    0  501  0.00000000000E+00  0.00000000000E+00  0.74799780562E+03  0.74799780563E+03  0.50400001928E-02 0.  1.
        1   -1    0    0  501    0  0.00000000000E+00  0.00000000000E+00 -0.12064845850E+04  0.12064845850E+04  0.50400001928E-02 0. -1.
    10030    2    1    2    0    0  0.00000000000E+00  0.00000000000E+00 -0.45848677942E+03  0.19544823907E+04  0.18999450751E+04 0.  0.
        5    1    3    3  502    0  0.69889950586E+03  0.61877794852E+03 -0.41059636121E+03  0.10197833744E+04  0.46999998093E+01 0. -1.
       -5    1    3    3    0  502 -0.69889950586E+03 -0.61877794852E+03 -0.47890418203E+02  0.93469901628E+03  0.46999998093E+01 0.  1.
</event>
<event>
 5   0  0.3398807E-06  0.1900543E+04  0.7818609E-02  0.8654586E-01
       -1   -1    0    0    0  501  0.00000000000E+00  0.00000000000E+00  0.65336604615E+03  0.65336604617E+03  0.50400001928E-02 0.  1.
        1   -1    0    0  501    0  0.00000000000E+00  0.00000000000E+00 -0.13820978941E+04  0.13820978941E+04  0.50400001928E-02 0. -1.
    10030    2    1    2    0    0  0.00000000000E+00  0.00000000000E+00 -0.72873184792E+03  0.20354639403E+04  0.19005429082E+04 0.  0.
        1    1    3    3  502    0  0.33256701750E+03  0.70682253474E+02 -0.13147271044E+04  0.13579779679E+04  0.50400001928E-02 0. -1.
       -1    1    3    3    0  502 -0.33256701750E+03 -0.70682253474E+02  0.58599525651E+03  0.67748597238E+03  0.50400001928E-02 0.  1.
</event>
<event>
 5   0  0.6984466E-06  0.1902727E+04  0.7818609E-02  0.8653500E-01
        2   -1    0    0  501    0  0.00000000000E+00  0.00000000000E+00  0.10188467853E+04  0.10188467853E+04  0.25500000920E-02 0. -1.
       -2   -1    0    0    0  501  0.00000000000E+00  0.00000000000E+00 -0.88834981686E+03  0.88834981686E+03  0.25500000920E-02 0.  1.
    10030    2    1    2    0    0  0.00000000000E+00  0.00000000000E+00  0.13049696846E+03  0.19071966022E+04  0.19027268381E+04 0.  0.
        2    1    3    3  502    0 -0.61232321188E+03  0.35247497292E+03  0.70385898157E+03  0.99729423356E+03  0.25500000920E-02 0. -1.
       -2    1    3    3    0  502  0.61232321188E+03 -0.35247497292E+03 -0.57336201311E+03  0.90990236862E+03  0.25500000920E-02 0.  1.
</event>
<event>
 5   0  0.3495279E-06  0.1900038E+04  0.7818609E-02  0.8654837E-01
       -1   -1    0    0    0  501  0.00000000000E+00  0.00000000000E+00  0.76670005491E+03  0.76670005493E+03  0.50400001928E-02 0. -1.
        1   -1    0    0  501    0  0.00000000000E+00  0.00000000000E+00 -0.11771698334E+04  0.11771698334E+04  0.50400001928E-02 0.  1.
    10030    2    1    2    0    0  0.00000000000E+00  0.00000000000E+00 -0.41046977849E+03  0.19438698883E+04  0.19000380795E+04 0.  0.
        2    1    3    3  502    0  0.11359853277E+03 -0.60337537592E+02  0.75775011795E+03  0.76858993380E+03  0.25500000920E-02 0. -1.
       -2    1    3    3    0  502 -0.11359853277E+03  0.60337537592E+02 -0.11682198964E+04  0.11752799545E+04  0.25500000920E-02 0.  1.
</event>
<event>
 5   0  0.6870370E-06  0.1900466E+04  0.7818609E-02  0.8654624E-01
       -2   -1    0    0    0  501  0.00000000000E+00  0.00000000000E+00  0.11769432874E+04  0.11769432874E+04  0.25500000920E-02 0.  1.
        2   -1    0    0  501    0  0.00000000000E+00  0.00000000000E+00 -0.76719303624E+03  0.76719303625E+03  0.25500000920E-02 0. -1.
    10030    2    1    2    0    0  0.00000000000E+00  0.00000000000E+00  0.40975025112E+03  0.19441363236E+04  0.19004659367E+04 0.  0.
        1    1    3    3  502    0 -0.70109190175E+03 -0.19119076266E+03  0.83120129254E+03  0.11040739790E+04  0.50400001928E-02 0.  1.
       -1    1    3    3    0  502  0.70109190175E+03  0.19119076266E+03 -0.42145104142E+03  0.84006234458E+03  0.50400001928E-02 0. -1.
</event>
<event>
 5   0  0.7577180E-06  0.1902569E+04  0.7818609E-02  0.8653579E-01
       -2   -1    0    0    0  501  0.00000000000E+00  0.00000000000E+00  0.45022106840E+03  0.45022106841E+03  0.25500000920E-02 0. -1.
        2   -1    0    0  501    0  0.00000000000E+00  0.00000000000E+00 -0.20099952919E+04  0.20099952919E+04  0.25500000920E-02 0.  1.
    10030    2    1    2    0    0  0.00000000000E+00  0.00000000000E+00 -0.15597742235E+04  0.24602163603E+04  0.19025690293E+04 0.  0.
        5    1    3    3  502    0  0.47759771111E+03 -0.16441676443E+03 -0.18222492298E+04  0.18909645135E+04  0.46999998093E+01 0.  1.
       -5    1    3    3    0  502 -0.47759771111E+03  0.16441676443E+03  0.26247500630E+03  0.56925184673E+03  0.46999998093E+01 0. -1.
</event>
<event>
 5   0  0.3236653E-06  0.1899919E+04  0.7818609E-02  0.8654897E-01
       -1   -1    0    0    0  501  0.00000000000E+00  0.00000000000E+00  0.11556050275E+04  0.11556050275E+04  0.50400001928E-02 0.  1.
        1   -1    0    0  501    0  0.00000000000E+00  0.00000000000E+00 -0.78090964371E+03  0.78090964372E+03  0.50400001928E-02 0. -1.
    10030    2    1    2    0    0  0.00000000000E+00  0.00000000000E+00  0.37469538377E+03  0.19365146712E+04  0.18999190617E+04 0.  0.
        3    1    3    3  502    0  0.14376028175E+03 -0.27103113517E+03 -0.72902364998E+03  0.79094904214E+03  0.10100000352E+00 0. -1.
       -3    1    3    3    0  502 -0.14376028175E+03  0.27103113517E+03  0.11037190337E+04  0.11455656291E+04  0.10100000352E+00 0.  1.
</event>
<event>
 5   0  0.3211263E-06  0.1900278E+04  0.7818609E-02  0.8654718E-01
       -1   -1    0    0    0  501  0.00000000000E+00  0.00000000000E+00  0.60624351765E+03  0.60624351767E+03  0.50400001928E-02 0. -1.
        1   -1    0    0  501    0  0.00000000000E+00  0.00000000000E+00 -0.14891107113E+04  0.14891107113E+04  0.50400001928E-02 0.  1.
    10030    2    1    2    0    0  0.00000000000E+00  0.00000000000E+00 -0.88286719365E+03  0.20953542290E+04  0.19002775753E+04 0.  0.
        5    1    3    3  502    0  0.21033699895E+03 -0.53857637765E+03 -0.12727780240E+04  0.13979599980E+04  0.46999998093E+01 0.  1.
       -5    1    3    3    0  502 -0.21033699895E+03  0.53857637765E+03  0.38991083038E+03  0.69739423093E+03  0.46999998093E+01 0. -1.
</event>
<event>
 5   0  0.6870370E-06  0.1899705E+04  0.7818609E-02  0.8655003E-01
       -2   -1    0    0    0  501  0.00000000000E+00  0.00000000000E+00  0.75995041319E+03  0.75995041319E+03  0.25500000920E-02 0.  1.
        2   -1    0    0  501    0  0.00000000000E+00  0.00000000000E+00 -0.11872088787E+04  0.11872088787E+04  0.25500000920E-02 0. -1.
    10030    2    1    2    0    0  0.00000000000E+00  0.00000000000E+00 -0.42725846549E+03  0.19471592919E+04  0.18997051117E+04 0.  0.
        1    1    3    3  502    0 -0.37800830029E+03  0.41278400041E+03  0.57296441884E+03  0.80098010673E+03  0.50400001928E-02 0.  1.
       -1    1    3    3    0  502  0.37800830029E+03 -0.41278400041E+03 -0.10002228843E+04  0.11461791851E+04  0.50400001928E-02 0. -1.
</event>
<event>
 5   0  0.7207648E-06  0.1900152E+04  0.7818609E-02  0.8654781E-01
        2   -1    0    0  501    0  0.00000000000E+00  0.00000000000E+00  0.72897112561E+03  0.72897112561E+03  0.25500000920E-02 0.  1.
       -2   -1    0    0    0  501  0.00000000000E+00  0.00000000000E+00 -0.12382440371E+04  0.12382440371E+04  0.25500000920E-02 0. -1.
    10030    2    1    2    0    0  0.00000000000E+00  0.00000000000E+00 -0.50927291145E+03  0.19672151627E+04  0.19001517302E+04 0.  0.
        4    1    3    3  502    0 -0.54765291267E+03  0.73863412758E+03 -0.71634649518E+01  0.91954174201E+03  0.12699999809E+01 0.  1.
       -4    1    3    3    0  502  0.54765291267E+03 -0.73863412758E+03 -0.50210944649E+03  0.10476734206E+04  0.12699999809E+01 0. -1.
</event>
<event>
 5   0  0.3495279E-06  0.1899759E+04  0.7818609E-02  0.8654976E-01
        1   -1    0    0  501    0  0.00000000000E+00  0.00000000000E+00  0.24959308401E+04  0.24959308401E+04  0.50400001928E-02 0.  1.
       -1   -1    0    0    0  501  0.00000000000E+00  0.00000000000E+00 -0.36149670557E+03  0.36149670560E+03  0.50400001928E-02 0. -1.
    10030    2    1    2    0    0  0.00000000000E+00  0.00000000000E+00  0.21344341345E+04  0.28574275457E+04  0.18997586963E+04 0.  0.
        2    1    3    3  502    0 -0.83297566908E+03  0.44828646028E+03  0.93729239999E+03  0.13316629674E+04  0.25500000920E-02 0. -1.
       -2    1    3    3    0  502  0.83297566908E+03 -0.44828646028E+03  0.11971417346E+04  0.15257645783E+04  0.25500000920E-02 0.  1.
</event>
<event>
 5   0  0.3379108E-06  0.1901192E+04  0.7818609E-02  0.8654263E-01
       -1   -1    0    0    0  501  0.00000000000E+00  0.00000000000E+00  0.11188635711E+04  0.11188635711E+04  0.50400001928E-02 0. -1.
        1   -1    0    0  501    0  0.00000000000E+00  0.00000000000E+00 -0.80763465883E+03  0.80763465885E+03  0.50400001928E-02 0.  1.
    10030    2    1    2    0    0  0.00000000000E+00  0.00000000000E+00  0.31122891226E+03  0.19264982300E+04  0.19011922560E+04 0.  0.
        4    1    3    3  502    0  0.10225518092E+02 -0.27412466492E+03  0.10778843533E+04  0.11122433120E+04  0.12699999809E+01 0. -1.
       -4    1    3    3    0  502 -0.10225518092E+02  0.27412466492E+03 -0.76665544106E+03  0.81425491792E+03  0.12699999809E+01 0.  1.
</event>
<event>
 5   0  0.6862201E-06  0.1900031E+04  0.7818609E-02  0.8654841E-01
       -2   -1    0    0    0  501  0.00000000000E+00  0.00000000000E+00  0.15517861861E+04  0.15517861861E+04  0.25500000920E-02 0.  1.
        2   -1    0    0  501    0  0.00000000000E+00  0.00000000000E+00 -0.58160667193E+03  0.58160667193E+03  0.25500000920E-02 0. -1.
    10030    2    1    2    0    0  0.00000000000E+00  0.00000000000E+00  0.97017951417E+03  0.21333928580E+04  0.19000307358E+04 0.  0.
        3    1    3    3  502    0 -0.19883904779E+03  0.81201985476E+03  0.99174919547E+03  0.12971043475E+04  0.10100000352E+00 0. -1.
       -3    1    3    3    0  502  0.19883904779E+03 -0.81201985476E+03 -0.21569681303E+02  0.83628851051E+03  0.10100000352E+00 0.  1.
</event>
<event>
 5   0  0.3398807E-06  0.1899787E+04  0.7818609E-02  0.8654963E-01
        1   -1    0    0  501    0  0.00000000000E+00  0.00000000000E+00  0.75305423738E+03  0.75305423740E+03  0.50400001928E-02 0. -1.
       -1   -1    0    0    0  501  0.00000000000E+00  0.00000000000E+00 -0.11981837999E+04  0.11981837999E+04  0.50400001928E-02 0.  1.
    10030    2    1    2    0    0  0.00000000000E+00  0.00000000000E+00 -0.44512956249E+03  0.19512380373E+04  0.18997867119E+04 0.  0.
        1    1    3    3  502    0  0.60858244945E+02 -0.58179947891E+03  0.54610422147E+03  0.80026506882E+03  0.50400001928E-02 0. -1.
       -1    1    3    3    0  502 -0.60858244945E+02  0.58179947891E+03 -0.99123378395E+03  0.11509729685E+04  0.50400001928E-02 0.  1.
</event>
<event>
 5   0  0.7577180E-06  0.1899254E+04  0.7818609E-02  0.8655228E-01
        2   -1    0    0  501    0  0.00000000000E+00  0.00000000000E+00  0.78771852386E+03  0.78771852387E+03  0.25500000920E-02 0.  1.
       -2   -1    0    0    0  501  0.00000000000E+00  0.00000000000E+00 -0.11448141421E+04  0.11448141421E+04  0.25500000920E-02 0. -1.
    10030    2    1    2    0    0  0.00000000000E+00  0.00000000000E+00 -0.35709561822E+03  0.19325326660E+04  0.18992538599E+04 0.  0.
        5    1    3    3  502    0 -0.75597274476E+03 -0.21220639208E+03 -0.72198733977E+03  0.10666837172E+04  0.46999998093E+01 0. -1.
       -5    1    3    3    0  502  0.75597274476E+03  0.21220639208E+03  0.36489172155E+03  0.86584894879E+03  0.46999998093E+01 0.  1.
</event>
<event>
 5   0  0.3495279E-06  0.1900141E+04  0.7818609E-02  0.8654786E-01
        1   -1    0    0  501    0  0.00000000000E+00  0.00000000000E+00  0.14055725686E+04  0.14055725686E+04  0.50400001928E-02 0.  1.
       -1   -1    0    0    0  501  0.00000000000E+00  0.00000000000E+00 -0.64218217267E+03  0.64218217269E+03  0.50400001928E-02 0. -1.
    10030    2    1    2    0    0  0.00000000000E+00  0.00000000000E+00  0.76339039594E+03  0.20477547413E+04  0.19001406748E+04 0.  0.
        2    1    3    3  502    0  0.14410798666E+03 -0.78228554090E+02  0.13902081309E+04  0.13998448006E+04  0.25500000920E-02 0.  1.
       -2    1    3    3    0  502 -0.14410798666E+03  0.78228554090E+02 -0.62681773493E+03  0.64790994075E+03  0.25500000920E-02 0. -1.
</event>
<event>
 5   0  0.6870370E-06  0.1899783E+04  0.7818609E-02  0.8654965E-01
       -2   -1    0    0    0  501  0.00000000000E+00  0.00000000000E+00  0.13430460294E+04  0.13430460294E+04  0.25500000920E-02 0.  1.
        2   -1    0    0  501    0  0.00000000000E+00  0.00000000000E+00 -0.67182622009E+03  0.67182622010E+03  0.25500000920E-02 0. -1.
    10030    2    1    2    0    0  0.00000000000E+00  0.00000000000E+00  0.67121980928E+03  0.20148722495E+04  0.18997826584E+04 0.  0.
        1    1    3    3  502    0  0.16685659307E+03  0.51224896314E+03  0.11653427056E+04  0.12838472434E+04  0.50400001928E-02 0.  1.
       -1    1    3    3    0  502 -0.16685659307E+03 -0.51224896314E+03 -0.49412289628E+03  0.73102500610E+03  0.50400001928E-02 0. -1.
</event>
<event>
 5   0  0.6984466E-06  0.1899622E+04  0.7818609E-02  0.8655045E-01
       -2   -1    0    0    0  501  0.00000000000E+00  0.00000000000E+00  0.39421321605E+03  0.39421321606E+03  0.25500000920E-02 0.  1.
        2   -1    0    0  501    0  0.00000000000E+00  0.00000000000E+00 -0.22884594929E+04  0.22884594929E+04  0.25500000920E-02 0. -1.
    10030    2    1    2    0    0  0.00000000000E+00  0.00000000000E+00 -0.18942462768E+04  0.26826727089E+04  0.18996220429E+04 0.  0.
        2    1    3    3  502    0  0.75708797074E+03 -0.56087228582E+03 -0.11164773264E+04  0.14609180459E+04  0.25500000920E-02 0. -1.
       -2    1    3    3    0  502 -0.75708797074E+03  0.56087228582E+03 -0.77776895045E+03  0.12217546631E+04  0.25500000920E-02 0.  1.
</event>
<event>
 5   0  0.2527750E-06  0.1900618E+04  0.7818609E-02  0.8654549E-01
        3   -1    0    0  501    0  0.00000000000E+00  0.00000000000E+00  0.11906604228E+04  0.11906604270E+04  0.10100000352E+00 0. -1.
       -3   -1    0    0    0  501  0.00000000000E+00  0.00000000000E+00 -0.75847579744E+03  0.75847580417E+03  0.10100000352E+00 0.  1.
    10030    2    1    2    0    0  0.00000000000E+00  0.00000000000E+00  0.43218462531E+03  0.19491362312E+04  0.19006179252E+04 0.  0.
        2    1    3    3  502    0 -0.37664499197E+02  0.67758432745E+03  0.89831720162E+03  0.11258387673E+04  0.25500000920E-02 0. -1.
       -2    1    3    3    0  502  0.37664499197E+02 -0.67758432745E+03 -0.46613257632E+03  0.82329746387E+03  0.25500000920E-02 0.  1.
</event>
<event>
 5   0  0.3379108E-06  0.1900189E+04  0.7818609E-02  0.8654763E-01
       -1   -1    0    0    0  501  0.00000000000E+00  0.00000000000E+00  0.45827975282E+03  0.45827975285E+03  0.50400001928E-02 0. -1.
        1   -1    0    0  501    0  0.00000000000E+00  0.00000000000E+00 -0.19697119195E+04  0.19697119195E+04  0.50400001928E-02 0.  1.
    10030    2    1    2    0    0  0.00000000000E+00  0.00000000000E+00 -0.15114321667E+04  0.24279916723E+04  0.19001885082E+04 0.  0.
        4    1    3    3  502    0 -0.46321055177E+03 -0.74813416494E+03 -0.12135919871E+04  0.14990249725E+04  0.12699999809E+01 0.  1.
       -4    1    3    3    0  502  0.46321055177E+03  0.74813416494E+03 -0.29784017955E+03  0.92896669987E+03  0.12699999809E+01 0. -1.
</event>
<event>
 5   0  0.2527750E-06  0.1899845E+04  0.7818609E-02  0.8654934E-01
       -3   -1    0    0    0  501  0.00000000000E+00  0.00000000000E+00  0.44796413298E+03  0.44796414436E+03  0.10100000352E+00 0. -1.
        3   -1    0    0  501    0  0.00000000000E+00  0.00000000000E+00 -0.20143414525E+04  0.20143414551E+04  0.10100000352E+00 0.  1.
    10030    2    1    2    0    0  0.00000000000E+00  0.00000000000E+00 -0.15663773196E+04  0.24623055994E+04  0.18998449826E+04 0.  0.
        3    1    3    3  502    0 -0.93913516681E+03  0.49861983502E+02 -0.60982862441E+03  0.11208711078E+04  0.10100000352E+00 0. -1.
       -3    1    3    3    0  502  0.93913516681E+03 -0.49861983502E+02 -0.95654869514E+03  0.13414344916E+04  0.10100000352E+00 0.  1.
</event>
<event>
 5   0  0.7207648E-06  0.1886214E+04  0.7818609E-02  0.8661749E-01
       -2   -1    0    0    0  501  0.00000000000E+00  0.00000000000E+00  0.81000962562E+03  0.81000962563E+03  0.25500000920E-02 0.  1.
        2   -1    0    0  501    0  0.00000000000E+00  0.00000000000E+00 -0.10980747635E+04  0.10980747635E+04  0.25500000920E-02 0. -1.
    10030    2    1    2    0    0  0.00000000000E+00  0.00000000000E+00 -0.28806513788E+03  0.19080843891E+04  0.18862143336E+04 0.  0.
        4    1    3    3  502    0 -0.38571190278E+03 -0.69471956664E+03  0.36983419761E+03  0.87646328778E+03  0.12699999809E+01 0.  1.
       -4    1    3    3    0  502  0.38571190278E+03  0.69471956664E+03 -0.65789933549E+03  0.10316211013E+04  0.12699999809E+01 0. -1.
</event>
<event>
 5   0  0.7577180E-06  0.1900165E+04  0.7818609E-02  0.8654774E-01
       -2   -1    0    0    0  501  0.00000000000E+00  0.00000000000E+00  0.68385185459E+03  0.68385185460E+03  0.25500000920E-02 0. -1.
        2   -1    0    0  501    0  0.00000000000E+00  0.00000000000E+00 -0.13199591237E+04  0.13199591237E+04  0.25500000920E-02 0.  1.
    10030    2    1    2    0    0  0.00000000000E+00  0.00000000000E+00 -0.63610726906E+03  0.20038109783E+04  0.19001647241E+04 0.  0.
        5    1    3    3  502    0  0.14494962955E+03 -0.84640063305E+03 -0.74671063712E+03  0.11379821142E+04  0.46999998093E+01 0.  1.
       -5    1    3    3    0  502 -0.14494962955E+03  0.84640063305E+03  0.11060336806E+03  0.86582886401E+03  0.46999998093E+01 0. -1.
</event>
<event>
 5   0  0.3398807E-06  0.1900794E+04  0.7818609E-02  0.8654461E-01
        1   -1    0    0  501    0  0.00000000000E+00  0.00000000000E+00  0.97447447843E+03  0.97447447844E+03  0.50400001928E-02 0.  1.
       -1   -1    0    0    0  501  0.00000000000E+00  0.00000000000E+00 -0.92691476369E+03  0.92691476370E+03  0.50400001928E-02 0. -1.
    10030    2    1    2    0    0  0.00000000000E+00  0.00000000000E+00  0.47559714737E+02  0.19013892421E+04  0.19007943402E+04 0.  0.
        1    1    3    3  502    0  0.12445067290E+03 -0.62969533777E+03 -0.67733221596E+03  0.93315760684E+03  0.50400001928E-02 0. -1.
       -1    1    3    3    0  502 -0.12445067290E+03  0.62969533777E+03  0.72489193069E+03  0.96823163531E+03  0.50400001928E-02 0.  1.
</event>
<event>
 5   0  0.7207648E-06  0.1900004E+04  0.7818609E-02  0.8654855E-01
       -2   -1    0    0    0  501  0.00000000000E+00  0.00000000000E+00  0.90161364277E+03  0.90161364277E+03  0.25500000920E-02 0. -1.
        2   -1    0    0  501    0  0.00000000000E+00  0.00000000000E+00 -0.10009870157E+04  0.10009870157E+04  0.25500000920E-02 0.  1.
    10030    2    1    2    0    0  0.00000000000E+00  0.00000000000E+00 -0.99373372920E+02  0.19026006585E+04  0.19000037364E+04 0.  0.
        4    1    3    3  502    0  0.24639414825E+03  0.13010202328E+03  0.85977563497E+03  0.90379885381E+03  0.12699999809E+01 0. -1.
       -4    1    3    3    0  502 -0.24639414825E+03 -0.13010202328E+03 -0.95914900789E+03  0.99880180466E+03  0.12699999809E+01 0.  1.
</event>
<event>
 5   0  0.2527750E-06  0.1900048E+04  0.7818609E-02  0.8654833E-01
        3   -1    0    0  501    0  0.00000000000E+00  0.00000000000E+00  0.10200710240E+04  0.10200710290E+04  0.10100000352E+00 0. -1.
       -3   -1    0    0    0  501  0.00000000000E+00  0.00000000000E+00 -0.88478695994E+03  0.88478696571E+03  0.10100000352E+00 0.  1.
    10030    2    1    2    0    0  0.00000000000E+00  0.00000000000E+00  0.13528406406E+03  0.19048579947E+04  0.19000479473E+04 0.  0.
        3    1    3    3  502    0 -0.34256123077E+03  0.44893208515E+03  0.83355075417E+03  0.10068242567E+04  0.10100000352E+00 0. -1.
       -3    1    3    3    0  502  0.34256123077E+03 -0.44893208515E+03 -0.69826669010E+03  0.89803373801E+03  0.10100000352E+00 0.  1.
</event>
<event>
 5   0  0.3236653E-06  0.1900790E+04  0.7818609E-02  0.8654463E-01
        1   -1    0    0  501    0  0.00000000000E+00  0.00000000000E+00  0.28092185115E+04  0.28092185115E+04  0.50400001928E-02 0. -1.
       -1   -1    0    0    0  501  0.00000000000E+00  0.00000000000E+00 -0.32153102591E+03  0.32153102595E+03  0.50400001928E-02 0.  1.
    10030    2    1    2    0    0  0.00000000000E+00  0.00000000000E+00  0.24876874856E+04  0.31307495375E+04  0.19007902673E+04 0.  0.
        3    1    3    3  502    0 -0.65987316488E+03 -0.82996424905E+02  0.23620748411E+04  0.24539190218E+04  0.10100000352E+00 0. -1.
       -3    1    3    3    0  502  0.65987316488E+03  0.82996424905E+02  0.12561264446E+03  0.67683051566E+03  0.10100000352E+00 0.  1.
</event>
<event>
 5   0  0.3495279E-06  0.1895078E+04  0.7818609E-02  0.8657310E-01
        1   -1    0    0  501    0  0.00000000000E+00  0.00000000000E+00  0.97894554791E+03  0.97894554792E+03  0.50400001928E-02 0.  1.
       -1   -1    0    0    0  501  0.00000000000E+00  0.00000000000E+00 -0.91714008592E+03  0.91714008594E+03  0.50400001928E-02 0. -1.
    10030    2    1    2    0    0  0.00000000000E+00  0.00000000000E+00  0.61805461990E+02  0.18960856339E+04  0.18950780501E+04 0.  0.
        2    1    3    3  502    0  0.43021939728E+03 -0.32197054733E+02  0.87497727153E+03  0.97555656209E+03  0.25500000920E-02 0.  1.
       -2    1    3    3    0  502 -0.43021939728E+03  0.32197054733E+02 -0.81317180954E+03  0.92052907177E+03  0.25500000920E-02 0. -1.
</event>
<event>
 5   0  0.3495279E-06  0.1900133E+04  0.7818609E-02  0.8654790E-01
        1   -1    0    0  501    0  0.00000000000E+00  0.00000000000E+00  0.97044617663E+03  0.97044617665E+03  0.50400001928E-02 0. -1.
       -1   -1    0    0    0  501  0.00000000000E+00  0.00000000000E+00 -0.93011464404E+03  0.93011464406E+03  0.50400001928E-02 0.  1.
    10030    2    1    2    0    0  0.00000000000E+00  0.00000000000E+00  0.40331532592E+02  0.19005608207E+04  0.19001328376E+04 0.  0.
        2    1    3    3  502    0  0.23641992173E+03 -0.26055489869E+03 -0.86255381312E+03  0.93154834290E+03  0.25500000920E-02 0.  1.
       -2    1    3    3    0  502 -0.23641992173E+03  0.26055489869E+03  0.90288534571E+03  0.96901247780E+03  0.25500000920E-02 0. -1.
</event>
<event>
 5   0  0.3398807E-06  0.1899688E+04  0.7818609E-02  0.8655012E-01
       -1   -1    0    0    0  501  0.00000000000E+00  0.00000000000E+00  0.46907431729E+03  0.46907431731E+03  0.50400001928E-02 0. -1.
        1   -1    0    0  501    0  0.00000000000E+00  0.00000000000E+00 -0.19233702685E+04  0.19233702685E+04  0.50400001928E-02 0.  1.
    10030    2    1    2    0    0  0.00000000000E+00  0.00000000000E+00 -0.14542959512E+04  0.23924445858E+04  0.18996879698E+04 0.  0.
        1    1    3    3  502    0 -0.67018453579E+03 -0.30427626057E+02 -0.15739687234E+04  0.17109794548E+04  0.50400001928E-02 0.  1.
       -1    1    3    3    0  502  0.67018453579E+03  0.30427626057E+02  0.11967277215E+03  0.68146513107E+03  0.50400001928E-02 0. -1.
</event>
<event>
 5   0  0.3211263E-06  0.1899112E+04  0.7818609E-02  0.8655298E-01
        1   -1    0    0  501    0  0.00000000000E+00  0.00000000000E+00  0.54900400823E+03  0.54900400825E+03  0.50400001928E-02 0.  1.
       -1   -1    0    0    0  501  0.00000000000E+00  0.00000000000E+00 -0.16423503572E+04  0.16423503572E+04  0.50400001928E-02 0. -1.
    10030    2    1    2    0    0  0.00000000000E+00  0.00000000000E+00 -0.10933463489E+04  0.21913543654E+04  0.18991123495E+04 0.  0.
        5    1    3    3  502    0  0.75201848541E+03  0.27438944993E+03 -0.11359603110E+04  0.13896939558E+04  0.46999998093E+01 0. -1.
       -5    1    3    3    0  502 -0.75201848541E+03 -0.27438944993E+03  0.42613962035E+02  0.80166040964E+03  0.46999998093E+01 0.  1.
</event>
<event>
 5   0  0.3495279E-06  0.1900279E+04  0.7818609E-02  0.8654717E-01
       -1   -1    0    0    0  501  0.00000000000E+00  0.00000000000E+00  0.80172337298E+03  0.80172337299E+03  0.50400001928E-02 0. -1.
        1   -1    0    0  501    0  0.00000000000E+00  0.00000000000E+00 -0.11260307059E+04  0.11260307059E+04  0.50400001928E-02 0.  1.
    10030    2    1    2    0    0  0.00000000000E+00  0.00000000000E+00 -0.32430733290E+03  0.19277540789E+04  0.19002790696E+04 0.  0.
        2    1    3    3  502    0 -0.73165310387E+03 -0.55879851062E+03 -0.40048251941E+03  0.10039712587E+04  0.25500000920E-02 0.  1.
       -2    1    3    3    0  502  0.73165310387E+03  0.55879851062E+03  0.76175186505E+02  0.92378282021E+03  0.25500000920E-02 0. -1.
</event>
<event>
 5   0  0.7207648E-06  0.1899518E+04  0.7818609E-02  0.8655096E-01
       -2   -1    0    0    0  501  0.00000000000E+00  0.00000000000E+00  0.97753260946E+03  0.97753260946E+03  0.25500000920E-02 0. -1.
        2   -1    0    0  501    0  0.00000000000E+00  0.00000000000E+00 -0.92277458624E+03  0.92277458624E+03  0.25500000920E-02 0.  1.
    10030    2    1    2    0    0  0.00000000000E+00  0.00000000000E+00  0.54758023224E+02  0.19003071957E+04  0.18995180960E+04 0.  0.
        4    1    3    3  502    0 -0.50357991847E+03 -0.48514078666E+03 -0.61560590262E+03  0.93162576038E+03  0.12699999809E+01 0.  1.
       -4    1    3    3    0  502  0.50357991847E+03  0.48514078666E+03  0.67036392584E+03  0.96868143532E+03  0.12699999809E+01 0. -1.
</event>
<event>
 5   0  0.7207648E-06  0.1900138E+04  0.7818609E-02  0.8654788E-01
       -2   -1    0    0    0  501  0.00000000000E+00  0.00000000000E+00  0.45255975745E+03  0.45255975746E+03  0.25500000920E-02 0.  1.
        2   -1    0    0  501    0  0.00000000000E+00  0.00000000000E+00 -0.19945011545E+04  0.19945011545E+04  0.25500000920E-02 0. -1.
    10030    2    1    2    0    0  0.00000000000E+00  0.00000000000E+00 -0.15419413970E+04  0.24470609119E+04  0.19001378463E+04 0.  0.
        4    1    3    3  502    0  0.24602587107E+03 -0.66812181583E+03 -0.15810924637E+04  0.17340041758E+04  0.12699999809E+01 0. -1.
       -4    1    3    3    0  502 -0.24602587107E+03  0.66812181583E+03  0.39151066678E+02  0.71305673613E+03  0.12699999809E+01 0.  1.
</event>
<event>
 5   0  0.6870370E-06  0.1898515E+04  0.7818609E-02  0.8655596E-01
        2   -1    0    0  501    0  0.00000000000E+00  0.00000000000E+00  0.10179255322E+04  0.10179255322E+04  0.25500000920E-02 0.  1.
       -2   -1    0    0    0  501  0.00000000000E+00  0.00000000000E+00 -0.88522139665E+03  0.88522139665E+03  0.25500000920E-02 0. -1.
    10030    2    1    2    0    0  0.00000000000E+00  0.00000000000E+00  0.13270413559E+03  0.19031469289E+04  0.18985146419E+04 0.  0.
        1    1    3    3  502    0 -0.36172166500E+03 -0.64423634856E+03  0.66379822807E+03  0.99323266325E+03  0.50400001928E-02 0.  1.
       -1    1    3    3    0  502  0.36172166500E+03  0.64423634856E+03 -0.53109409248E+03  0.90991426565E+03  0.50400001928E-02 0. -1.
</event>
<event>
 5   0  0.3379108E-06  0.1902425E+04  0.7818609E-02  0.8653650E-01
        1   -1    0    0  501    0  0.00000000000E+00  0.00000000000E+00  0.11547670752E+04  0.11547670752E+04  0.50400001928E-02 0.  1.
       -1   -1    0    0    0  501  0.00000000000E+00  0.00000000000E+00 -0.78353950747E+03  0.78353950749E+03  0.50400001928E-02 0. -1.
    10030    2    1    2    0    0  0.00000000000E+00  0.00000000000E+00  0.37122756770E+03  0.19383065827E+04  0.19024254260E+04 0.  0.
        4    1    3    3  502    0  0.84109713756E+03  0.44070978353E+03  0.12857118974E+03  0.95822840275E+03  0.12699999809E+01 0.  1.
       -4    1    3    3    0  502 -0.84109713756E+03 -0.44070978353E+03  0.24265637796E+03  0.98007817993E+03  0.12699999809E+01 0. -1.
</event>
<event>
 5   0  0.3379108E-06  0.1900036E+04  0.7818609E-02  0.8654838E-01
        1   -1    0    0  501    0  0.00000000000E+00  0.00000000000E+00  0.13851087987E+04  0.13851087987E+04  0.50400001928E-02 0.  1.
       -1   -1    0    0    0  501  0.00000000000E+00  0.00000000000E+00 -0.65159817109E+03  0.65159817111E+03  0.50400001928E-02 0. -1.
    10030    2    1    2    0    0  0.00000000000E+00  0.00000000000E+00  0.73351062757E+03  0.20367069698E+04  0.19000361681E+04 0.  0.
        4    1    3    3  502    0  0.55810656143E+03 -0.37755043152E+03  0.10846331759E+04  0.12768938881E+04  0.12699999809E+01 0.  1.
       -4    1    3    3    0  502 -0.55810656143E+03  0.37755043152E+03 -0.35112254834E+03  0.75981308169E+03  0.12699999809E+01 0. -1.
</event>
<event>
 5   0  0.7577180E-06  0.1899939E+04  0.7818609E-02  0.8654887E-01
        2   -1    0    0  501    0  0.00000000000E+00  0.00000000000E+00  0.42510156252E+03  0.42510156253E+03  0.25500000920E-02 0. -1.
       -2   -1    0    0    0  501  0.00000000000E+00  0.00000000000E+00 -0.21228854980E+04  0.21228854981E+04  0.25500000920E-02 0.  1.
    10030    2    1    2    0    0  0.00000000000E+00  0.00000000000E+00 -0.16977839355E+04  0.25479870606E+04  0.18999388856E+04 0.  0.
        5    1    3    3  502    0  0.56873541938E+03 -0.74307823787E+03 -0.62936833241E+03  0.11277197492E+04  0.46999998093E+01 0. -1.
       -5    1    3    3    0  502 -0.56873541938E+03  0.74307823787E+03 -0.10684156031E+04  0.14202673114E+04  0.46999998093E+01 0.  1.
</event>
<event>
 5   0  0.3211263E-06  0.1900204E+04  0.7818609E-02  0.8654755E-01
       -1   -1    0    0    0  501  0.00000000000E+00  0.00000000000E+00  0.11399084233E+04  0.11399084233E+04  0.50400001928E-02 0.  1.
        1   -1    0    0  501    0  0.00000000000E+00  0.00000000000E+00 -0.79190055347E+03  0.79190055348E+03  0.50400001928E-02 0. -1.
    10030    2    1    2    0    0  0.00000000000E+00  0.00000000000E+00  0.34800786983E+03  0.19318089768E+04  0.19002043167E+04 0.  0.
        5    1    3    3  502    0 -0.70673183043E+03  0.62853412042E+03  0.26576591053E+03  0.98243505123E+03  0.46999998093E+01 0.  1.
       -5    1    3    3    0  502  0.70673183043E+03 -0.62853412042E+03  0.82241959299E+02  0.94937392557E+03  0.46999998093E+01 0. -1.
</event>
<event>
 5   0  0.3211263E-06  0.1899996E+04  0.7818609E-02  0.8654859E-01
       -1   -1    0    0    0  501  0.00000000000E+00  0.00000000000E+00  0.15908554272E+04  0.15908554272E+04  0.50400001928E-02 0. -1.
        1   -1    0    0  501    0  0.00000000000E+00  0.00000000000E+00 -0.56730227407E+03  0.56730227409E+03  0.50400001928E-02 0.  1.
    10030    2    1    2    0    0  0.00000000000E+00  0.00000000000E+00  0.10235531531E+04  0.21581577013E+04  0.18999956859E+04 0.  0.
        5    1    3    3  502    0  0.43368219485E+03 -0.16871102491E+02  0.14716474067E+04  0.15343184349E+04  0.46999998093E+01 0. -1.
       -5    1    3    3    0  502 -0.43368219485E+03  0.16871102491E+02 -0.44809425353E+03  0.62383926637E+03  0.46999998093E+01 0.  1.
</event>
<event>
 5   0  0.6984466E-06  0.1899383E+04  0.7818609E-02  0.8655164E-01
        2   -1    0    0  501    0  0.00000000000E+00  0.00000000000E+00  0.21991349305E+04  0.21991349305E+04  0.25500000920E-02 0.  1.
       -2   -1    0    0    0  501  0.00000000000E+00  0.00000000000E+00 -0.41012202687E+03  0.41012202688E+03  0.25500000920E-02 0. -1.
    10030    2    1    2    0    0  0.00000000000E+00  0.00000000000E+00  0.17890129037E+04  0.26092569574E+04  0.18993827156E+04 0.  0.
        2    1    3    3  502    0 -0.25359660733E+03  0.73257769649E+02 -0.35871421578E+03  0.44536931716E+03  0.25500000920E-02 0. -1.
       -2    1    3    3    0  502  0.25359660733E+03 -0.73257769649E+02  0.21477271194E+04  0.21638876403E+04  0.25500000920E-02 0.  1.
</event>
<event>
 5   0  0.3236653E-06  0.1900800E+04  0.7818609E-02  0.8654458E-01
       -1   -1    0    0    0  501  0.00000000000E+00  0.00000000000E+00  0.86734722136E+03  0.86734722137E+03  0.50400001928E-02 0. -1.
        1   -1    0    0  501    0  0.00000000000E+00  0.00000000000E+00 -0.10414050900E+04  0.10414050900E+04  0.50400001928E-02 0.  1.
    10030    2    1    2    0    0  0.00000000000E+00  0.00000000000E+00 -0.17405786866E+03  0.19087523114E+04  0.19007996330E+04 0.  0.
        3    1    3    3  502    0 -0.50298814121E+03  0.32701071757E+02 -0.89612534526E+03  0.10281571256E+04  0.10100000352E+00 0.  1.
       -3    1    3    3    0  502  0.50298814121E+03 -0.32701071757E+02  0.72206747660E+03  0.88059518581E+03  0.10100000352E+00 0. -1.
</event>
<event>
 5   0  0.6862201E-06  0.1900067E+04  0.7818609E-02  0.8654823E-01
       -2   -1    0    0    0  501  0.00000000000E+00  0.00000000000E+00  0.10545163793E+04  0.10545163793E+04  0.25500000920E-02 0. -1.
        2   -1    0    0  501    0  0.00000000000E+00  0.00000000000E+00 -0.85590258363E+03  0.85590258363E+03  0.25500000920E-02 0.  1.
    10030    2    1    2    0    0  0.00000000000E+00  0.00000000000E+00  0.19861379566E+03  0.19104189629E+04  0.19000666236E+04 0.  0.
        3    1    3    3  502    0  0.86021837479E+03 -0.29144516310E+03  0.37947784891E+03  0.98433702736E+03  0.10100000352E+00 0. -1.
       -3    1    3    3    0  502 -0.86021837479E+03  0.29144516310E+03 -0.18086405325E+03  0.92608193557E+03  0.10100000352E+00 0.  1.
</event>
<event>
 5   0  0.2527750E-06  0.1899123E+04  0.7818609E-02  0.8655293E-01
       -3   -1    0    0    0  501  0.00000000000E+00  0.00000000000E+00  0.87517298667E+03  0.87517299249E+03  0.10100000352E+00 0.  1.
        3   -1    0    0  501    0  0.00000000000E+00  0.00000000000E+00 -0.10302726999E+04  0.10302727048E+04  0.10100000352E+00 0. -1.
    10030    2    1    2    0    0  0.00000000000E+00  0.00000000000E+00 -0.15509971322E+03  0.19054456973E+04  0.18991227934E+04 0.  0.
        5    1    3    3  502    0 -0.26659297010E+03 -0.23848117903E+02 -0.99162874440E+03  0.10271271592E+04  0.46999998093E+01 0. -1.
       -5    1    3    3    0  502  0.26659297010E+03  0.23848117903E+02  0.83652903118E+03  0.87831853814E+03  0.46999998093E+01 0.  1.
</event>
<event>
 5   0  0.7207648E-06  0.1899790E+04  0.7818609E-02  0.8654961E-01
        2   -1    0    0  501    0  0.00000000000E+00  0.00000000000E+00  0.14799753332E+04  0.14799753332E+04  0.25500000920E-02 0. -1.
       -2   -1    0    0    0  501  0.00000000000E+00  0.00000000000E+00 -0.60967262771E+03  0.60967262772E+03  0.25500000920E-02 0.  1.
    10030    2    1    2    0    0  0.00000000000E+00  0.00000000000E+00  0.87030270549E+03  0.20896479609E+04  0.18997899361E+04 0.  0.
        4    1    3    3  502    0 -0.14051168964E+03 -0.67628036155E+03 -0.28208825129E+03  0.74610592864E+03  0.12699999809E+01 0.  1.
       -4    1    3    3    0  502  0.14051168964E+03  0.67628036155E+03  0.11523909568E+04  0.13435420323E+04  0.12699999809E+01 0. -1.
</event>
<event>
 5   0  0.7207648E-06  0.1899237E+04  0.7818609E-02  0.8655237E-01
        2   -1    0    0  501    0  0.00000000000E+00  0.00000000000E+00  0.12859584581E+04  0.12859584581E+04  0.25500000920E-02 0.  1.
       -2   -1    0    0    0  501  0.00000000000E+00  0.00000000000E+00 -0.70124726001E+03  0.70124726001E+03  0.25500000920E-02 0. -1.
    10030    2    1    2    0    0  0.00000000000E+00  0.00000000000E+00  0.58471119808E+03  0.19872057181E+04  0.18992365258E+04 0.  0.
        4    1    3    3  502    0 -0.65041125954E+02 -0.10119113443E+03 -0.69324238731E+03  0.70360259679E+03  0.12699999809E+01 0. -1.
       -4    1    3    3    0  502  0.65041125954E+02  0.10119113443E+03  0.12779535854E+04  0.12836031213E+04  0.12699999809E+01 0.  1.
</event>
<event>
 5   0  0.3495279E-06  0.1900186E+04  0.7818609E-02  0.8654764E-01
        1   -1    0    0  501    0  0.00000000000E+00  0.00000000000E+00  0.14987042089E+04  0.14987042089E+04  0.50400001928E-02 0. -1.
       -1   -1    0    0    0  501  0.00000000000E+00  0.00000000000E+00 -0.60230480751E+03  0.60230480753E+03  0.50400001928E-02 0.  1.
    10030    2    1    2    0    0  0.00000000000E+00  0.00000000000E+00  0.89639940141E+03  0.21010090165E+04  0.19001860436E+04 0.  0.
        2    1    3    3  502    0 -0.54475771195E+03 -0.67460819241E+03  0.18801080751E+02  0.86730078902E+03  0.25500000920E-02 0. -1.
       -2    1    3    3    0  502  0.54475771195E+03  0.67460819241E+03  0.87759832066E+03  0.12337082274E+04  0.25500000920E-02 0.  1.
</event>
<event>
 5   0  0.6870370E-06  0.1899121E+04  0.7818609E-02  0.8655294E-01
        2   -1    0    0  501    0  0.00000000000E+00  0.00000000000E+00  0.86834405488E+03  0.86834405489E+03  0.25500000920E-02 0. -1.
       -2   -1    0    0    0  501  0.00000000000E+00  0.00000000000E+00 -0.10383733763E+04  0.10383733763E+04  0.25500000920E-02 0.  1.
    10030    2    1    2    0    0  0.00000000000E+00  0.00000000000E+00 -0.17002932144E+03  0.19067174312E+04  0.18991212158E+04 0.  0.
        1    1    3    3  502    0 -0.64550858027E+03 -0.13875205973E+03  0.60016054380E+03  0.89225900928E+03  0.50400001928E-02 0. -1.
       -1    1    3    3    0  502  0.64550858027E+03  0.13875205973E+03 -0.77018986524E+03  0.10144584219E+04  0.50400001928E-02 0.  1.
</event>
<event>
 5   0  0.3398807E-06  0.1893027E+04  0.7818609E-02  0.8658335E-01
        1   -1    0    0  501    0  0.00000000000E+00  0.00000000000E+00  0.78210018631E+03  0.78210018632E+03  0.50400001928E-02 0.  1.
       -1   -1    0    0    0  501  0.00000000000E+00  0.00000000000E+00 -0.11454895849E+04  0.11454895849E+04  0.50400001928E-02 0. -1.
    10030    2    1    2    0    0  0.00000000000E+00  0.00000000000E+00 -0.36338939859E+03  0.19275897712E+04  0.18930268015E+04 0.  0.
        1    1    3    3  502    0 -0.38164840002E+03 -0.82690932264E+03  0.80796916311E+02  0.91430994242E+03  0.50400001928E-02 0.  1.
       -1    1    3    3    0  502  0.38164840002E+03  0.82690932264E+03 -0.44418631490E+03  0.10132798288E+04  0.50400001928E-02 0. -1.
</event>
<event>
 5   0  0.3211263E-06  0.1893762E+04  0.7818609E-02  0.8657968E-01
       -1   -1    0    0    0  501  0.00000000000E+00  0.00000000000E+00  0.21200623224E+04  0.21200623224E+04  0.50400001928E-02 0.  1.
        1   -1    0    0  501    0  0.00000000000E+00  0.00000000000E+00 -0.42290425089E+03  0.42290425092E+03  0.50400001928E-02 0. -1.
    10030    2    1    2    0    0  0.00000000000E+00  0.00000000000E+00  0.16971580715E+04  0.25429665734E+04  0.18937617256E+04 0.  0.
        5    1    3    3  502    0 -0.75731504565E+02 -0.54907721339E+03 -0.18227781449E+03  0.58349664841E+03  0.46999998093E+01 0.  1.
       -5    1    3    3    0  502  0.75731504565E+02  0.54907721339E+03  0.18794358860E+04  0.19594699249E+04  0.46999998093E+01 0. -1.
</event>
<event>
 5   0  0.6870370E-06  0.1897262E+04  0.7818609E-02  0.8656220E-01
       -2   -1    0    0    0  501  0.00000000000E+00  0.00000000000E+00  0.12495468769E+04  0.12495468769E+04  0.25500000920E-02 0. -1.
        2   -1    0    0  501    0  0.00000000000E+00  0.00000000000E+00 -0.72018192554E+03  0.72018192554E+03  0.25500000920E-02 0.  1.
    10030    2    1    2    0    0  0.00000000000E+00  0.00000000000E+00  0.52936495132E+03  0.19697288024E+04  0.18972623180E+04 0.  0.
        1    1    3    3  502    0  0.87895040496E+03  0.18082610087E+03 -0.54719419209E+02  0.89902508752E+03  0.50400001928E-02 0.  1.
       -1    1    3    3    0  502 -0.87895040496E+03 -0.18082610087E+03  0.58408437053E+03  0.10707037149E+04  0.50400001928E-02 0. -1.
</event>
<event>
 5   0  0.3211263E-06  0.1899977E+04  0.7818609E-02  0.8654868E-01
       -1   -1    0    0    0  501  0.00000000000E+00  0.00000000000E+00  0.76039703364E+03  0.76039703366E+03  0.50400001928E-02 0.  1.
        1   -1    0    0  501    0  0.00000000000E+00  0.00000000000E+00 -0.11868516550E+04  0.11868516550E+04  0.50400001928E-02 0. -1.
    10030    2    1    2    0    0  0.00000000000E+00  0.00000000000E+00 -0.42645462135E+03  0.19472486887E+04  0.18999773450E+04 0.  0.
        5    1    3    3  502    0 -0.22261409089E+03  0.88168060745E+03 -0.49490836535E+03  0.10353135308E+04  0.46999998093E+01 0. -1.
       -5    1    3    3    0  502  0.22261409089E+03 -0.88168060745E+03  0.68453743998E+02  0.91193515783E+03  0.46999998093E+01 0.  1.
</event>
<event>
 5   0  0.3236653E-06  0.1900036E+04  0.7818609E-02  0.8654838E-01
        1   -1    0    0  501    0  0.00000000000E+00  0.00000000000E+00  0.10091857293E+04  0.10091857293E+04  0.50400001928E-02 0.  1.
       -1   -1    0    0    0  501  0.00000000000E+00  0.00000000000E+00 -0.89431926266E+03  0.89431926267E+03  0.50400001928E-02 0. -1.
    10030    2    1    2    0    0  0.00000000000E+00  0.00000000000E+00  0.11486646667E+03  0.19035049920E+04  0.19000360390E+04 0.  0.
        3    1    3    3  502    0 -0.16460810317E+03  0.10420953011E+03 -0.87409166181E+03  0.89553989148E+03  0.10100000352E+00 0. -1.
       -3    1    3    3    0  502  0.16460810317E+03 -0.10420953011E+03  0.98895812848E+03  0.10079651005E+04  0.10100000352E+00 0.  1.
</event>
<event>
 5   0  0.3379108E-06  0.1900660E+04  0.7818609E-02  0.8654528E-01
        1   -1    0    0  501    0  0.00000000000E+00  0.00000000000E+00  0.65030981895E+03  0.65030981897E+03  0.50400001928E-02 0. -1.
       -1   -1    0    0    0  501  0.00000000000E+00  0.00000000000E+00 -0.13887640432E+04  0.13887640432E+04  0.50400001928E-02 0.  1.
    10030    2    1    2    0    0  0.00000000000E+00  0.00000000000E+00 -0.73845422428E+03  0.20390738622E+04  0.19006597734E+04 0.  0.
        4    1    3    3  502    0 -0.30389536895E+03  0.56173317222E+03  0.38574600866E+03  0.74612207321E+03  0.12699999809E+01 0. -1.
       -4    1    3    3    0  502  0.30389536895E+03 -0.56173317222E+03 -0.11242002329E+04  0.12929517890E+04  0.12699999809E+01 0.  1.
</event>
<event>
 5   0  0.7577180E-06  0.1900689E+04  0.7818609E-02  0.8654514E-01
       -2   -1    0    0    0  501  0.00000000000E+00  0.00000000000E+00  0.53078824692E+03  0.53078824692E+03  0.25500000920E-02 0. -1.
        2   -1    0    0  501    0  0.00000000000E+00  0.00000000000E+00 -0.17015339380E+04  0.17015339380E+04  0.25500000920E-02 0.  1.
    10030    2    1    2    0    0  0.00000000000E+00  0.00000000000E+00 -0.11707456910E+04  0.22323221849E+04  0.19006885237E+04 0.  0.
        5    1    3    3  502    0  0.34192122052E+03 -0.51909801750E+03  0.25891406036E+03  0.67337319034E+03  0.46999998093E+01 0. -1.
       -5    1    3    3    0  502 -0.34192122052E+03  0.51909801750E+03 -0.14296597514E+04  0.15589489945E+04  0.46999998093E+01 0.  1.
</event>
<event>
 5   0  0.6870370E-06  0.1899416E+04  0.7818609E-02  0.8655147E-01
       -2   -1    0    0    0  501  0.00000000000E+00  0.00000000000E+00  0.65531108263E+03  0.65531108263E+03  0.25500000920E-02 0.  1.
        2   -1    0    0  501    0  0.00000000000E+00  0.00000000000E+00 -0.13763621869E+04  0.13763621869E+04  0.25500000920E-02 0. -1.
    10030    2    1    2    0    0  0.00000000000E+00  0.00000000000E+00 -0.72105110426E+03  0.20316732695E+04  0.18994161153E+04 0.  0.
        1    1    3    3  502    0  0.19062527493E+03  0.83454125477E+03 -0.80043932435E+03  0.11719642543E+04  0.50400001928E-02 0. -1.
       -1    1    3    3    0  502 -0.19062527493E+03 -0.83454125477E+03  0.79388220090E+02  0.85970901523E+03  0.50400001928E-02 0.  1.
</event>
<event>
 5   0  0.3495279E-06  0.1900394E+04  0.7818609E-02  0.8654660E-01
        1   -1    0    0  501    0  0.00000000000E+00  0.00000000000E+00  0.95656968788E+03  0.95656968790E+03  0.50400001928E-02 0.  1.
       -1   -1    0    0    0  501  0.00000000000E+00  0.00000000000E+00 -0.94386650308E+03  0.94386650309E+03  0.50400001928E-02 0. -1.
    10030    2    1    2    0    0  0.00000000000E+00  0.00000000000E+00  0.12703184805E+02  0.19004361910E+04  0.19003937342E+04 0.  0.
        2    1    3    3  502    0  0.15593848102E+03  0.82373412214E+03  0.45359683811E+03  0.95320764023E+03  0.25500000920E-02 0.  1.
       -2    1    3    3    0  502 -0.15593848102E+03 -0.82373412214E+03 -0.44089365331E+03  0.94722855076E+03  0.25500000920E-02 0. -1.
</event>
<event>
 5   0  0.3211263E-06  0.1899283E+04  0.7818609E-02  0.8655213E-01
       -1   -1    0    0    0  501  0.00000000000E+00  0.00000000000E+00  0.68539173293E+03  0.68539173295E+03  0.50400001928E-02 0. -1.
        1   -1    0    0  501    0  0.00000000000E+00  0.00000000000E+00 -0.13157716349E+04  0.13157716349E+04  0.50400001928E-02 0.  1.
    10030    2    1    2    0    0  0.00000000000E+00  0.00000000000E+00 -0.63037990193E+03  0.20011633678E+04  0.18992830237E+04 0.  0.
        5    1    3    3  502    0  0.20161893809E+03 -0.90855769928E+03 -0.11619497559E+03  0.93789693009E+03  0.46999998093E+01 0. -1.
       -5    1    3    3    0  502 -0.20161893809E+03  0.90855769928E+03 -0.51418492635E+03  0.10632664377E+04  0.46999998093E+01 0.  1.
</event>
<event>
 5   0  0.6862201E-06  0.1899839E+04  0.7818609E-02  0.8654937E-01
       -2   -1    0    0    0  501  0.00000000000E+00  0.00000000000E+00  0.11049560226E+04  0.11049560226E+04  0.25500000920E-02 0.  1.
        2   -1    0    0  501    0  0.00000000000E+00  0.00000000000E+00 -0.81663615080E+03  0.81663615081E+03  0.25500000920E-02 0. -1.
    10030    2    1    2    0    0  0.00000000000E+00  0.00000000000E+00  0.28831987181E+03  0.19215921734E+04  0.18998389754E+04 0.  0.
        3    1    3    3  502    0  0.12045800259E+03 -0.37364837191E+03 -0.73074362374E+03  0.82952365250E+03  0.10100000352E+00 0. -1.
       -3    1    3    3    0  502 -0.12045800259E+03  0.37364837191E+03  0.10190634956E+04  0.10920685209E+04  0.10100000352E+00 0.  1.
</event>
<event>
 5   0  0.6870370E-06  0.1899479E+04  0.7818609E-02  0.8655116E-01
       -2   -1    0    0    0  501  0.00000000000E+00  0.00000000000E+00  0.50911492256E+03  0.50911492257E+03  0.25500000920E-02 0.  1.
        2   -1    0    0  501    0  0.00000000000E+00  0.00000000000E+00 -0.17717113105E+04  0.17717113105E+04  0.25500000920E-02 0. -1.
    10030    2    1    2    0    0  0.00000000000E+00  0.00000000000E+00 -0.12625963879E+04  0.22808262331E+04  0.18994785249E+04 0.  0.
        1    1    3    3  502    0  0.93452320587E+02  0.80213802991E+02 -0.17620823956E+04  0.17663810346E+04  0.50400001928E-02 0. -1.
       -1    1    3    3    0  502 -0.93452320587E+02 -0.80213802991E+02  0.49948600764E+03  0.51444519851E+03  0.50400001928E-02 0.  1.
</event>
<event>
 5   0  0.3211263E-06  0.1899478E+04  0.7818609E-02  0.8655116E-01
       -1   -1    0    0    0  501  0.00000000000E+00  0.00000000000E+00  0.36074083409E+03  0.36074083412E+03  0.50400001928E-02 0. -1.
        1   -1    0    0  501    0  0.00000000000E+00  0.00000000000E+00 -0.25004227101E+04  0.25004227101E+04  0.50400001928E-02 0.  1.
    10030    2    1    2    0    0  0.00000000000E+00  0.00000000000E+00 -0.21396818760E+04  0.28611635442E+04  0.18994784274E+04 0.  0.
        5    1    3    3  502    0 -0.18302278926E+03 -0.12064920035E+03  0.32209477111E+03  0.38964176176E+03  0.46999998093E+01 0. -1.
       -5    1    3    3    0  502  0.18302278926E+03  0.12064920035E+03 -0.24617766471E+04  0.24715217824E+04  0.46999998093E+01 0.  1.
</event>
<event>
 5   0  0.3495279E-06  0.1901461E+04  0.7818609E-02  0.8654130E-01
       -1   -1    0    0    0  501  0.00000000000E+00  0.00000000000E+00  0.62652961404E+03  0.62652961406E+03  0.50400001928E-02 0. -1.
        1   -1    0    0  501    0  0.00000000000E+00  0.00000000000E+00 -0.14426902727E+04  0.14426902727E+04  0.50400001928E-02 0.  1.
    10030    2    1    2    0    0  0.00000000000E+00  0.00000000000E+00 -0.81616065865E+03  0.20692198868E+04  0.19014606804E+04 0.  0.
        2    1    3    3  502    0 -0.54263572176E+03 -0.13624399422E+03 -0.12445805948E+04  0.13645500391E+04  0.25500000920E-02 0.  1.
       -2    1    3    3    0  502  0.54263572176E+03  0.13624399422E+03  0.42841993610E+03  0.70466984762E+03  0.25500000920E-02 0. -1.
</event>
<event>
 5   0  0.3211263E-06  0.1898570E+04  0.7818609E-02  0.8655568E-01
        1   -1    0    0  501    0  0.00000000000E+00  0.00000000000E+00  0.12432768019E+04  0.12432768020E+04  0.50400001928E-02 0.  1.
       -1   -1    0    0    0  501  0.00000000000E+00  0.00000000000E+00 -0.72481212170E+03  0.72481212172E+03  0.50400001928E-02 0. -1.
    10030    2    1    2    0    0  0.00000000000E+00  0.00000000000E+00  0.51846468024E+03  0.19680889237E+04  0.18985700900E+04 0.  0.
        5    1    3    3  502    0 -0.71491487309E+03 -0.41715886520E+03 -0.22253809452E+03  0.85712897985E+03  0.46999998093E+01 0. -1.
       -5    1    3    3    0  502  0.71491487309E+03  0.41715886520E+03  0.74100277476E+03  0.11109599438E+04  0.46999998093E+01 0.  1.
</event>
<event>
 5   0  0.3495279E-06  0.1900809E+04  0.7818609E-02  0.8654454E-01
       -1   -1    0    0    0  501  0.00000000000E+00  0.00000000000E+00  0.50573335357E+03  0.50573335360E+03  0.50400001928E-02 0. -1.
        1   -1    0    0  501    0  0.00000000000E+00  0.00000000000E+00 -0.17860567317E+04  0.17860567317E+04  0.50400001928E-02 0.  1.
    10030    2    1    2    0    0  0.00000000000E+00  0.00000000000E+00 -0.12803233781E+04  0.22917900853E+04  0.19008087338E+04 0.  0.
        2    1    3    3  502    0 -0.27345110771E+03  0.21575626945E+03  0.42600163582E+03  0.55027599425E+03  0.25500000920E-02 0. -1.
       -2    1    3    3    0  502  0.27345110771E+03 -0.21575626945E+03 -0.17063250139E+04  0.17415140910E+04  0.25500000920E-02 0.  1.
</event>
<event>
 5   0  0.3211263E-06  0.1901049E+04  0.7818609E-02  0.8654334E-01
       -1   -1    0    0    0  501  0.00000000000E+00  0.00000000000E+00  0.49867593033E+03  0.49867593035E+03  0.50400001928E-02 0.  1.
        1   -1    0    0  501    0  0.00000000000E+00  0.00000000000E+00 -0.18117912414E+04  0.18117912414E+04  0.50400001928E-02 0. -1.
    10030    2    1    2    0    0  0.00000000000E+00  0.00000000000E+00 -0.13131153111E+04  0.23104671717E+04  0.19010488504E+04 0.  0.
        5    1    3    3  502    0  0.62506321439E+03  0.13155458251E+03 -0.15120429750E+04  0.16414343357E+04  0.46999998093E+01 0. -1.
       -5    1    3    3    0  502 -0.62506321439E+03 -0.13155458251E+03  0.19892766398E+03  0.66903283601E+03  0.46999998093E+01 0.  1.
</event>
<event>
 5   0  0.3495279E-06  0.1900244E+04  0.7818609E-02  0.8654735E-01
        1   -1    0    0  501    0  0.00000000000E+00  0.00000000000E+00  0.11755904928E+04  0.11755904929E+04  0.50400001928E-02 0.  1.
       -1   -1    0    0    0  501  0.00000000000E+00  0.00000000000E+00 -0.76789683473E+03  0.76789683475E+03  0.50400001928E-02 0. -1.
    10030    2    1    2    0    0  0.00000000000E+00  0.00000000000E+00  0.40769365812E+03  0.19434873276E+04  0.19002444247E+04 0.  0.
        2    1    3    3  502    0  0.25950961317E+03 -0.23280936437E+03 -0.70011415959E+03  0.78211589674E+03  0.25500000920E-02 0. -1.
       -2    1    3    3    0  502 -0.25950961317E+03  0.23280936437E+03  0.11078078177E+04  0.11613714309E+04  0.25500000920E-02 0.  1.
</event>
<event>
 5   0  0.6862201E-06  0.1907085E+04  0.7818609E-02  0.8651338E-01
       -2   -1    0    0    0  501  0.00000000000E+00  0.00000000000E+00  0.67213803513E+03  0.67213803513E+03  0.25500000920E-02 0.  1.
        2   -1    0    0  501    0  0.00000000000E+00  0.00000000000E+00 -0.13527624876E+04  0.13527624876E+04  0.25500000920E-02 0. -1.
    10030    2    1    2    0    0  0.00000000000E+00  0.00000000000E+00 -0.68062445251E+03  0.20249005228E+04  0.19070848124E+04 0.  0.
        3    1    3    3  502    0 -0.90217360761E+03 -0.25047526511E+03 -0.14863842216E+03  0.94802345300E+03  0.10100000352E+00 0.  1.
       -3    1    3    3    0  502  0.90217360761E+03  0.25047526511E+03 -0.53198603036E+03  0.10768770698E+04  0.10100000352E+00 0. -1.
</event>
<event>
 5   0  0.6984466E-06  0.1899901E+04  0.7818609E-02  0.8654906E-01
       -2   -1    0    0    0  501  0.00000000000E+00  0.00000000000E+00  0.48252961913E+03  0.48252961914E+03  0.25500000920E-02 0.  1.
        2   -1    0    0  501    0  0.00000000000E+00  0.00000000000E+00 -0.18701558639E+04  0.18701558639E+04  0.25500000920E-02 0. -1.
    10030    2    1    2    0    0  0.00000000000E+00  0.00000000000E+00 -0.13876262447E+04  0.23526854830E+04  0.18999006255E+04 0.  0.
        2    1    3    3  502    0  0.89875182460E+03  0.75419657933E+02 -0.10631620079E+04  0.13941866525E+04  0.25500000920E-02 0.  1.
       -2    1    3    3    0  502 -0.89875182460E+03 -0.75419657933E+02 -0.32446423682E+03  0.95849883047E+03  0.25500000920E-02 0. -1.
</event>
<event>
 5   0  0.6870370E-06  0.1901403E+04  0.7818609E-02  0.8654158E-01
        2   -1    0    0  501    0  0.00000000000E+00  0.00000000000E+00  0.94273377244E+03  0.94273377245E+03  0.25500000920E-02 0. -1.
       -2   -1    0    0    0  501  0.00000000000E+00  0.00000000000E+00 -0.95873686391E+03  0.95873686391E+03  0.25500000920E-02 0.  1.
    10030    2    1    2    0    0  0.00000000000E+00  0.00000000000E+00 -0.16003091467E+02  0.19014706364E+04  0.19014032928E+04 0.  0.
        1    1    3    3  502    0 -0.83833962560E+03  0.20188005387E+03  0.39234341691E+03  0.94736594874E+03  0.50400001928E-02 0.  1.
       -1    1    3    3    0  502  0.83833962560E+03 -0.20188005387E+03 -0.40834650838E+03  0.95410468762E+03  0.50400001928E-02 0. -1.
</event>
<event>
 5   0  0.3495279E-06  0.1898281E+04  0.7818609E-02  0.8655713E-01
       -1   -1    0    0    0  501  0.00000000000E+00  0.00000000000E+00  0.17900254434E+04  0.17900254434E+04  0.50400001928E-02 0.  1.
        1   -1    0    0  501    0  0.00000000000E+00  0.00000000000E+00 -0.50327084416E+03  0.50327084419E+03  0.50400001928E-02 0. -1.
    10030    2    1    2    0    0  0.00000000000E+00  0.00000000000E+00  0.12867545993E+04  0.22932962876E+04  0.18982809234E+04 0.  0.
        2    1    3    3  502    0 -0.51936227974E+03  0.79333553946E+03  0.69390324897E+03  0.11749979467E+04  0.25500000920E-02 0.  1.
       -2    1    3    3    0  502  0.51936227974E+03 -0.79333553946E+03  0.59285135031E+03  0.11182983409E+04  0.25500000920E-02 0. -1.
</event>
<event>
 5   0  0.7207648E-06  0.1901521E+04  0.7818609E-02  0.8654100E-01
       -2   -1    0    0    0  501  0.00000000000E+00  0.00000000000E+00  0.84407387156E+03  0.84407387157E+03  0.25500000920E-02 0. -1.
        2   -1    0    0  501    0  0.00000000000E+00  0.00000000000E+00 -0.10709319443E+04  0.10709319443E+04  0.25500000920E-02 0.  1.
    10030    2    1    2    0    0  0.00000000000E+00  0.00000000000E+00 -0.22685807271E+03  0.19150058158E+04  0.19015211515E+04 0.  0.
        4    1    3    3  502    0  0.53912986155E+03 -0.51945205649E+03 -0.70363330877E+03  0.10274205043E+04  0.12699999809E+01 0.  1.
       -4    1    3    3    0  502 -0.53912986155E+03  0.51945205649E+03  0.47677523606E+03  0.88758531152E+03  0.12699999809E+01 0. -1.
</event>
<event>
 5   0  0.3398807E-06  0.1903342E+04  0.7818609E-02  0.8653195E-01
       -1   -1    0    0    0  501  0.00000000000E+00  0.00000000000E+00  0.86982175107E+03  0.86982175109E+03  0.50400001928E-02 0.  1.
        1   -1    0    0  501    0  0.00000000000E+00  0.00000000000E+00 -0.10412222924E+04  0.10412222924E+04  0.50400001928E-02 0. -1.
    10030    2    1    2    0    0  0.00000000000E+00  0.00000000000E+00 -0.17140054134E+03  0.19110440435E+04  0.19033421108E+04 0.  0.
        1    1    3    3  502    0  0.74101431066E+03 -0.13196039443E+03 -0.67043307830E+03  0.10079664016E+04  0.50400001928E-02 0. -1.
       -1    1    3    3    0  502 -0.74101431066E+03  0.13196039443E+03  0.49903253697E+03  0.90307764189E+03  0.50400001928E-02 0.  1.
</event>
<event>
 5   0  0.3379108E-06  0.1899658E+04  0.7818609E-02  0.8655026E-01
       -1   -1    0    0    0  501  0.00000000000E+00  0.00000000000E+00  0.75444351678E+03  0.75444351679E+03  0.50400001928E-02 0. -1.
        1   -1    0    0  501    0  0.00000000000E+00  0.00000000000E+00 -0.11958159017E+04  0.11958159017E+04  0.50400001928E-02 0.  1.
    10030    2    1    2    0    0  0.00000000000E+00  0.00000000000E+00 -0.44137238493E+03  0.19502594185E+04  0.18996584475E+04 0.  0.
        4    1    3    3  502    0 -0.32169443448E+03 -0.19210330800E+03 -0.11167366897E+04  0.11779191132E+04  0.12699999809E+01 0.  1.
       -4    1    3    3    0  502  0.32169443448E+03  0.19210330800E+03  0.67536430480E+03  0.77234030532E+03  0.12699999809E+01 0. -1.
</event>
<event>
 5   0  0.6862201E-06  0.1900091E+04  0.7818609E-02  0.8654811E-01
       -2   -1    0    0    0  501  0.00000000000E+00  0.00000000000E+00  0.45906271905E+03  0.45906271906E+03  0.25500000920E-02 0.  1.
        2   -1    0    0  501    0  0.00000000000E+00  0.00000000000E+00 -0.19661503466E+04  0.19661503466E+04  0.25500000920E-02 0. -1.
    10030    2    1    2    0    0  0.00000000000E+00  0.00000000000E+00 -0.15070876276E+04  0.24252130657E+04  0.19000908654E+04 0.  0.
        3    1    3    3  502    0 -0.94267676585E+02 -0.32541196811E+03 -0.18864278019E+04  0.19166087775E+04  0.10100000352E+00 0. -1.
       -3    1    3    3    0  502  0.94267676585E+02  0.32541196811E+03  0.37934017439E+03  0.50860428817E+03  0.10100000352E+00 0.  1.
</event>
<event>
 5   0  0.3211263E-06  0.1904328E+04  0.7818609E-02  0.8652705E-01
       -1   -1    0    0    0  501  0.00000000000E+00  0.00000000000E+00  0.11703710669E+04  0.11703710669E+04  0.50400001928E-02 0.  1.
        1   -1    0    0  501    0  0.00000000000E+00  0.00000000000E+00 -0.77463967669E+03  0.77463967670E+03  0.50400001928E-02 0. -1.
    10030    2    1    2    0    0  0.00000000000E+00  0.00000000000E+00  0.39573139017E+03  0.19450107436E+04  0.19043275610E+04 0.  0.
        5    1    3    3  502    0  0.15637635233E+01 -0.28961595521E+03  0.11242789847E+04  0.11609931836E+04  0.46999998093E+01 0.  1.
       -5    1    3    3    0  502 -0.15637635233E+01  0.28961595521E+03 -0.72854759454E+03  0.78401755999E+03  0.46999998093E+01 0. -1.
</event>
<event>
 5   0  0.6862201E-06  0.1900738E+04  0.7818609E-02  0.8654489E-01
        2   -1    0    0  501    0  0.00000000000E+00  0.00000000000E+00  0.90730967001E+03  0.90730967001E+03  0.25500000920E-02 0. -1.
       -2   -1    0    0    0  501  0.00000000000E+00  0.00000000000E+00 -0.99547195935E+03  0.99547195935E+03  0.25500000920E-02 0.  1.
    10030    2    1    2    0    0  0.00000000000E+00  0.00000000000E+00 -0.88162289343E+02  0.19027816294E+04  0.19007381039E+04 0.  0.
        3    1    3    3  502    0  0.40202355126E+03 -0.65766595064E+03 -0.60060498501E+03  0.97717644088E+03  0.10100000352E+00 0.  1.
       -3    1    3    3    0  502 -0.40202355126E+03  0.65766595064E+03  0.51244269567E+03  0.92560518848E+03  0.10100000352E+00 0. -1.
</event>
<event>
 5   0  0.3379108E-06  0.1889989E+04  0.7818609E-02  0.8659855E-01
        1   -1    0    0  501    0  0.00000000000E+00  0.00000000000E+00  0.68816906506E+03  0.68816906508E+03  0.50400001928E-02 0. -1.
       -1   -1    0    0    0  501  0.00000000000E+00  0.00000000000E+00 -0.12976680874E+04  0.12976680874E+04  0.50400001928E-02 0.  1.
    10030    2    1    2    0    0  0.00000000000E+00  0.00000000000E+00 -0.60949902233E+03  0.19858371525E+04  0.18899894545E+04 0.  0.
        4    1    3    3  502    0 -0.53970249807E+03 -0.33839189537E+03  0.42866463504E+03  0.76781693359E+03  0.12699999809E+01 0. -1.
       -4    1    3    3    0  502  0.53970249807E+03  0.33839189537E+03 -0.10381636574E+04  0.12180202189E+04  0.12699999809E+01 0.  1.
</event>
<event>
 5   0  0.3211263E-06  0.1899766E+04  0.7818609E-02  0.8654973E-01
       -1   -1    0    0    0  501  0.00000000000E+00  0.00000000000E+00  0.91111481568E+03  0.91111481569E+03  0.50400001928E-02 0. -1.
        1   -1    0    0  501    0  0.00000000000E+00  0.00000000000E+00 -0.99030099809E+03  0.99030099810E+03  0.50400001928E-02 0.  1.
    10030    2    1    2    0    0  0.00000000000E+00  0.00000000000E+00 -0.79186182408E+02  0.19014158138E+04  0.18997662081E+04 0.  0.
        5    1    3    3  502    0  0.37999625674E+03 -0.59524325562E+03 -0.67539592881E+03  0.97718649149E+03  0.46999998093E+01 0.  1.
       -5    1    3    3    0  502 -0.37999625674E+03  0.59524325562E+03  0.59620974641E+03  0.92422932230E+03  0.46999998093E+01 0. -1.
</event>
<event>
 5   0  0.7577180E-06  0.1900612E+04  0.7818609E-02  0.8654552E-01
        2   -1    0    0  501    0  0.00000000000E+00  0.00000000000E+00  0.72575684016E+03  0.72575684017E+03  0.25500000920E-02 0.  1.
       -2   -1    0    0    0  501  0.00000000000E+00  0.00000000000E+00 -0.12443301384E+04  0.12443301384E+04  0.25500000920E-02 0. -1.
    10030    2    1    2    0    0  0.00000000000E+00  0.00000000000E+00 -0.51857329828E+03  0.19700869786E+04  0.19006115957E+04 0.  0.
        5    1    3    3  502    0 -0.30894759396E+03  0.89860767441E+03 -0.27038557881E+03  0.98796498903E+03  0.46999998093E+01 0. -1.
       -5    1    3    3    0  502  0.30894759396E+03 -0.89860767441E+03 -0.24818771947E+03  0.98212198958E+03  0.46999998093E+01 0.  1.
</event>
<event>
 5   0  0.3398807E-06  0.1899788E+04  0.7818609E-02  0.8654962E-01
        1   -1    0    0  501    0  0.00000000000E+00  0.00000000000E+00  0.16507282073E+04  0.16507282073E+04  0.50400001928E-02 0.  1.
       -1   -1    0    0    0  501  0.00000000000E+00  0.00000000000E+00 -0.54660629986E+03  0.54660629989E+03  0.50400001928E-02 0. -1.
    10030    2    1    2    0    0  0.00000000000E+00  0.00000000000E+00  0.11041219074E+04  0.21973345072E+04  0.18997878171E+04 0.  0.
        1    1    3    3  502    0  0.52319031006E+03 -0.41831360342E+03 -0.22690768372E+03  0.70724922644E+03  0.50400001928E-02 0. -1.
       -1    1    3    3    0  502 -0.52319031006E+03  0.41831360342E+03  0.13310295912E+04  0.14900852808E+04  0.50400001928E-02 0.  1.
</event>
<event>
 5   0  0.7577180E-06  0.1899954E+04  0.7818609E-02  0.8654879E-01
        2   -1    0    0  501    0  0.00000000000E+00  0.00000000000E+00  0.74098744338E+03  0.74098744339E+03  0.25500000920E-02 0.  1.
       -2   -1    0    0    0  501  0.00000000000E+00  0.00000000000E+00 -0.12179104350E+04  0.12179104350E+04  0.25500000920E-02 0. -1.
    10030    2    1    2    0    0  0.00000000000E+00  0.00000000000E+00 -0.47692299166E+03  0.19588978784E+04  0.18999540411E+04 0.  0.
        5    1    3    3  502    0  0.88383208366E+03 -0.12916263045E+03  0.94978864942E+02  0.89826789545E+03  0.46999998093E+01 0.  1.
       -5    1    3    3    0  502 -0.88383208366E+03  0.12916263045E+03 -0.57190185660E+03  0.10606299830E+04  0.46999998093E+01 0. -1.
</event>
<event>
 5   0  0.3495279E-06  0.1899971E+04  0.7818609E-02  0.8654871E-01
       -1   -1    0    0    0  501  0.00000000000E+00  0.00000000000E+00  0.10612793310E+04  0.10612793310E+04  0.50400001928E-02 0.  1.
        1   -1    0    0  501    0  0.00000000000E+00  0.00000000000E+00 -0.85036247681E+03  0.85036247682E+03  0.50400001928E-02 0. -1.
    10030    2    1    2    0    0  0.00000000000E+00  0.00000000000E+00  0.21091685420E+03  0.19116418078E+04  0.18999706530E+04 0.  0.
        2    1    3    3  502    0 -0.32396211442E+03 -0.21296583366E+03 -0.76714424897E+03  0.85954417956E+03  0.25500000920E-02 0. -1.
       -2    1    3    3    0  502  0.32396211442E+03  0.21296583366E+03  0.97806110317E+03  0.10520976283E+04  0.25500000920E-02 0.  1.
</event>
<event>
 5   0  0.3236653E-06  0.1900189E+04  0.7818609E-02  0.8654762E-01
        1   -1    0    0  501    0  0.00000000000E+00  0.00000000000E+00  0.96124188960E+03  0.96124188961E+03  0.50400001928E-02 0.  1.
       -1   -1    0    0    0  501  0.00000000000E+00  0.00000000000E+00 -0.93907604089E+03  0.93907604091E+03  0.50400001928E-02 0. -1.
    10030    2    1    2    0    0  0.00000000000E+00  0.00000000000E+00  0.22165848706E+02  0.19003179305E+04  0.19001886517E+04 0.  0.
        3    1    3    3  502    0  0.31453318206E+03  0.80812176032E+03 -0.37712812695E+03  0.94563076117E+03  0.10100000352E+00 0. -1.
       -3    1    3    3    0  502 -0.31453318206E+03 -0.80812176032E+03  0.39929397566E+03  0.95468716935E+03  0.10100000352E+00 0.  1.
</event>
<event>
 5   0  0.3211263E-06  0.1900207E+04  0.7818609E-02  0.8654754E-01
        1   -1    0    0  501    0  0.00000000000E+00  0.00000000000E+00  0.88074818509E+03  0.88074818511E+03  0.50400001928E-02 0.  1.
       -1   -1    0    0    0  501  0.00000000000E+00  0.00000000000E+00 -0.10249199287E+04  0.10249199287E+04  0.50400001928E-02 0. -1.
    10030    2    1    2    0    0  0.00000000000E+00  0.00000000000E+00 -0.14417174356E+03  0.19056681138E+04  0.19002066909E+04 0.  0.
        5    1    3    3  502    0  0.53876204863E+03  0.17669835786E+03 -0.83663346909E+03  0.10106752724E+04  0.46999998093E+01 0. -1.
       -5    1    3    3    0  502 -0.53876204863E+03 -0.17669835786E+03  0.69246172553E+03  0.89499284133E+03  0.46999998093E+01 0.  1.
</event>
<event>
 5   0  0.6984466E-06  0.1902502E+04  0.7818609E-02  0.8653612E-01
       -2   -1    0    0    0  501  0.00000000000E+00  0.00000000000E+00  0.72161998050E+03  0.72161998051E+03  0.25500000920E-02 0.  1.
        2   -1    0    0  501    0  0.00000000000E+00  0.00000000000E+00 -0.12539536367E+04  0.12539536367E+04  0.25500000920E-02 0. -1.
    10030    2    1    2    0    0  0.00000000000E+00  0.00000000000E+00 -0.53233365624E+03  0.19755736173E+04  0.19025015100E+04 0.  0.
        2    1    3    3  502    0 -0.56443420948E+03 -0.94525541496E+02  0.52285751874E+03  0.77517806970E+03  0.25500000920E-02 0.  1.
       -2    1    3    3    0  502  0.56443420948E+03  0.94525541496E+02 -0.10551911750E+04  0.12003955476E+04  0.25500000920E-02 0. -1.
</event>
<event>
 5   0  0.6870370E-06  0.1890627E+04  0.7818609E-02  0.8659536E-01
       -2   -1    0    0    0  501  0.00000000000E+00  0.00000000000E+00  0.13103551908E+04  0.13103551908E+04  0.25500000920E-02 0.  1.
        2   -1    0    0  501    0  0.00000000000E+00  0.00000000000E+00 -0.68196615525E+03  0.68196615526E+03  0.25500000920E-02 0. -1.
    10030    2    1    2    0    0  0.00000000000E+00  0.00000000000E+00  0.62838903559E+03  0.19923213461E+04  0.18906272943E+04 0.  0.
        1    1    3    3  502    0 -0.23470951728E+02  0.51375416993E+02  0.13085753966E+04  0.13097938340E+04  0.50400001928E-02 0.  1.
       -1    1    3    3    0  502  0.23470951728E+02 -0.51375416993E+02 -0.68018636099E+03  0.68252751209E+03  0.50400001928E-02 0. -1.
</event>
<event>
 5   0  0.3398807E-06  0.1901525E+04  0.7818609E-02  0.8654098E-01
       -1   -1    0    0    0  501  0.00000000000E+00  0.00000000000E+00  0.65557543488E+03  0.65557543490E+03  0.50400001928E-02 0.  1.
        1   -1    0    0  501    0  0.00000000000E+00  0.00000000000E+00 -0.13788636603E+04  0.13788636603E+04  0.50400001928E-02 0. -1.
    10030    2    1    2    0    0  0.00000000000E+00  0.00000000000E+00 -0.72328822546E+03  0.20344390952E+04  0.19015248027E+04 0.  0.
        1    1    3    3  502    0 -0.85322806437E+03 -0.14110305841E+03 -0.78427572497E+03  0.11674744604E+04  0.50400001928E-02 0. -1.
       -1    1    3    3    0  502  0.85322806437E+03  0.14110305841E+03  0.60987499519E+02  0.86696463483E+03  0.50400001928E-02 0.  1.
</event>
<event>
 5   0  0.3236653E-06  0.1899576E+04  0.7818609E-02  0.8655068E-01
        1   -1    0    0  501    0  0.00000000000E+00  0.00000000000E+00  0.24075110904E+04  0.24075110904E+04  0.50400001928E-02 0.  1.
       -1   -1    0    0    0  501  0.00000000000E+00  0.00000000000E+00 -0.37470109779E+03  0.37470109783E+03  0.50400001928E-02 0. -1.
    10030    2    1    2    0    0  0.00000000000E+00  0.00000000000E+00  0.20328099926E+04  0.27822121882E+04  0.18995757932E+04 0.  0.
        3    1    3    3  502    0  0.30821201495E+03  0.41543385713E+03 -0.15028450128E+03  0.53867000783E+03  0.10100000352E+00 0. -1.
       -3    1    3    3    0  502 -0.30821201495E+03 -0.41543385713E+03  0.21830944938E+04  0.22435421804E+04  0.10100000352E+00 0.  1.
</event>
<event>
 5   0  0.3236653E-06  0.1897434E+04  0.7818609E-02  0.8656135E-01
        1   -1    0    0  501    0  0.00000000000E+00  0.00000000000E+00  0.66240886455E+03  0.66240886456E+03  0.50400001928E-02 0.  1.
       -1   -1    0    0    0  501  0.00000000000E+00  0.00000000000E+00 -0.13587742693E+04  0.13587742694E+04  0.50400001928E-02 0. -1.
    10030    2    1    2    0    0  0.00000000000E+00  0.00000000000E+00 -0.69636540480E+03  0.20211831339E+04  0.18974341843E+04 0.  0.
        3    1    3    3  502    0 -0.14648293602E+03 -0.93130332364E+03 -0.23504369827E+03  0.97161138397E+03  0.10100000352E+00 0.  1.
       -3    1    3    3    0  502  0.14648293602E+03  0.93130332364E+03 -0.46132170653E+03  0.10495717499E+04  0.10100000352E+00 0. -1.
</event>
<event>
 5   0  0.3379108E-06  0.1899992E+04  0.7818609E-02  0.8654861E-01
        1   -1    0    0  501    0  0.00000000000E+00  0.00000000000E+00  0.26208404797E+04  0.26208404797E+04  0.50400001928E-02 0. -1.
       -1   -1    0    0    0  501  0.00000000000E+00  0.00000000000E+00 -0.34435214770E+03  0.34435214774E+03  0.50400001928E-02 0.  1.
    10030    2    1    2    0    0  0.00000000000E+00  0.00000000000E+00  0.22764883320E+04  0.29651926274E+04  0.18999916295E+04 0.  0.
        4    1    3    3  502    0 -0.74551875782E+03  0.58874050297E+03  0.11519241769E+04  0.14930989654E+04  0.12699999809E+01 0. -1.
       -4    1    3    3    0  502  0.74551875782E+03 -0.58874050297E+03  0.11245641550E+04  0.14720936620E+04  0.12699999809E+01 0.  1.
</event>
<event>
 5   0  0.6870370E-06  0.1899526E+04  0.7818609E-02  0.8655092E-01
        2   -1    0    0  501    0  0.00000000000E+00  0.00000000000E+00  0.30874496777E+04  0.30874496777E+04  0.25500000920E-02 0. -1.
       -2   -1    0    0    0  501  0.00000000000E+00  0.00000000000E+00 -0.29216668079E+03  0.29216668080E+03  0.25500000920E-02 0.  1.
    10030    2    1    2    0    0  0.00000000000E+00  0.00000000000E+00  0.27952829969E+04  0.33796163585E+04  0.18995261772E+04 0.  0.
        1    1    3    3  502    0 -0.11289138416E+03  0.10423547751E+02 -0.28008463145E+03  0.30215975206E+03  0.50400001928E-02 0.  1.
       -1    1    3    3    0  502  0.11289138416E+03 -0.10423547751E+02  0.30753676283E+04  0.30774566064E+04  0.50400001928E-02 0. -1.
</event>
<event>
 5   0  0.6862201E-06  0.1900029E+04  0.7818609E-02  0.8654842E-01
       -2   -1    0    0    0  501  0.00000000000E+00  0.00000000000E+00  0.66870566951E+03  0.66870566951E+03  0.25500000920E-02 0. -1.
        2   -1    0    0  501    0  0.00000000000E+00  0.00000000000E+00 -0.13496628871E+04  0.13496628871E+04  0.25500000920E-02 0.  1.
    10030    2    1    2    0    0  0.00000000000E+00  0.00000000000E+00 -0.68095721756E+03  0.20183685566E+04  0.19000286572E+04 0.  0.
        3    1    3    3  502    0 -0.77419912377E+03  0.20503702150E+03 -0.88328636451E+03  0.11923167680E+04  0.10100000352E+00 0.  1.
       -3    1    3    3    0  502  0.77419912377E+03 -0.20503702150E+03  0.20232914696E+03  0.82605178853E+03  0.10100000352E+00 0. -1.
</event>
<event>
 5   0  0.3236653E-06  0.1899929E+04  0.7818609E-02  0.8654892E-01
       -1   -1    0    0    0  501  0.00000000000E+00  0.00000000000E+00  0.54591747518E+03  0.54591747520E+03  0.50400001928E-02 0.  1.
        1   -1    0    0  501    0  0.00000000000E+00  0.00000000000E+00 -0.16530559195E+04  0.16530559195E+04  0.50400001928E-02 0. -1.
    10030    2    1    2    0    0  0.00000000000E+00  0.00000000000E+00 -0.11071384443E+04  0.21989733947E+04  0.18999285396E+04 0.  0.
        3    1    3    3  502    0  0.37293996379E+03 -0.54458392712E+03 -0.13443153538E+04  0.14976113150E+04  0.10100000352E+00 0. -1.
       -3    1    3    3    0  502 -0.37293996379E+03  0.54458392712E+03  0.23717690944E+03  0.70136207970E+03  0.10100000352E+00 0.  1.
</event>
<event>
 5   0  0.7207648E-06  0.1900876E+04  0.7818609E-02  0.8654421E-01
        2   -1    0    0  501    0  0.00000000000E+00  0.00000000000E+00  0.91933091029E+03  0.91933091029E+03  0.25500000920E-02 0.  1.
       -2   -1    0    0    0  501  0.00000000000E+00  0.00000000000E+00 -0.98259738691E+03  0.98259738691E+03  0.25500000920E-02 0. -1.
    10030    2    1    2    0    0  0.00000000000E+00  0.00000000000E+00 -0.63266476622E+02  0.19019282972E+04  0.19008757457E+04 0.  0.
        4    1    3    3  502    0 -0.24755349884E+01  0.46756725981E+03 -0.85956061764E+03  0.97850464435E+03  0.12699999809E+01 0. -1.
       -4    1    3    3    0  502  0.24755349884E+01 -0.46756725981E+03  0.79629414102E+03  0.92342365285E+03  0.12699999809E+01 0.  1.
</event>
<event>
 5   0  0.3236653E-06  0.1900600E+04  0.7818609E-02  0.8654558E-01
        1   -1    0    0  501    0  0.00000000000E+00  0.00000000000E+00  0.98302355246E+03  0.98302355247E+03  0.50400001928E-02 0.  1.
       -1   -1    0    0    0  501  0.00000000000E+00  0.00000000000E+00 -0.91866542618E+03  0.91866542619E+03  0.50400001928E-02 0. -1.
    10030    2    1    2    0    0  0.00000000000E+00  0.00000000000E+00  0.64358126284E+02  0.19016889787E+04  0.19005996430E+04 0.  0.
        3    1    3    3  502    0 -0.79992129338E+03 -0.50517779524E+03  0.12162302897E+03  0.95387150695E+03  0.10100000352E+00 0. -1.
       -3    1    3    3    0  502  0.79992129338E+03  0.50517779524E+03 -0.57264902689E+02  0.94781747171E+03  0.10100000352E+00 0.  1.
</event>
<event>
 5   0  0.3236653E-06  0.1899226E+04  0.7818609E-02  0.8655242E-01
        1   -1    0    0  501    0  0.00000000000E+00  0.00000000000E+00  0.22599464888E+04  0.22599464888E+04  0.50400001928E-02 0. -1.
       -1   -1    0    0    0  501  0.00000000000E+00  0.00000000000E+00 -0.39902059287E+03  0.39902059290E+03  0.50400001928E-02 0.  1.
    10030    2    1    2    0    0  0.00000000000E+00  0.00000000000E+00  0.18609258960E+04  0.26589670817E+04  0.18992263561E+04 0.  0.
        3    1    3    3  502    0  0.31165029700E+03  0.60191762846E+03  0.18615957129E+04  0.19811535396E+04  0.10100000352E+00 0. -1.
       -3    1    3    3    0  502 -0.31165029700E+03 -0.60191762846E+03 -0.66981691037E+00  0.67781354215E+03  0.10100000352E+00 0.  1.
</event>
<event>
 5   0  0.6862201E-06  0.1900118E+04  0.7818609E-02  0.8654797E-01
       -2   -1    0    0    0  501  0.00000000000E+00  0.00000000000E+00  0.52530717004E+03  0.52530717004E+03  0.25500000920E-02 0.  1.
        2   -1    0    0  501    0  0.00000000000E+00  0.00000000000E+00 -0.17182564558E+04  0.17182564558E+04  0.25500000920E-02 0. -1.
    10030    2    1    2    0    0  0.00000000000E+00  0.00000000000E+00 -0.11929492857E+04  0.22435636258E+04  0.19001183502E+04 0.  0.
        3    1    3    3  502    0 -0.42532020843E+03 -0.64545752409E+03 -0.12486714231E+04  0.14685683601E+04  0.10100000352E+00 0. -1.
       -3    1    3    3    0  502  0.42532020843E+03  0.64545752409E+03  0.55722137404E+02  0.77499526573E+03  0.10100000352E+00 0.  1.
</event>
<event>
 5   0  0.3379108E-06  0.1900278E+04  0.7818609E-02  0.8654718E-01
        1   -1    0    0  501    0  0.00000000000E+00  0.00000000000E+00  0.11156723877E+04  0.11156723877E+04  0.50400001928E-02 0. -1.
       -1   -1    0    0    0  501  0.00000000000E+00  0.00000000000E+00 -0.80916638455E+03  0.80916638456E+03  0.50400001928E-02 0.  1.
    10030    2    1    2    0    0  0.00000000000E+00  0.00000000000E+00  0.30650600311E+03  0.19248387722E+04  0.19002784978E+04 0.  0.
        4    1    3    3  502    0 -0.69464827336E+03 -0.55868487791E+03 -0.17977891662E+03  0.90938830444E+03  0.12699999809E+01 0.  1.
       -4    1    3    3    0  502  0.69464827336E+03  0.55868487791E+03  0.48628491973E+03  0.10154504678E+04  0.12699999809E+01 0. -1.
</event>
<event>
 5   0  0.3236653E-06  0.1899253E+04  0.7818609E-02  0.8655228E-01
       -1   -1    0    0    0  501  0.00000000000E+00  0.00000000000E+00  0.12754258211E+04  0.12754258211E+04  0.50400001928E-02 0. -1.
        1   -1    0    0  501    0  0.00000000000E+00  0.00000000000E+00 -0.70705065058E+03  0.70705065060E+03  0.50400001928E-02 0.  1.
    10030    2    1    2    0    0  0.00000000000E+00  0.00000000000E+00  0.56837517053E+03  0.19824764717E+04  0.18992531760E+04 0.  0.
        3    1    3    3  502    0  0.16588260004E+03 -0.21545988192E+03  0.12339198169E+04  0.12635260672E+04  0.10100000352E+00 0. -1.
       -3    1    3    3    0  502 -0.16588260004E+03  0.21545988192E+03 -0.66554464635E+03  0.71895040455E+03  0.10100000352E+00 0.  1.
</event>
<event>
 5   0  0.6984466E-06  0.1892628E+04  0.7818609E-02  0.8658535E-01
       -2   -1    0    0    0  501  0.00000000000E+00  0.00000000000E+00  0.11154973122E+04  0.11154973122E+04  0.25500000920E-02 0.  1.
        2   -1    0    0  501    0  0.00000000000E+00  0.00000000000E+00 -0.80279014165E+03  0.80279014165E+03  0.25500000920E-02 0. -1.
    10030    2    1    2    0    0  0.00000000000E+00  0.00000000000E+00  0.31270717056E+03  0.19182874539E+04  0.18926280620E+04 0.  0.
        2    1    3    3  502    0  0.51487042645E+03  0.18467871812E+03 -0.62632842798E+03  0.83155582173E+03  0.25500000920E-02 0. -1.
       -2    1    3    3    0  502 -0.51487042645E+03 -0.18467871812E+03  0.93903559854E+03  0.10867316321E+04  0.25500000920E-02 0.  1.
</event>
<event>
 5   0  0.3379108E-06  0.1900032E+04  0.7818609E-02  0.8654841E-01
       -1   -1    0    0    0  501  0.00000000000E+00  0.00000000000E+00  0.74314699800E+03  0.74314699801E+03  0.50400001928E-02 0. -1.
        1   -1    0    0  501    0  0.00000000000E+00  0.00000000000E+00 -0.12144705921E+04  0.12144705921E+04  0.50400001928E-02 0.  1.
    10030    2    1    2    0    0  0.00000000000E+00  0.00000000000E+00 -0.47132359411E+03  0.19576175901E+04  0.19000317626E+04 0.  0.
        4    1    3    3  502    0 -0.23877336922E+03 -0.49938359966E+03  0.55983450356E+03  0.78728202426E+03  0.12699999809E+01 0. -1.
       -4    1    3    3    0  502  0.23877336922E+03  0.49938359966E+03 -0.10311580977E+04  0.11703355659E+04  0.12699999809E+01 0.  1.
</event>
<event>
 5   0  0.6870370E-06  0.1900135E+04  0.7818609E-02  0.8654789E-01
       -2   -1    0    0    0  501  0.00000000000E+00  0.00000000000E+00  0.10548530311E+04  0.10548530311E+04  0.25500000920E-02 0.  1.
        2   -1    0    0  501    0  0.00000000000E+00  0.00000000000E+00 -0.85569129756E+03  0.85569129756E+03  0.25500000920E-02 0. -1.
    10030    2    1    2    0    0  0.00000000000E+00  0.00000000000E+00  0.19916173351E+03  0.19105443286E+04  0.19001353203E+04 0.  0.
        1    1    3    3  502    0  0.46827727283E+03  0.72983863660E+03  0.48988319482E+03  0.99595862580E+03  0.50400001928E-02 0.  1.
       -1    1    3    3    0  502 -0.46827727283E+03 -0.72983863660E+03 -0.29072146131E+03  0.91458570283E+03  0.50400001928E-02 0. -1.
</event>
<event>
 5   0  0.3495279E-06  0.1902030E+04  0.7818609E-02  0.8653847E-01
       -1   -1    0    0    0  501  0.00000000000E+00  0.00000000000E+00  0.13295967770E+04  0.13295967770E+04  0.50400001928E-02 0. -1.
        1   -1    0    0  501    0  0.00000000000E+00  0.00000000000E+00 -0.68022850280E+03  0.68022850282E+03  0.50400001928E-02 0.  1.
    10030    2    1    2    0    0  0.00000000000E+00  0.00000000000E+00  0.64936827424E+03  0.20098252799E+04  0.19020300997E+04 0.  0.
        2    1    3    3  502    0 -0.22215588217E+03  0.88548818611E+03  0.43150352877E+02  0.91394995305E+03  0.25500000920E-02 0.  1.
       -2    1    3    3    0  502  0.22215588217E+03 -0.88548818611E+03  0.60621792136E+03  0.10958753268E+04  0.25500000920E-02 0. -1.
</event>
<event>
 5   0  0.3379108E-06  0.1899822E+04  0.7818609E-02  0.8654945E-01
       -1   -1    0    0    0  501  0.00000000000E+00  0.00000000000E+00  0.90098548986E+03  0.90098548988E+03  0.50400001928E-02 0.  1.
        1   -1    0    0  501    0  0.00000000000E+00  0.00000000000E+00 -0.10014933082E+04  0.10014933082E+04  0.50400001928E-02 0. -1.
    10030    2    1    2    0    0  0.00000000000E+00  0.00000000000E+00 -0.10050781829E+03  0.19024787980E+04  0.18998220326E+04 0.  0.
        4    1    3    3  502    0 -0.41007146741E+01  0.43168831240E+03 -0.89758002266E+03  0.99600357676E+03  0.12699999809E+01 0. -1.
       -4    1    3    3    0  502  0.41007146741E+01 -0.43168831240E+03  0.79707220437E+03  0.90647522129E+03  0.12699999809E+01 0.  1.
</event>
<event>
 5   0  0.6862201E-06  0.1898270E+04  0.7818609E-02  0.8655718E-01
        2   -1    0    0  501    0  0.00000000000E+00  0.00000000000E+00  0.14015771321E+04  0.14015771321E+04  0.25500000920E-02 0. -1.
       -2   -1    0    0    0  501  0.00000000000E+00  0.00000000000E+00 -0.64274553206E+03  0.64274553207E+03  0.25500000920E-02 0.  1.
    10030    2    1    2    0    0  0.00000000000E+00  0.00000000000E+00  0.75883160005E+03  0.20443226642E+04  0.18982702015E+04 0.  0.
        3    1    3    3  502    0 -0.18322668924E+03 -0.91071979708E+03  0.16982754777E+03  0.94436432304E+03  0.10100000352E+00 0. -1.
       -3    1    3    3    0  502  0.18322668924E+03  0.91071979708E+03  0.58900405229E+03  0.10999583411E+04  0.10100000352E+00 0.  1.
</event>
<event>
 5   0  0.3236653E-06  0.1899957E+04  0.7818609E-02  0.8654878E-01
        1   -1    0    0  501    0  0.00000000000E+00  0.00000000000E+00  0.27009062014E+04  0.27009062014E+04  0.50400001928E-02 0. -1.
       -1   -1    0    0    0  501  0.00000000000E+00  0.00000000000E+00 -0.33413204286E+03  0.33413204290E+03  0.50400001928E-02 0.  1.
    10030    2    1    2    0    0  0.00000000000E+00  0.00000000000E+00  0.23667741585E+04  0.30350382443E+04  0.18999571645E+04 0.  0.
        3    1    3    3  502    0  0.22198160136E+02  0.94040353639E+03  0.13953559107E+04  0.16828160022E+04  0.10100000352E+00 0. -1.
       -3    1    3    3    0  502 -0.22198160136E+02 -0.94040353639E+03  0.97141824779E+03  0.13522222421E+04  0.10100000352E+00 0.  1.
</event>
<event>
 5   0  0.6984466E-06  0.1899976E+04  0.7818609E-02  0.8654868E-01
        2   -1    0    0  501    0  0.00000000000E+00  0.00000000000E+00  0.82520751708E+03  0.82520751708E+03  0.25500000920E-02 0.  1.
       -2   -1    0    0    0  501  0.00000000000E+00  0.00000000000E+00 -0.10936368863E+04  0.10936368863E+04  0.25500000920E-02 0. -1.
    10030    2    1    2    0    0  0.00000000000E+00  0.00000000000E+00 -0.26842936923E+03  0.19188444034E+04  0.18999761888E+04 0.  0.
        2    1    3    3  502    0  0.85251503984E+03  0.21771593443E+02  0.28853693367E+03  0.90028298747E+03  0.25500000920E-02 0.  1.
       -2    1    3    3    0  502 -0.85251503984E+03 -0.21771593443E+02 -0.55696630291E+03  0.10185614159E+04  0.25500000920E-02 0. -1.
</event>
<event>
 5   0  0.6862201E-06  0.1897815E+04  0.7818609E-02  0.8655945E-01
       -2   -1    0    0    0  501  0.00000000000E+00  0.00000000000E+00  0.77940572443E+03  0.77940572443E+03  0.25500000920E-02 0.  1.
        2   -1    0    0  501    0  0.00000000000E+00  0.00000000000E+00 -0.11552715823E+04  0.11552715823E+04  0.25500000920E-02 0. -1.
    10030    2    1    2    0    0  0.00000000000E+00  0.00000000000E+00 -0.37586585784E+03  0.19346773067E+04  0.18978148324E+04 0.  0.
        3    1    3    3  502    0  0.48629483322E+03 -0.31480210971E+03 -0.95409083020E+03  0.11161865236E+04  0.10100000352E+00 0. -1.
       -3    1    3    3    0  502 -0.48629483322E+03  0.31480210971E+03  0.57822497236E+03  0.81849078306E+03  0.10100000352E+00 0.  1.
</event>
<event>
 5   0  0.6984466E-06  0.1901705E+04  0.7818609E-02  0.8654008E-01
        2   -1    0    0  501    0  0.00000000000E+00  0.00000000000E+00  0.11789509406E+04  0.11789509406E+04  0.25500000920E-02 0.  1.
       -2   -1    0    0    0  501  0.00000000000E+00  0.00000000000E+00 -0.76688574462E+03  0.76688574463E+03  0.25500000920E-02 0. -1.
    10030    2    1    2    0    0  0.00000000000E+00  0.00000000000E+00  0.41206519598E+03  0.19458366852E+04  0.19017052032E+04 0.  0.
        2    1    3    3  502    0 -0.92647810738E+03  0.91395593838E+02  0.40392670026E+03  0.10148259049E+04  0.25500000920E-02 0.  1.
       -2    1    3    3    0  502  0.92647810738E+03 -0.91395593838E+02  0.81384957277E+01  0.93101078036E+03  0.25500000920E-02 0. -1.
</event>
<event>
 5   0  0.6984466E-06  0.1912929E+04  0.7818609E-02  0.8648448E-01
       -2   -1    0    0    0  501  0.00000000000E+00  0.00000000000E+00  0.55777194966E+03  0.55777194966E+03  0.25500000920E-02 0. -1.
        2   -1    0    0  501    0  0.00000000000E+00  0.00000000000E+00 -0.16401400235E+04  0.16401400235E+04  0.25500000920E-02 0.  1.
    10030    2    1    2    0    0  0.00000000000E+00  0.00000000000E+00 -0.10823680739E+04  0.21979119732E+04  0.19129287479E+04 0.  0.
        2    1    3    3  502    0 -0.55496442740E+03 -0.16934544905E+03  0.33246255167E+03  0.66872621084E+03  0.25500000920E-02 0. -1.
       -2    1    3    3    0  502  0.55496442740E+03  0.16934544905E+03 -0.14148306255E+04  0.15291857624E+04  0.25500000920E-02 0.  1.
</event>
<event>
 5   0  0.3211263E-06  0.1900046E+04  0.7818609E-02  0.8654834E-01
       -1   -1    0    0    0  501  0.00000000000E+00  0.00000000000E+00  0.52761040582E+03  0.52761040585E+03  0.50400001928E-02 0.  1.
        1   -1    0    0  501    0  0.00000000000E+00  0.00000000000E+00 -0.17106249506E+04  0.17106249506E+04  0.50400001928E-02 0. -1.
    10030    2    1    2    0    0  0.00000000000E+00  0.00000000000E+00 -0.11830145448E+04  0.22382353565E+04  0.19000458146E+04 0.  0.
        5    1    3    3  502    0 -0.33978030767E+02 -0.23900345764E+03  0.49086271414E+03  0.54703332025E+03  0.46999998093E+01 0.  1.
       -5    1    3    3    0  502  0.33978030767E+02  0.23900345764E+03 -0.16738772589E+04  0.16912020362E+04  0.46999998093E+01 0. -1.
</event>
<event>
 5   0  0.3398807E-06  0.1901895E+04  0.7818609E-02  0.8653914E-01
        1   -1    0    0  501    0  0.00000000000E+00  0.00000000000E+00  0.12985196317E+04  0.12985196317E+04  0.50400001928E-02 0. -1.
       -1   -1    0    0    0  501  0.00000000000E+00  0.00000000000E+00 -0.69640939740E+03  0.69640939742E+03  0.50400001928E-02 0.  1.
    10030    2    1    2    0    0  0.00000000000E+00  0.00000000000E+00  0.60211023432E+03  0.19949290291E+04  0.19018951330E+04 0.  0.
        1    1    3    3  502    0 -0.25995482854E+03 -0.12899338803E+03 -0.64882859505E+03  0.71077025319E+03  0.50400001928E-02 0.  1.
       -1    1    3    3    0  502  0.25995482854E+03  0.12899338803E+03  0.12509388294E+04  0.12841587760E+04  0.50400001928E-02 0. -1.
</event>
<event>
 5   0  0.6984466E-06  0.1901590E+04  0.7818609E-02  0.8654065E-01
        2   -1    0    0  501    0  0.00000000000E+00  0.00000000000E+00  0.23080655409E+04  0.23080655409E+04  0.25500000920E-02 0.  1.
       -2   -1    0    0    0  501  0.00000000000E+00  0.00000000000E+00 -0.39167479565E+03  0.39167479565E+03  0.25500000920E-02 0. -1.
    10030    2    1    2    0    0  0.00000000000E+00  0.00000000000E+00  0.19163907453E+04  0.26997403366E+04  0.19015899654E+04 0.  0.
        2    1    3    3  502    0 -0.33308101710E+03 -0.35123984475E+03 -0.20364067900E+03  0.52514942507E+03  0.25500000920E-02 0. -1.
       -2    1    3    3    0  502  0.33308101710E+03  0.35123984475E+03  0.21200314243E+04  0.21745909115E+04  0.25500000920E-02 0.  1.
</event>
<event>
 5   0  0.6984466E-06  0.1901050E+04  0.7818609E-02  0.8654334E-01
        2   -1    0    0  501    0  0.00000000000E+00  0.00000000000E+00  0.16503479926E+04  0.16503479926E+04  0.25500000920E-02 0.  1.
       -2   -1    0    0    0  501  0.00000000000E+00  0.00000000000E+00 -0.54745882620E+03  0.54745882621E+03  0.25500000920E-02 0. -1.
    10030    2    1    2    0    0  0.00000000000E+00  0.00000000000E+00  0.11028891664E+04  0.21978068188E+04  0.19010497888E+04 0.  0.
        2    1    3    3  502    0  0.46659528320E+03  0.78334137491E+03  0.86200952803E+03  0.12547490962E+04  0.25500000920E-02 0.  1.
       -2    1    3    3    0  502 -0.46659528320E+03 -0.78334137491E+03  0.24087963833E+03  0.94305772258E+03  0.25500000920E-02 0. -1.
</event>
<event>
 5   0  0.2527750E-06  0.1898650E+04  0.7818609E-02  0.8655529E-01
        3   -1    0    0  501    0  0.00000000000E+00  0.00000000000E+00  0.28124009089E+03  0.28124010902E+03  0.10100000352E+00 0. -1.
       -3   -1    0    0    0  501  0.00000000000E+00  0.00000000000E+00 -0.32044435191E+04  0.32044435207E+04  0.10100000352E+00 0.  1.
    10030    2    1    2    0    0  0.00000000000E+00  0.00000000000E+00 -0.29232034282E+04  0.34856836297E+04  0.18986500688E+04 0.  0.
        1    1    3    3  502    0  0.21786218233E+03  0.88779195045E+03 -0.19317417443E+04  0.21371159642E+04  0.50400001928E-02 0.  1.
       -1    1    3    3    0  502 -0.21786218233E+03 -0.88779195045E+03 -0.99146168394E+03  0.13485676655E+04  0.50400001928E-02 0. -1.
</event>
<event>
 5   0  0.6862201E-06  0.1899631E+04  0.7818609E-02  0.8655040E-01
       -2   -1    0    0    0  501  0.00000000000E+00  0.00000000000E+00  0.12772719480E+04  0.12772719480E+04  0.25500000920E-02 0. -1.
        2   -1    0    0  501    0  0.00000000000E+00  0.00000000000E+00 -0.70630979529E+03  0.70630979529E+03  0.25500000920E-02 0.  1.
    10030    2    1    2    0    0  0.00000000000E+00  0.00000000000E+00  0.57096215272E+03  0.19835817433E+04  0.18996312149E+04 0.  0.
        3    1    3    3  502    0  0.57784652875E+03 -0.75323726998E+03  0.25456375118E+03  0.98289150434E+03  0.10100000352E+00 0.  1.
       -3    1    3    3    0  502 -0.57784652875E+03  0.75323726998E+03  0.31639840154E+03  0.10006902390E+04  0.10100000352E+00 0. -1.
</event>
<event>
 5   0  0.3495279E-06  0.1896044E+04  0.7818609E-02  0.8656828E-01
       -1   -1    0    0    0  501  0.00000000000E+00  0.00000000000E+00  0.68427827610E+03  0.68427827612E+03  0.50400001928E-02 0. -1.
        1   -1    0    0  501    0  0.00000000000E+00  0.00000000000E+00 -0.13134215309E+04  0.13134215310E+04  0.50400001928E-02 0.  1.
    10030    2    1    2    0    0  0.00000000000E+00  0.00000000000E+00 -0.62914325484E+03  0.19976998071E+04  0.18960441145E+04 0.  0.
        2    1    3    3  502    0  0.58171133516E+03  0.59104525580E+03 -0.79857338958E+03  0.11512784330E+04  0.25500000920E-02 0.  1.
       -2    1    3    3    0  502 -0.58171133516E+03 -0.59104525580E+03  0.16943013473E+03  0.84642137403E+03  0.25500000920E-02 0. -1.
</event>
<event>
 5   0  0.3398807E-06  0.1900125E+04  0.7818609E-02  0.8654794E-01
       -1   -1    0    0    0  501  0.00000000000E+00  0.00000000000E+00  0.10127830886E+04  0.10127830886E+04  0.50400001928E-02 0. -1.
        1   -1    0    0  501    0  0.00000000000E+00  0.00000000000E+00 -0.89122645145E+03  0.89122645146E+03  0.50400001928E-02 0.  1.
    10030    2    1    2    0    0  0.00000000000E+00  0.00000000000E+00  0.12155663717E+03  0.19040095401E+04  0.19001253413E+04 0.  0.
        1    1    3    3  502    0  0.16308101442E+03 -0.91128316798E+03  0.27472507320E+03  0.96566365540E+03  0.50400001928E-02 0. -1.
       -1    1    3    3    0  502 -0.16308101442E+03  0.91128316798E+03 -0.15316843602E+03  0.93834588469E+03  0.50400001928E-02 0.  1.
</event>
<event>
 5   0  0.6984466E-06  0.1899987E+04  0.7818609E-02  0.8654863E-01
       -2   -1    0    0    0  501  0.00000000000E+00  0.00000000000E+00  0.10419380496E+04  0.10419380496E+04  0.25500000920E-02 0. -1.
        2   -1    0    0  501    0  0.00000000000E+00  0.00000000000E+00 -0.86616238645E+03  0.86616238645E+03  0.25500000920E-02 0.  1.
    10030    2    1    2    0    0  0.00000000000E+00  0.00000000000E+00  0.17577566320E+03  0.19081004361E+04  0.18999868922E+04 0.  0.
        2    1    3    3  502    0 -0.75616707958E+03 -0.51830728709E+03  0.33806293916E+03  0.97709653921E+03  0.25500000920E-02 0.  1.
       -2    1    3    3    0  502  0.75616707958E+03  0.51830728709E+03 -0.16228727596E+03  0.93100389690E+03  0.25500000920E-02 0. -1.
</event>
<event>
 5   0  0.7577180E-06  0.1899244E+04  0.7818609E-02  0.8655233E-01
       -2   -1    0    0    0  501  0.00000000000E+00  0.00000000000E+00  0.46530434782E+03  0.46530434783E+03  0.25500000920E-02 0. -1.
        2   -1    0    0  501    0  0.00000000000E+00  0.00000000000E+00 -0.19380468842E+04  0.19380468842E+04  0.25500000920E-02 0.  1.
    10030    2    1    2    0    0  0.00000000000E+00  0.00000000000E+00 -0.14727425363E+04  0.24033512320E+04  0.18992436826E+04 0.  0.
        5    1    3    3  502    0 -0.68312144769E+03  0.61721193957E+03 -0.10308487347E+04  0.13821275971E+04  0.46999998093E+01 0.  1.
       -5    1    3    3    0  502  0.68312144769E+03 -0.61721193957E+03 -0.44189380160E+03  0.10212236349E+04  0.46999998093E+01 0. -1.
</event>
<event>
 5   0  0.3495279E-06  0.1892494E+04  0.7818609E-02  0.8658602E-01
        1   -1    0    0  501    0  0.00000000000E+00  0.00000000000E+00  0.11721033773E+04  0.11721033773E+04  0.50400001928E-02 0. -1.
       -1   -1    0    0    0  501  0.00000000000E+00  0.00000000000E+00 -0.76391135451E+03  0.76391135453E+03  0.50400001928E-02 0.  1.
    10030    2    1    2    0    0  0.00000000000E+00  0.00000000000E+00  0.40819202282E+03  0.19360147319E+04  0.18924936762E+04 0.  0.
        2    1    3    3  502    0  0.76162670928E+03 -0.34939874557E+03  0.65378229874E+03  0.10628198445E+04  0.25500000920E-02 0. -1.
       -2    1    3    3    0  502 -0.76162670928E+03  0.34939874557E+03 -0.24559027592E+03  0.87319488737E+03  0.25500000920E-02 0.  1.
</event>
<event>
 5   0  0.3211263E-06  0.1899924E+04  0.7818609E-02  0.8654894E-01
       -1   -1    0    0    0  501  0.00000000000E+00  0.00000000000E+00  0.71074094611E+03  0.71074094613E+03  0.50400001928E-02 0. -1.
        1   -1    0    0  501    0  0.00000000000E+00  0.00000000000E+00 -0.12696994706E+04  0.12696994706E+04  0.50400001928E-02 0.  1.
    10030    2    1    2    0    0  0.00000000000E+00  0.00000000000E+00 -0.55895852452E+03  0.19804404168E+04  0.18999235806E+04 0.  0.
        5    1    3    3  502    0  0.78503456723E+03 -0.17874784847E+02  0.27778568219E+03  0.83293802586E+03  0.46999998093E+01 0. -1.
       -5    1    3    3    0  502 -0.78503456723E+03  0.17874784847E+02 -0.83674420671E+03  0.11475023909E+04  0.46999998093E+01 0.  1.
</event>
<event>
 5   0  0.7207648E-06  0.1899645E+04  0.7818609E-02  0.8655033E-01
       -2   -1    0    0    0  501  0.00000000000E+00  0.00000000000E+00  0.89561874119E+03  0.89561874119E+03  0.25500000920E-02 0.  1.
        2   -1    0    0  501    0  0.00000000000E+00  0.00000000000E+00 -0.10073062552E+04  0.10073062552E+04  0.25500000920E-02 0. -1.
    10030    2    1    2    0    0  0.00000000000E+00  0.00000000000E+00 -0.11168751397E+03  0.19029249964E+04  0.18996445565E+04 0.  0.
        4    1    3    3  502    0  0.57797310263E+03  0.40986366798E+03 -0.68948617684E+03  0.98865258541E+03  0.12699999809E+01 0. -1.
       -4    1    3    3    0  502 -0.57797310263E+03 -0.40986366798E+03  0.57779866287E+03  0.91427241094E+03  0.12699999809E+01 0.  1.
</event>
<event>
 5   0  0.3236653E-06  0.1900470E+04  0.7818609E-02  0.8654622E-01
       -1   -1    0    0    0  501  0.00000000000E+00  0.00000000000E+00  0.84807625428E+03  0.84807625430E+03  0.50400001928E-02 0.  1.
        1   -1    0    0  501    0  0.00000000000E+00  0.00000000000E+00 -0.10646996531E+04  0.10646996531E+04  0.50400001928E-02 0. -1.
    10030    2    1    2    0    0  0.00000000000E+00  0.00000000000E+00 -0.21662339885E+03  0.19127759074E+04  0.19004699353E+04 0.  0.
        3    1    3    3  502    0  0.49977119290E+03  0.33835152110E+03 -0.84702165410E+03  0.10400474459E+04  0.10100000352E+00 0. -1.
       -3    1    3    3    0  502 -0.49977119290E+03 -0.33835152110E+03  0.63039825525E+03  0.87272846150E+03  0.10100000352E+00 0.  1.
</event>
<event>
 5   0  0.3495279E-06  0.1900247E+04  0.7818609E-02  0.8654733E-01
        1   -1    0    0  501    0  0.00000000000E+00  0.00000000000E+00  0.15356025063E+04  0.15356025063E+04  0.50400001928E-02 0. -1.
       -1   -1    0    0    0  501  0.00000000000E+00  0.00000000000E+00 -0.58787003384E+03  0.58787003386E+03  0.50400001928E-02 0.  1.
    10030    2    1    2    0    0  0.00000000000E+00  0.00000000000E+00  0.94773247246E+03  0.21234725402E+04  0.19002470338E+04 0.  0.
        2    1    3    3  502    0 -0.93184440801E+03 -0.15746918296E+03  0.36435312377E+03  0.10128591921E+04  0.25500000920E-02 0.  1.
       -2    1    3    3    0  502  0.93184440801E+03  0.15746918296E+03  0.58337934869E+03  0.11106133480E+04  0.25500000920E-02 0. -1.
</event>
<event>
 5   0  0.6984466E-06  0.1896496E+04  0.7818609E-02  0.8656602E-01
       -2   -1    0    0    0  501  0.00000000000E+00  0.00000000000E+00  0.13008233359E+04  0.13008233359E+04  0.25500000920E-02 0.  1.
        2   -1    0    0  501    0  0.00000000000E+00  0.00000000000E+00 -0.69123493522E+03  0.69123493523E+03  0.25500000920E-02 0. -1.
    10030    2    1    2    0    0  0.00000000000E+00  0.00000000000E+00  0.60958840065E+03  0.19920582711E+04  0.18964962793E+04 0.  0.
        2    1    3    3  502    0 -0.41105534742E+02 -0.53712406029E+03  0.11244895851E+04  0.12468635644E+04  0.25500000920E-02 0.  1.
       -2    1    3    3    0  502  0.41105534742E+02  0.53712406029E+03 -0.51490118448E+03  0.74519470671E+03  0.25500000920E-02 0. -1.
</event>
<event>
 5   0  0.6862201E-06  0.1901398E+04  0.7818609E-02  0.8654161E-01
        2   -1    0    0  501    0  0.00000000000E+00  0.00000000000E+00  0.22436697040E+04  0.22436697040E+04  0.25500000920E-02 0. -1.
       -2   -1    0    0    0  501  0.00000000000E+00  0.00000000000E+00 -0.40283505401E+03  0.40283505402E+03  0.25500000920E-02 0.  1.
    10030    2    1    2    0    0  0.00000000000E+00  0.00000000000E+00  0.18408346500E+04  0.26465047580E+04  0.19013982291E+04 0.  0.
        3    1    3    3  502    0 -0.70495016298E+03  0.15677454793E+03  0.59821251463E+02  0.72464583315E+03  0.10100000352E+00 0.  1.
       -3    1    3    3    0  502  0.70495016298E+03 -0.15677454793E+03  0.17810133985E+04  0.19218589249E+04  0.10100000352E+00 0. -1.
</event>
<event>
 5   0  0.3379108E-06  0.1899889E+04  0.7818609E-02  0.8654911E-01
       -1   -1    0    0    0  501  0.00000000000E+00  0.00000000000E+00  0.79578980537E+03  0.79578980539E+03  0.50400001928E-02 0. -1.
        1   -1    0    0  501    0  0.00000000000E+00  0.00000000000E+00 -0.11339614675E+04  0.11339614675E+04  0.50400001928E-02 0.  1.
    10030    2    1    2    0    0  0.00000000000E+00  0.00000000000E+00 -0.33817166209E+03  0.19297512729E+04  0.18998894447E+04 0.  0.
        4    1    3    3  502    0 -0.30875331105E+03  0.28474816071E+03 -0.10345245149E+04  0.11165360303E+04  0.12699999809E+01 0.  1.
       -4    1    3    3    0  502  0.30875331105E+03 -0.28474816071E+03  0.69635285285E+03  0.81321524253E+03  0.12699999809E+01 0. -1.
</event>
<event>
 5   0  0.6862201E-06  0.1895269E+04  0.7818609E-02  0.8657215E-01
        2   -1    0    0  501    0  0.00000000000E+00  0.00000000000E+00  0.12502053437E+04  0.12502053437E+04  0.25500000920E-02 0. -1.
       -2   -1    0    0    0  501  0.00000000000E+00  0.00000000000E+00 -0.71829076162E+03  0.71829076163E+03  0.25500000920E-02 0.  1.
    10030    2    1    2    0    0  0.00000000000E+00  0.00000000000E+00  0.53191458207E+03  0.19684961053E+04  0.18952687920E+04 0.  0.
        3    1    3    3  502    0 -0.15030595999E+03 -0.91942533716E+03  0.44608252274E+03  0.10329203549E+04  0.10100000352E+00 0. -1.
       -3    1    3    3    0  502  0.15030595999E+03  0.91942533716E+03  0.85832059336E+02  0.93557575045E+03  0.10100000352E+00 0.  1.
</event>
<event>
 5   0  0.3236653E-06  0.1901380E+04  0.7818609E-02  0.8654170E-01
       -1   -1    0    0    0  501  0.00000000000E+00  0.00000000000E+00  0.85164758201E+03  0.85164758202E+03  0.50400001928E-02 0. -1.
        1   -1    0    0  501    0  0.00000000000E+00  0.00000000000E+00 -0.10612503761E+04  0.10612503761E+04  0.50400001928E-02 0.  1.
    10030    2    1    2    0    0  0.00000000000E+00  0.00000000000E+00 -0.20960279412E+03  0.19128979582E+04  0.19013798324E+04 0.  0.
        3    1    3    3  502    0  0.18015259135E+03 -0.39059445249E+03  0.74815068925E+03  0.86298809175E+03  0.10100000352E+00 0. -1.
       -3    1    3    3    0  502 -0.18015259135E+03  0.39059445249E+03 -0.95775348337E+03  0.10499098664E+04  0.10100000352E+00 0.  1.
</event>
<event>
 5   0  0.6984466E-06  0.1900341E+04  0.7818609E-02  0.8654687E-01
        2   -1    0    0  501    0  0.00000000000E+00  0.00000000000E+00  0.78545554680E+03  0.78545554681E+03  0.25500000920E-02 0. -1.
       -2   -1    0    0    0  501  0.00000000000E+00  0.00000000000E+00 -0.11494275861E+04  0.11494275861E+04  0.25500000920E-02 0.  1.
    10030    2    1    2    0    0  0.00000000000E+00  0.00000000000E+00 -0.36397203933E+03  0.19348831329E+04  0.19003413095E+04 0.  0.
        2    1    3    3  502    0 -0.44512094738E+03 -0.83385178425E+03 -0.28061164251E+03  0.98599409218E+03  0.25500000920E-02 0.  1.
       -2    1    3    3    0  502  0.44512094738E+03  0.83385178425E+03 -0.83360396815E+02  0.94888904075E+03  0.25500000920E-02 0. -1.
</event>
<event>
 5   0  0.6862201E-06  0.1900546E+04  0.7818609E-02  0.8654584E-01
        2   -1    0    0  501    0  0.00000000000E+00  0.00000000000E+00  0.17646634242E+04  0.17646634242E+04  0.25500000920E-02 0.  1.
       -2   -1    0    0    0  501  0.00000000000E+00  0.00000000000E+00 -0.51172312386E+03  0.51172312387E+03  0.25500000920E-02 0. -1.
    10030    2    1    2    0    0  0.00000000000E+00  0.00000000000E+00  0.12529403003E+04  0.22763865480E+04  0.19005463214E+04 0.  0.
        3    1    3    3  502    0  0.76809867948E+03  0.46589452928E+03  0.25538720771E+03  0.93394642774E+03  0.10100000352E+00 0. -1.
       -3    1    3    3    0  502 -0.76809867948E+03 -0.46589452928E+03  0.99755309261E+03  0.13424401203E+04  0.10100000352E+00 0.  1.
</event>
<event>
 5   0  0.6870370E-06  0.1900030E+04  0.7818609E-02  0.8654841E-01
       -2   -1    0    0    0  501  0.00000000000E+00  0.00000000000E+00  0.11810407622E+04  0.11810407622E+04  0.25500000920E-02 0. -1.
        2   -1    0    0  501    0  0.00000000000E+00  0.00000000000E+00 -0.76418076152E+03  0.76418076152E+03  0.25500000920E-02 0.  1.
    10030    2    1    2    0    0  0.00000000000E+00  0.00000000000E+00  0.41686000069E+03  0.19452215237E+04  0.19000301356E+04 0.  0.
        1    1    3    3  502    0 -0.47250116950E+03 -0.23063944713E+03 -0.60163963725E+03  0.79901324325E+03  0.50400001928E-02 0.  1.
       -1    1    3    3    0  502  0.47250116950E+03  0.23063944713E+03  0.10184996379E+04  0.11462082805E+04  0.50400001928E-02 0. -1.
</event>
<event>
 5   0  0.3398807E-06  0.1900369E+04  0.7818609E-02  0.8654673E-01
       -1   -1    0    0    0  501  0.00000000000E+00  0.00000000000E+00  0.82866255675E+03  0.82866255676E+03  0.50400001928E-02 0.  1.
        1   -1    0    0  501    0  0.00000000000E+00  0.00000000000E+00 -0.10895271758E+04  0.10895271758E+04  0.50400001928E-02 0. -1.
    10030    2    1    2    0    0  0.00000000000E+00  0.00000000000E+00 -0.26086461901E+03  0.19181897325E+04  0.19003687802E+04 0.  0.
        1    1    3    3  502    0 -0.54950890359E+03  0.40418065883E+02  0.65094380498E+03  0.85283145606E+03  0.50400001928E-02 0.  1.
       -1    1    3    3    0  502  0.54950890359E+03 -0.40418065883E+02 -0.91180842400E+03  0.10653582765E+04  0.50400001928E-02 0. -1.
</event>
<event>
 5   0  0.6862201E-06  0.1900421E+04  0.7818609E-02  0.8654647E-01
       -2   -1    0    0    0  501  0.00000000000E+00  0.00000000000E+00  0.39241857599E+03  0.39241857600E+03  0.25500000920E-02 0.  1.
        2   -1    0    0  501    0  0.00000000000E+00  0.00000000000E+00 -0.23008582578E+04  0.23008582578E+04  0.25500000920E-02 0. -1.
    10030    2    1    2    0    0  0.00000000000E+00  0.00000000000E+00 -0.19084396818E+04  0.26932768338E+04  0.19004205020E+04 0.  0.
        3    1    3    3  502    0 -0.75486324107E+03  0.45666123721E+03 -0.14543561176E+04  0.17010319589E+04  0.10100000352E+00 0.  1.
       -3    1    3    3    0  502  0.75486324107E+03 -0.45666123721E+03 -0.45408356428E+03  0.99224487494E+03  0.10100000352E+00 0. -1.
</event>
<event>
 5   0  0.3379108E-06  0.1899568E+04  0.7818609E-02  0.8655071E-01
        1   -1    0    0  501    0  0.00000000000E+00  0.00000000000E+00  0.12970583481E+04  0.12970583482E+04  0.50400001928E-02 0. -1.
       -1   -1    0    0    0  501  0.00000000000E+00  0.00000000000E+00 -0.69548900674E+03  0.69548900676E+03  0.50400001928E-02 0.  1.
    10030    2    1    2    0    0  0.00000000000E+00  0.00000000000E+00  0.60156934140E+03  0.19925473549E+04  0.18995681849E+04 0.  0.
        4    1    3    3  502    0  0.31727502757E+01 -0.94977793475E+03  0.30064521615E+03  0.99623157478E+03  0.12699999809E+01 0.  1.
       -4    1    3    3    0  502 -0.31727502757E+01  0.94977793475E+03  0.30092412525E+03  0.99631578014E+03  0.12699999809E+01 0. -1.
</event>
<event>
 5   0  0.7577180E-06  0.1899979E+04  0.7818609E-02  0.8654867E-01
        2   -1    0    0  501    0  0.00000000000E+00  0.00000000000E+00  0.11266942470E+04  0.11266942470E+04  0.25500000920E-02 0.  1.
       -2   -1    0    0    0  501  0.00000000000E+00  0.00000000000E+00 -0.80099792734E+03  0.80099792734E+03  0.25500000920E-02 0. -1.
    10030    2    1    2    0    0  0.00000000000E+00  0.00000000000E+00  0.32569631970E+03  0.19276921744E+04  0.18999786911E+04 0.  0.
        5    1    3    3  502    0  0.37945817871E+02  0.57590830391E+03  0.92840532865E+03  0.10931920252E+04  0.46999998093E+01 0. -1.
       -5    1    3    3    0  502 -0.37945817871E+02 -0.57590830391E+03 -0.60270900895E+03  0.83450014923E+03  0.46999998093E+01 0.  1.
</event>
<event>
 5   0  0.3379108E-06  0.1899825E+04  0.7818609E-02  0.8654944E-01
        1   -1    0    0  501    0  0.00000000000E+00  0.00000000000E+00  0.10164726343E+04  0.10164726343E+04  0.50400001928E-02 0. -1.
       -1   -1    0    0    0  501  0.00000000000E+00  0.00000000000E+00 -0.88771076589E+03  0.88771076590E+03  0.50400001928E-02 0.  1.
    10030    2    1    2    0    0  0.00000000000E+00  0.00000000000E+00  0.12876186838E+03  0.19041834002E+04  0.18998249400E+04 0.  0.
        4    1    3    3  502    0 -0.33746442537E+03  0.51526234791E+03 -0.66043405889E+03  0.90307933462E+03  0.12699999809E+01 0.  1.
       -4    1    3    3    0  502  0.33746442537E+03 -0.51526234791E+03  0.78919592727E+03  0.10011040656E+04  0.12699999809E+01 0. -1.
</event>
<event>
 5   0  0.3236653E-06  0.1900467E+04  0.7818609E-02  0.8654624E-01
       -1   -1    0    0    0  501  0.00000000000E+00  0.00000000000E+00  0.13109329626E+04  0.13109329626E+04  0.50400001928E-02 0. -1.
        1   -1    0    0  501    0  0.00000000000E+00  0.00000000000E+00 -0.68877980160E+03  0.68877980162E+03  0.50400001928E-02 0.  1.
    10030    2    1    2    0    0  0.00000000000E+00  0.00000000000E+00  0.62215316099E+03  0.19997127642E+04  0.19004674645E+04 0.  0.
        3    1    3    3  502    0 -0.29121962698E+03 -0.78373982475E+03  0.78619526425E+03  0.11476759071E+04  0.10100000352E+00 0. -1.
       -3    1    3    3    0  502  0.29121962698E+03  0.78373982475E+03 -0.16404210326E+03  0.85203685711E+03  0.10100000352E+00 0.  1.
</event>
<event>
 5   0  0.6870370E-06  0.1900113E+04  0.7818609E-02  0.8654800E-01
        2   -1    0    0  501    0  0.00000000000E+00  0.00000000000E+00  0.13907861699E+04  0.13907861699E+04  0.25500000920E-02 0. -1.
       -2   -1    0    0    0  501  0.00000000000E+00  0.00000000000E+00 -0.64899061261E+03  0.64899061262E+03  0.25500000920E-02 0.  1.
    10030    2    1    2    0    0  0.00000000000E+00  0.00000000000E+00  0.74179555725E+03  0.20397767825E+04  0.19001128055E+04 0.  0.
        1    1    3    3  502    0  0.75531627694E+02 -0.58155959116E+03  0.11732941114E+04  0.13116919062E+04  0.50400001928E-02 0. -1.
       -1    1    3    3    0  502 -0.75531627694E+02  0.58155959116E+03 -0.43149855415E+03  0.72808487631E+03  0.50400001928E-02 0.  1.
</event>
<event>
 5   0  0.7207648E-06  0.1900436E+04  0.7818609E-02  0.8654639E-01
        2   -1    0    0  501    0  0.00000000000E+00  0.00000000000E+00  0.13186370302E+04  0.13186370302E+04  0.25500000920E-02 0. -1.
       -2   -1    0    0    0  501  0.00000000000E+00  0.00000000000E+00 -0.68473288066E+03  0.68473288066E+03  0.25500000920E-02 0.  1.
    10030    2    1    2    0    0  0.00000000000E+00  0.00000000000E+00  0.63390414957E+03  0.20033699109E+04  0.19004358787E+04 0.  0.
        4    1    3    3  502    0  0.64098577734E+02  0.14152765751E+03 -0.67125163360E+03  0.68899860233E+03  0.12699999809E+01 0.  1.
       -4    1    3    3    0  502 -0.64098577734E+02 -0.14152765751E+03  0.13051557832E+04  0.13143713086E+04  0.12699999809E+01 0. -1.
</event>
<event>
 5   0  0.6862201E-06  0.1899445E+04  0.7818609E-02  0.8655133E-01
        2   -1    0    0  501    0  0.00000000000E+00  0.00000000000E+00  0.18870683548E+04  0.18870683548E+04  0.25500000920E-02 0. -1.
       -2   -1    0    0    0  501  0.00000000000E+00  0.00000000000E+00 -0.47797547195E+03  0.47797547196E+03  0.25500000920E-02 0.  1.
    10030    2    1    2    0    0  0.00000000000E+00  0.00000000000E+00  0.14090928829E+04  0.23650438268E+04  0.18994445372E+04 0.  0.
        3    1    3    3  502    0  0.35309240016E+02  0.93530549148E+03  0.50404950451E+03  0.10630658578E+04  0.10100000352E+00 0. -1.
       -3    1    3    3    0  502 -0.35309240016E+02 -0.93530549148E+03  0.90504337838E+03  0.13019779690E+04  0.10100000352E+00 0.  1.
</event>
<event>
 5   0  0.3379108E-06  0.1900856E+04  0.7818609E-02  0.8654430E-01
       -1   -1    0    0    0  501  0.00000000000E+00  0.00000000000E+00  0.92655273642E+03  0.92655273644E+03  0.50400001928E-02 0. -1.
        1   -1    0    0  501    0  0.00000000000E+00  0.00000000000E+00 -0.97491844685E+03  0.97491844686E+03  0.50400001928E-02 0.  1.
    10030    2    1    2    0    0  0.00000000000E+00  0.00000000000E+00 -0.48365710427E+02  0.19014711833E+04  0.19008559701E+04 0.  0.
        4    1    3    3  502    0  0.41970877445E+03 -0.49593854407E+03  0.66972836359E+03  0.93308530625E+03  0.12699999809E+01 0. -1.
       -4    1    3    3    0  502 -0.41970877445E+03  0.49593854407E+03 -0.71809407401E+03  0.96838587705E+03  0.12699999809E+01 0.  1.
</event>
<event>
 5   0  0.3495279E-06  0.1900124E+04  0.7818609E-02  0.8654795E-01
        1   -1    0    0  501    0  0.00000000000E+00  0.00000000000E+00  0.14309515804E+04  0.14309515804E+04  0.50400001928E-02 0. -1.
       -1   -1    0    0    0  501  0.00000000000E+00  0.00000000000E+00 -0.63078138661E+03  0.63078138663E+03  0.50400001928E-02 0.  1.
    10030    2    1    2    0    0  0.00000000000E+00  0.00000000000E+00  0.80017019382E+03  0.20617329671E+04  0.19001238087E+04 0.  0.
        2    1    3    3  502    0 -0.52196942984E+03 -0.31482126292E+03  0.11907992155E+04  0.13377470930E+04  0.25500000920E-02 0. -1.
       -2    1    3    3    0  502  0.52196942984E+03  0.31482126292E+03 -0.39062902165E+03  0.72398587406E+03  0.25500000920E-02 0.  1.
</event>
<event>
 5   0  0.7577180E-06  0.1899787E+04  0.7818609E-02  0.8654962E-01
       -2   -1    0    0    0  501  0.00000000000E+00  0.00000000000E+00  0.80637731595E+03  0.80637731596E+03  0.25500000920E-02 0.  1.
        2   -1    0    0  501    0  0.00000000000E+00  0.00000000000E+00 -0.11189526873E+04  0.11189526873E+04  0.25500000920E-02 0. -1.
    10030    2    1    2    0    0  0.00000000000E+00  0.00000000000E+00 -0.31257537130E+03  0.19253300032E+04  0.18997874246E+04 0.  0.
        5    1    3    3  502    0  0.40640359229E+03 -0.39853351073E+03  0.61438582837E+03  0.83754693905E+03  0.46999998093E+01 0.  1.
       -5    1    3    3    0  502 -0.40640359229E+03  0.39853351073E+03 -0.92696119967E+03  0.10877830642E+04  0.46999998093E+01 0. -1.
</event>
<event>
 5   0  0.3398807E-06  0.1900905E+04  0.7818609E-02  0.8654406E-01
       -1   -1    0    0    0  501  0.00000000000E+00  0.00000000000E+00  0.11262211221E+04  0.11262211222E+04  0.50400001928E-02 0. -1.
        1   -1    0    0  501    0  0.00000000000E+00  0.00000000000E+00 -0.80211622303E+03  0.80211622304E+03  0.50400001928E-02 0.  1.
    10030    2    1    2    0    0  0.00000000000E+00  0.00000000000E+00  0.32410489912E+03  0.19283373452E+04  0.19009052926E+04 0.  0.
        1    1    3    3  502    0  0.76583837923E+03 -0.54447588193E+03  0.30693445506E+03  0.98851968561E+03  0.50400001928E-02 0. -1.
       -1    1    3    3    0  502 -0.76583837923E+03  0.54447588193E+03  0.17170444062E+02  0.93981765959E+03  0.50400001928E-02 0.  1.
</event>
<event>
 5   0  0.6862201E-06  0.1899410E+04  0.7818609E-02  0.8655150E-01
        2   -1    0    0  501    0  0.00000000000E+00  0.00000000000E+00  0.14370708129E+04  0.14370708129E+04  0.25500000920E-02 0. -1.
       -2   -1    0    0    0  501  0.00000000000E+00  0.00000000000E+00 -0.62762337458E+03  0.62762337458E+03  0.25500000920E-02 0.  1.
    10030    2    1    2    0    0  0.00000000000E+00  0.00000000000E+00  0.80944743829E+03  0.20646941875E+04  0.18994096273E+04 0.  0.
        3    1    3    3  502    0  0.65244898822E+03  0.50052682086E+03  0.92116918695E+03  0.12348155578E+04  0.10100000352E+00 0. -1.
       -3    1    3    3    0  502 -0.65244898822E+03 -0.50052682086E+03 -0.11172174865E+03  0.82987862965E+03  0.10100000352E+00 0.  1.
</event>
<event>
 5   0  0.3495279E-06  0.1900882E+04  0.7818609E-02  0.8654417E-01
       -1   -1    0    0    0  501  0.00000000000E+00  0.00000000000E+00  0.60785973173E+03  0.60785973175E+03  0.50400001928E-02 0. -1.
        1   -1    0    0  501    0  0.00000000000E+00  0.00000000000E+00 -0.14860969199E+04  0.14860969199E+04  0.50400001928E-02 0.  1.
    10030    2    1    2    0    0  0.00000000000E+00  0.00000000000E+00 -0.87823718817E+03  0.20939566517E+04  0.19008824004E+04 0.  0.
        2    1    3    3  502    0  0.47703018615E+03 -0.36140069542E+03 -0.12524705154E+04  0.13881104614E+04  0.25500000920E-02 0.  1.
       -2    1    3    3    0  502 -0.47703018615E+03  0.36140069542E+03  0.37423332718E+03  0.70584619028E+03  0.25500000920E-02 0. -1.
</event>
<event>
 5   0  0.3379108E-06  0.1909747E+04  0.7818609E-02  0.8650020E-01
        1   -1    0    0  501    0  0.00000000000E+00  0.00000000000E+00  0.21447489272E+04  0.21447489272E+04  0.50400001928E-02 0. -1.
       -1   -1    0    0    0  501  0.00000000000E+00  0.00000000000E+00 -0.42512363932E+03  0.42512363935E+03  0.50400001928E-02 0.  1.
    10030    2    1    2    0    0  0.00000000000E+00  0.00000000000E+00  0.17196252879E+04  0.25698725666E+04  0.19097470716E+04 0.  0.
        4    1    3    3  502    0 -0.66047837910E+03 -0.68282909496E+03  0.98954579163E+03  0.13717469697E+04  0.12699999809E+01 0. -1.
       -4    1    3    3    0  502  0.66047837910E+03  0.68282909496E+03  0.73007949627E+03  0.11981255969E+04  0.12699999809E+01 0.  1.
</event>
<event>
 5   0  0.3211263E-06  0.1899722E+04  0.7818609E-02  0.8654995E-01
        1   -1    0    0  501    0  0.00000000000E+00  0.00000000000E+00  0.16763951346E+04  0.16763951346E+04  0.50400001928E-02 0.  1.
       -1   -1    0    0    0  501  0.00000000000E+00  0.00000000000E+00 -0.53819996461E+03  0.53819996463E+03  0.50400001928E-02 0. -1.
    10030    2    1    2    0    0  0.00000000000E+00  0.00000000000E+00  0.11381951700E+04  0.22145950993E+04  0.18997218766E+04 0.  0.
        5    1    3    3  502    0  0.21887544121E+03 -0.77393428360E+03 -0.19960018046E+02  0.80455032560E+03  0.46999998093E+01 0. -1.
       -5    1    3    3    0  502 -0.21887544121E+03  0.77393428360E+03  0.11581551880E+04  0.14100447737E+04  0.46999998093E+01 0.  1.
</event>
<event>
 5   0  0.7207648E-06  0.1899828E+04  0.7818609E-02  0.8654942E-01
        2   -1    0    0  501    0  0.00000000000E+00  0.00000000000E+00  0.13781918674E+04  0.13781918674E+04  0.25500000920E-02 0. -1.
       -2   -1    0    0    0  501  0.00000000000E+00  0.00000000000E+00 -0.65472518695E+03  0.65472518695E+03  0.25500000920E-02 0.  1.
    10030    2    1    2    0    0  0.00000000000E+00  0.00000000000E+00  0.72346668050E+03  0.20329170544E+04  0.18998283376E+04 0.  0.
        4    1    3    3  502    0  0.58399602281E+03 -0.70205735554E+03  0.64158735357E+03  0.11160518941E+04  0.12699999809E+01 0. -1.
       -4    1    3    3    0  502 -0.58399602281E+03  0.70205735554E+03  0.81879326929E+02  0.91686516032E+03  0.12699999809E+01 0.  1.
</event>
<event>
 5   0  0.3211263E-06  0.1900119E+04  0.7818609E-02  0.8654797E-01
       -1   -1    0    0    0  501  0.00000000000E+00  0.00000000000E+00  0.56259131193E+03  0.56259131196E+03  0.50400001928E-02 0. -1.
        1   -1    0    0  501    0  0.00000000000E+00  0.00000000000E+00 -0.16043855713E+04  0.16043855713E+04  0.50400001928E-02 0.  1.
    10030    2    1    2    0    0  0.00000000000E+00  0.00000000000E+00 -0.10417942594E+04  0.21669768833E+04  0.19001193473E+04 0.  0.
        5    1    3    3  502    0 -0.16501239848E+02 -0.23701748519E+02  0.56207733064E+03  0.56283841324E+03  0.46999998093E+01 0. -1.
       -5    1    3    3    0  502  0.16501239848E+02  0.23701748519E+02 -0.16038715900E+04  0.16041384700E+04  0.46999998093E+01 0.  1.
</event>
<event>
 5   0  0.6984466E-06  0.1900050E+04  0.7818609E-02  0.8654831E-01
       -2   -1    0    0    0  501  0.00000000000E+00  0.00000000000E+00  0.71269042021E+03  0.71269042022E+03  0.25500000920E-02 0. -1.
        2   -1    0    0  501    0  0.00000000000E+00  0.00000000000E+00 -0.12663952371E+04  0.12663952371E+04  0.25500000920E-02 0.  1.
    10030    2    1    2    0    0  0.00000000000E+00  0.00000000000E+00 -0.55370481690E+03  0.19790856573E+04  0.19000502664E+04 0.  0.
        2    1    3    3  502    0  0.14485209214E+03  0.21397775734E+03 -0.12290898765E+04  0.12559580144E+04  0.25500000920E-02 0.  1.
       -2    1    3    3    0  502 -0.14485209214E+03 -0.21397775734E+03  0.67538505964E+03  0.72312764297E+03  0.25500000920E-02 0. -1.
</event>
<event>
 5   0  0.3379108E-06  0.1899676E+04  0.7818609E-02  0.8655018E-01
       -1   -1    0    0    0  501  0.00000000000E+00  0.00000000000E+00  0.39677998369E+03  0.39677998372E+03  0.50400001928E-02 0.  1.
        1   -1    0    0  501    0  0.00000000000E+00  0.00000000000E+00 -0.22737840125E+04  0.22737840125E+04  0.50400001928E-02 0. -1.
    10030    2    1    2    0    0  0.00000000000E+00  0.00000000000E+00 -0.18770040288E+04  0.26705639962E+04  0.18996757444E+04 0.  0.
        4    1    3    3  502    0  0.62849033730E+02  0.93754862133E+03 -0.74349090098E+03  0.11982185740E+04  0.12699999809E+01 0. -1.
       -4    1    3    3    0  502 -0.62849033730E+02 -0.93754862133E+03 -0.11335131278E+04  0.14723454222E+04  0.12699999809E+01 0.  1.
</event>
<event>
 5   0  0.3398807E-06  0.1900125E+04  0.7818609E-02  0.8654794E-01
        1   -1    0    0  501    0  0.00000000000E+00  0.00000000000E+00  0.67320136369E+03  0.67320136371E+03  0.50400001928E-02 0. -1.
       -1   -1    0    0    0  501  0.00000000000E+00  0.00000000000E+00 -0.13407854812E+04  0.13407854812E+04  0.50400001928E-02 0.  1.
    10030    2    1    2    0    0  0.00000000000E+00  0.00000000000E+00 -0.66758411751E+03  0.20139868449E+04  0.19001248531E+04 0.  0.
        1    1    3    3  502    0  0.20839655153E+03 -0.90287061098E+03 -0.11142489436E+03  0.93328450644E+03  0.50400001928E-02 0. -1.
       -1    1    3    3    0  502 -0.20839655153E+03  0.90287061098E+03 -0.55615922315E+03  0.10807023385E+04  0.50400001928E-02 0.  1.
</event>
<event>
 5   0  0.6984466E-06  0.1900347E+04  0.7818609E-02  0.8654684E-01
       -2   -1    0    0    0  501  0.00000000000E+00  0.00000000000E+00  0.70053078143E+03  0.70053078144E+03  0.25500000920E-02 0.  1.
        2   -1    0    0  501    0  0.00000000000E+00  0.00000000000E+00 -0.12887798419E+04  0.12887798419E+04  0.25500000920E-02 0. -1.
    10030    2    1    2    0    0  0.00000000000E+00  0.00000000000E+00 -0.58824906048E+03  0.19893106234E+04  0.19003472838E+04 0.  0.
        2    1    3    3  502    0 -0.45109342314E+03 -0.11690016217E+03 -0.11609467989E+04  0.12509789743E+04  0.25500000920E-02 0. -1.
       -2    1    3    3    0  502  0.45109342314E+03  0.11690016217E+03  0.57269773844E+03  0.73833164901E+03  0.25500000920E-02 0.  1.
</event>
<event>
 5   0  0.6870370E-06  0.1890080E+04  0.7818609E-02  0.8659810E-01
       -2   -1    0    0    0  501  0.00000000000E+00  0.00000000000E+00  0.78261753553E+03  0.78261753553E+03  0.25500000920E-02 0. -1.
        2   -1    0    0  501    0  0.00000000000E+00  0.00000000000E+00 -0.11411712693E+04  0.11411712693E+04  0.25500000920E-02 0.  1.
    10030    2    1    2    0    0  0.00000000000E+00  0.00000000000E+00 -0.35855373380E+03  0.19237888049E+04  0.18900800474E+04 0.  0.
        1    1    3    3  502    0  0.48104938159E+03  0.57764667674E+03  0.40366468315E+03  0.85324636953E+03  0.50400001928E-02 0. -1.
       -1    1    3    3    0  502 -0.48104938159E+03 -0.57764667674E+03 -0.76221841695E+03  0.10705424353E+04  0.50400001928E-02 0.  1.
</event>
<event>
 5   0  0.3495279E-06  0.1899140E+04  0.7818609E-02  0.8655285E-01
        1   -1    0    0  501    0  0.00000000000E+00  0.00000000000E+00  0.11112132030E+04  0.11112132030E+04  0.50400001928E-02 0.  1.
       -1   -1    0    0    0  501  0.00000000000E+00  0.00000000000E+00 -0.81144037562E+03  0.81144037563E+03  0.50400001928E-02 0. -1.
    10030    2    1    2    0    0  0.00000000000E+00  0.00000000000E+00  0.29977282737E+03  0.19226535786E+04  0.18991400779E+04 0.  0.
        2    1    3    3  502    0  0.70984388801E+03  0.51023286625E+03  0.52524279152E+03  0.10198509269E+04  0.25500000920E-02 0. -1.
       -2    1    3    3    0  502 -0.70984388801E+03 -0.51023286625E+03 -0.22546996415E+03  0.90280265168E+03  0.25500000920E-02 0.  1.
</event>
<event>
 5   0  0.3398807E-06  0.1887459E+04  0.7818609E-02  0.8661124E-01
       -1   -1    0    0    0  501  0.00000000000E+00  0.00000000000E+00  0.94420960029E+03  0.94420960030E+03  0.50400001928E-02 0.  1.
        1   -1    0    0  501    0  0.00000000000E+00  0.00000000000E+00 -0.94325008305E+03  0.94325008306E+03  0.50400001928E-02 0. -1.
    10030    2    1    2    0    0  0.00000000000E+00  0.00000000000E+00  0.95951724287E+00  0.18874596834E+04  0.18874594395E+04 0.  0.
        1    1    3    3  502    0 -0.38604305342E+03  0.82116456171E+02  0.85771579516E+03  0.94416562993E+03  0.50400001928E-02 0.  1.
       -1    1    3    3    0  502  0.38604305342E+03 -0.82116456171E+02 -0.85675627791E+03  0.94329405343E+03  0.50400001928E-02 0. -1.
</event>
<event>
 5   0  0.3398807E-06  0.1900346E+04  0.7818609E-02  0.8654684E-01
        1   -1    0    0  501    0  0.00000000000E+00  0.00000000000E+00  0.12128322616E+04  0.12128322616E+04  0.50400001928E-02 0.  1.
       -1   -1    0    0    0  501  0.00000000000E+00  0.00000000000E+00 -0.74439738897E+03  0.74439738899E+03  0.50400001928E-02 0. -1.
    10030    2    1    2    0    0  0.00000000000E+00  0.00000000000E+00  0.46843487260E+03  0.19572296506E+04  0.19003464619E+04 0.  0.
        1    1    3    3  502    0  0.18797068245E+03  0.88049255060E+03 -0.78565383154E+02  0.90375473917E+03  0.50400001928E-02 0. -1.
       -1    1    3    3    0  502 -0.18797068245E+03 -0.88049255060E+03  0.54700025575E+03  0.10534749114E+04  0.50400001928E-02 0.  1.
</event>
<event>
 5   0  0.7207648E-06  0.1894867E+04  0.7818609E-02  0.8657416E-01
       -2   -1    0    0    0  501  0.00000000000E+00  0.00000000000E+00  0.15337214428E+04  0.15337214428E+04  0.25500000920E-02 0.  1.
        2   -1    0    0  501    0  0.00000000000E+00  0.00000000000E+00 -0.58526274689E+03  0.58526274689E+03  0.25500000920E-02 0. -1.
    10030    2    1    2    0    0  0.00000000000E+00  0.00000000000E+00  0.94845869594E+03  0.21189841897E+04  0.18948667759E+04 0.  0.
        4    1    3    3  502    0  0.47981566412E+03 -0.40062044121E+03  0.12704141182E+04  0.14158649137E+04  0.12699999809E+01 0.  1.
       -4    1    3    3    0  502 -0.47981566412E+03  0.40062044121E+03 -0.32195542222E+03  0.70311927597E+03  0.12699999809E+01 0. -1.
</event>
<event>
 5   0  0.3236653E-06  0.1900338E+04  0.7818609E-02  0.8654688E-01
       -1   -1    0    0    0  501  0.00000000000E+00  0.00000000000E+00  0.48515823705E+03  0.48515823707E+03  0.50400001928E-02 0. -1.
        1   -1    0    0  501    0  0.00000000000E+00  0.00000000000E+00 -0.18608796942E+04  0.18608796942E+04  0.50400001928E-02 0.  1.
    10030    2    1    2    0    0  0.00000000000E+00  0.00000000000E+00 -0.13757214571E+04  0.23460379313E+04  0.19003379824E+04 0.  0.
        3    1    3    3  502    0  0.43276630457E+03 -0.16470821648E+03  0.33643742016E+03  0.57236842928E+03  0.10100000352E+00 0. -1.
       -3    1    3    3    0  502 -0.43276630457E+03  0.16470821648E+03 -0.17121588773E+04  0.17736695020E+04  0.10100000352E+00 0.  1.
</event>
<event>
 5   0  0.3398807E-06  0.1899977E+04  0.7818609E-02  0.8654868E-01
       -1   -1    0    0    0  501  0.00000000000E+00  0.00000000000E+00  0.41487705677E+03  0.41487705680E+03  0.50400001928E-02 0.  1.
        1   -1    0    0  501    0  0.00000000000E+00  0.00000000000E+00 -0.21752913800E+04  0.21752913800E+04  0.50400001928E-02 0. -1.
    10030    2    1    2    0    0  0.00000000000E+00  0.00000000000E+00 -0.17604143233E+04  0.25901684368E+04  0.18999773529E+04 0.  0.
        1    1    3    3  502    0  0.51525007294E+03  0.21328397651E+03 -0.19286845859E+04  0.20076844683E+04  0.50400001928E-02 0. -1.
       -1    1    3    3    0  502 -0.51525007294E+03 -0.21328397651E+03  0.16827026264E+03  0.58248396855E+03  0.50400001928E-02 0.  1.
</event>
<event>
 5   0  0.3398807E-06  0.1901182E+04  0.7818609E-02  0.8654268E-01
       -1   -1    0    0    0  501  0.00000000000E+00  0.00000000000E+00  0.20536704016E+04  0.20536704016E+04  0.50400001928E-02 0.  1.
        1   -1    0    0  501    0  0.00000000000E+00  0.00000000000E+00 -0.44000383828E+03  0.44000383831E+03  0.50400001928E-02 0. -1.
    10030    2    1    2    0    0  0.00000000000E+00  0.00000000000E+00  0.16136665633E+04  0.24936742399E+04  0.19011815898E+04 0.  0.
        1    1    3    3  502    0  0.27698470751E+03 -0.90444983858E+03  0.68328208128E+03  0.11668866446E+04  0.50400001928E-02 0. -1.
       -1    1    3    3    0  502 -0.27698470751E+03  0.90444983858E+03  0.93038448206E+03  0.13267875954E+04  0.50400001928E-02 0.  1.
</event>
<event>
 5   0  0.7207648E-06  0.1900693E+04  0.7818609E-02  0.8654511E-01
       -2   -1    0    0    0  501  0.00000000000E+00  0.00000000000E+00  0.21343749688E+04  0.21343749688E+04  0.25500000920E-02 0.  1.
        2   -1    0    0  501    0  0.00000000000E+00  0.00000000000E+00 -0.42314907421E+03  0.42314907422E+03  0.25500000920E-02 0. -1.
    10030    2    1    2    0    0  0.00000000000E+00  0.00000000000E+00  0.17112258946E+04  0.25575240430E+04  0.19006933388E+04 0.  0.
        4    1    3    3  502    0 -0.53036326717E+03 -0.50405300579E+03  0.39566194031E+02  0.73274942813E+03  0.12699999809E+01 0. -1.
       -4    1    3    3    0  502  0.53036326717E+03  0.50405300579E+03  0.16716597006E+04  0.18247746149E+04  0.12699999809E+01 0.  1.
</event>
<event>
 5   0  0.6862201E-06  0.1899736E+04  0.7818609E-02  0.8654988E-01
       -2   -1    0    0    0  501  0.00000000000E+00  0.00000000000E+00  0.79742942029E+03  0.79742942030E+03  0.25500000920E-02 0. -1.
        2   -1    0    0  501    0  0.00000000000E+00  0.00000000000E+00 -0.11314474139E+04  0.11314474139E+04  0.25500000920E-02 0.  1.
    10030    2    1    2    0    0  0.00000000000E+00  0.00000000000E+00 -0.33401799360E+03  0.19288768342E+04  0.18997362505E+04 0.  0.
        3    1    3    3  502    0  0.28667461406E+02 -0.35840996959E+03  0.72566417527E+03  0.80985679914E+03  0.10100000352E+00 0. -1.
       -3    1    3    3    0  502 -0.28667461406E+02  0.35840996959E+03 -0.10596821689E+04  0.11190200351E+04  0.10100000352E+00 0.  1.
</event>
<event>
 5   0  0.7577180E-06  0.1899864E+04  0.7818609E-02  0.8654924E-01
       -2   -1    0    0    0  501  0.00000000000E+00  0.00000000000E+00  0.70817008223E+03  0.70817008224E+03  0.25500000920E-02 0.  1.
        2   -1    0    0  501    0  0.00000000000E+00  0.00000000000E+00 -0.12742289290E+04  0.12742289290E+04  0.25500000920E-02 0. -1.
    10030    2    1    2    0    0  0.00000000000E+00  0.00000000000E+00 -0.56605884674E+03  0.19823990112E+04  0.18998640008E+04 0.  0.
        5    1    3    3  502    0  0.90779935623E+03  0.15498156579E+03 -0.40039986804E+02  0.92181573400E+03  0.46999998093E+01 0.  1.
       -5    1    3    3    0  502 -0.90779935623E+03 -0.15498156579E+03 -0.52601885994E+03  0.10605832772E+04  0.46999998093E+01 0. -1.
</event>
<event>
 5   0  0.6862201E-06  0.1900134E+04  0.7818609E-02  0.8654790E-01
       -2   -1    0    0    0  501  0.00000000000E+00  0.00000000000E+00  0.89018470577E+03  0.89018470577E+03  0.25500000920E-02 0. -1.
        2   -1    0    0  501    0  0.00000000000E+00  0.00000000000E+00 -0.10139771478E+04  0.10139771478E+04  0.25500000920E-02 0.  1.
    10030    2    1    2    0    0  0.00000000000E+00  0.00000000000E+00 -0.12379244201E+03  0.19041618536E+04  0.19001336258E+04 0.  0.
        3    1    3    3  502    0 -0.27867336836E+02 -0.39276455381E+03  0.80456753351E+03  0.89575080763E+03  0.10100000352E+00 0. -1.
       -3    1    3    3    0  502  0.27867336836E+02  0.39276455381E+03 -0.92835997552E+03  0.10084110459E+04  0.10100000352E+00 0.  1.
</event>
<event>
 5   0  0.3211263E-06  0.1899999E+04  0.7818609E-02  0.8654857E-01
       -1   -1    0    0    0  501  0.00000000000E+00  0.00000000000E+00  0.60691915099E+03  0.60691915101E+03  0.50400001928E-02 0. -1.
        1   -1    0    0  501    0  0.00000000000E+00  0.00000000000E+00 -0.14870170247E+04  0.14870170247E+04  0.50400001928E-02 0.  1.
    10030    2    1    2    0    0  0.00000000000E+00  0.00000000000E+00 -0.88009787369E+03  0.20939361757E+04  0.18999990633E+04 0.  0.
        5    1    3    3  502    0 -0.91271420883E+03 -0.10720432056E+03 -0.17477892586E+03  0.93547301205E+03  0.46999998093E+01 0. -1.
       -5    1    3    3    0  502  0.91271420883E+03  0.10720432056E+03 -0.70531894783E+03  0.11584631636E+04  0.46999998093E+01 0.  1.
</event>
<event>
 5   0  0.7577180E-06  0.1898023E+04  0.7818609E-02  0.8655841E-01
       -2   -1    0    0    0  501  0.00000000000E+00  0.00000000000E+00  0.39484095593E+03  0.39484095594E+03  0.25500000920E-02 0.  1.
        2   -1    0    0  501    0  0.00000000000E+00  0.00000000000E+00 -0.22809764823E+04  0.22809764823E+04  0.25500000920E-02 0. -1.
    10030    2    1    2    0    0  0.00000000000E+00  0.00000000000E+00 -0.18861355264E+04  0.26758174383E+04  0.18980231134E+04 0.  0.
        5    1    3    3  502    0 -0.45101406520E+03 -0.61812323388E+03 -0.17344506317E+04  0.18957402520E+04  0.46999998093E+01 0. -1.
       -5    1    3    3    0  502  0.45101406520E+03  0.61812323388E+03 -0.15168489472E+03  0.78007718628E+03  0.46999998093E+01 0.  1.
</event>
<event>
 5   0  0.6984466E-06  0.1895080E+04  0.7818609E-02  0.8657309E-01
        2   -1    0    0  501    0  0.00000000000E+00  0.00000000000E+00  0.12823538371E+04  0.12823538371E+04  0.25500000920E-02 0.  1.
       -2   -1    0    0    0  501  0.00000000000E+00  0.00000000000E+00 -0.70014357687E+03  0.70014357687E+03  0.25500000920E-02 0. -1.
    10030    2    1    2    0    0  0.00000000000E+00  0.00000000000E+00  0.58221026026E+03  0.19824974140E+04  0.18950797369E+04 0.  0.
        2    1    3    3  502    0 -0.91741071126E+03 -0.12315391188E+03  0.79222077998E+02  0.92902391616E+03  0.25500000920E-02 0.  1.
       -2    1    3    3    0  502  0.91741071126E+03  0.12315391188E+03  0.50298818226E+03  0.10534734978E+04  0.25500000920E-02 0. -1.
</event>
<event>
 5   0  0.7577180E-06  0.1899262E+04  0.7818609E-02  0.8655224E-01
       -2   -1    0    0    0  501  0.00000000000E+00  0.00000000000E+00  0.62341518914E+03  0.62341518915E+03  0.25500000920E-02 0.  1.
        2   -1    0    0  501    0  0.00000000000E+00  0.00000000000E+00 -0.14465471515E+04  0.14465471515E+04  0.25500000920E-02 0. -1.
    10030    2    1    2    0    0  0.00000000000E+00  0.00000000000E+00 -0.82313196234E+03  0.20699623406E+04  0.18992624527E+04 0.  0.
        5    1    3    3  502    0  0.79606461508E+02 -0.20693413183E+03 -0.14179293620E+04  0.14351671294E+04  0.46999998093E+01 0. -1.
       -5    1    3    3    0  502 -0.79606461508E+02  0.20693413183E+03  0.59479739964E+03  0.63479521127E+03  0.46999998093E+01 0.  1.
</event>
<event>
 5   0  0.3398807E-06  0.1899886E+04  0.7818609E-02  0.8654913E-01
        1   -1    0    0  501    0  0.00000000000E+00  0.00000000000E+00  0.74737409306E+03  0.74737409308E+03  0.50400001928E-02 0. -1.
       -1   -1    0    0    0  501  0.00000000000E+00  0.00000000000E+00 -0.12074164290E+04  0.12074164290E+04  0.50400001928E-02 0.  1.
    10030    2    1    2    0    0  0.00000000000E+00  0.00000000000E+00 -0.46004233590E+03  0.19547905220E+04  0.18998860582E+04 0.  0.
        1    1    3    3  502    0 -0.51955265564E+03  0.69889648969E+03 -0.62046148675E+03  0.10692818720E+04  0.50400001928E-02 0.  1.
       -1    1    3    3    0  502  0.51955265564E+03 -0.69889648969E+03  0.16041915086E+03  0.88550865002E+03  0.50400001928E-02 0. -1.
</event>
<event>
 5   0  0.6984466E-06  0.1899824E+04  0.7818609E-02  0.8654944E-01
        2   -1    0    0  501    0  0.00000000000E+00  0.00000000000E+00  0.11590941033E+04  0.11590941033E+04  0.25500000920E-02 0.  1.
       -2   -1    0    0    0  501  0.00000000000E+00  0.00000000000E+00 -0.77848113379E+03  0.77848113379E+03  0.25500000920E-02 0. -1.
    10030    2    1    2    0    0  0.00000000000E+00  0.00000000000E+00  0.38061296949E+03  0.19375752371E+04  0.18998240884E+04 0.  0.
        2    1    3    3  502    0  0.41695817247E+03  0.36483929762E+03 -0.59662884960E+03  0.81420379197E+03  0.25500000920E-02 0. -1.
       -2    1    3    3    0  502 -0.41695817247E+03 -0.36483929762E+03  0.97724181909E+03  0.11233714451E+04  0.25500000920E-02 0.  1.
</event>
<event>
 5   0  0.3211263E-06  0.1899297E+04  0.7818609E-02  0.8655206E-01
       -1   -1    0    0    0  501  0.00000000000E+00  0.00000000000E+00  0.16883262728E+04  0.16883262728E+04  0.50400001928E-02 0.  1.
        1   -1    0    0  501    0  0.00000000000E+00  0.00000000000E+00 -0.53415782416E+03  0.53415782418E+03  0.50400001928E-02 0. -1.
    10030    2    1    2    0    0  0.00000000000E+00  0.00000000000E+00  0.11541684486E+04  0.22224840970E+04  0.18992974368E+04 0.  0.
        5    1    3    3  502    0  0.64666387884E+03 -0.32825910988E+03 -0.14033277913E+03  0.73867692147E+03  0.46999998093E+01 0. -1.
       -5    1    3    3    0  502 -0.64666387884E+03  0.32825910988E+03  0.12945012277E+04  0.14838071755E+04  0.46999998093E+01 0.  1.
</event>
<event>
 5   0  0.3236653E-06  0.1901165E+04  0.7818609E-02  0.8654277E-01
       -1   -1    0    0    0  501  0.00000000000E+00  0.00000000000E+00  0.74013943627E+03  0.74013943629E+03  0.50400001928E-02 0. -1.
        1   -1    0    0  501    0  0.00000000000E+00  0.00000000000E+00 -0.12208601044E+04  0.12208601044E+04  0.50400001928E-02 0.  1.
    10030    2    1    2    0    0  0.00000000000E+00  0.00000000000E+00 -0.48072066816E+03  0.19609995407E+04  0.19011646004E+04 0.  0.
        3    1    3    3  502    0 -0.82625803302E+03  0.44282527923E+03 -0.40283001584E+03  0.10203276910E+04  0.10100000352E+00 0.  1.
       -3    1    3    3    0  502  0.82625803302E+03 -0.44282527923E+03 -0.77890652322E+02  0.94067184978E+03  0.10100000352E+00 0. -1.
</event>
<event>
 5   0  0.7207648E-06  0.1899729E+04  0.7818609E-02  0.8654992E-01
        2   -1    0    0  501    0  0.00000000000E+00  0.00000000000E+00  0.10989468146E+04  0.10989468146E+04  0.25500000920E-02 0.  1.
       -2   -1    0    0    0  501  0.00000000000E+00  0.00000000000E+00 -0.82100618390E+03  0.82100618390E+03  0.25500000920E-02 0. -1.
    10030    2    1    2    0    0  0.00000000000E+00  0.00000000000E+00  0.27794063065E+03  0.19199529985E+04  0.18997285391E+04 0.  0.
        4    1    3    3  502    0 -0.58047499837E+02 -0.75655180536E+03 -0.43851492620E+03  0.87637725886E+03  0.12699999809E+01 0. -1.
       -4    1    3    3    0  502  0.58047499837E+02  0.75655180536E+03  0.71645555686E+03  0.10435757396E+04  0.12699999809E+01 0.  1.
</event>
<event>
 5   0  0.3211263E-06  0.1901625E+04  0.7818609E-02  0.8654048E-01
        1   -1    0    0  501    0  0.00000000000E+00  0.00000000000E+00  0.11403044452E+04  0.11403044452E+04  0.50400001928E-02 0. -1.
       -1   -1    0    0    0  501  0.00000000000E+00  0.00000000000E+00 -0.79280962083E+03  0.79280962085E+03  0.50400001928E-02 0.  1.
    10030    2    1    2    0    0  0.00000000000E+00  0.00000000000E+00  0.34749482436E+03  0.19331140660E+04  0.19016249208E+04 0.  0.
        5    1    3    3  502    0 -0.62202359581E+03 -0.59373743925E+03 -0.23866089936E+03  0.89242289045E+03  0.46999998093E+01 0.  1.
       -5    1    3    3    0  502  0.62202359581E+03  0.59373743925E+03  0.58615572372E+03  0.10406911756E+04  0.46999998093E+01 0. -1.
</event>
<event>
 5   0  0.3398807E-06  0.1899708E+04  0.7818609E-02  0.8655002E-01
        1   -1    0    0  501    0  0.00000000000E+00  0.00000000000E+00  0.22006887369E+04  0.22006887369E+04  0.50400001928E-02 0.  1.
       -1   -1    0    0    0  501  0.00000000000E+00  0.00000000000E+00 -0.40997264970E+03  0.40997264973E+03  0.50400001928E-02 0. -1.
    10030    2    1    2    0    0  0.00000000000E+00  0.00000000000E+00  0.17907160872E+04  0.26106613867E+04  0.18997075487E+04 0.  0.
        1    1    3    3  502    0  0.32258687057E+02  0.17166273116E+03  0.21784290087E+04  0.21854202484E+04  0.50400001928E-02 0.  1.
       -1    1    3    3    0  502 -0.32258687057E+02 -0.17166273116E+03 -0.38771292148E+03  0.42524113826E+03  0.50400001928E-02 0. -1.
</event>
<event>
 5   0  0.3236653E-06  0.1900116E+04  0.7818609E-02  0.8654799E-01
       -1   -1    0    0    0  501  0.00000000000E+00  0.00000000000E+00  0.54771716476E+03  0.54771716479E+03  0.50400001928E-02 0. -1.
        1   -1    0    0  501    0  0.00000000000E+00  0.00000000000E+00 -0.16479493843E+04  0.16479493843E+04  0.50400001928E-02 0.  1.
    10030    2    1    2    0    0  0.00000000000E+00  0.00000000000E+00 -0.11002322196E+04  0.21956665491E+04  0.19001159591E+04 0.  0.
        3    1    3    3  502    0 -0.60181667535E+03 -0.73398827988E+03 -0.50263960390E+03  0.10740431497E+04  0.10100000352E+00 0. -1.
       -3    1    3    3    0  502  0.60181667535E+03  0.73398827988E+03 -0.59759261567E+03  0.11216233995E+04  0.10100000352E+00 0.  1.
</event>
<event>
 5   0  0.7577180E-06  0.1906436E+04  0.7818609E-02  0.8651659E-01
       -2   -1    0    0    0  501  0.00000000000E+00  0.00000000000E+00  0.48207589702E+03  0.48207589703E+03  0.25500000920E-02 0. -1.
        2   -1    0    0  501    0  0.00000000000E+00  0.00000000000E+00 -0.18848161060E+04  0.18848161060E+04  0.25500000920E-02 0.  1.
    10030    2    1    2    0    0  0.00000000000E+00  0.00000000000E+00 -0.14027402090E+04  0.23668920030E+04  0.19064358526E+04 0.  0.
        5    1    3    3  502    0 -0.30195901196E+03  0.83563312947E+03 -0.11299045014E+04  0.14374172130E+04  0.46999998093E+01 0. -1.
       -5    1    3    3    0  502  0.30195901196E+03 -0.83563312947E+03 -0.27283570759E+03  0.92947479003E+03  0.46999998093E+01 0.  1.
</event>
<event>
 5   0  0.3398807E-06  0.1907464E+04  0.7818609E-02  0.8651150E-01
        1   -1    0    0  501    0  0.00000000000E+00  0.00000000000E+00  0.77532785063E+03  0.77532785065E+03  0.50400001928E-02 0. -1.
       -1   -1    0    0    0  501  0.00000000000E+00  0.00000000000E+00 -0.11731875633E+04  0.11731875633E+04  0.50400001928E-02 0.  1.
    10030    2    1    2    0    0  0.00000000000E+00  0.00000000000E+00 -0.39785971265E+03  0.19485154139E+04  0.19074642768E+04 0.  0.
        1    1    3    3  502    0  0.42057104546E+02 -0.35146258133E+03 -0.11036023308E+04  0.11589792278E+04  0.50400001928E-02 0.  1.
       -1    1    3    3    0  502 -0.42057104546E+02  0.35146258133E+03  0.70574261810E+03  0.78953618609E+03  0.50400001928E-02 0. -1.
</event>
<event>
 5   0  0.3211263E-06  0.1901432E+04  0.7818609E-02  0.8654144E-01
        1   -1    0    0  501    0  0.00000000000E+00  0.00000000000E+00  0.20372221526E+04  0.20372221527E+04  0.50400001928E-02 0.  1.
       -1   -1    0    0    0  501  0.00000000000E+00  0.00000000000E+00 -0.44367321514E+03  0.44367321517E+03  0.50400001928E-02 0. -1.
    10030    2    1    2    0    0  0.00000000000E+00  0.00000000000E+00  0.15935489375E+04  0.24808953678E+04  0.19014319893E+04 0.  0.
        5    1    3    3  502    0  0.64447676417E+02  0.28527624428E+03  0.19770534246E+04  0.19985740847E+04  0.46999998093E+01 0.  1.
       -5    1    3    3    0  502 -0.64447676417E+02 -0.28527624428E+03 -0.38350448705E+03  0.48232128310E+03  0.46999998093E+01 0. -1.
</event>
<event>
 5   0  0.7577180E-06  0.1899998E+04  0.7818609E-02  0.8654857E-01
       -2   -1    0    0    0  501  0.00000000000E+00  0.00000000000E+00  0.17595382450E+04  0.17595382450E+04  0.25500000920E-02 0.  1.
        2   -1    0    0  501    0  0.00000000000E+00  0.00000000000E+00 -0.51291778141E+03  0.51291778142E+03  0.25500000920E-02 0. -1.
    10030    2    1    2    0    0  0.00000000000E+00  0.00000000000E+00  0.12466204636E+04  0.22724560264E+04  0.18999983715E+04 0.  0.
        5    1    3    3  502    0 -0.16124732453E+03  0.68772012419E+03  0.13830642624E+04  0.15530127214E+04  0.46999998093E+01 0.  1.
       -5    1    3    3    0  502  0.16124732453E+03 -0.68772012419E+03 -0.13644379884E+03  0.71944330501E+03  0.46999998093E+01 0. -1.
</event>
<event>
 5   0  0.3211263E-06  0.1900172E+04  0.7818609E-02  0.8654771E-01
        1   -1    0    0  501    0  0.00000000000E+00  0.00000000000E+00  0.12499653654E+04  0.12499653654E+04  0.50400001928E-02 0.  1.
       -1   -1    0    0    0  501  0.00000000000E+00  0.00000000000E+00 -0.72215057644E+03  0.72215057646E+03  0.50400001928E-02 0. -1.
    10030    2    1    2    0    0  0.00000000000E+00  0.00000000000E+00  0.52781478899E+03  0.19721159419E+04  0.19001717914E+04 0.  0.
        5    1    3    3  502    0  0.51103486656E+03  0.44955054989E+03  0.95186877976E+03  0.11701831462E+04  0.46999998093E+01 0.  1.
       -5    1    3    3    0  502 -0.51103486656E+03 -0.44955054989E+03 -0.42405399077E+03  0.80193279571E+03  0.46999998093E+01 0. -1.
</event>
<event>
 5   0  0.7207648E-06  0.1899704E+04  0.7818609E-02  0.8655004E-01
       -2   -1    0    0    0  501  0.00000000000E+00  0.00000000000E+00  0.48612076122E+03  0.48612076122E+03  0.25500000920E-02 0. -1.
        2   -1    0    0  501    0  0.00000000000E+00  0.00000000000E+00 -0.18559555117E+04  0.18559555117E+04  0.25500000920E-02 0.  1.
    10030    2    1    2    0    0  0.00000000000E+00  0.00000000000E+00 -0.13698347505E+04  0.23420762729E+04  0.18997036676E+04 0.  0.
        4    1    3    3  502    0  0.16598461124E+03  0.63470911853E+03  0.16191781925E+03  0.67574074126E+03  0.12699999809E+01 0. -1.
       -4    1    3    3    0  502 -0.16598461124E+03 -0.63470911853E+03 -0.15317525698E+04  0.16663355317E+04  0.12699999809E+01 0.  1.
</event>
<event>
 5   0  0.3379108E-06  0.1899774E+04  0.7818609E-02  0.8654969E-01
        1   -1    0    0  501    0  0.00000000000E+00  0.00000000000E+00  0.16804207824E+04  0.16804207824E+04  0.50400001928E-02 0.  1.
       -1   -1    0    0    0  501  0.00000000000E+00  0.00000000000E+00 -0.53694015227E+03  0.53694015229E+03  0.50400001928E-02 0. -1.
    10030    2    1    2    0    0  0.00000000000E+00  0.00000000000E+00  0.11434806301E+04  0.22173609347E+04  0.18997740821E+04 0.  0.
        4    1    3    3  502    0  0.10250539546E+00  0.55172731697E+03  0.14742288914E+04  0.15740887776E+04  0.12699999809E+01 0.  1.
       -4    1    3    3    0  502 -0.10250539546E+00 -0.55172731697E+03 -0.33074826127E+03  0.64327215704E+03  0.12699999809E+01 0. -1.
</event>
<event>
 5   0  0.3495279E-06  0.1898731E+04  0.7818609E-02  0.8655488E-01
        1   -1    0    0  501    0  0.00000000000E+00  0.00000000000E+00  0.16275125775E+04  0.16275125775E+04  0.50400001928E-02 0. -1.
       -1   -1    0    0    0  501  0.00000000000E+00  0.00000000000E+00 -0.55378661407E+03  0.55378661410E+03  0.50400001928E-02 0.  1.
    10030    2    1    2    0    0  0.00000000000E+00  0.00000000000E+00  0.10737259634E+04  0.21812991916E+04  0.18987308179E+04 0.  0.
        2    1    3    3  502    0  0.17156830331E+03 -0.53829318554E+03 -0.33963401236E+03  0.65920140978E+03  0.25500000920E-02 0.  1.
       -2    1    3    3    0  502 -0.17156830331E+03  0.53829318554E+03  0.14133599758E+04  0.15220977818E+04  0.25500000920E-02 0. -1.
</event>
<event>
 5   0  0.3236653E-06  0.1900113E+04  0.7818609E-02  0.8654800E-01
       -1   -1    0    0    0  501  0.00000000000E+00  0.00000000000E+00  0.40249315289E+03  0.40249315292E+03  0.50400001928E-02 0.  1.
        1   -1    0    0  501    0  0.00000000000E+00  0.00000000000E+00 -0.22425397974E+04  0.22425397974E+04  0.50400001928E-02 0. -1.
    10030    2    1    2    0    0  0.00000000000E+00  0.00000000000E+00 -0.18400466445E+04  0.26450329504E+04  0.19001125373E+04 0.  0.
        3    1    3    3  502    0  0.40209450270E+03 -0.80194217466E+03 -0.48465586429E+03  0.10196482519E+04  0.10100000352E+00 0. -1.
       -3    1    3    3    0  502 -0.40209450270E+03  0.80194217466E+03 -0.13553907803E+04  0.16253846985E+04  0.10100000352E+00 0.  1.
</event>
<event>
 5   0  0.6862201E-06  0.1898787E+04  0.7818609E-02  0.8655460E-01
        2   -1    0    0  501    0  0.00000000000E+00  0.00000000000E+00  0.92156048317E+03  0.92156048317E+03  0.25500000920E-02 0.  1.
       -2   -1    0    0    0  501  0.00000000000E+00  0.00000000000E+00 -0.97806752415E+03  0.97806752415E+03  0.25500000920E-02 0. -1.
    10030    2    1    2    0    0  0.00000000000E+00  0.00000000000E+00 -0.56507040981E+02  0.18996280073E+04  0.18987873816E+04 0.  0.
        3    1    3    3  502    0 -0.38203555275E+03 -0.74068549901E+03 -0.48318794488E+03  0.96334665220E+03  0.10100000352E+00 0. -1.
       -3    1    3    3    0  502  0.38203555275E+03  0.74068549901E+03  0.42668090390E+03  0.93628135513E+03  0.10100000352E+00 0.  1.
</event>
<event>
 5   0  0.3495279E-06  0.1899774E+04  0.7818609E-02  0.8654969E-01
        1   -1    0    0  501    0  0.00000000000E+00  0.00000000000E+00  0.13129103587E+04  0.13129103587E+04  0.50400001928E-02 0. -1.
       -1   -1    0    0    0  501  0.00000000000E+00  0.00000000000E+00 -0.68724032752E+03  0.68724032754E+03  0.50400001928E-02 0.  1.
    10030    2    1    2    0    0  0.00000000000E+00  0.00000000000E+00  0.62567003121E+03  0.20001506863E+04  0.18997736128E+04 0.  0.
        2    1    3    3  502    0  0.23762553503E+03  0.73214156475E+03  0.89882879397E+03  0.11833809051E+04  0.25500000920E-02 0. -1.
       -2    1    3    3    0  502 -0.23762553503E+03 -0.73214156475E+03 -0.27315876276E+03  0.81676978116E+03  0.25500000920E-02 0.  1.
</event>
<event>
 5   0  0.3495279E-06  0.1899598E+04  0.7818609E-02  0.8655056E-01
        1   -1    0    0  501    0  0.00000000000E+00  0.00000000000E+00  0.14945370249E+04  0.14945370250E+04  0.50400001928E-02 0.  1.
       -1   -1    0    0    0  501  0.00000000000E+00  0.00000000000E+00 -0.60361070097E+03  0.60361070099E+03  0.50400001928E-02 0. -1.
    10030    2    1    2    0    0  0.00000000000E+00  0.00000000000E+00  0.89092632398E+03  0.20981477259E+04  0.18995984221E+04 0.  0.
        2    1    3    3  502    0  0.29401010360E+03  0.15242141467E+03 -0.53777480215E+03  0.63156628037E+03  0.25500000920E-02 0. -1.
       -2    1    3    3    0  502 -0.29401010360E+03 -0.15242141467E+03  0.14287011261E+04  0.14665814456E+04  0.25500000920E-02 0.  1.
</event>
<event>
 5   0  0.7577180E-06  0.1899886E+04  0.7818609E-02  0.8654913E-01
       -2   -1    0    0    0  501  0.00000000000E+00  0.00000000000E+00  0.60005154451E+03  0.60005154451E+03  0.25500000920E-02 0. -1.
        2   -1    0    0  501    0  0.00000000000E+00  0.00000000000E+00 -0.15038564571E+04  0.15038564571E+04  0.25500000920E-02 0.  1.
    10030    2    1    2    0    0  0.00000000000E+00  0.00000000000E+00 -0.90380491259E+03  0.21039080016E+04  0.18998856700E+04 0.  0.
        5    1    3    3  502    0 -0.80982972058E+02 -0.38598248782E+03 -0.14088976180E+04  0.14630636728E+04  0.46999998093E+01 0.  1.
       -5    1    3    3    0  502  0.80982972058E+02  0.38598248782E+03  0.50509270543E+03  0.64084432879E+03  0.46999998093E+01 0. -1.
</event>
<event>
 5   0  0.7207648E-06  0.1900534E+04  0.7818609E-02  0.8654591E-01
       -2   -1    0    0    0  501  0.00000000000E+00  0.00000000000E+00  0.13935193274E+04  0.13935193274E+04  0.25500000920E-02 0. -1.
        2   -1    0    0  501    0  0.00000000000E+00  0.00000000000E+00 -0.64800487077E+03  0.64800487078E+03  0.25500000920E-02 0.  1.
    10030    2    1    2    0    0  0.00000000000E+00  0.00000000000E+00  0.74551445663E+03  0.20415241982E+04  0.19005339373E+04 0.  0.
        4    1    3    3  502    0  0.79689302090E+02  0.93847482446E+03  0.50829326093E+03  0.10702565267E+04  0.12699999809E+01 0. -1.
       -4    1    3    3    0  502 -0.79689302090E+02 -0.93847482446E+03  0.23722119570E+03  0.97126767145E+03  0.12699999809E+01 0.  1.
</event>
<event>
 5   0  0.3495279E-06  0.1900442E+04  0.7818609E-02  0.8654636E-01
        1   -1    0    0  501    0  0.00000000000E+00  0.00000000000E+00  0.12757621825E+04  0.12757621826E+04  0.50400001928E-02 0. -1.
       -1   -1    0    0    0  501  0.00000000000E+00  0.00000000000E+00 -0.70774963208E+03  0.70774963210E+03  0.50400001928E-02 0.  1.
    10030    2    1    2    0    0  0.00000000000E+00  0.00000000000E+00  0.56801255046E+03  0.19835118147E+04  0.19004422805E+04 0.  0.
        2    1    3    3  502    0  0.51745009597E+03  0.10264213754E+03 -0.54087529109E+03  0.75553695524E+03  0.25500000920E-02 0.  1.
       -2    1    3    3    0  502 -0.51745009597E+03 -0.10264213754E+03  0.11088878415E+04  0.12279748594E+04  0.25500000920E-02 0. -1.
</event>
<event>
 5   0  0.3236653E-06  0.1901721E+04  0.7818609E-02  0.8654000E-01
        1   -1    0    0  501    0  0.00000000000E+00  0.00000000000E+00  0.18287101215E+04  0.18287101215E+04  0.50400001928E-02 0. -1.
       -1   -1    0    0    0  501  0.00000000000E+00  0.00000000000E+00 -0.49441165379E+03  0.49441165381E+03  0.50400001928E-02 0.  1.
    10030    2    1    2    0    0  0.00000000000E+00  0.00000000000E+00  0.13342984677E+04  0.23231217753E+04  0.19017209001E+04 0.  0.
        3    1    3    3  502    0  0.74174348889E+03 -0.30805038338E+03  0.45388942834E+02  0.80444925778E+03  0.10100000352E+00 0.  1.
       -3    1    3    3    0  502 -0.74174348889E+03  0.30805038338E+03  0.12889095249E+04  0.15186725176E+04  0.10100000352E+00 0. -1.
</event>
<event>
 5   0  0.3236653E-06  0.1899258E+04  0.7818609E-02  0.8655226E-01
        1   -1    0    0  501    0  0.00000000000E+00  0.00000000000E+00  0.27473675691E+04  0.27473675691E+04  0.50400001928E-02 0. -1.
       -1   -1    0    0    0  501  0.00000000000E+00  0.00000000000E+00 -0.32823960517E+03  0.32823960521E+03  0.50400001928E-02 0.  1.
    10030    2    1    2    0    0  0.00000000000E+00  0.00000000000E+00  0.24191279639E+04  0.30756071743E+04  0.18992575878E+04 0.  0.
        3    1    3    3  502    0  0.54107223897E+03 -0.44574185309E+03  0.22469111949E+04  0.23537321206E+04  0.10100000352E+00 0. -1.
       -3    1    3    3    0  502 -0.54107223897E+03  0.44574185309E+03  0.17221676894E+03  0.72187505366E+03  0.10100000352E+00 0.  1.
</event>
<event>
 5   0  0.6984466E-06  0.1901035E+04  0.7818609E-02  0.8654341E-01
        2   -1    0    0  501    0  0.00000000000E+00  0.00000000000E+00  0.11248132686E+04  0.11248132686E+04  0.25500000920E-02 0.  1.
       -2   -1    0    0    0  501  0.00000000000E+00  0.00000000000E+00 -0.80323011399E+03  0.80323011399E+03  0.25500000920E-02 0. -1.
    10030    2    1    2    0    0  0.00000000000E+00  0.00000000000E+00  0.32158315458E+03  0.19280433826E+04  0.19010353915E+04 0.  0.
        2    1    3    3  502    0  0.46986654533E+03 -0.74456851607E+03 -0.20252540256E+03  0.90342314793E+03  0.25500000920E-02 0. -1.
       -2    1    3    3    0  502 -0.46986654533E+03  0.74456851607E+03  0.52410855714E+03  0.10246202346E+04  0.25500000920E-02 0.  1.
</event>
<event>
 5   0  0.3398807E-06  0.1899847E+04  0.7818609E-02  0.8654933E-01
       -1   -1    0    0    0  501  0.00000000000E+00  0.00000000000E+00  0.78003852397E+03  0.78003852399E+03  0.50400001928E-02 0. -1.
        1   -1    0    0  501    0  0.00000000000E+00  0.00000000000E+00 -0.11568078764E+04  0.11568078764E+04  0.50400001928E-02 0.  1.
    10030    2    1    2    0    0  0.00000000000E+00  0.00000000000E+00 -0.37676935246E+03  0.19368464004E+04  0.18998470554E+04 0.  0.
        1    1    3    3  502    0  0.71571321237E+03  0.24159282130E+03  0.39880297095E+03  0.85419921759E+03  0.50400001928E-02 0. -1.
       -1    1    3    3    0  502 -0.71571321237E+03 -0.24159282130E+03 -0.77557232341E+03  0.10826471828E+04  0.50400001928E-02 0.  1.
</event>
<event>
 5   0  0.7577180E-06  0.1901021E+04  0.7818609E-02  0.8654348E-01
        2   -1    0    0  501    0  0.00000000000E+00  0.00000000000E+00  0.18135703205E+04  0.18135703205E+04  0.25500000920E-02 0. -1.
       -2   -1    0    0    0  501  0.00000000000E+00  0.00000000000E+00 -0.49817217179E+03  0.49817217180E+03  0.25500000920E-02 0.  1.
    10030    2    1    2    0    0  0.00000000000E+00  0.00000000000E+00  0.13153981487E+04  0.23117424923E+04  0.19010210575E+04 0.  0.
        5    1    3    3  502    0 -0.81564139380E+03  0.12828770394E+03  0.12303032746E+04  0.14816871653E+04  0.46999998093E+01 0. -1.
       -5    1    3    3    0  502  0.81564139380E+03 -0.12828770394E+03  0.85094874049E+02  0.83005532698E+03  0.46999998093E+01 0.  1.
</event>
<event>
 5   0  0.3236653E-06  0.1899574E+04  0.7818609E-02  0.8655068E-01
        1   -1    0    0  501    0  0.00000000000E+00  0.00000000000E+00  0.23763925368E+04  0.23763925368E+04  0.50400001928E-02 0. -1.
       -1   -1    0    0    0  501  0.00000000000E+00  0.00000000000E+00 -0.37960721082E+03  0.37960721085E+03  0.50400001928E-02 0.  1.
    10030    2    1    2    0    0  0.00000000000E+00  0.00000000000E+00  0.19967853259E+04  0.27559997476E+04  0.18995744184E+04 0.  0.
        3    1    3    3  502    0  0.84450870535E+03 -0.43348099804E+03  0.95262748491E+03  0.13448419477E+04  0.10100000352E+00 0.  1.
       -3    1    3    3    0  502 -0.84450870535E+03  0.43348099804E+03  0.10441578410E+04  0.14111577999E+04  0.10100000352E+00 0. -1.
</event>
<event>
 5   0  0.6984466E-06  0.1895241E+04  0.7818609E-02  0.8657229E-01
        2   -1    0    0  501    0  0.00000000000E+00  0.00000000000E+00  0.72082764449E+03  0.72082764450E+03  0.25500000920E-02 0. -1.
       -2   -1    0    0    0  501  0.00000000000E+00  0.00000000000E+00 -0.12457690518E+04  0.12457690518E+04  0.25500000920E-02 0.  1.
    10030    2    1    2    0    0  0.00000000000E+00  0.00000000000E+00 -0.52494140728E+03  0.19665966963E+04  0.18952411680E+04 0.  0.
        2    1    3    3  502    0  0.49383617824E+03 -0.27173050853E+02  0.57627664100E+03  0.75941247856E+03  0.25500000920E-02 0. -1.
       -2    1    3    3    0  502 -0.49383617824E+03  0.27173050853E+02 -0.11012180483E+04  0.12071842177E+04  0.25500000920E-02 0.  1.
</event>
<event>
 5   0  0.2527750E-06  0.1899993E+04  0.7818609E-02  0.8654860E-01
        3   -1    0    0  501    0  0.00000000000E+00  0.00000000000E+00  0.59618798688E+03  0.59618799543E+03  0.10100000352E+00 0. -1.
       -3   -1    0    0    0  501  0.00000000000E+00  0.00000000000E+00 -0.15137730219E+04  0.15137730253E+04  0.10100000352E+00 0.  1.
    10030    2    1    2    0    0  0.00000000000E+00  0.00000000000E+00 -0.91758503504E+03  0.21099610207E+04  0.18999929506E+04 0.  0.
        4    1    3    3  502    0 -0.81658468058E+03  0.13264384977E+03  0.59812950603E+02  0.82944808963E+03  0.12699999809E+01 0. -1.
       -4    1    3    3    0  502  0.81658468058E+03 -0.13264384977E+03 -0.97739798564E+03  0.12805129311E+04  0.12699999809E+01 0.  1.
</event>
<event>
 5   0  0.7577180E-06  0.1903986E+04  0.7818609E-02  0.8652875E-01
        2   -1    0    0  501    0  0.00000000000E+00  0.00000000000E+00  0.24152049415E+04  0.24152049415E+04  0.25500000920E-02 0.  1.
       -2   -1    0    0    0  501  0.00000000000E+00  0.00000000000E+00 -0.37524382284E+03  0.37524382285E+03  0.25500000920E-02 0. -1.
    10030    2    1    2    0    0  0.00000000000E+00  0.00000000000E+00  0.20399611187E+04  0.27904487644E+04  0.19039860663E+04 0.  0.
        5    1    3    3  502    0  0.14484222226E+03  0.72117435325E+03  0.13430666293E+03  0.74775135362E+03  0.46999998093E+01 0.  1.
       -5    1    3    3    0  502 -0.14484222226E+03 -0.72117435325E+03  0.19056544558E+04  0.20426974108E+04  0.46999998093E+01 0. -1.
</event>
<event>
 5   0  0.3398807E-06  0.1901804E+04  0.7818609E-02  0.8653959E-01
        1   -1    0    0  501    0  0.00000000000E+00  0.00000000000E+00  0.12223034557E+04  0.12223034557E+04  0.50400001928E-02 0. -1.
       -1   -1    0    0    0  501  0.00000000000E+00  0.00000000000E+00 -0.73976244297E+03  0.73976244298E+03  0.50400001928E-02 0.  1.
    10030    2    1    2    0    0  0.00000000000E+00  0.00000000000E+00  0.48254101273E+03  0.19620658987E+04  0.19018035550E+04 0.  0.
        1    1    3    3  502    0  0.42374213502E+01 -0.68240420255E+03  0.92446287011E+03  0.11490539803E+04  0.50400001928E-02 0. -1.
       -1    1    3    3    0  502 -0.42374213502E+01  0.68240420255E+03 -0.44192185738E+03  0.81301191839E+03  0.50400001928E-02 0.  1.
</event>
<event>
 5   0  0.3379108E-06  0.1899950E+04  0.7818609E-02  0.8654881E-01
        1   -1    0    0  501    0  0.00000000000E+00  0.00000000000E+00  0.23884168290E+04  0.23884168290E+04  0.50400001928E-02 0. -1.
       -1   -1    0    0    0  501  0.00000000000E+00  0.00000000000E+00 -0.37784536311E+03  0.37784536315E+03  0.50400001928E-02 0.  1.
    10030    2    1    2    0    0  0.00000000000E+00  0.00000000000E+00  0.20105714659E+04  0.27662621921E+04  0.18999497089E+04 0.  0.
        4    1    3    3  502    0 -0.76726463716E+03 -0.55168714854E+03  0.86414803593E+03  0.12805495594E+04  0.12699999809E+01 0.  1.
       -4    1    3    3    0  502  0.76726463716E+03  0.55168714854E+03  0.11464234299E+04  0.14857126327E+04  0.12699999809E+01 0. -1.
</event>
<event>
 5   0  0.6862201E-06  0.1900285E+04  0.7818609E-02  0.8654714E-01
        2   -1    0    0  501    0  0.00000000000E+00  0.00000000000E+00  0.27209154066E+04  0.27209154066E+04  0.25500000920E-02 0.  1.
       -2   -1    0    0    0  501  0.00000000000E+00  0.00000000000E+00 -0.33178952784E+03  0.33178952785E+03  0.25500000920E-02 0. -1.
    10030    2    1    2    0    0  0.00000000000E+00  0.00000000000E+00  0.23891258788E+04  0.30527049345E+04  0.19002854923E+04 0.  0.
        3    1    3    3  502    0  0.80565664493E+03 -0.17268296304E+03  0.19546496554E+04  0.21212160005E+04  0.10100000352E+00 0.  1.
       -3    1    3    3    0  502 -0.80565664493E+03  0.17268296304E+03  0.43447622342E+03  0.93148893400E+03  0.10100000352E+00 0. -1.
</event>
<event>
 5   0  0.3211263E-06  0.1899921E+04  0.7818609E-02  0.8654895E-01
       -1   -1    0    0    0  501  0.00000000000E+00  0.00000000000E+00  0.59138118688E+03  0.59138118690E+03  0.50400001928E-02 0. -1.
        1   -1    0    0  501    0  0.00000000000E+00  0.00000000000E+00 -0.15259623204E+04  0.15259623205E+04  0.50400001928E-02 0.  1.
    10030    2    1    2    0    0  0.00000000000E+00  0.00000000000E+00 -0.93458113357E+03  0.21173435074E+04  0.18999214807E+04 0.  0.
        5    1    3    3  502    0 -0.30549626853E+02 -0.93674476632E+03 -0.29471720877E+03  0.98249903820E+03  0.46999998093E+01 0.  1.
       -5    1    3    3    0  502  0.30549626853E+02  0.93674476632E+03 -0.63986392480E+03  0.11348444692E+04  0.46999998093E+01 0. -1.
</event>
<event>
 5   0  0.6870370E-06  0.1899593E+04  0.7818609E-02  0.8655059E-01
       -2   -1    0    0    0  501  0.00000000000E+00  0.00000000000E+00  0.41222315587E+03  0.41222315588E+03  0.25500000920E-02 0. -1.
        2   -1    0    0  501    0  0.00000000000E+00  0.00000000000E+00 -0.21884109740E+04  0.21884109740E+04  0.25500000920E-02 0.  1.
    10030    2    1    2    0    0  0.00000000000E+00  0.00000000000E+00 -0.17761878181E+04  0.26006341298E+04  0.18995933018E+04 0.  0.
        1    1    3    3  502    0  0.25826467211E+03 -0.82894363062E+03 -0.14152493256E+04  0.16603550335E+04  0.50400001928E-02 0.  1.
       -1    1    3    3    0  502 -0.25826467211E+03  0.82894363062E+03 -0.36093849247E+03  0.94027909632E+03  0.50400001928E-02 0. -1.
</event>
<event>
 5   0  0.3398807E-06  0.1899657E+04  0.7818609E-02  0.8655027E-01
       -1   -1    0    0    0  501  0.00000000000E+00  0.00000000000E+00  0.78779283211E+03  0.78779283213E+03  0.50400001928E-02 0.  1.
        1   -1    0    0  501    0  0.00000000000E+00  0.00000000000E+00 -0.11451924695E+04  0.11451924695E+04  0.50400001928E-02 0. -1.
    10030    2    1    2    0    0  0.00000000000E+00  0.00000000000E+00 -0.35739963735E+03  0.19329853016E+04  0.18996572521E+04 0.  0.
        1    1    3    3  502    0  0.30240939845E+02 -0.22733986684E+03  0.75919588080E+03  0.79308027018E+03  0.50400001928E-02 0.  1.
       -1    1    3    3    0  502 -0.30240939845E+02  0.22733986684E+03 -0.11165955182E+04  0.11399050314E+04  0.50400001928E-02 0. -1.
</event>
<event>
 5   0  0.6984466E-06  0.1900751E+04  0.7818609E-02  0.8654483E-01
        2   -1    0    0  501    0  0.00000000000E+00  0.00000000000E+00  0.98709603062E+03  0.98709603062E+03  0.25500000920E-02 0. -1.
       -2   -1    0    0    0  501  0.00000000000E+00  0.00000000000E+00 -0.91502079294E+03  0.91502079294E+03  0.25500000920E-02 0.  1.
    10030    2    1    2    0    0  0.00000000000E+00  0.00000000000E+00  0.72075237677E+02  0.19021168236E+04  0.19007507913E+04 0.  0.
        2    1    3    3  502    0 -0.39572642445E+03  0.49253438682E+03 -0.67441898918E+03  0.92413770521E+03  0.25500000920E-02 0.  1.
       -2    1    3    3    0  502  0.39572642445E+03 -0.49253438682E+03  0.74649422686E+03  0.97797911836E+03  0.25500000920E-02 0. -1.
</event>
<event>
 5   0  0.3236653E-06  0.1909838E+04  0.7818609E-02  0.8649975E-01
       -1   -1    0    0    0  501  0.00000000000E+00  0.00000000000E+00  0.46260226853E+03  0.46260226856E+03  0.50400001928E-02 0.  1.
        1   -1    0    0  501    0  0.00000000000E+00  0.00000000000E+00 -0.19711746202E+04  0.19711746202E+04  0.50400001928E-02 0. -1.
    10030    2    1    2    0    0  0.00000000000E+00  0.00000000000E+00 -0.15085723517E+04  0.24337768888E+04  0.19098375334E+04 0.  0.
        3    1    3    3  502    0 -0.21262045534E+03  0.77065916645E+03 -0.88761448787E+02  0.80436410528E+03  0.10100000352E+00 0.  1.
       -3    1    3    3    0  502  0.21262045534E+03 -0.77065916645E+03 -0.14198109029E+04  0.16294127835E+04  0.10100000352E+00 0. -1.
</event>
<event>
 5   0  0.7207648E-06  0.1889726E+04  0.7818609E-02  0.8659987E-01
       -2   -1    0    0    0  501  0.00000000000E+00  0.00000000000E+00  0.50847151377E+03  0.50847151378E+03  0.25500000920E-02 0. -1.
        2   -1    0    0  501    0  0.00000000000E+00  0.00000000000E+00 -0.17557840208E+04  0.17557840208E+04  0.25500000920E-02 0.  1.
    10030    2    1    2    0    0  0.00000000000E+00  0.00000000000E+00 -0.12473125070E+04  0.22642555346E+04  0.18897260742E+04 0.  0.
        4    1    3    3  502    0 -0.40496037531E+03  0.69201906494E+03 -0.12226101866E+04  0.14620740655E+04  0.12699999809E+01 0.  1.
       -4    1    3    3    0  502  0.40496037531E+03 -0.69201906494E+03 -0.24702320471E+02  0.80218146909E+03  0.12699999809E+01 0. -1.
</event>
<event>
 5   0  0.6870370E-06  0.1900187E+04  0.7818609E-02  0.8654763E-01
       -2   -1    0    0    0  501  0.00000000000E+00  0.00000000000E+00  0.54208803115E+03  0.54208803116E+03  0.25500000920E-02 0.  1.
        2   -1    0    0  501    0  0.00000000000E+00  0.00000000000E+00 -0.16651868065E+04  0.16651868065E+04  0.25500000920E-02 0. -1.
    10030    2    1    2    0    0  0.00000000000E+00  0.00000000000E+00 -0.11230987754E+04  0.22072748377E+04  0.19001871881E+04 0.  0.
        1    1    3    3  502    0  0.92053287082E+02 -0.92663261172E+03 -0.34251279490E+03  0.99218789524E+03  0.50400001928E-02 0.  1.
       -1    1    3    3    0  502 -0.92053287082E+02  0.92663261172E+03 -0.78058598048E+03  0.12150869425E+04  0.50400001928E-02 0. -1.
</event>
<event>
 5   0  0.3236653E-06  0.1902190E+04  0.7818609E-02  0.8653767E-01
       -1   -1    0    0    0  501  0.00000000000E+00  0.00000000000E+00  0.48393033615E+03  0.48393033618E+03  0.50400001928E-02 0. -1.
        1   -1    0    0  501    0  0.00000000000E+00  0.00000000000E+00 -0.18692402777E+04  0.18692402777E+04  0.50400001928E-02 0.  1.
    10030    2    1    2    0    0  0.00000000000E+00  0.00000000000E+00 -0.13853099416E+04  0.23531706139E+04  0.19021903963E+04 0.  0.
        3    1    3    3  502    0  0.31758358696E+03 -0.62633778602E+03  0.10083983660E+03  0.70945545297E+03  0.10100000352E+00 0. -1.
       -3    1    3    3    0  502 -0.31758358696E+03  0.62633778602E+03 -0.14861497782E+04  0.16437151609E+04  0.10100000352E+00 0.  1.
</event>
<event>
 5   0  0.3211263E-06  0.1900822E+04  0.7818609E-02  0.8654447E-01
       -1   -1    0    0    0  501  0.00000000000E+00  0.00000000000E+00  0.82293077466E+03  0.82293077468E+03  0.50400001928E-02 0.  1.
        1   -1    0    0  501    0  0.00000000000E+00  0.00000000000E+00 -0.10976391532E+04  0.10976391532E+04  0.50400001928E-02 0. -1.
    10030    2    1    2    0    0  0.00000000000E+00  0.00000000000E+00 -0.27470837851E+03  0.19205699279E+04  0.19008219682E+04 0.  0.
        5    1    3    3  502    0 -0.67303154005E+03  0.22541442532E+03 -0.77596157444E+03  0.10516280578E+04  0.46999998093E+01 0. -1.
       -5    1    3    3    0  502  0.67303154005E+03 -0.22541442532E+03  0.50125319593E+03  0.86894187002E+03  0.46999998093E+01 0.  1.
</event>
<event>
 5   0  0.3236653E-06  0.1900254E+04  0.7818609E-02  0.8654730E-01
       -1   -1    0    0    0  501  0.00000000000E+00  0.00000000000E+00  0.16905832482E+04  0.16905832482E+04  0.50400001928E-02 0. -1.
        1   -1    0    0  501    0  0.00000000000E+00  0.00000000000E+00 -0.53398224237E+03  0.53398224239E+03  0.50400001928E-02 0.  1.
    10030    2    1    2    0    0  0.00000000000E+00  0.00000000000E+00  0.11566010059E+04  0.22245654906E+04  0.19002541239E+04 0.  0.
        3    1    3    3  502    0  0.34338966341E+03 -0.70929502414E+03 -0.43064251890E+02  0.78922140886E+03  0.10100000352E+00 0.  1.
       -3    1    3    3    0  502 -0.34338966341E+03  0.70929502414E+03  0.11996652577E+04  0.14353440818E+04  0.10100000352E+00 0. -1.
</event>
<event>
 5   0  0.3211263E-06  0.1900702E+04  0.7818609E-02  0.8654507E-01
       -1   -1    0    0    0  501  0.00000000000E+00  0.00000000000E+00  0.81691595761E+03  0.81691595762E+03  0.50400001928E-02 0.  1.
        1   -1    0    0  501    0  0.00000000000E+00  0.00000000000E+00 -0.11055817380E+04  0.11055817380E+04  0.50400001928E-02 0. -1.
    10030    2    1    2    0    0  0.00000000000E+00  0.00000000000E+00 -0.28866578040E+03  0.19224976956E+04  0.19007023589E+04 0.  0.
        5    1    3    3  502    0  0.32970510354E+03  0.81904197834E+03  0.21128091886E+03  0.90785292545E+03  0.46999998093E+01 0.  1.
       -5    1    3    3    0  502 -0.32970510354E+03 -0.81904197834E+03 -0.49994669925E+03  0.10146447702E+04  0.46999998093E+01 0. -1.
</event>
<event>
 5   0  0.6984466E-06  0.1899586E+04  0.7818609E-02  0.8655062E-01
       -2   -1    0    0    0  501  0.00000000000E+00  0.00000000000E+00  0.32840465190E+03  0.32840465191E+03  0.25500000920E-02 0.  1.
        2   -1    0    0  501    0  0.00000000000E+00  0.00000000000E+00 -0.27469379350E+04  0.27469379350E+04  0.25500000920E-02 0. -1.
    10030    2    1    2    0    0  0.00000000000E+00  0.00000000000E+00 -0.24185332831E+04  0.30753425869E+04  0.18995864775E+04 0.  0.
        2    1    3    3  502    0 -0.15758700973E+03  0.58677958275E+03 -0.23911729906E+04  0.24671546801E+04  0.25500000920E-02 0. -1.
       -2    1    3    3    0  502  0.15758700973E+03 -0.58677958275E+03 -0.27360292450E+02  0.60818790680E+03  0.25500000920E-02 0.  1.
</event>
<event>
 5   0  0.3236653E-06  0.1901221E+04  0.7818609E-02  0.8654249E-01
       -1   -1    0    0    0  501  0.00000000000E+00  0.00000000000E+00  0.43794610226E+03  0.43794610229E+03  0.50400001928E-02 0.  1.
        1   -1    0    0  501    0  0.00000000000E+00  0.00000000000E+00 -0.20634051358E+04  0.20634051358E+04  0.50400001928E-02 0. -1.
    10030    2    1    2    0    0  0.00000000000E+00  0.00000000000E+00 -0.16254590336E+04  0.25013512381E+04  0.19012209095E+04 0.  0.
        3    1    3    3  502    0 -0.22898188587E+03  0.82564445487E+03 -0.27100736588E+03  0.89864702330E+03  0.10100000352E+00 0.  1.
       -3    1    3    3    0  502  0.22898188587E+03 -0.82564445487E+03 -0.13544516677E+04  0.16027042148E+04  0.10100000352E+00 0. -1.
</event>
<event>
 5   0  0.6870370E-06  0.1900291E+04  0.7818609E-02  0.8654712E-01
       -2   -1    0    0    0  501  0.00000000000E+00  0.00000000000E+00  0.71813581538E+03  0.71813581538E+03  0.25500000920E-02 0.  1.
        2   -1    0    0  501    0  0.00000000000E+00  0.00000000000E+00 -0.12571110158E+04  0.12571110158E+04  0.25500000920E-02 0. -1.
    10030    2    1    2    0    0  0.00000000000E+00  0.00000000000E+00 -0.53897520042E+03  0.19752468312E+04  0.19002909718E+04 0.  0.
        1    1    3    3  502    0  0.80635664749E+03  0.41948516486E+03 -0.55716705286E+03  0.10661209928E+04  0.50400001928E-02 0. -1.
       -1    1    3    3    0  502 -0.80635664749E+03 -0.41948516486E+03  0.18191852438E+02  0.90912583838E+03  0.50400001928E-02 0.  1.
</event>
<event>
 5   0  0.7207648E-06  0.1903050E+04  0.7818609E-02  0.8653340E-01
       -2   -1    0    0    0  501  0.00000000000E+00  0.00000000000E+00  0.10299682063E+04  0.10299682063E+04  0.25500000920E-02 0. -1.
        2   -1    0    0  501    0  0.00000000000E+00  0.00000000000E+00 -0.87905620189E+03  0.87905620190E+03  0.25500000920E-02 0.  1.
    10030    2    1    2    0    0  0.00000000000E+00  0.00000000000E+00  0.15091200442E+03  0.19090244082E+04  0.19030501197E+04 0.  0.
        4    1    3    3  502    0  0.22626917595E+02 -0.50333677537E+02  0.10283606758E+04  0.10298411280E+04  0.12699999809E+01 0. -1.
       -4    1    3    3    0  502 -0.22626917595E+02  0.50333677537E+02 -0.87744867135E+03  0.87918328024E+03  0.12699999809E+01 0.  1.
</event>
<event>
 5   0  0.3236653E-06  0.1901118E+04  0.7818609E-02  0.8654300E-01
       -1   -1    0    0    0  501  0.00000000000E+00  0.00000000000E+00  0.41471608501E+03  0.41471608504E+03  0.50400001928E-02 0.  1.
        1   -1    0    0  501    0  0.00000000000E+00  0.00000000000E+00 -0.21787489768E+04  0.21787489768E+04  0.50400001928E-02 0. -1.
    10030    2    1    2    0    0  0.00000000000E+00  0.00000000000E+00 -0.17640328918E+04  0.25934650618E+04  0.19011178248E+04 0.  0.
        3    1    3    3  502    0  0.70303821914E+03  0.66384185192E+01 -0.93091778354E+01  0.70313119485E+03  0.10100000352E+00 0.  1.
       -3    1    3    3    0  502 -0.70303821914E+03 -0.66384185192E+01 -0.17547237140E+04  0.18903338670E+04  0.10100000352E+00 0. -1.
</event>
<event>
 5   0  0.6862201E-06  0.1899393E+04  0.7818609E-02  0.8655158E-01
       -2   -1    0    0    0  501  0.00000000000E+00  0.00000000000E+00  0.11442808064E+04  0.11442808064E+04  0.25500000920E-02 0.  1.
        2   -1    0    0  501    0  0.00000000000E+00  0.00000000000E+00 -0.78820133217E+03  0.78820133217E+03  0.25500000920E-02 0. -1.
    10030    2    1    2    0    0  0.00000000000E+00  0.00000000000E+00  0.35607947424E+03  0.19324821386E+04  0.18993932252E+04 0.  0.
        3    1    3    3  502    0 -0.14799828668E+03 -0.83837558864E+03  0.60625971330E+03  0.10451449520E+04  0.10100000352E+00 0.  1.
       -3    1    3    3    0  502  0.14799828668E+03  0.83837558864E+03 -0.25018023906E+03  0.88733718659E+03  0.10100000352E+00 0. -1.
</event>
<event>
 5   0  0.6862201E-06  0.1899845E+04  0.7818609E-02  0.8654934E-01
        2   -1    0    0  501    0  0.00000000000E+00  0.00000000000E+00  0.14226976621E+04  0.14226976621E+04  0.25500000920E-02 0.  1.
       -2   -1    0    0    0  501  0.00000000000E+00  0.00000000000E+00 -0.63425444843E+03  0.63425444844E+03  0.25500000920E-02 0. -1.
    10030    2    1    2    0    0  0.00000000000E+00  0.00000000000E+00  0.78844321368E+03  0.20569521105E+04  0.18998445420E+04 0.  0.
        3    1    3    3  502    0 -0.17060261174E+03  0.42075282932E+03  0.12976162843E+04  0.13747531509E+04  0.10100000352E+00 0.  1.
       -3    1    3    3    0  502  0.17060261174E+03 -0.42075282932E+03 -0.50917307060E+03  0.68219895964E+03  0.10100000352E+00 0. -1.
</event>
<event>
 5   0  0.3495279E-06  0.1899879E+04  0.7818609E-02  0.8654916E-01
        1   -1    0    0  501    0  0.00000000000E+00  0.00000000000E+00  0.11530923420E+04  0.11530923420E+04  0.50400001928E-02 0.  1.
       -1   -1    0    0    0  501  0.00000000000E+00  0.00000000000E+00 -0.78257861864E+03  0.78257861866E+03  0.50400001928E-02 0. -1.
    10030    2    1    2    0    0  0.00000000000E+00  0.00000000000E+00  0.37051372337E+03  0.19356709607E+04  0.18998793774E+04 0.  0.
        2    1    3    3  502    0  0.60310879407E+03 -0.89888758358E+01  0.93295160135E+03  0.11109544130E+04  0.25500000920E-02 0.  1.
       -2    1    3    3    0  502 -0.60310879407E+03  0.89888758358E+01 -0.56243787798E+03  0.82471654765E+03  0.25500000920E-02 0. -1.
</event>
<event>
 5   0  0.3211263E-06  0.1900108E+04  0.7818609E-02  0.8654803E-01
       -1   -1    0    0    0  501  0.00000000000E+00  0.00000000000E+00  0.78161456460E+03  0.78161456462E+03  0.50400001928E-02 0.  1.
        1   -1    0    0  501    0  0.00000000000E+00  0.00000000000E+00 -0.11547926309E+04  0.11547926309E+04  0.50400001928E-02 0. -1.
    10030    2    1    2    0    0  0.00000000000E+00  0.00000000000E+00 -0.37317806629E+03  0.19364071955E+04  0.19001081437E+04 0.  0.
        5    1    3    3  502    0 -0.60356585524E+03 -0.57704438890E+03  0.27517704391E+03  0.87921354850E+03  0.46999998093E+01 0.  1.
       -5    1    3    3    0  502  0.60356585524E+03  0.57704438890E+03 -0.64835511020E+03  0.10571936470E+04  0.46999998093E+01 0. -1.
</event>
<event>
 5   0  0.3398807E-06  0.1899966E+04  0.7818609E-02  0.8654873E-01
       -1   -1    0    0    0  501  0.00000000000E+00  0.00000000000E+00  0.72134071476E+03  0.72134071478E+03  0.50400001928E-02 0.  1.
        1   -1    0    0  501    0  0.00000000000E+00  0.00000000000E+00 -0.12510977423E+04  0.12510977423E+04  0.50400001928E-02 0. -1.
    10030    2    1    2    0    0  0.00000000000E+00  0.00000000000E+00 -0.52975702751E+03  0.19724384571E+04  0.18999660415E+04 0.  0.
        1    1    3    3  502    0  0.59115953442E+03 -0.65587266310E+03 -0.62871682252E+03  0.10839388305E+04  0.50400001928E-02 0. -1.
       -1    1    3    3    0  502 -0.59115953442E+03  0.65587266310E+03  0.98959795013E+02  0.88849962655E+03  0.50400001928E-02 0.  1.
</event>
<event>
 5   0  0.7577180E-06  0.1899546E+04  0.7818609E-02  0.8655082E-01
        2   -1    0    0  501    0  0.00000000000E+00  0.00000000000E+00  0.75682646477E+03  0.75682646477E+03  0.25500000920E-02 0. -1.
       -2   -1    0    0    0  501  0.00000000000E+00  0.00000000000E+00 -0.11919095417E+04  0.11919095417E+04  0.25500000920E-02 0.  1.
    10030    2    1    2    0    0  0.00000000000E+00  0.00000000000E+00 -0.43508307692E+03  0.19487360065E+04  0.18995459297E+04 0.  0.
        5    1    3    3  502    0  0.41382137750E+03  0.84497801030E+03 -0.35055485834E+03  0.10040651219E+04  0.46999998093E+01 0.  1.
       -5    1    3    3    0  502 -0.41382137750E+03 -0.84497801030E+03 -0.84528218578E+02  0.94467088454E+03  0.46999998093E+01 0. -1.
</event>
<event>
 5   0  0.6862201E-06  0.1900235E+04  0.7818609E-02  0.8654739E-01
       -2   -1    0    0    0  501  0.00000000000E+00  0.00000000000E+00  0.66168370299E+03  0.66168370300E+03  0.25500000920E-02 0.  1.
        2   -1    0    0  501    0  0.00000000000E+00  0.00000000000E+00 -0.13642821886E+04  0.13642821886E+04  0.25500000920E-02 0. -1.
    10030    2    1    2    0    0  0.00000000000E+00  0.00000000000E+00 -0.70259848563E+03  0.20259658916E+04  0.19002350281E+04 0.  0.
        3    1    3    3  502    0 -0.90584827523E+03 -0.80271369340E+01 -0.45813862308E+02  0.90704159378E+03  0.10100000352E+00 0.  1.
       -3    1    3    3    0  502  0.90584827523E+03  0.80271369340E+01 -0.65678462332E+03  0.11189242978E+04  0.10100000352E+00 0. -1.
</event>
<event>
 5   0  0.7207648E-06  0.1899956E+04  0.7818609E-02  0.8654878E-01
       -2   -1    0    0    0  501  0.00000000000E+00  0.00000000000E+00  0.47199464356E+03  0.47199464357E+03  0.25500000920E-02 0.  1.
        2   -1    0    0  501    0  0.00000000000E+00  0.00000000000E+00 -0.19120094834E+04  0.19120094834E+04  0.25500000920E-02 0. -1.
    10030    2    1    2    0    0  0.00000000000E+00  0.00000000000E+00 -0.14400148399E+04  0.23840041270E+04  0.18999560359E+04 0.  0.
        4    1    3    3  502    0 -0.84941871711E+03  0.41631293468E+03 -0.82959691872E+03  0.12581976303E+04  0.12699999809E+01 0.  1.
       -4    1    3    3    0  502  0.84941871711E+03 -0.41631293468E+03 -0.61041792114E+03  0.11258064967E+04  0.12699999809E+01 0. -1.
</event>
<event>
 5   0  0.6862201E-06  0.1900404E+04  0.7818609E-02  0.8654656E-01
        2   -1    0    0  501    0  0.00000000000E+00  0.00000000000E+00  0.65701331480E+03  0.65701331480E+03  0.25500000920E-02 0.  1.
       -2   -1    0    0    0  501  0.00000000000E+00  0.00000000000E+00 -0.13742238632E+04  0.13742238632E+04  0.25500000920E-02 0. -1.
    10030    2    1    2    0    0  0.00000000000E+00  0.00000000000E+00 -0.71721054843E+03  0.20312371780E+04  0.19004035105E+04 0.  0.
        3    1    3    3  502    0  0.51115378540E+03  0.36362940601E+03 -0.11214484367E+04  0.12849712618E+04  0.10100000352E+00 0. -1.
       -3    1    3    3    0  502 -0.51115378540E+03 -0.36362940601E+03  0.40423788826E+03  0.74626591625E+03  0.10100000352E+00 0.  1.
</event>
<event>
 5   0  0.3211263E-06  0.1899555E+04  0.7818609E-02  0.8655078E-01
       -1   -1    0    0    0  501  0.00000000000E+00  0.00000000000E+00  0.42922005018E+03  0.42922005021E+03  0.50400001928E-02 0.  1.
        1   -1    0    0  501    0  0.00000000000E+00  0.00000000000E+00 -0.21016671984E+04  0.21016671984E+04  0.50400001928E-02 0. -1.
    10030    2    1    2    0    0  0.00000000000E+00  0.00000000000E+00 -0.16724471482E+04  0.25308872486E+04  0.18995554221E+04 0.  0.
        5    1    3    3  502    0 -0.14630619442E+02  0.42360115477E+03 -0.19686520575E+04  0.20137688563E+04  0.46999998093E+01 0. -1.
       -5    1    3    3    0  502  0.14630619442E+02 -0.42360115477E+03  0.29620490928E+03  0.51711839227E+03  0.46999998093E+01 0.  1.
</event>
<event>
 5   0  0.3379108E-06  0.1900239E+04  0.7818609E-02  0.8654737E-01
       -1   -1    0    0    0  501  0.00000000000E+00  0.00000000000E+00  0.60864383249E+03  0.60864383251E+03  0.50400001928E-02 0. -1.
        1   -1    0    0  501    0  0.00000000000E+00  0.00000000000E+00 -0.14831780967E+04  0.14831780967E+04  0.50400001928E-02 0.  1.
    10030    2    1    2    0    0  0.00000000000E+00  0.00000000000E+00 -0.87453426418E+03  0.20918219292E+04  0.19002391440E+04 0.  0.
        4    1    3    3  502    0 -0.14278441444E+02  0.93677638138E+03 -0.61122365890E+03  0.11186374912E+04  0.12699999809E+01 0.  1.
       -4    1    3    3    0  502  0.14278441444E+02 -0.93677638138E+03 -0.26331060528E+03  0.97318443800E+03  0.12699999809E+01 0. -1.
</event>
<event>
 5   0  0.3211263E-06  0.1899470E+04  0.7818609E-02  0.8655120E-01
        1   -1    0    0  501    0  0.00000000000E+00  0.00000000000E+00  0.16596397219E+04  0.16596397219E+04  0.50400001928E-02 0.  1.
       -1   -1    0    0    0  501  0.00000000000E+00  0.00000000000E+00 -0.54348963695E+03  0.54348963697E+03  0.50400001928E-02 0. -1.
    10030    2    1    2    0    0  0.00000000000E+00  0.00000000000E+00  0.11161500849E+04  0.22031293588E+04  0.18994704419E+04 0.  0.
        5    1    3    3  502    0  0.17045242525E+03 -0.90517300605E+03  0.28959021127E+03  0.96554481026E+03  0.46999998093E+01 0. -1.
       -5    1    3    3    0  502 -0.17045242525E+03  0.90517300605E+03  0.82655987365E+03  0.12375845486E+04  0.46999998093E+01 0.  1.
</event>
<event>
 5   0  0.3379108E-06  0.1899831E+04  0.7818609E-02  0.8654941E-01
       -1   -1    0    0    0  501  0.00000000000E+00  0.00000000000E+00  0.83729746670E+03  0.83729746671E+03  0.50400001928E-02 0. -1.
        1   -1    0    0  501    0  0.00000000000E+00  0.00000000000E+00 -0.10776805987E+04  0.10776805987E+04  0.50400001928E-02 0.  1.
    10030    2    1    2    0    0  0.00000000000E+00  0.00000000000E+00 -0.24038313202E+03  0.19149780654E+04  0.18998307664E+04 0.  0.
        4    1    3    3  502    0  0.23492495067E+03  0.80121960744E+03  0.33640464865E+03  0.90017347902E+03  0.12699999809E+01 0. -1.
       -4    1    3    3    0  502 -0.23492495067E+03 -0.80121960744E+03 -0.57678778067E+03  0.10148045864E+04  0.12699999809E+01 0.  1.
</event>
<event>
 5   0  0.6862201E-06  0.1901252E+04  0.7818609E-02  0.8654234E-01
        2   -1    0    0  501    0  0.00000000000E+00  0.00000000000E+00  0.19958800707E+04  0.19958800707E+04  0.25500000920E-02 0. -1.
       -2   -1    0    0    0  501  0.00000000000E+00  0.00000000000E+00 -0.45277743683E+03  0.45277743684E+03  0.25500000920E-02 0.  1.
    10030    2    1    2    0    0  0.00000000000E+00  0.00000000000E+00  0.15431026338E+04  0.24486575075E+04  0.19012516537E+04 0.  0.
        3    1    3    3  502    0 -0.11351375177E+02  0.10917978448E+03 -0.44458792557E+03  0.45793832862E+03  0.10100000352E+00 0.  1.
       -3    1    3    3    0  502  0.11351375177E+02 -0.10917978448E+03  0.19876905594E+04  0.19907191789E+04  0.10100000352E+00 0. -1.
</event>
<event>
 5   0  0.3236653E-06  0.1899153E+04  0.7818609E-02  0.8655278E-01
        1   -1    0    0  501    0  0.00000000000E+00  0.00000000000E+00  0.89759101447E+03  0.89759101448E+03  0.50400001928E-02 0. -1.
       -1   -1    0    0    0  501  0.00000000000E+00  0.00000000000E+00 -0.10045730184E+04  0.10045730184E+04  0.50400001928E-02 0.  1.
    10030    2    1    2    0    0  0.00000000000E+00  0.00000000000E+00 -0.10698200393E+03  0.19021640329E+04  0.18991531952E+04 0.  0.
        3    1    3    3  502    0 -0.61775082085E+03 -0.71793271984E+03  0.14824444741E+02  0.94723980134E+03  0.10100000352E+00 0. -1.
       -3    1    3    3    0  502  0.61775082085E+03  0.71793271984E+03 -0.12180644867E+03  0.95492423156E+03  0.10100000352E+00 0.  1.
</event>
<event>
 5   0  0.2527750E-06  0.1900852E+04  0.7818609E-02  0.8654432E-01
       -4   -1    0    0    0  501  0.00000000000E+00  0.00000000000E+00  0.13386044864E+04  0.13386050888E+04  0.12699999809E+01 0.  1.
        4   -1    0    0  501    0  0.00000000000E+00  0.00000000000E+00 -0.67481306589E+03  0.67481426096E+03  0.12699999809E+01 0. -1.
    10030    2    1    2    0    0  0.00000000000E+00  0.00000000000E+00  0.66379142049E+03  0.20134193498E+04  0.19008520269E+04 0.  0.
        4    1    3    3  502    0  0.56252413110E+03 -0.52198117029E+03  0.92582436457E+03  0.12025182357E+04  0.12699999809E+01 0.  1.
       -4    1    3    3    0  502 -0.56252413110E+03  0.52198117029E+03 -0.26203294407E+03  0.81090111412E+03  0.12699999809E+01 0. -1.
</event>
<event>
 5   0  0.6862201E-06  0.1899820E+04  0.7818609E-02  0.8654946E-01
        2   -1    0    0  501    0  0.00000000000E+00  0.00000000000E+00  0.21410227727E+04  0.21410227727E+04  0.25500000920E-02 0. -1.
       -2   -1    0    0    0  501  0.00000000000E+00  0.00000000000E+00 -0.42144753425E+03  0.42144753426E+03  0.25500000920E-02 0.  1.
    10030    2    1    2    0    0  0.00000000000E+00  0.00000000000E+00  0.17195752385E+04  0.25624703070E+04  0.18998197476E+04 0.  0.
        3    1    3    3  502    0  0.88220910621E+02 -0.59247407158E+03 -0.13459684404E+03  0.61394199661E+03  0.10100000352E+00 0.  1.
       -3    1    3    3    0  502 -0.88220910621E+02  0.59247407158E+03  0.18541720825E+04  0.19485283104E+04  0.10100000352E+00 0. -1.
</event>
<event>
 5   0  0.3236653E-06  0.1899860E+04  0.7818609E-02  0.8654926E-01
        1   -1    0    0  501    0  0.00000000000E+00  0.00000000000E+00  0.91758828379E+03  0.91758828380E+03  0.50400001928E-02 0. -1.
       -1   -1    0    0    0  501  0.00000000000E+00  0.00000000000E+00 -0.98341195983E+03  0.98341195985E+03  0.50400001928E-02 0.  1.
    10030    2    1    2    0    0  0.00000000000E+00  0.00000000000E+00 -0.65823676044E+02  0.19010002436E+04  0.18998603028E+04 0.  0.
        3    1    3    3  502    0  0.70836982541E+03 -0.76379593424E+02  0.59575299923E+03  0.92873209169E+03  0.10100000352E+00 0. -1.
       -3    1    3    3    0  502 -0.70836982541E+03  0.76379593424E+02 -0.66157667527E+03  0.97226815196E+03  0.10100000352E+00 0.  1.
</event>
<event>
 5   0  0.7207648E-06  0.1899391E+04  0.7818609E-02  0.8655159E-01
        2   -1    0    0  501    0  0.00000000000E+00  0.00000000000E+00  0.15969120159E+04  0.15969120159E+04  0.25500000920E-02 0. -1.
       -2   -1    0    0    0  501  0.00000000000E+00  0.00000000000E+00 -0.56479124159E+03  0.56479124160E+03  0.25500000920E-02 0.  1.
    10030    2    1    2    0    0  0.00000000000E+00  0.00000000000E+00  0.10321207743E+04  0.21617032575E+04  0.18993913974E+04 0.  0.
        4    1    3    3  502    0 -0.18871899563E+03 -0.59646691126E+03 -0.29713214252E+03  0.69258700432E+03  0.12699999809E+01 0.  1.
       -4    1    3    3    0  502  0.18871899563E+03  0.59646691126E+03  0.13292529168E+04  0.14691162532E+04  0.12699999809E+01 0. -1.
</event>
<event>
 5   0  0.2527750E-06  0.1900368E+04  0.7818609E-02  0.8654673E-01
       -4   -1    0    0    0  501  0.00000000000E+00  0.00000000000E+00  0.44132412737E+03  0.44132595471E+03  0.12699999809E+01 0.  1.
        4   -1    0    0  501    0  0.00000000000E+00  0.00000000000E+00 -0.20457681960E+04  0.20457685902E+04  0.12699999809E+01 0. -1.
    10030    2    1    2    0    0  0.00000000000E+00  0.00000000000E+00 -0.16044440687E+04  0.24870945449E+04  0.19003679923E+04 0.  0.
        3    1    3    3  502    0 -0.45823133835E+03  0.41068423553E+03  0.14534101088E+03  0.63226696925E+03  0.10100000352E+00 0.  1.
       -3    1    3    3    0  502  0.45823133835E+03 -0.41068423553E+03 -0.17497850795E+04  0.18548275757E+04  0.10100000352E+00 0. -1.
</event>
<event>
 5   0  0.3495279E-06  0.1900106E+04  0.7818609E-02  0.8654804E-01
       -1   -1    0    0    0  501  0.00000000000E+00  0.00000000000E+00  0.48494578469E+03  0.48494578471E+03  0.50400001928E-02 0. -1.
        1   -1    0    0  501    0  0.00000000000E+00  0.00000000000E+00 -0.18612401146E+04  0.18612401146E+04  0.50400001928E-02 0.  1.
    10030    2    1    2    0    0  0.00000000000E+00  0.00000000000E+00 -0.13762943299E+04  0.23461858993E+04  0.19001058369E+04 0.  0.
        2    1    3    3  502    0 -0.10319663806E+03 -0.35811213248E+00 -0.18542989888E+04  0.18571683861E+04  0.25500000920E-02 0.  1.
       -2    1    3    3    0  502  0.10319663806E+03  0.35811213248E+00  0.47800465888E+03  0.48901751325E+03  0.25500000920E-02 0. -1.
</event>
<event>
 5   0  0.3379108E-06  0.1906297E+04  0.7818609E-02  0.8651728E-01
       -1   -1    0    0    0  501  0.00000000000E+00  0.00000000000E+00  0.49082140391E+03  0.49082140393E+03  0.50400001928E-02 0. -1.
        1   -1    0    0  501    0  0.00000000000E+00  0.00000000000E+00 -0.18509621368E+04  0.18509621368E+04  0.50400001928E-02 0.  1.
    10030    2    1    2    0    0  0.00000000000E+00  0.00000000000E+00 -0.13601407329E+04  0.23417835407E+04  0.19062967603E+04 0.  0.
        4    1    3    3  502    0  0.11117122604E+03  0.53743958090E+03 -0.16373840362E+04  0.17269129797E+04  0.12699999809E+01 0.  1.
       -4    1    3    3    0  502 -0.11117122604E+03 -0.53743958090E+03  0.27724330335E+03  0.61487056098E+03  0.12699999809E+01 0. -1.
</event>
<event>
 5   0  0.3236653E-06  0.1899390E+04  0.7818609E-02  0.8655160E-01
        1   -1    0    0  501    0  0.00000000000E+00  0.00000000000E+00  0.94941567186E+03  0.94941567188E+03  0.50400001928E-02 0.  1.
       -1   -1    0    0    0  501  0.00000000000E+00  0.00000000000E+00 -0.94997484535E+03  0.94997484536E+03  0.50400001928E-02 0. -1.
    10030    2    1    2    0    0  0.00000000000E+00  0.00000000000E+00 -0.55917348217E+00  0.18993905172E+04  0.18993904349E+04 0.  0.
        3    1    3    3  502    0 -0.22593336673E+03 -0.27920605655E+02  0.92172671645E+03  0.94942382340E+03  0.10100000352E+00 0.  1.
       -3    1    3    3    0  502  0.22593336673E+03  0.27920605655E+02 -0.92228588993E+03  0.94996669383E+03  0.10100000352E+00 0. -1.
</event>
<event>
 5   0  0.3211263E-06  0.1900340E+04  0.7818609E-02  0.8654687E-01
       -1   -1    0    0    0  501  0.00000000000E+00  0.00000000000E+00  0.60288675855E+03  0.60288675857E+03  0.50400001928E-02 0. -1.
        1   -1    0    0  501    0  0.00000000000E+00  0.00000000000E+00 -0.14974999743E+04  0.14974999743E+04  0.50400001928E-02 0.  1.
    10030    2    1    2    0    0  0.00000000000E+00  0.00000000000E+00 -0.89461321572E+03  0.21003867328E+04  0.19003398701E+04 0.  0.
        5    1    3    3  502    0  0.82701275660E+03 -0.12279923576E+03 -0.94623617596E+03  0.12627013671E+04  0.46999998093E+01 0.  1.
       -5    1    3    3    0  502 -0.82701275660E+03  0.12279923576E+03  0.51622960247E+02  0.83768536570E+03  0.46999998093E+01 0. -1.
</event>
<event>
 5   0  0.6862201E-06  0.1899843E+04  0.7818609E-02  0.8654935E-01
       -2   -1    0    0    0  501  0.00000000000E+00  0.00000000000E+00  0.73537549598E+03  0.73537549598E+03  0.25500000920E-02 0. -1.
        2   -1    0    0  501    0  0.00000000000E+00  0.00000000000E+00 -0.12270612736E+04  0.12270612736E+04  0.25500000920E-02 0.  1.
    10030    2    1    2    0    0  0.00000000000E+00  0.00000000000E+00 -0.49168577762E+03  0.19624367696E+04  0.18998429332E+04 0.  0.
        3    1    3    3  502    0 -0.46736549919E+03 -0.27605314965E+03 -0.10510876873E+04  0.11829713386E+04  0.10100000352E+00 0.  1.
       -3    1    3    3    0  502  0.46736549919E+03  0.27605314965E+03  0.55940190973E+03  0.77946543097E+03  0.10100000352E+00 0. -1.
</event>
<event>
 5   0  0.3398807E-06  0.1901487E+04  0.7818609E-02  0.8654117E-01
       -1   -1    0    0    0  501  0.00000000000E+00  0.00000000000E+00  0.76996896139E+03  0.76996896140E+03  0.50400001928E-02 0.  1.
        1   -1    0    0  501    0  0.00000000000E+00  0.00000000000E+00 -0.11739601592E+04  0.11739601593E+04  0.50400001928E-02 0. -1.
    10030    2    1    2    0    0  0.00000000000E+00  0.00000000000E+00 -0.40399119786E+03  0.19439291207E+04  0.19014866653E+04 0.  0.
        1    1    3    3  502    0  0.41293163559E+03 -0.46744068794E+03 -0.93557714643E+03  0.11244189297E+04  0.50400001928E-02 0. -1.
       -1    1    3    3    0  502 -0.41293163559E+03  0.46744068794E+03  0.53158594858E+03  0.81951019100E+03  0.50400001928E-02 0.  1.
</event>
<event>
 5   0  0.6870370E-06  0.1900044E+04  0.7818609E-02  0.8654834E-01
       -2   -1    0    0    0  501  0.00000000000E+00  0.00000000000E+00  0.55397428113E+03  0.55397428114E+03  0.25500000920E-02 0. -1.
        2   -1    0    0  501    0  0.00000000000E+00  0.00000000000E+00 -0.16292124172E+04  0.16292124172E+04  0.25500000920E-02 0.  1.
    10030    2    1    2    0    0  0.00000000000E+00  0.00000000000E+00 -0.10752381360E+04  0.21831866983E+04  0.19000439759E+04 0.  0.
        1    1    3    3  502    0 -0.22421393411E+03 -0.54097503205E+03  0.32193311601E+03  0.66825654113E+03  0.50400001928E-02 0.  1.
       -1    1    3    3    0  502  0.22421393411E+03  0.54097503205E+03 -0.13971712520E+04  0.15149301572E+04  0.50400001928E-02 0. -1.
</event>
<event>
 5   0  0.3236653E-06  0.1895279E+04  0.7818609E-02  0.8657210E-01
       -1   -1    0    0    0  501  0.00000000000E+00  0.00000000000E+00  0.15165613733E+04  0.15165613733E+04  0.50400001928E-02 0.  1.
        1   -1    0    0  501    0  0.00000000000E+00  0.00000000000E+00 -0.59214245281E+03  0.59214245283E+03  0.50400001928E-02 0. -1.
    10030    2    1    2    0    0  0.00000000000E+00  0.00000000000E+00  0.92441892047E+03  0.21087038261E+04  0.18952787356E+04 0.  0.
        3    1    3    3  502    0  0.78427767977E+03  0.35841480505E+02  0.10526728242E+04  0.13132007370E+04  0.10100000352E+00 0.  1.
       -3    1    3    3    0  502 -0.78427767977E+03 -0.35841480505E+02 -0.12825390374E+03  0.79550308908E+03  0.10100000352E+00 0. -1.
</event>
<event>
 5   0  0.3495279E-06  0.1900309E+04  0.7818609E-02  0.8654702E-01
       -1   -1    0    0    0  501  0.00000000000E+00  0.00000000000E+00  0.42774944986E+03  0.42774944989E+03  0.50400001928E-02 0.  1.
        1   -1    0    0  501    0  0.00000000000E+00  0.00000000000E+00 -0.21105673723E+04  0.21105673723E+04  0.50400001928E-02 0. -1.
    10030    2    1    2    0    0  0.00000000000E+00  0.00000000000E+00 -0.16828179224E+04  0.25383168222E+04  0.19003094826E+04 0.  0.
        2    1    3    3  502    0  0.17335472834E+03  0.36925847009E+03 -0.19876489027E+04  0.20290765978E+04  0.25500000920E-02 0. -1.
       -2    1    3    3    0  502 -0.17335472834E+03 -0.36925847009E+03  0.30483098024E+03  0.50924022434E+03  0.25500000920E-02 0.  1.
</event>
<event>
 5   0  0.3211263E-06  0.1900170E+04  0.7818609E-02  0.8654772E-01
       -1   -1    0    0    0  501  0.00000000000E+00  0.00000000000E+00  0.13850292855E+04  0.13850292855E+04  0.50400001928E-02 0. -1.
        1   -1    0    0  501    0  0.00000000000E+00  0.00000000000E+00 -0.65172712237E+03  0.65172712239E+03  0.50400001928E-02 0.  1.
    10030    2    1    2    0    0  0.00000000000E+00  0.00000000000E+00  0.73330216310E+03  0.20367564079E+04  0.19001696247E+04 0.  0.
        5    1    3    3  502    0  0.21213825082E+03 -0.67916869000E+03 -0.30818001797E+03  0.77541586288E+03  0.46999998093E+01 0.  1.
       -5    1    3    3    0  502 -0.21213825082E+03  0.67916869000E+03  0.10414821811E+04  0.12613405450E+04  0.46999998093E+01 0. -1.
</event>
<event>
 5   0  0.7577180E-06  0.1898659E+04  0.7818609E-02  0.8655524E-01
        2   -1    0    0  501    0  0.00000000000E+00  0.00000000000E+00  0.19480723448E+04  0.19480723448E+04  0.25500000920E-02 0.  1.
       -2   -1    0    0    0  501  0.00000000000E+00  0.00000000000E+00 -0.46262486221E+03  0.46262486221E+03  0.25500000920E-02 0. -1.
    10030    2    1    2    0    0  0.00000000000E+00  0.00000000000E+00  0.14854474826E+04  0.24106972070E+04  0.18986592112E+04 0.  0.
        5    1    3    3  502    0 -0.79117219842E+03 -0.30922295957E+03  0.20459289350E+03  0.87375776297E+03  0.46999998093E+01 0. -1.
       -5    1    3    3    0  502  0.79117219842E+03  0.30922295957E+03  0.12808545891E+04  0.15369394440E+04  0.46999998093E+01 0.  1.
</event>
<event>
 5   0  0.7577180E-06  0.1900214E+04  0.7818609E-02  0.8654750E-01
       -2   -1    0    0    0  501  0.00000000000E+00  0.00000000000E+00  0.58284779549E+03  0.58284779550E+03  0.25500000920E-02 0. -1.
        2   -1    0    0  501    0  0.00000000000E+00  0.00000000000E+00 -0.15487801209E+04  0.15487801209E+04  0.25500000920E-02 0.  1.
    10030    2    1    2    0    0  0.00000000000E+00  0.00000000000E+00 -0.96593232537E+03  0.21316279164E+04  0.19002137555E+04 0.  0.
        5    1    3    3  502    0 -0.69523001247E+03 -0.53160725684E+03 -0.68164242008E+02  0.87784936045E+03  0.46999998093E+01 0. -1.
       -5    1    3    3    0  502  0.69523001247E+03  0.53160725684E+03 -0.89776808336E+03  0.12537785559E+04  0.46999998093E+01 0.  1.
</event>
<event>
 5   0  0.7577180E-06  0.1900172E+04  0.7818609E-02  0.8654771E-01
       -2   -1    0    0    0  501  0.00000000000E+00  0.00000000000E+00  0.40596213445E+03  0.40596213445E+03  0.25500000920E-02 0.  1.
        2   -1    0    0  501    0  0.00000000000E+00  0.00000000000E+00 -0.22235171456E+04  0.22235171456E+04  0.25500000920E-02 0. -1.
    10030    2    1    2    0    0  0.00000000000E+00  0.00000000000E+00 -0.18175550111E+04  0.26294792800E+04  0.19001723779E+04 0.  0.
        5    1    3    3  502    0  0.16621537802E+03 -0.80082629471E+03 -0.23982067918E+03  0.85234168873E+03  0.46999998093E+01 0.  1.
       -5    1    3    3    0  502 -0.16621537802E+03  0.80082629471E+03 -0.15777343320E+04  0.17771375913E+04  0.46999998093E+01 0. -1.
</event>
<event>
 5   0  0.3379108E-06  0.1900750E+04  0.7818609E-02  0.8654483E-01
        1   -1    0    0  501    0  0.00000000000E+00  0.00000000000E+00  0.64700668381E+03  0.64700668383E+03  0.50400001928E-02 0.  1.
       -1   -1    0    0    0  501  0.00000000000E+00  0.00000000000E+00 -0.13959863798E+04  0.13959863798E+04  0.50400001928E-02 0. -1.
    10030    2    1    2    0    0  0.00000000000E+00  0.00000000000E+00 -0.74897969599E+03  0.20429930636E+04  0.19007498713E+04 0.  0.
        4    1    3    3  502    0  0.50976645721E+03 -0.52196275838E+03 -0.10290847937E+04  0.12614769469E+04  0.12699999809E+01 0. -1.
       -4    1    3    3    0  502 -0.50976645721E+03  0.52196275838E+03  0.28010509773E+03  0.78151611673E+03  0.12699999809E+01 0.  1.
</event>
<event>
 5   0  0.6984466E-06  0.1899219E+04  0.7818609E-02  0.8655245E-01
       -2   -1    0    0    0  501  0.00000000000E+00  0.00000000000E+00  0.12367559161E+04  0.12367559161E+04  0.25500000920E-02 0.  1.
        2   -1    0    0  501    0  0.00000000000E+00  0.00000000000E+00 -0.72913225398E+03  0.72913225399E+03  0.25500000920E-02 0. -1.
    10030    2    1    2    0    0  0.00000000000E+00  0.00000000000E+00  0.50762366209E+03  0.19658881701E+04  0.18992194488E+04 0.  0.
        2    1    3    3  502    0  0.38802165068E+03  0.24096615848E+03  0.11155830616E+04  0.12054671535E+04  0.25500000920E-02 0.  1.
       -2    1    3    3    0  502 -0.38802165068E+03 -0.24096615848E+03 -0.60795939950E+03  0.76042101653E+03  0.25500000920E-02 0. -1.
</event>
<event>
 5   0  0.6862201E-06  0.1900720E+04  0.7818609E-02  0.8654498E-01
        2   -1    0    0  501    0  0.00000000000E+00  0.00000000000E+00  0.87124223835E+03  0.87124223835E+03  0.25500000920E-02 0.  1.
       -2   -1    0    0    0  501  0.00000000000E+00  0.00000000000E+00 -0.10366630049E+04  0.10366630049E+04  0.25500000920E-02 0. -1.
    10030    2    1    2    0    0  0.00000000000E+00  0.00000000000E+00 -0.16542076659E+03  0.19079052433E+04  0.19007204916E+04 0.  0.
        3    1    3    3  502    0  0.54712729418E+03  0.23574259737E+03  0.66053550283E+03  0.88951110670E+03  0.10100000352E+00 0.  1.
       -3    1    3    3    0  502 -0.54712729418E+03 -0.23574259737E+03 -0.82595626942E+03  0.10183941366E+04  0.10100000352E+00 0. -1.
</event>
<event>
 5   0  0.3236653E-06  0.1900109E+04  0.7818609E-02  0.8654802E-01
        1   -1    0    0  501    0  0.00000000000E+00  0.00000000000E+00  0.11341090920E+04  0.11341090920E+04  0.50400001928E-02 0. -1.
       -1   -1    0    0    0  501  0.00000000000E+00  0.00000000000E+00 -0.79587051333E+03  0.79587051334E+03  0.50400001928E-02 0.  1.
    10030    2    1    2    0    0  0.00000000000E+00  0.00000000000E+00  0.33823857869E+03  0.19299796054E+04  0.19001094550E+04 0.  0.
        3    1    3    3  502    0  0.80628509042E+03 -0.43992849573E+03  0.41577674946E+03  0.10082177562E+04  0.10100000352E+00 0. -1.
       -3    1    3    3    0  502 -0.80628509042E+03  0.43992849573E+03 -0.77538170775E+02  0.92176184913E+03  0.10100000352E+00 0.  1.
</event>
<event>
 5   0  0.6862201E-06  0.1897303E+04  0.7818609E-02  0.8656200E-01
       -2   -1    0    0    0  501  0.00000000000E+00  0.00000000000E+00  0.16292454921E+04  0.16292454921E+04  0.25500000920E-02 0.  1.
        2   -1    0    0  501    0  0.00000000000E+00  0.00000000000E+00 -0.55236589724E+03  0.55236589725E+03  0.25500000920E-02 0. -1.
    10030    2    1    2    0    0  0.00000000000E+00  0.00000000000E+00  0.10768795949E+04  0.21816113894E+04  0.18973029785E+04 0.  0.
        3    1    3    3  502    0 -0.85823199316E+03  0.25970274294E+03  0.89458113318E+03  0.12666029697E+04  0.10100000352E+00 0. -1.
       -3    1    3    3    0  502  0.85823199316E+03 -0.25970274294E+03  0.18229846171E+03  0.91500841969E+03  0.10100000352E+00 0.  1.
</event>
<event>
 5   0  0.3379108E-06  0.1900065E+04  0.7818609E-02  0.8654824E-01
        1   -1    0    0  501    0  0.00000000000E+00  0.00000000000E+00  0.13196673317E+04  0.13196673317E+04  0.50400001928E-02 0.  1.
       -1   -1    0    0    0  501  0.00000000000E+00  0.00000000000E+00 -0.68393140231E+03  0.68393140233E+03  0.50400001928E-02 0. -1.
    10030    2    1    2    0    0  0.00000000000E+00  0.00000000000E+00  0.63573592939E+03  0.20035987340E+04  0.19000651871E+04 0.  0.
        4    1    3    3  502    0  0.18947416560E+02 -0.26064487340E+03 -0.64528309275E+03  0.69619439620E+03  0.12699999809E+01 0. -1.
       -4    1    3    3    0  502 -0.18947416560E+02  0.26064487340E+03  0.12810190221E+04  0.13074043378E+04  0.12699999809E+01 0.  1.
</event>
<event>
 5   0  0.7577180E-06  0.1899459E+04  0.7818609E-02  0.8655126E-01
        2   -1    0    0  501    0  0.00000000000E+00  0.00000000000E+00  0.17436708959E+04  0.17436708959E+04  0.25500000920E-02 0. -1.
       -2   -1    0    0    0  501  0.00000000000E+00  0.00000000000E+00 -0.51729129950E+03  0.51729129950E+03  0.25500000920E-02 0.  1.
    10030    2    1    2    0    0  0.00000000000E+00  0.00000000000E+00  0.12263795964E+04  0.22609621954E+04  0.18994586425E+04 0.  0.
        5    1    3    3  502    0  0.77703984036E+03  0.41575373906E+03  0.19180735279E+03  0.90191697824E+03  0.46999998093E+01 0.  1.
       -5    1    3    3    0  502 -0.77703984036E+03 -0.41575373906E+03  0.10345722436E+04  0.13590452172E+04  0.46999998093E+01 0. -1.
</event>
<event>
 5   0  0.3236653E-06  0.1900671E+04  0.7818609E-02  0.8654522E-01
        1   -1    0    0  501    0  0.00000000000E+00  0.00000000000E+00  0.18301290188E+04  0.18301290188E+04  0.50400001928E-02 0. -1.
       -1   -1    0    0    0  501  0.00000000000E+00  0.00000000000E+00 -0.49348303596E+03  0.49348303599E+03  0.50400001928E-02 0.  1.
    10030    2    1    2    0    0  0.00000000000E+00  0.00000000000E+00  0.13366459828E+04  0.23236120548E+04  0.19006710651E+04 0.  0.
        3    1    3    3  502    0  0.70718424534E+03  0.23255400739E+01 -0.10778362233E+03  0.71535465640E+03  0.10100000352E+00 0.  1.
       -3    1    3    3    0  502 -0.70718424534E+03 -0.23255400739E+01  0.14444296051E+04  0.16082573984E+04  0.10100000352E+00 0. -1.
</event>
<event>
 5   0  0.6984466E-06  0.1899564E+04  0.7818609E-02  0.8655073E-01
       -2   -1    0    0    0  501  0.00000000000E+00  0.00000000000E+00  0.75467090696E+03  0.75467090697E+03  0.25500000920E-02 0. -1.
        2   -1    0    0  501    0  0.00000000000E+00  0.00000000000E+00 -0.11953373377E+04  0.11953373377E+04  0.25500000920E-02 0.  1.
    10030    2    1    2    0    0  0.00000000000E+00  0.00000000000E+00 -0.44066643074E+03  0.19500082447E+04  0.18995644899E+04 0.  0.
        2    1    3    3  502    0  0.37480722432E+03  0.56454337556E+03 -0.90351077920E+03  0.11293898381E+04  0.25500000920E-02 0.  1.
       -2    1    3    3    0  502 -0.37480722432E+03 -0.56454337556E+03  0.46284434846E+03  0.82061840656E+03  0.25500000920E-02 0. -1.
</event>
<event>
 5   0  0.3211263E-06  0.1894259E+04  0.7818609E-02  0.8657719E-01
       -1   -1    0    0    0  501  0.00000000000E+00  0.00000000000E+00  0.62501101521E+03  0.62501101523E+03  0.50400001928E-02 0.  1.
        1   -1    0    0  501    0  0.00000000000E+00  0.00000000000E+00 -0.14352618292E+04  0.14352618292E+04  0.50400001928E-02 0. -1.
    10030    2    1    2    0    0  0.00000000000E+00  0.00000000000E+00 -0.81025081395E+03  0.20602728444E+04  0.18942591723E+04 0.  0.
        5    1    3    3  502    0  0.20474450423E+03 -0.62022304137E+03  0.34086862077E+03  0.73675670318E+03  0.46999998093E+01 0.  1.
       -5    1    3    3    0  502 -0.20474450423E+03  0.62022304137E+03 -0.11511194347E+04  0.13235161412E+04  0.46999998093E+01 0. -1.
</event>
<event>
 5   0  0.3495279E-06  0.1900280E+04  0.7818609E-02  0.8654717E-01
        1   -1    0    0  501    0  0.00000000000E+00  0.00000000000E+00  0.11918349204E+04  0.11918349204E+04  0.50400001928E-02 0.  1.
       -1   -1    0    0    0  501  0.00000000000E+00  0.00000000000E+00 -0.75745876881E+03  0.75745876882E+03  0.50400001928E-02 0. -1.
    10030    2    1    2    0    0  0.00000000000E+00  0.00000000000E+00  0.43437615158E+03  0.19492936892E+04  0.19002797809E+04 0.  0.
        2    1    3    3  502    0  0.58938449730E+03  0.39240349594E+03  0.86709996855E+03  0.11194717257E+04  0.25500000920E-02 0.  1.
       -2    1    3    3    0  502 -0.58938449730E+03 -0.39240349594E+03 -0.43272381697E+03  0.82982196347E+03  0.25500000920E-02 0. -1.
</event>
<event>
 5   0  0.3211263E-06  0.1900119E+04  0.7818609E-02  0.8654797E-01
       -1   -1    0    0    0  501  0.00000000000E+00  0.00000000000E+00  0.57694474962E+03  0.57694474964E+03  0.50400001928E-02 0.  1.
        1   -1    0    0  501    0  0.00000000000E+00  0.00000000000E+00 -0.15644708402E+04  0.15644708402E+04  0.50400001928E-02 0. -1.
    10030    2    1    2    0    0  0.00000000000E+00  0.00000000000E+00 -0.98752609062E+03  0.21414155899E+04  0.19001191934E+04 0.  0.
        5    1    3    3  502    0  0.27066816827E+03  0.32367624764E+03  0.46554561360E+03  0.62831710063E+03  0.46999998093E+01 0.  1.
       -5    1    3    3    0  502 -0.27066816827E+03 -0.32367624764E+03 -0.14530717042E+04  0.15130984893E+04  0.46999998093E+01 0. -1.
</event>
<event>
 5   0  0.7577180E-06  0.1899871E+04  0.7818609E-02  0.8654921E-01
        2   -1    0    0  501    0  0.00000000000E+00  0.00000000000E+00  0.49074451788E+03  0.49074451789E+03  0.25500000920E-02 0.  1.
       -2   -1    0    0    0  501  0.00000000000E+00  0.00000000000E+00 -0.18387924311E+04  0.18387924311E+04  0.25500000920E-02 0. -1.
    10030    2    1    2    0    0  0.00000000000E+00  0.00000000000E+00 -0.13480479132E+04  0.23295369489E+04  0.18998708431E+04 0.  0.
        5    1    3    3  502    0  0.62006770319E+03 -0.70410145194E+03 -0.85635621228E+03  0.12702798367E+04  0.46999998093E+01 0. -1.
       -5    1    3    3    0  502 -0.62006770319E+03  0.70410145194E+03 -0.49169170089E+03  0.10592571123E+04  0.46999998093E+01 0.  1.
</event>
<event>
 5   0  0.3211263E-06  0.1899295E+04  0.7818609E-02  0.8655207E-01
       -1   -1    0    0    0  501  0.00000000000E+00  0.00000000000E+00  0.59891047313E+03  0.59891047316E+03  0.50400001928E-02 0.  1.
        1   -1    0    0  501    0  0.00000000000E+00  0.00000000000E+00 -0.15057850327E+04  0.15057850327E+04  0.50400001928E-02 0. -1.
    10030    2    1    2    0    0  0.00000000000E+00  0.00000000000E+00 -0.90687455957E+03  0.21046955059E+04  0.18992950549E+04 0.  0.
        5    1    3    3  502    0  0.64565339827E+02  0.49714449972E+03 -0.13471874693E+04  0.14374482614E+04  0.46999998093E+01 0. -1.
       -5    1    3    3    0  502 -0.64565339827E+02 -0.49714449972E+03  0.44031290977E+03  0.66724724445E+03  0.46999998093E+01 0.  1.
</event>
<event>
 5   0  0.6870370E-06  0.1900425E+04  0.7818609E-02  0.8654645E-01
       -2   -1    0    0    0  501  0.00000000000E+00  0.00000000000E+00  0.13536969639E+04  0.13536969639E+04  0.25500000920E-02 0.  1.
        2   -1    0    0  501    0  0.00000000000E+00  0.00000000000E+00 -0.66699116091E+03  0.66699116091E+03  0.25500000920E-02 0. -1.
    10030    2    1    2    0    0  0.00000000000E+00  0.00000000000E+00  0.68670580296E+03  0.20206881248E+04  0.19004251203E+04 0.  0.
        1    1    3    3  502    0  0.13494056034E+03 -0.52484523075E+03  0.11732801741E+04  0.12923845550E+04  0.50400001928E-02 0.  1.
       -1    1    3    3    0  502 -0.13494056034E+03  0.52484523075E+03 -0.48657437115E+03  0.72830356977E+03  0.50400001928E-02 0. -1.
</event>
<event>
 5   0  0.7577180E-06  0.1899993E+04  0.7818609E-02  0.8654860E-01
        2   -1    0    0  501    0  0.00000000000E+00  0.00000000000E+00  0.31667465830E+04  0.31667465830E+04  0.25500000920E-02 0.  1.
       -2   -1    0    0    0  501  0.00000000000E+00  0.00000000000E+00 -0.28499065601E+03  0.28499065602E+03  0.25500000920E-02 0. -1.
    10030    2    1    2    0    0  0.00000000000E+00  0.00000000000E+00  0.28817559270E+04  0.34517372391E+04  0.18999928275E+04 0.  0.
        5    1    3    3  502    0 -0.74700356251E+03  0.32749791001E+03  0.55607851865E+03  0.98717506673E+03  0.46999998093E+01 0.  1.
       -5    1    3    3    0  502  0.74700356251E+03 -0.32749791001E+03  0.23256774084E+04  0.24645621723E+04  0.46999998093E+01 0. -1.
</event>
<event>
 5   0  0.7577180E-06  0.1904066E+04  0.7818609E-02  0.8652835E-01
       -2   -1    0    0    0  501  0.00000000000E+00  0.00000000000E+00  0.18799334404E+04  0.18799334404E+04  0.25500000920E-02 0.  1.
        2   -1    0    0  501    0  0.00000000000E+00  0.00000000000E+00 -0.48212723756E+03  0.48212723756E+03  0.25500000920E-02 0. -1.
    10030    2    1    2    0    0  0.00000000000E+00  0.00000000000E+00  0.13978062029E+04  0.23620606780E+04  0.19040662976E+04 0.  0.
        5    1    3    3  502    0 -0.49079176672E+03 -0.50556340682E+02 -0.31113346299E+03  0.58331691528E+03  0.46999998093E+01 0. -1.
       -5    1    3    3    0  502  0.49079176672E+03  0.50556340682E+02  0.17089396658E+04  0.17787437627E+04  0.46999998093E+01 0.  1.
</event>
<event>
 5   0  0.3211263E-06  0.1899437E+04  0.7818609E-02  0.8655136E-01
       -1   -1    0    0    0  501  0.00000000000E+00  0.00000000000E+00  0.73631383966E+03  0.73631383968E+03  0.50400001928E-02 0.  1.
        1   -1    0    0  501    0  0.00000000000E+00  0.00000000000E+00 -0.12249743889E+04  0.12249743889E+04  0.50400001928E-02 0. -1.
    10030    2    1    2    0    0  0.00000000000E+00  0.00000000000E+00 -0.48866054919E+03  0.19612882285E+04  0.18994373859E+04 0.  0.
        5    1    3    3  502    0 -0.20697106297E+03 -0.53240303121E+03 -0.10277545303E+04  0.11758364993E+04  0.46999998093E+01 0. -1.
       -5    1    3    3    0  502  0.20697106297E+03  0.53240303121E+03  0.53909398109E+03  0.78545172926E+03  0.46999998093E+01 0.  1.
</event>
<event>
 5   0  0.3211263E-06  0.1901399E+04  0.7818609E-02  0.8654160E-01
        1   -1    0    0  501    0  0.00000000000E+00  0.00000000000E+00  0.66251113093E+03  0.66251113095E+03  0.50400001928E-02 0. -1.
       -1   -1    0    0    0  501  0.00000000000E+00  0.00000000000E+00 -0.13642480610E+04  0.13642480611E+04  0.50400001928E-02 0.  1.
    10030    2    1    2    0    0  0.00000000000E+00  0.00000000000E+00 -0.70173693011E+03  0.20267591920E+04  0.19013989858E+04 0.  0.
        5    1    3    3  502    0  0.78567941493E+03  0.28006287094E+02 -0.92064889541E+03  0.12106580747E+04  0.46999998093E+01 0. -1.
       -5    1    3    3    0  502 -0.78567941493E+03 -0.28006287094E+02  0.21891196530E+03  0.81610111733E+03  0.46999998093E+01 0.  1.
</event>
<event>
 5   0  0.7577180E-06  0.1896257E+04  0.7818609E-02  0.8656722E-01
        2   -1    0    0  501    0  0.00000000000E+00  0.00000000000E+00  0.21181004851E+04  0.21181004851E+04  0.25500000920E-02 0.  1.
       -2   -1    0    0    0  501  0.00000000000E+00  0.00000000000E+00 -0.42441197732E+03  0.42441197733E+03  0.25500000920E-02 0. -1.
    10030    2    1    2    0    0  0.00000000000E+00  0.00000000000E+00  0.16936885078E+04  0.25425124624E+04  0.18962565386E+04 0.  0.
        5    1    3    3  502    0 -0.33789355015E+03 -0.69908130107E+01 -0.34088919777E+03  0.48005047427E+03  0.46999998093E+01 0. -1.
       -5    1    3    3    0  502  0.33789355015E+03  0.69908130107E+01  0.20345777055E+04  0.20624619882E+04  0.46999998093E+01 0.  1.
</event>
<event>
 5   0  0.3379108E-06  0.1899913E+04  0.7818609E-02  0.8654900E-01
       -1   -1    0    0    0  501  0.00000000000E+00  0.00000000000E+00  0.72620929346E+03  0.72620929347E+03  0.50400001928E-02 0. -1.
        1   -1    0    0  501    0  0.00000000000E+00  0.00000000000E+00 -0.12426404685E+04  0.12426404686E+04  0.50400001928E-02 0.  1.
    10030    2    1    2    0    0  0.00000000000E+00  0.00000000000E+00 -0.51643117509E+03  0.19688497620E+04  0.18999126893E+04 0.  0.
        4    1    3    3  502    0 -0.51731482102E+03  0.66107899412E+03 -0.71907138116E+03  0.11053077963E+04  0.12699999809E+01 0.  1.
       -4    1    3    3    0  502  0.51731482102E+03 -0.66107899412E+03  0.20264020607E+03  0.86354196570E+03  0.12699999809E+01 0. -1.
</event>
<event>
 5   0  0.6870370E-06  0.1900940E+04  0.7818609E-02  0.8654389E-01
        2   -1    0    0  501    0  0.00000000000E+00  0.00000000000E+00  0.19476239330E+04  0.19476239330E+04  0.25500000920E-02 0. -1.
       -2   -1    0    0    0  501  0.00000000000E+00  0.00000000000E+00 -0.46384369051E+03  0.46384369052E+03  0.25500000920E-02 0.  1.
    10030    2    1    2    0    0  0.00000000000E+00  0.00000000000E+00  0.14837802425E+04  0.24114676236E+04  0.19009398442E+04 0.  0.
        1    1    3    3  502    0  0.33383261279E+03  0.72260572509E+03  0.14007997369E+04  0.16111620497E+04  0.50400001928E-02 0. -1.
       -1    1    3    3    0  502 -0.33383261279E+03 -0.72260572509E+03  0.82980505622E+02  0.80030557391E+03  0.50400001928E-02 0.  1.
</event>
<event>
 5   0  0.3211263E-06  0.1899497E+04  0.7818609E-02  0.8655107E-01
       -1   -1    0    0    0  501  0.00000000000E+00  0.00000000000E+00  0.13083273430E+04  0.13083273430E+04  0.50400001928E-02 0.  1.
        1   -1    0    0  501    0  0.00000000000E+00  0.00000000000E+00 -0.68944720132E+03  0.68944720134E+03  0.50400001928E-02 0. -1.
    10030    2    1    2    0    0  0.00000000000E+00  0.00000000000E+00  0.61888014163E+03  0.19977745443E+04  0.18994974336E+04 0.  0.
        5    1    3    3  502    0 -0.88906896948E+03  0.30674187528E+03  0.17044207891E+03  0.95582781023E+03  0.46999998093E+01 0. -1.
       -5    1    3    3    0  502  0.88906896948E+03 -0.30674187528E+03  0.44843806272E+03  0.10419467341E+04  0.46999998093E+01 0.  1.
</event>
<event>
 5   0  0.3398807E-06  0.1899613E+04  0.7818609E-02  0.8655049E-01
        1   -1    0    0  501    0  0.00000000000E+00  0.00000000000E+00  0.11729712887E+04  0.11729712887E+04  0.50400001928E-02 0.  1.
       -1   -1    0    0    0  501  0.00000000000E+00  0.00000000000E+00 -0.76910033650E+03  0.76910033652E+03  0.50400001928E-02 0. -1.
    10030    2    1    2    0    0  0.00000000000E+00  0.00000000000E+00  0.40387095217E+03  0.19420716252E+04  0.18996132373E+04 0.  0.
        1    1    3    3  502    0  0.16800671693E+03 -0.27486370665E+03  0.11154141941E+04  0.11610017824E+04  0.50400001928E-02 0.  1.
       -1    1    3    3    0  502 -0.16800671693E+03  0.27486370665E+03 -0.71154324196E+03  0.78106984283E+03  0.50400001928E-02 0. -1.
</event>
<event>
 5   0  0.3398807E-06  0.1899938E+04  0.7818609E-02  0.8654887E-01
        1   -1    0    0  501    0  0.00000000000E+00  0.00000000000E+00  0.11305654171E+04  0.11305654171E+04  0.50400001928E-02 0. -1.
       -1   -1    0    0    0  501  0.00000000000E+00  0.00000000000E+00 -0.79822110311E+03  0.79822110312E+03  0.50400001928E-02 0.  1.
    10030    2    1    2    0    0  0.00000000000E+00  0.00000000000E+00  0.33234431401E+03  0.19287865203E+04  0.18999380773E+04 0.  0.
        1    1    3    3  502    0  0.65512106414E+03  0.66255485402E+03 -0.21783954132E+02  0.93200701926E+03  0.50400001928E-02 0.  1.
       -1    1    3    3    0  502 -0.65512106414E+03 -0.66255485402E+03  0.35412826814E+03  0.99677950099E+03  0.50400001928E-02 0. -1.
</event>
<event>
 5   0  0.3379108E-06  0.1901287E+04  0.7818609E-02  0.8654216E-01
        1   -1    0    0  501    0  0.00000000000E+00  0.00000000000E+00  0.83373310464E+03  0.83373310465E+03  0.50400001928E-02 0.  1.
       -1   -1    0    0    0  501  0.00000000000E+00  0.00000000000E+00 -0.10839473630E+04  0.10839473630E+04  0.50400001928E-02 0. -1.
    10030    2    1    2    0    0  0.00000000000E+00  0.00000000000E+00 -0.25021425834E+03  0.19176804676E+04  0.19012867224E+04 0.  0.
        4    1    3    3  502    0  0.57745208286E+02  0.89620663130E+03  0.18935079912E+03  0.91781053224E+03  0.12699999809E+01 0.  1.
       -4    1    3    3    0  502 -0.57745208286E+02 -0.89620663130E+03 -0.43956505747E+03  0.99986993540E+03  0.12699999809E+01 0. -1.
</event>
<event>
 5   0  0.7207648E-06  0.1899477E+04  0.7818609E-02  0.8655117E-01
       -2   -1    0    0    0  501  0.00000000000E+00  0.00000000000E+00  0.88969826577E+03  0.88969826578E+03  0.25500000920E-02 0. -1.
        2   -1    0    0  501    0  0.00000000000E+00  0.00000000000E+00 -0.10138300268E+04  0.10138300268E+04  0.25500000920E-02 0.  1.
    10030    2    1    2    0    0  0.00000000000E+00  0.00000000000E+00 -0.12413176104E+03  0.19035282926E+04  0.18994765770E+04 0.  0.
        4    1    3    3  502    0 -0.35096312498E+03 -0.49466484812E+03  0.67033694012E+03  0.90400312679E+03  0.12699999809E+01 0. -1.
       -4    1    3    3    0  502  0.35096312498E+03  0.49466484812E+03 -0.79446870115E+03  0.99952516580E+03  0.12699999809E+01 0.  1.
</event>
<event>
 5   0  0.6862201E-06  0.1903429E+04  0.7818609E-02  0.8653152E-01
       -2   -1    0    0    0  501  0.00000000000E+00  0.00000000000E+00  0.47849005249E+03  0.47849005249E+03  0.25500000920E-02 0. -1.
        2   -1    0    0  501    0  0.00000000000E+00  0.00000000000E+00 -0.18929553818E+04  0.18929553818E+04  0.25500000920E-02 0.  1.
    10030    2    1    2    0    0  0.00000000000E+00  0.00000000000E+00 -0.14144653293E+04  0.23714454343E+04  0.19034288219E+04 0.  0.
        3    1    3    3  502    0  0.32385500645E+03 -0.27354083296E+03 -0.17688325275E+04  0.18189214313E+04  0.10100000352E+00 0.  1.
       -3    1    3    3    0  502 -0.32385500645E+03  0.27354083296E+03  0.35436719823E+03  0.55252400300E+03  0.10100000352E+00 0. -1.
</event>
<event>
 5   0  0.3379108E-06  0.1900187E+04  0.7818609E-02  0.8654763E-01
       -1   -1    0    0    0  501  0.00000000000E+00  0.00000000000E+00  0.56929354509E+03  0.56929354511E+03  0.50400001928E-02 0. -1.
        1   -1    0    0  501    0  0.00000000000E+00  0.00000000000E+00 -0.15856097978E+04  0.15856097978E+04  0.50400001928E-02 0.  1.
    10030    2    1    2    0    0  0.00000000000E+00  0.00000000000E+00 -0.10163162527E+04  0.21549033429E+04  0.19001867518E+04 0.  0.
        4    1    3    3  502    0 -0.85686149671E+03 -0.33040648605E+03 -0.23200926695E+03  0.94721168881E+03  0.12699999809E+01 0. -1.
       -4    1    3    3    0  502  0.85686149671E+03  0.33040648605E+03 -0.78430698574E+03  0.12076916541E+04  0.12699999809E+01 0.  1.
</event>
<event>
 5   0  0.7577180E-06  0.1899248E+04  0.7818609E-02  0.8655231E-01
       -2   -1    0    0    0  501  0.00000000000E+00  0.00000000000E+00  0.96928419170E+03  0.96928419171E+03  0.25500000920E-02 0. -1.
        2   -1    0    0  501    0  0.00000000000E+00  0.00000000000E+00 -0.93036215734E+03  0.93036215734E+03  0.25500000920E-02 0.  1.
    10030    2    1    2    0    0  0.00000000000E+00  0.00000000000E+00  0.38922034364E+02  0.18996463490E+04  0.18992475686E+04 0.  0.
        5    1    3    3  502    0 -0.65272081075E+03 -0.26782177490E+03 -0.61627473715E+03  0.93679752431E+03  0.46999998093E+01 0.  1.
       -5    1    3    3    0  502  0.65272081075E+03  0.26782177490E+03  0.65519677151E+03  0.96284882474E+03  0.46999998093E+01 0. -1.
</event>
<event>
 5   0  0.6862201E-06  0.1899640E+04  0.7818609E-02  0.8655036E-01
        2   -1    0    0  501    0  0.00000000000E+00  0.00000000000E+00  0.73519337166E+03  0.73519337167E+03  0.25500000920E-02 0. -1.
       -2   -1    0    0    0  501  0.00000000000E+00  0.00000000000E+00 -0.12271024748E+04  0.12271024748E+04  0.25500000920E-02 0.  1.
    10030    2    1    2    0    0  0.00000000000E+00  0.00000000000E+00 -0.49190910317E+03  0.19622958465E+04  0.18996395509E+04 0.  0.
        3    1    3    3  502    0  0.91560666422E+03 -0.66982119951E+02  0.56684392056E+01  0.91807097186E+03  0.10100000352E+00 0. -1.
       -3    1    3    3    0  502 -0.91560666422E+03  0.66982119951E+02 -0.49757754238E+03  0.10442248747E+04  0.10100000352E+00 0.  1.
</event>
<event>
 5   0  0.7207648E-06  0.1893748E+04  0.7818609E-02  0.8657974E-01
        2   -1    0    0  501    0  0.00000000000E+00  0.00000000000E+00  0.15015389995E+04  0.15015389995E+04  0.25500000920E-02 0. -1.
       -2   -1    0    0    0  501  0.00000000000E+00  0.00000000000E+00 -0.59710116532E+03  0.59710116532E+03  0.25500000920E-02 0.  1.
    10030    2    1    2    0    0  0.00000000000E+00  0.00000000000E+00  0.90443783415E+03  0.20986401648E+04  0.18937483321E+04 0.  0.
        4    1    3    3  502    0 -0.46832049614E+03 -0.44897608625E+02  0.13628475916E+04  0.14417680303E+04  0.12699999809E+01 0. -1.
       -4    1    3    3    0  502  0.46832049614E+03  0.44897608625E+02 -0.45840975749E+03  0.65687213446E+03  0.12699999809E+01 0.  1.
</event>
<event>
 5   0  0.6984466E-06  0.1894090E+04  0.7818609E-02  0.8657804E-01
        2   -1    0    0  501    0  0.00000000000E+00  0.00000000000E+00  0.11490557072E+04  0.11490557072E+04  0.25500000920E-02 0.  1.
       -2   -1    0    0    0  501  0.00000000000E+00  0.00000000000E+00 -0.78054890349E+03  0.78054890350E+03  0.25500000920E-02 0. -1.
    10030    2    1    2    0    0  0.00000000000E+00  0.00000000000E+00  0.36850680373E+03  0.19296046107E+04  0.18940899370E+04 0.  0.
        2    1    3    3  502    0  0.29957803041E+03  0.26289353856E+03 -0.69094388826E+03  0.79766124743E+03  0.25500000920E-02 0. -1.
       -2    1    3    3    0  502 -0.29957803041E+03 -0.26289353856E+03  0.10594506920E+04  0.11319433633E+04  0.25500000920E-02 0.  1.
</event>
<event>
 5   0  0.6984466E-06  0.1900407E+04  0.7818609E-02  0.8654654E-01
       -2   -1    0    0    0  501  0.00000000000E+00  0.00000000000E+00  0.10705303024E+04  0.10705303024E+04  0.25500000920E-02 0.  1.
        2   -1    0    0  501    0  0.00000000000E+00  0.00000000000E+00 -0.84340118119E+03  0.84340118120E+03  0.25500000920E-02 0. -1.
    10030    2    1    2    0    0  0.00000000000E+00  0.00000000000E+00  0.22712912116E+03  0.19139314836E+04  0.19004068212E+04 0.  0.
        2    1    3    3  502    0 -0.66504867287E+03 -0.67000383964E+03  0.46671616713E+01  0.94404272404E+03  0.25500000920E-02 0. -1.
       -2    1    3    3    0  502  0.66504867287E+03  0.67000383964E+03  0.22246195949E+03  0.96988875952E+03  0.25500000920E-02 0.  1.
</event>
<event>
 5   0  0.6984466E-06  0.1900379E+04  0.7818609E-02  0.8654668E-01
       -2   -1    0    0    0  501  0.00000000000E+00  0.00000000000E+00  0.80799413799E+03  0.80799413799E+03  0.25500000920E-02 0.  1.
        2   -1    0    0  501    0  0.00000000000E+00  0.00000000000E+00 -0.11174092565E+04  0.11174092565E+04  0.25500000920E-02 0. -1.
    10030    2    1    2    0    0  0.00000000000E+00  0.00000000000E+00 -0.30941511852E+03  0.19254033945E+04  0.19003790454E+04 0.  0.
        2    1    3    3  502    0 -0.77735540934E+03  0.54198753836E+03 -0.84307286195E+02  0.95138827125E+03  0.25500000920E-02 0.  1.
       -2    1    3    3    0  502  0.77735540934E+03 -0.54198753836E+03 -0.22510783233E+03  0.97401512326E+03  0.25500000920E-02 0. -1.
</event>
<event>
 5   0  0.6862201E-06  0.1900298E+04  0.7818609E-02  0.8654708E-01
       -2   -1    0    0    0  501  0.00000000000E+00  0.00000000000E+00  0.58933163706E+03  0.58933163707E+03  0.25500000920E-02 0. -1.
        2   -1    0    0  501    0  0.00000000000E+00  0.00000000000E+00 -0.15318763874E+04  0.15318763874E+04  0.25500000920E-02 0.  1.
    10030    2    1    2    0    0  0.00000000000E+00  0.00000000000E+00 -0.94254475031E+03  0.21212080244E+04  0.19002981020E+04 0.  0.
        3    1    3    3  502    0  0.68001265843E+02  0.15790893970E+03  0.57182369612E+03  0.59711117478E+03  0.10100000352E+00 0. -1.
       -3    1    3    3    0  502 -0.68001265843E+02 -0.15790893970E+03 -0.15143684464E+04  0.15240968497E+04  0.10100000352E+00 0.  1.
</event>
<event>
 5   0  0.7207648E-06  0.1900072E+04  0.7818609E-02  0.8654821E-01
        2   -1    0    0  501    0  0.00000000000E+00  0.00000000000E+00  0.11146346544E+04  0.11146346544E+04  0.25500000920E-02 0.  1.
       -2   -1    0    0    0  501  0.00000000000E+00  0.00000000000E+00 -0.80974344204E+03  0.80974344205E+03  0.25500000920E-02 0. -1.
    10030    2    1    2    0    0  0.00000000000E+00  0.00000000000E+00  0.30489121237E+03  0.19243780965E+04  0.19000716846E+04 0.  0.
        4    1    3    3  502    0 -0.36509708924E+03  0.29495942890E+03 -0.68411692714E+03  0.82964723357E+03  0.12699999809E+01 0. -1.
       -4    1    3    3    0  502  0.36509708924E+03 -0.29495942890E+03  0.98900813951E+03  0.10947308629E+04  0.12699999809E+01 0.  1.
</event>
<event>
 5   0  0.6870370E-06  0.1899311E+04  0.7818609E-02  0.8655200E-01
        2   -1    0    0  501    0  0.00000000000E+00  0.00000000000E+00  0.18669206437E+04  0.18669206437E+04  0.25500000920E-02 0. -1.
       -2   -1    0    0    0  501  0.00000000000E+00  0.00000000000E+00 -0.48306558412E+03  0.48306558413E+03  0.25500000920E-02 0.  1.
    10030    2    1    2    0    0  0.00000000000E+00  0.00000000000E+00  0.13838550596E+04  0.23499862279E+04  0.18993105184E+04 0.  0.
        1    1    3    3  502    0  0.48484573887E+03  0.16794792186E+03 -0.29678785651E+03  0.59276042948E+03  0.50400001928E-02 0.  1.
       -1    1    3    3    0  502 -0.48484573887E+03 -0.16794792186E+03  0.16806429161E+04  0.17572257984E+04  0.50400001928E-02 0. -1.
</event>
<event>
 5   0  0.3398807E-06  0.1899902E+04  0.7818609E-02  0.8654905E-01
       -1   -1    0    0    0  501  0.00000000000E+00  0.00000000000E+00  0.61824892274E+03  0.61824892277E+03  0.50400001928E-02 0. -1.
        1   -1    0    0  501    0  0.00000000000E+00  0.00000000000E+00 -0.14596168090E+04  0.14596168090E+04  0.50400001928E-02 0.  1.
    10030    2    1    2    0    0  0.00000000000E+00  0.00000000000E+00 -0.84136788623E+03  0.20778657317E+04  0.18999015972E+04 0.  0.
        1    1    3    3  502    0  0.24478841951E+03 -0.60371351202E+03 -0.11768326279E+04  0.13451120433E+04  0.50400001928E-02 0.  1.
       -1    1    3    3    0  502 -0.24478841951E+03  0.60371351202E+03  0.33546474171E+03  0.73275368841E+03  0.50400001928E-02 0. -1.
</event>
<event>
 5   0  0.3236653E-06  0.1900323E+04  0.7818609E-02  0.8654696E-01
        1   -1    0    0  501    0  0.00000000000E+00  0.00000000000E+00  0.88600843328E+03  0.88600843329E+03  0.50400001928E-02 0. -1.
       -1   -1    0    0    0  501  0.00000000000E+00  0.00000000000E+00 -0.10189594409E+04  0.10189594409E+04  0.50400001928E-02 0.  1.
    10030    2    1    2    0    0  0.00000000000E+00  0.00000000000E+00 -0.13295100764E+03  0.19049678742E+04  0.19003227703E+04 0.  0.
        3    1    3    3  502    0  0.76604101042E+03 -0.31069377137E+03 -0.53608319288E+03  0.98525867117E+03  0.10100000352E+00 0.  1.
       -3    1    3    3    0  502 -0.76604101042E+03  0.31069377137E+03  0.40313218524E+03  0.91970920306E+03  0.10100000352E+00 0. -1.
</event>
<event>
 5   0  0.3398807E-06  0.1900594E+04  0.7818609E-02  0.8654561E-01
        1   -1    0    0  501    0  0.00000000000E+00  0.00000000000E+00  0.21601878421E+04  0.21601878421E+04  0.50400001928E-02 0.  1.
       -1   -1    0    0    0  501  0.00000000000E+00  0.00000000000E+00 -0.41804892013E+03  0.41804892016E+03  0.50400001928E-02 0. -1.
    10030    2    1    2    0    0  0.00000000000E+00  0.00000000000E+00  0.17421389220E+04  0.25782367623E+04  0.19005937964E+04 0.  0.
        1    1    3    3  502    0 -0.93460823043E+02  0.24726966626E+03 -0.36717024709E+03  0.45242811990E+03  0.50400001928E-02 0. -1.
       -1    1    3    3    0  502  0.93460823043E+02 -0.24726966626E+03  0.21093091690E+04  0.21258086424E+04  0.50400001928E-02 0.  1.
</event>
<event>
 5   0  0.7207648E-06  0.1900702E+04  0.7818609E-02  0.8654507E-01
       -2   -1    0    0    0  501  0.00000000000E+00  0.00000000000E+00  0.67430048562E+03  0.67430048562E+03  0.25500000920E-02 0.  1.
        2   -1    0    0  501    0  0.00000000000E+00  0.00000000000E+00 -0.13394134197E+04  0.13394134197E+04  0.25500000920E-02 0. -1.
    10030    2    1    2    0    0  0.00000000000E+00  0.00000000000E+00 -0.66511293406E+03  0.20137139053E+04  0.19007021012E+04 0.  0.
        4    1    3    3  502    0  0.76062176270E+02 -0.61328923982E+03 -0.10974648097E+04  0.12594998086E+04  0.12699999809E+01 0. -1.
       -4    1    3    3    0  502 -0.76062176270E+02  0.61328923982E+03  0.43235187569E+03  0.75421409669E+03  0.12699999809E+01 0.  1.
</event>
<event>
 5   0  0.6984466E-06  0.1898324E+04  0.7818609E-02  0.8655691E-01
        2   -1    0    0  501    0  0.00000000000E+00  0.00000000000E+00  0.16495876287E+04  0.16495876287E+04  0.25500000920E-02 0. -1.
       -2   -1    0    0    0  501  0.00000000000E+00  0.00000000000E+00 -0.54614185417E+03  0.54614185418E+03  0.25500000920E-02 0.  1.
    10030    2    1    2    0    0  0.00000000000E+00  0.00000000000E+00  0.11034457745E+04  0.21957294829E+04  0.18983243623E+04 0.  0.
        2    1    3    3  502    0  0.88680230463E+02 -0.65177164711E+03 -0.23976070759E+03  0.70011117700E+03  0.25500000920E-02 0.  1.
       -2    1    3    3    0  502 -0.88680230463E+02  0.65177164711E+03  0.13432064821E+04  0.14956183059E+04  0.25500000920E-02 0. -1.
</event>
<event>
 5   0  0.6984466E-06  0.1900163E+04  0.7818609E-02  0.8654775E-01
        2   -1    0    0  501    0  0.00000000000E+00  0.00000000000E+00  0.26253605560E+04  0.26253605560E+04  0.25500000920E-02 0.  1.
       -2   -1    0    0    0  501  0.00000000000E+00  0.00000000000E+00 -0.34382113489E+03  0.34382113490E+03  0.25500000920E-02 0. -1.
    10030    2    1    2    0    0  0.00000000000E+00  0.00000000000E+00  0.22815394211E+04  0.29691816909E+04  0.19001625677E+04 0.  0.
        2    1    3    3  502    0  0.43384546374E+03  0.49629406462E+03  0.22098906167E+04  0.23061106267E+04  0.25500000920E-02 0.  1.
       -2    1    3    3    0  502 -0.43384546374E+03 -0.49629406462E+03  0.71648804444E+02  0.66307106419E+03  0.25500000920E-02 0. -1.
</event>
<event>
 5   0  0.6870370E-06  0.1899938E+04  0.7818609E-02  0.8654887E-01
        2   -1    0    0  501    0  0.00000000000E+00  0.00000000000E+00  0.50374237839E+03  0.50374237839E+03  0.25500000920E-02 0.  1.
       -2   -1    0    0    0  501  0.00000000000E+00  0.00000000000E+00 -0.17914736491E+04  0.17914736491E+04  0.25500000920E-02 0. -1.
    10030    2    1    2    0    0  0.00000000000E+00  0.00000000000E+00 -0.12877312707E+04  0.22952160275E+04  0.18999381009E+04 0.  0.
        1    1    3    3  502    0  0.50892086154E+03 -0.18746736244E+03  0.29833167661E+03  0.61898808113E+03  0.50400001928E-02 0.  1.
       -1    1    3    3    0  502 -0.50892086154E+03  0.18746736244E+03 -0.15860629473E+04  0.16762279464E+04  0.50400001928E-02 0. -1.
</event>
<event>
 5   0  0.7577180E-06  0.1899899E+04  0.7818609E-02  0.8654907E-01
       -2   -1    0    0    0  501  0.00000000000E+00  0.00000000000E+00  0.84966309356E+03  0.84966309356E+03  0.25500000920E-02 0. -1.
        2   -1    0    0  501    0  0.00000000000E+00  0.00000000000E+00 -0.10620730296E+04  0.10620730297E+04  0.25500000920E-02 0.  1.
    10030    2    1    2    0    0  0.00000000000E+00  0.00000000000E+00 -0.21240993609E+03  0.19117361232E+04  0.18998992141E+04 0.  0.
        5    1    3    3  502    0  0.37992083371E+03  0.78652300363E+03 -0.48192641177E+03  0.99761386893E+03  0.46999998093E+01 0.  1.
       -5    1    3    3    0  502 -0.37992083371E+03 -0.78652300363E+03  0.26951647568E+03  0.91412225429E+03  0.46999998093E+01 0. -1.
</event>
<event>
 5   0  0.3495279E-06  0.1896978E+04  0.7818609E-02  0.8656362E-01
       -1   -1    0    0    0  501  0.00000000000E+00  0.00000000000E+00  0.11049575858E+04  0.11049575858E+04  0.50400001928E-02 0. -1.
        1   -1    0    0  501    0  0.00000000000E+00  0.00000000000E+00 -0.81417708837E+03  0.81417708838E+03  0.50400001928E-02 0.  1.
    10030    2    1    2    0    0  0.00000000000E+00  0.00000000000E+00  0.29078049747E+03  0.19191346742E+04  0.18969777543E+04 0.  0.
        2    1    3    3  502    0  0.23395933208E+03  0.66327173588E+02 -0.78210298949E+03  0.81903684239E+03  0.25500000920E-02 0.  1.
       -2    1    3    3    0  502 -0.23395933208E+03 -0.66327173588E+02  0.10728834870E+04  0.11000978318E+04  0.25500000920E-02 0. -1.
</event>
<event>
 5   0  0.3236653E-06  0.1900251E+04  0.7818609E-02  0.8654732E-01
        1   -1    0    0  501    0  0.00000000000E+00  0.00000000000E+00  0.90557277987E+03  0.90557277989E+03  0.50400001928E-02 0. -1.
       -1   -1    0    0    0  501  0.00000000000E+00  0.00000000000E+00 -0.99686973937E+03  0.99686973938E+03  0.50400001928E-02 0.  1.
    10030    2    1    2    0    0  0.00000000000E+00  0.00000000000E+00 -0.91296959493E+02  0.19024425193E+04  0.19002506162E+04 0.  0.
        3    1    3    3  502    0  0.84788201393E+03  0.42867037646E+03 -0.36926963328E+02  0.95080271982E+03  0.10100000352E+00 0.  1.
       -3    1    3    3    0  502 -0.84788201393E+03 -0.42867037646E+03 -0.54369996166E+02  0.95163979944E+03  0.10100000352E+00 0. -1.
</event>
<event>
 5   0  0.3398807E-06  0.1896554E+04  0.7818609E-02  0.8656573E-01
       -1   -1    0    0    0  501  0.00000000000E+00  0.00000000000E+00  0.10366591865E+04  0.10366591865E+04  0.50400001928E-02 0. -1.
        1   -1    0    0  501    0  0.00000000000E+00  0.00000000000E+00 -0.86743026537E+03  0.86743026539E+03  0.50400001928E-02 0.  1.
    10030    2    1    2    0    0  0.00000000000E+00  0.00000000000E+00  0.16922892114E+03  0.19040894519E+04  0.18965543001E+04 0.  0.
        1    1    3    3  502    0  0.58676378276E+03 -0.27579276492E+03  0.77937265452E+03  0.10137924445E+04  0.50400001928E-02 0. -1.
       -1    1    3    3    0  502 -0.58676378276E+03  0.27579276492E+03 -0.61014373338E+03  0.89029700738E+03  0.50400001928E-02 0.  1.
</event>
<event>
 5   0  0.3495279E-06  0.1899859E+04  0.7818609E-02  0.8654927E-01
       -1   -1    0    0    0  501  0.00000000000E+00  0.00000000000E+00  0.76088692511E+03  0.76088692513E+03  0.50400001928E-02 0.  1.
        1   -1    0    0  501    0  0.00000000000E+00  0.00000000000E+00 -0.11859393303E+04  0.11859393303E+04  0.50400001928E-02 0. -1.
    10030    2    1    2    0    0  0.00000000000E+00  0.00000000000E+00 -0.42505240515E+03  0.19468262554E+04  0.18998586583E+04 0.  0.
        2    1    3    3  502    0 -0.37650266432E+03 -0.84888794146E+03 -0.75799891481E+01  0.92866702840E+03  0.25500000920E-02 0.  1.
       -2    1    3    3    0  502  0.37650266432E+03  0.84888794146E+03 -0.41747241601E+03  0.10181592270E+04  0.25500000920E-02 0. -1.
</event>
<event>
 5   0  0.6862201E-06  0.1900887E+04  0.7818609E-02  0.8654415E-01
        2   -1    0    0  501    0  0.00000000000E+00  0.00000000000E+00  0.23359179035E+04  0.23359179035E+04  0.25500000920E-02 0. -1.
       -2   -1    0    0    0  501  0.00000000000E+00  0.00000000000E+00 -0.38671862623E+03  0.38671862624E+03  0.25500000920E-02 0.  1.
    10030    2    1    2    0    0  0.00000000000E+00  0.00000000000E+00  0.19491992773E+04  0.27226365298E+04  0.19008871220E+04 0.  0.
        3    1    3    3  502    0 -0.33281064428E+03  0.36126212886E+03  0.21400269612E+04  0.21956749886E+04  0.10100000352E+00 0. -1.
       -3    1    3    3    0  502  0.33281064428E+03 -0.36126212886E+03 -0.19082768392E+03  0.52696154115E+03  0.10100000352E+00 0.  1.
</event>
<event>
 5   0  0.3495279E-06  0.1900929E+04  0.7818609E-02  0.8654394E-01
       -1   -1    0    0    0  501  0.00000000000E+00  0.00000000000E+00  0.51331752121E+03  0.51331752123E+03  0.50400001928E-02 0.  1.
        1   -1    0    0  501    0  0.00000000000E+00  0.00000000000E+00 -0.17598905758E+04  0.17598905759E+04  0.50400001928E-02 0. -1.
    10030    2    1    2    0    0  0.00000000000E+00  0.00000000000E+00 -0.12465730546E+04  0.22732080971E+04  0.19009288972E+04 0.  0.
        2    1    3    3  502    0  0.58303254555E+03  0.46951683544E+03 -0.13236548536E+04  0.15206693196E+04  0.25500000920E-02 0. -1.
       -2    1    3    3    0  502 -0.58303254555E+03 -0.46951683544E+03  0.77081798988E+02  0.75253877752E+03  0.25500000920E-02 0.  1.
</event>
<event>
 5   0  0.7577180E-06  0.1899932E+04  0.7818609E-02  0.8654890E-01
        2   -1    0    0  501    0  0.00000000000E+00  0.00000000000E+00  0.10122820938E+04  0.10122820938E+04  0.25500000920E-02 0.  1.
       -2   -1    0    0    0  501  0.00000000000E+00  0.00000000000E+00 -0.89148654247E+03  0.89148654248E+03  0.25500000920E-02 0. -1.
    10030    2    1    2    0    0  0.00000000000E+00  0.00000000000E+00  0.12079555134E+03  0.19037686363E+04  0.18999324870E+04 0.  0.
        5    1    3    3  502    0  0.47323829002E+03  0.59452882674E+03 -0.51083640235E+03  0.91563908006E+03  0.46999998093E+01 0. -1.
       -5    1    3    3    0  502 -0.47323829002E+03 -0.59452882674E+03  0.63163195369E+03  0.98812955623E+03  0.46999998093E+01 0.  1.
</event>
<event>
 5   0  0.6870370E-06  0.1900060E+04  0.7818609E-02  0.8654826E-01
        2   -1    0    0  501    0  0.00000000000E+00  0.00000000000E+00  0.16062339641E+04  0.16062339641E+04  0.25500000920E-02 0. -1.
       -2   -1    0    0    0  501  0.00000000000E+00  0.00000000000E+00 -0.56190891700E+03  0.56190891701E+03  0.25500000920E-02 0.  1.
    10030    2    1    2    0    0  0.00000000000E+00  0.00000000000E+00  0.10443250471E+04  0.21681428811E+04  0.19000601961E+04 0.  0.
        1    1    3    3  502    0  0.90765635084E+03  0.22092009961E+03  0.71951348208E+03  0.11791290822E+04  0.50400001928E-02 0. -1.
       -1    1    3    3    0  502 -0.90765635084E+03 -0.22092009961E+03  0.32481156505E+03  0.98901379891E+03  0.50400001928E-02 0.  1.
</event>
<event>
 5   0  0.3211263E-06  0.1898331E+04  0.7818609E-02  0.8655688E-01
       -1   -1    0    0    0  501  0.00000000000E+00  0.00000000000E+00  0.15253949480E+04  0.15253949480E+04  0.50400001928E-02 0. -1.
        1   -1    0    0  501    0  0.00000000000E+00  0.00000000000E+00 -0.59061088810E+03  0.59061088812E+03  0.50400001928E-02 0.  1.
    10030    2    1    2    0    0  0.00000000000E+00  0.00000000000E+00  0.93478405990E+03  0.21160058361E+04  0.18983307035E+04 0.  0.
        5    1    3    3  502    0  0.20738833936E+03 -0.67098381526E+03 -0.24430629148E+03  0.74359724159E+03  0.46999998093E+01 0.  1.
       -5    1    3    3    0  502 -0.20738833936E+03  0.67098381526E+03  0.11790903514E+04  0.13724085945E+04  0.46999998093E+01 0. -1.
</event>
<event>
 5   0  0.3236653E-06  0.1900502E+04  0.7818609E-02  0.8654607E-01
        1   -1    0    0  501    0  0.00000000000E+00  0.00000000000E+00  0.69675035829E+03  0.69675035831E+03  0.50400001928E-02 0.  1.
       -1   -1    0    0    0  501  0.00000000000E+00  0.00000000000E+00 -0.12959835378E+04  0.12959835378E+04  0.50400001928E-02 0. -1.
    10030    2    1    2    0    0  0.00000000000E+00  0.00000000000E+00 -0.59923317949E+03  0.19927338961E+04  0.19005020330E+04 0.  0.
        3    1    3    3  502    0  0.22768520976E+03  0.91913058227E+03 -0.38307460684E+03  0.10214635317E+04  0.10100000352E+00 0. -1.
       -3    1    3    3    0  502 -0.22768520976E+03 -0.91913058227E+03 -0.21615857265E+03  0.97127036439E+03  0.10100000352E+00 0.  1.
</event>
<event>
 5   0  0.3398807E-06  0.1899851E+04  0.7818609E-02  0.8654931E-01
        1   -1    0    0  501    0  0.00000000000E+00  0.00000000000E+00  0.75663032005E+03  0.75663032007E+03  0.50400001928E-02 0.  1.
       -1   -1    0    0    0  501  0.00000000000E+00  0.00000000000E+00 -0.11926015974E+04  0.11926015974E+04  0.50400001928E-02 0. -1.
    10030    2    1    2    0    0  0.00000000000E+00  0.00000000000E+00 -0.43597127736E+03  0.19492319175E+04  0.18998510767E+04 0.  0.
        1    1    3    3  502    0  0.71087827792E+03  0.46384769769E+03  0.21954419482E+03  0.87675667444E+03  0.50400001928E-02 0.  1.
       -1    1    3    3    0  502 -0.71087827792E+03 -0.46384769769E+03 -0.65551547218E+03  0.10724752431E+04  0.50400001928E-02 0. -1.
</event>
<event>
 5   0  0.3211263E-06  0.1900269E+04  0.7818609E-02  0.8654722E-01
        1   -1    0    0  501    0  0.00000000000E+00  0.00000000000E+00  0.62240068760E+03  0.62240068762E+03  0.50400001928E-02 0. -1.
       -1   -1    0    0    0  501  0.00000000000E+00  0.00000000000E+00 -0.14504411575E+04  0.14504411575E+04  0.50400001928E-02 0.  1.
    10030    2    1    2    0    0  0.00000000000E+00  0.00000000000E+00 -0.82804046990E+03  0.20728418451E+04  0.19002690060E+04 0.  0.
        5    1    3    3  502    0 -0.61401508943E+03  0.70007948836E+03 -0.61985694045E+03  0.11186467435E+04  0.46999998093E+01 0.  1.
       -5    1    3    3    0  502  0.61401508943E+03 -0.70007948836E+03 -0.20818352945E+03  0.95419510165E+03  0.46999998093E+01 0. -1.
</event>
<event>
 5   0  0.6984466E-06  0.1899573E+04  0.7818609E-02  0.8655069E-01
        2   -1    0    0  501    0  0.00000000000E+00  0.00000000000E+00  0.11080146531E+04  0.11080146531E+04  0.25500000920E-02 0. -1.
       -2   -1    0    0    0  501  0.00000000000E+00  0.00000000000E+00 -0.81415362448E+03  0.81415362448E+03  0.25500000920E-02 0.  1.
    10030    2    1    2    0    0  0.00000000000E+00  0.00000000000E+00  0.29386102857E+03  0.19221682775E+04  0.18995727370E+04 0.  0.
        2    1    3    3  502    0 -0.82708900236E+03  0.41599136204E+03 -0.67651168287E+02  0.92827889758E+03  0.25500000920E-02 0. -1.
       -2    1    3    3    0  502  0.82708900236E+03 -0.41599136204E+03  0.36151219686E+03  0.99388937996E+03  0.25500000920E-02 0.  1.
</event>
<event>
 5   0  0.3495279E-06  0.1899887E+04  0.7818609E-02  0.8654913E-01
        1   -1    0    0  501    0  0.00000000000E+00  0.00000000000E+00  0.16683829976E+04  0.16683829976E+04  0.50400001928E-02 0. -1.
       -1   -1    0    0    0  501  0.00000000000E+00  0.00000000000E+00 -0.54087873322E+03  0.54087873324E+03  0.50400001928E-02 0.  1.
    10030    2    1    2    0    0  0.00000000000E+00  0.00000000000E+00  0.11275042643E+04  0.22092617308E+04  0.18998872412E+04 0.  0.
        2    1    3    3  502    0 -0.77399984647E+03 -0.25593354206E+03  0.11308252959E+04  0.13940385899E+04  0.25500000920E-02 0. -1.
       -2    1    3    3    0  502  0.77399984647E+03  0.25593354206E+03 -0.33210315145E+01  0.81522314095E+03  0.25500000920E-02 0.  1.
</event>
<event>
 5   0  0.7577180E-06  0.1899688E+04  0.7818609E-02  0.8655012E-01
       -2   -1    0    0    0  501  0.00000000000E+00  0.00000000000E+00  0.61901658597E+03  0.61901658598E+03  0.25500000920E-02 0. -1.
        2   -1    0    0  501    0  0.00000000000E+00  0.00000000000E+00 -0.14574783577E+04  0.14574783577E+04  0.25500000920E-02 0.  1.
    10030    2    1    2    0    0  0.00000000000E+00  0.00000000000E+00 -0.83846177173E+03  0.20764949437E+04  0.18996876344E+04 0.  0.
        5    1    3    3  502    0 -0.81027471129E+03 -0.50732273744E+02  0.11966826314E+03  0.82064697316E+03  0.46999998093E+01 0. -1.
       -5    1    3    3    0  502  0.81027471129E+03  0.50732273744E+02 -0.95813003486E+03  0.12558479705E+04  0.46999998093E+01 0.  1.
</event>
<event>
 5   0  0.3398807E-06  0.1900955E+04  0.7818609E-02  0.8654381E-01
        1   -1    0    0  501    0  0.00000000000E+00  0.00000000000E+00  0.16824147974E+04  0.16824147974E+04  0.50400001928E-02 0.  1.
       -1   -1    0    0    0  501  0.00000000000E+00  0.00000000000E+00 -0.53697076604E+03  0.53697076606E+03  0.50400001928E-02 0. -1.
    10030    2    1    2    0    0  0.00000000000E+00  0.00000000000E+00  0.11454440314E+04  0.22193855635E+04  0.19009550890E+04 0.  0.
        1    1    3    3  502    0 -0.35536808769E+03  0.88035963150E+03  0.51937298074E+03  0.10821588847E+04  0.50400001928E-02 0. -1.
       -1    1    3    3    0  502  0.35536808769E+03 -0.88035963150E+03  0.62607105064E+03  0.11372266788E+04  0.50400001928E-02 0.  1.
</event>
<event>
 5   0  0.6862201E-06  0.1900213E+04  0.7818609E-02  0.8654751E-01
        2   -1    0    0  501    0  0.00000000000E+00  0.00000000000E+00  0.65981082665E+03  0.65981082665E+03  0.25500000920E-02 0. -1.
       -2   -1    0    0    0  501  0.00000000000E+00  0.00000000000E+00 -0.13681224404E+04  0.13681224404E+04  0.25500000920E-02 0.  1.
    10030    2    1    2    0    0  0.00000000000E+00  0.00000000000E+00 -0.70831161379E+03  0.20279332671E+04  0.19002126180E+04 0.  0.
        3    1    3    3  502    0  0.63826124625E+03  0.70150430713E+03 -0.29363173058E+03  0.99282693094E+03  0.10100000352E+00 0. -1.
       -3    1    3    3    0  502 -0.63826124625E+03 -0.70150430713E+03 -0.41467988321E+03  0.10351063361E+04  0.10100000352E+00 0.  1.
</event>
<event>
 5   0  0.7577180E-06  0.1899237E+04  0.7818609E-02  0.8655236E-01
       -2   -1    0    0    0  501  0.00000000000E+00  0.00000000000E+00  0.16121883377E+04  0.16121883377E+04  0.25500000920E-02 0. -1.
        2   -1    0    0  501    0  0.00000000000E+00  0.00000000000E+00 -0.55934869575E+03  0.55934869576E+03  0.25500000920E-02 0.  1.
    10030    2    1    2    0    0  0.00000000000E+00  0.00000000000E+00  0.10528396419E+04  0.21715370334E+04  0.18992371563E+04 0.  0.
        5    1    3    3  502    0  0.72401451113E+03  0.46692636610E+03  0.69733985611E+02  0.86435071727E+03  0.46999998093E+01 0.  1.
       -5    1    3    3    0  502 -0.72401451113E+03 -0.46692636610E+03  0.98310565631E+03  0.13071863162E+04  0.46999998093E+01 0. -1.
</event>
<event>
 5   0  0.7577180E-06  0.1898512E+04  0.7818609E-02  0.8655597E-01
        2   -1    0    0  501    0  0.00000000000E+00  0.00000000000E+00  0.59963677144E+03  0.59963677144E+03  0.25500000920E-02 0. -1.
       -2   -1    0    0    0  501  0.00000000000E+00  0.00000000000E+00 -0.15027220217E+04  0.15027220217E+04  0.25500000920E-02 0.  1.
    10030    2    1    2    0    0  0.00000000000E+00  0.00000000000E+00 -0.90308525024E+03  0.21023587931E+04  0.18985124508E+04 0.  0.
        5    1    3    3  502    0  0.45847489096E+03  0.79967894080E+03 -0.70255144868E+03  0.11590022701E+04  0.46999998093E+01 0. -1.
       -5    1    3    3    0  502 -0.45847489096E+03 -0.79967894080E+03 -0.20053380156E+03  0.94335652305E+03  0.46999998093E+01 0.  1.
</event>
<event>
 5   0  0.6862201E-06  0.1899034E+04  0.7818609E-02  0.8655337E-01
        2   -1    0    0  501    0  0.00000000000E+00  0.00000000000E+00  0.98404061291E+03  0.98404061292E+03  0.25500000920E-02 0. -1.
       -2   -1    0    0    0  501  0.00000000000E+00  0.00000000000E+00 -0.91620486180E+03  0.91620486181E+03  0.25500000920E-02 0.  1.
    10030    2    1    2    0    0  0.00000000000E+00  0.00000000000E+00  0.67835751112E+02  0.19002454747E+04  0.18990342743E+04 0.  0.
        3    1    3    3  502    0  0.15342765834E+03 -0.31386111637E+03 -0.84955743504E+03  0.91858406929E+03  0.10100000352E+00 0.  1.
       -3    1    3    3    0  502 -0.15342765834E+03  0.31386111637E+03  0.91739318616E+03  0.98166140543E+03  0.10100000352E+00 0. -1.
</event>
<event>
 5   0  0.3398807E-06  0.1900108E+04  0.7818609E-02  0.8654803E-01
       -1   -1    0    0    0  501  0.00000000000E+00  0.00000000000E+00  0.10178060909E+04  0.10178060909E+04  0.50400001928E-02 0.  1.
        1   -1    0    0  501    0  0.00000000000E+00  0.00000000000E+00 -0.88681156235E+03  0.88681156236E+03  0.50400001928E-02 0. -1.
    10030    2    1    2    0    0  0.00000000000E+00  0.00000000000E+00  0.13099452851E+03  0.19046176532E+04  0.19001075860E+04 0.  0.
        1    1    3    3  502    0  0.83666217203E+03 -0.13623726674E+03 -0.36451753011E+03  0.92273355457E+03  0.50400001928E-02 0. -1.
       -1    1    3    3    0  502 -0.83666217203E+03  0.13623726674E+03  0.49551205862E+03  0.98188409866E+03  0.50400001928E-02 0.  1.
</event>
<event>
 5   0  0.3379108E-06  0.1900088E+04  0.7818609E-02  0.8654813E-01
        1   -1    0    0  501    0  0.00000000000E+00  0.00000000000E+00  0.17861985006E+04  0.17861985006E+04  0.50400001928E-02 0.  1.
       -1   -1    0    0    0  501  0.00000000000E+00  0.00000000000E+00 -0.50530969953E+03  0.50530969956E+03  0.50400001928E-02 0. -1.
    10030    2    1    2    0    0  0.00000000000E+00  0.00000000000E+00  0.12808888011E+04  0.22915082002E+04  0.19000878166E+04 0.  0.
        4    1    3    3  502    0  0.12041119702E+03 -0.37396344969E+03  0.16836419254E+04  0.17288722520E+04  0.12699999809E+01 0.  1.
       -4    1    3    3    0  502 -0.12041119702E+03  0.37396344969E+03 -0.40275312432E+03  0.56263594812E+03  0.12699999809E+01 0. -1.
</event>
<event>
 5   0  0.3211263E-06  0.1899009E+04  0.7818609E-02  0.8655350E-01
        1   -1    0    0  501    0  0.00000000000E+00  0.00000000000E+00  0.68063715386E+03  0.68063715388E+03  0.50400001928E-02 0. -1.
       -1   -1    0    0    0  501  0.00000000000E+00  0.00000000000E+00 -0.13245804776E+04  0.13245804776E+04  0.50400001928E-02 0.  1.
    10030    2    1    2    0    0  0.00000000000E+00  0.00000000000E+00 -0.64394332373E+03  0.20052176315E+04  0.18990088850E+04 0.  0.
        5    1    3    3  502    0 -0.35521218128E+03 -0.12508900654E+03  0.59839203679E+03  0.70704884766E+03  0.46999998093E+01 0. -1.
       -5    1    3    3    0  502  0.35521218128E+03  0.12508900654E+03 -0.12423353605E+04  0.12981687838E+04  0.46999998093E+01 0.  1.
</event>
<event>
 5   0  0.6984466E-06  0.1900570E+04  0.7818609E-02  0.8654573E-01
        2   -1    0    0  501    0  0.00000000000E+00  0.00000000000E+00  0.20788781707E+04  0.20788781707E+04  0.25500000920E-02 0. -1.
       -2   -1    0    0    0  501  0.00000000000E+00  0.00000000000E+00 -0.43438870007E+03  0.43438870008E+03  0.25500000920E-02 0.  1.
    10030    2    1    2    0    0  0.00000000000E+00  0.00000000000E+00  0.16444894706E+04  0.25132668708E+04  0.19005695843E+04 0.  0.
        2    1    3    3  502    0 -0.47235767928E+03  0.53631296284E+02 -0.26584067665E+03  0.54467362566E+03  0.25500000920E-02 0.  1.
       -2    1    3    3    0  502  0.47235767928E+03 -0.53631296284E+02  0.19103301473E+04  0.19685932451E+04  0.25500000920E-02 0. -1.
</event>
<event>
 5   0  0.3236653E-06  0.1898921E+04  0.7818609E-02  0.8655394E-01
       -1   -1    0    0    0  501  0.00000000000E+00  0.00000000000E+00  0.57118976097E+03  0.57118976100E+03  0.50400001928E-02 0.  1.
        1   -1    0    0  501    0  0.00000000000E+00  0.00000000000E+00 -0.15782410982E+04  0.15782410982E+04  0.50400001928E-02 0. -1.
    10030    2    1    2    0    0  0.00000000000E+00  0.00000000000E+00 -0.10070513372E+04  0.21494308592E+04  0.18989209101E+04 0.  0.
        3    1    3    3  502    0  0.77147503351E+03 -0.23560597042E+03 -0.10703817217E+04  0.13402988252E+04  0.10100000352E+00 0. -1.
       -3    1    3    3    0  502 -0.77147503351E+03  0.23560597042E+03  0.63330384437E+02  0.80913203398E+03  0.10100000352E+00 0.  1.
</event>
<event>
 5   0  0.3379108E-06  0.1900288E+04  0.7818609E-02  0.8654713E-01
       -1   -1    0    0    0  501  0.00000000000E+00  0.00000000000E+00  0.69012125394E+03  0.69012125396E+03  0.50400001928E-02 0. -1.
        1   -1    0    0  501    0  0.00000000000E+00  0.00000000000E+00 -0.13081370898E+04  0.13081370898E+04  0.50400001928E-02 0.  1.
    10030    2    1    2    0    0  0.00000000000E+00  0.00000000000E+00 -0.61801583584E+03  0.19982583438E+04  0.19002875664E+04 0.  0.
        4    1    3    3  502    0  0.41814235535E+03 -0.39419074906E+03  0.48666773109E+03  0.75304479904E+03  0.12699999809E+01 0. -1.
       -4    1    3    3    0  502 -0.41814235535E+03  0.39419074906E+03 -0.11046835669E+04  0.12452135447E+04  0.12699999809E+01 0.  1.
</event>
<event>
 5   0  0.7207648E-06  0.1900786E+04  0.7818609E-02  0.8654465E-01
       -2   -1    0    0    0  501  0.00000000000E+00  0.00000000000E+00  0.12290548769E+04  0.12290548769E+04  0.25500000920E-02 0. -1.
        2   -1    0    0  501    0  0.00000000000E+00  0.00000000000E+00 -0.73491195234E+03  0.73491195235E+03  0.25500000920E-02 0.  1.
    10030    2    1    2    0    0  0.00000000000E+00  0.00000000000E+00  0.49414292457E+03  0.19639668293E+04  0.19007862785E+04 0.  0.
        4    1    3    3  502    0 -0.50973921597E+03  0.78938572471E+03  0.39421870659E+03  0.10190063259E+04  0.12699999809E+01 0.  1.
       -4    1    3    3    0  502  0.50973921597E+03 -0.78938572471E+03  0.99924217979E+02  0.94496050337E+03  0.12699999809E+01 0. -1.
</event>
<event>
 5   0  0.3379108E-06  0.1912725E+04  0.7818609E-02  0.8648548E-01
       -1   -1    0    0    0  501  0.00000000000E+00  0.00000000000E+00  0.15253732081E+04  0.15253732081E+04  0.50400001928E-02 0.  1.
        1   -1    0    0  501    0  0.00000000000E+00  0.00000000000E+00 -0.59961000581E+03  0.59961000583E+03  0.50400001928E-02 0. -1.
    10030    2    1    2    0    0  0.00000000000E+00  0.00000000000E+00  0.92576320226E+03  0.21249832139E+04  0.19127247980E+04 0.  0.
        4    1    3    3  502    0 -0.55837090306E+03 -0.71951230050E+03  0.13869210797E+03  0.92125627796E+03  0.12699999809E+01 0.  1.
       -4    1    3    3    0  502  0.55837090306E+03  0.71951230050E+03  0.78707109429E+03  0.12037269359E+04  0.12699999809E+01 0. -1.
</event>
<event>
 5   0  0.3379108E-06  0.1898947E+04  0.7818609E-02  0.8655381E-01
        1   -1    0    0  501    0  0.00000000000E+00  0.00000000000E+00  0.25101284916E+04  0.25101284916E+04  0.50400001928E-02 0. -1.
       -1   -1    0    0    0  501  0.00000000000E+00  0.00000000000E+00 -0.35914482873E+03  0.35914482877E+03  0.50400001928E-02 0.  1.
    10030    2    1    2    0    0  0.00000000000E+00  0.00000000000E+00  0.21509836629E+04  0.28692733204E+04  0.18989467262E+04 0.  0.
        4    1    3    3  502    0 -0.29324462790E+03  0.13614327391E+03  0.24243935360E+04  0.24458562985E+04  0.12699999809E+01 0. -1.
       -4    1    3    3    0  502  0.29324462790E+03 -0.13614327391E+03 -0.27340987308E+03  0.42341702188E+03  0.12699999809E+01 0.  1.
</event>
<event>
 5   0  0.3398807E-06  0.1899776E+04  0.7818609E-02  0.8654968E-01
        1   -1    0    0  501    0  0.00000000000E+00  0.00000000000E+00  0.49613497541E+03  0.49613497544E+03  0.50400001928E-02 0. -1.
       -1   -1    0    0    0  501  0.00000000000E+00  0.00000000000E+00 -0.18186333774E+04  0.18186333774E+04  0.50400001928E-02 0.  1.
    10030    2    1    2    0    0  0.00000000000E+00  0.00000000000E+00 -0.13224984019E+04  0.23147683528E+04  0.18997764353E+04 0.  0.
        1    1    3    3  502    0 -0.81675664175E+03  0.42937070034E+03 -0.93597222874E+03  0.13143418974E+04  0.50400001928E-02 0.  1.
       -1    1    3    3    0  502  0.81675664175E+03 -0.42937070034E+03 -0.38652617320E+03  0.10004264554E+04  0.50400001928E-02 0. -1.
</event>
<event>
 5   0  0.6870370E-06  0.1900614E+04  0.7818609E-02  0.8654551E-01
       -2   -1    0    0    0  501  0.00000000000E+00  0.00000000000E+00  0.38119896532E+03  0.38119896533E+03  0.25500000920E-02 0. -1.
        2   -1    0    0  501    0  0.00000000000E+00  0.00000000000E+00 -0.23690601617E+04  0.23690601617E+04  0.25500000920E-02 0.  1.
    10030    2    1    2    0    0  0.00000000000E+00  0.00000000000E+00 -0.19878611964E+04  0.27502591271E+04  0.19006138824E+04 0.  0.
        1    1    3    3  502    0  0.34421324892E+03 -0.90392196561E+01  0.28775468951E+03  0.44873960109E+03  0.50400001928E-02 0. -1.
       -1    1    3    3    0  502 -0.34421324892E+03  0.90392196561E+01 -0.22756158859E+04  0.23015195260E+04  0.50400001928E-02 0.  1.
</event>
<event>
 5   0  0.3236653E-06  0.1899476E+04  0.7818609E-02  0.8655117E-01
       -1   -1    0    0    0  501  0.00000000000E+00  0.00000000000E+00  0.97585179350E+03  0.97585179351E+03  0.50400001928E-02 0.  1.
        1   -1    0    0  501    0  0.00000000000E+00  0.00000000000E+00 -0.92432305277E+03  0.92432305278E+03  0.50400001928E-02 0. -1.
    10030    2    1    2    0    0  0.00000000000E+00  0.00000000000E+00  0.51528740725E+02  0.19001748463E+04  0.18994760423E+04 0.  0.
        3    1    3    3  502    0  0.63475533456E+03  0.68777844493E+03 -0.13569133384E+03  0.94570908442E+03  0.10100000352E+00 0. -1.
       -3    1    3    3    0  502 -0.63475533456E+03 -0.68777844493E+03  0.18722007457E+03  0.95446576187E+03  0.10100000352E+00 0.  1.
</event>
<event>
 5   0  0.6984466E-06  0.1900587E+04  0.7818609E-02  0.8654564E-01
       -2   -1    0    0    0  501  0.00000000000E+00  0.00000000000E+00  0.70985561432E+03  0.70985561433E+03  0.25500000920E-02 0. -1.
        2   -1    0    0  501    0  0.00000000000E+00  0.00000000000E+00 -0.12721711817E+04  0.12721711817E+04  0.25500000920E-02 0.  1.
    10030    2    1    2    0    0  0.00000000000E+00  0.00000000000E+00 -0.56231556742E+03  0.19820267961E+04  0.19005871259E+04 0.  0.
        2    1    3    3  502    0 -0.76038387802E+03  0.80044994938E+02 -0.86966794454E+03  0.11579780555E+04  0.25500000920E-02 0.  1.
       -2    1    3    3    0  502  0.76038387802E+03 -0.80044994938E+02  0.30735237712E+03  0.82404874061E+03  0.25500000920E-02 0. -1.
</event>
<event>
 5   0  0.6862201E-06  0.1900168E+04  0.7818609E-02  0.8654773E-01
        2   -1    0    0  501    0  0.00000000000E+00  0.00000000000E+00  0.12377728440E+04  0.12377728440E+04  0.25500000920E-02 0.  1.
       -2   -1    0    0    0  501  0.00000000000E+00  0.00000000000E+00 -0.72926111731E+03  0.72926111731E+03  0.25500000920E-02 0. -1.
    10030    2    1    2    0    0  0.00000000000E+00  0.00000000000E+00  0.50851172673E+03  0.19670339613E+04  0.19001680002E+04 0.  0.
        3    1    3    3  502    0  0.82461429130E+03  0.33196959723E+03  0.60141813218E+03  0.10732643304E+04  0.10100000352E+00 0.  1.
       -3    1    3    3    0  502 -0.82461429130E+03 -0.33196959723E+03 -0.92906405451E+02  0.89376963099E+03  0.10100000352E+00 0. -1.
</event>
<event>
 5   0  0.2527750E-06  0.1900145E+04  0.7818609E-02  0.8654784E-01
       -3   -1    0    0    0  501  0.00000000000E+00  0.00000000000E+00  0.94398587178E+03  0.94398587718E+03  0.10100000352E+00 0.  1.
        3   -1    0    0  501    0  0.00000000000E+00  0.00000000000E+00 -0.95619876548E+03  0.95619877081E+03  0.10100000352E+00 0. -1.
    10030    2    1    2    0    0  0.00000000000E+00  0.00000000000E+00 -0.12212893701E+02  0.19001846480E+04  0.19001454001E+04 0.  0.
        3    1    3    3  502    0  0.57252912898E+03  0.70610727076E+03  0.27005327918E+03  0.94831738629E+03  0.10100000352E+00 0. -1.
       -3    1    3    3    0  502 -0.57252912898E+03 -0.70610727076E+03 -0.28226617288E+03  0.95186726170E+03  0.10100000352E+00 0.  1.
</event>
<event>
 5   0  0.3211263E-06  0.1898422E+04  0.7818609E-02  0.8655642E-01
        1   -1    0    0  501    0  0.00000000000E+00  0.00000000000E+00  0.76971545615E+03  0.76971545617E+03  0.50400001928E-02 0. -1.
       -1   -1    0    0    0  501  0.00000000000E+00  0.00000000000E+00 -0.11705638849E+04  0.11705638849E+04  0.50400001928E-02 0.  1.
    10030    2    1    2    0    0  0.00000000000E+00  0.00000000000E+00 -0.40084842873E+03  0.19402793411E+04  0.18984215703E+04 0.  0.
        5    1    3    3  502    0  0.85505286973E+03 -0.95470230661E+02 -0.61019954261E+03  0.10547964480E+04  0.46999998093E+01 0.  1.
       -5    1    3    3    0  502 -0.85505286973E+03  0.95470230661E+02  0.20935111388E+03  0.88548289304E+03  0.46999998093E+01 0. -1.
</event>
<event>
 5   0  0.7207648E-06  0.1900372E+04  0.7818609E-02  0.8654671E-01
        2   -1    0    0  501    0  0.00000000000E+00  0.00000000000E+00  0.21591428152E+04  0.21591428152E+04  0.25500000920E-02 0.  1.
       -2   -1    0    0    0  501  0.00000000000E+00  0.00000000000E+00 -0.41815342811E+03  0.41815342811E+03  0.25500000920E-02 0. -1.
    10030    2    1    2    0    0  0.00000000000E+00  0.00000000000E+00  0.17409893871E+04  0.25772962433E+04  0.19003715110E+04 0.  0.
        4    1    3    3  502    0  0.31171566330E+03 -0.86177643392E+03  0.53001910553E+03  0.10586534570E+04  0.12699999809E+01 0.  1.
       -4    1    3    3    0  502 -0.31171566330E+03  0.86177643392E+03  0.12109702816E+04  0.15186427864E+04  0.12699999809E+01 0. -1.
</event>
<event>
 5   0  0.7207648E-06  0.1899937E+04  0.7818609E-02  0.8654888E-01
       -2   -1    0    0    0  501  0.00000000000E+00  0.00000000000E+00  0.76244253888E+03  0.76244253888E+03  0.25500000920E-02 0. -1.
        2   -1    0    0  501    0  0.00000000000E+00  0.00000000000E+00 -0.11836178382E+04  0.11836178382E+04  0.25500000920E-02 0.  1.
    10030    2    1    2    0    0  0.00000000000E+00  0.00000000000E+00 -0.42117529934E+03  0.19460603771E+04  0.18999374617E+04 0.  0.
        4    1    3    3  502    0 -0.61466947167E+02 -0.86389267690E+03  0.18920846297E+03  0.88650448288E+03  0.12699999809E+01 0. -1.
       -4    1    3    3    0  502  0.61466947167E+02  0.86389267690E+03 -0.61038376231E+03  0.10595558942E+04  0.12699999809E+01 0.  1.
</event>
<event>
 5   0  0.6984466E-06  0.1900191E+04  0.7818609E-02  0.8654761E-01
        2   -1    0    0  501    0  0.00000000000E+00  0.00000000000E+00  0.16853731147E+04  0.16853731147E+04  0.25500000920E-02 0.  1.
       -2   -1    0    0    0  501  0.00000000000E+00  0.00000000000E+00 -0.53559723449E+03  0.53559723449E+03  0.25500000920E-02 0. -1.
    10030    2    1    2    0    0  0.00000000000E+00  0.00000000000E+00  0.11497758802E+04  0.22209703492E+04  0.19001907055E+04 0.  0.
        2    1    3    3  502    0  0.16656156140E+03 -0.10321455557E+03  0.16614989583E+04  0.16730136840E+04  0.25500000920E-02 0.  1.
       -2    1    3    3    0  502 -0.16656156140E+03  0.10321455557E+03 -0.51172307814E+03  0.54795666519E+03  0.25500000920E-02 0. -1.
</event>
<event>
 5   0  0.3211263E-06  0.1902357E+04  0.7818609E-02  0.8653684E-01
        1   -1    0    0  501    0  0.00000000000E+00  0.00000000000E+00  0.10568226554E+04  0.10568226554E+04  0.50400001928E-02 0. -1.
       -1   -1    0    0    0  501  0.00000000000E+00  0.00000000000E+00 -0.85609457382E+03  0.85609457384E+03  0.50400001928E-02 0.  1.
    10030    2    1    2    0    0  0.00000000000E+00  0.00000000000E+00  0.20072808155E+03  0.19129172292E+04  0.19023565815E+04 0.  0.
        5    1    3    3  502    0 -0.78992619796E+03 -0.33562846812E+03 -0.31189752278E+03  0.91319878534E+03  0.46999998093E+01 0.  1.
       -5    1    3    3    0  502  0.78992619796E+03  0.33562846812E+03  0.51262560433E+03  0.99971844388E+03  0.46999998093E+01 0. -1.
</event>
<event>
 5   0  0.6862201E-06  0.1900498E+04  0.7818609E-02  0.8654608E-01
        2   -1    0    0  501    0  0.00000000000E+00  0.00000000000E+00  0.12564290832E+04  0.12564290832E+04  0.25500000920E-02 0. -1.
       -2   -1    0    0    0  501  0.00000000000E+00  0.00000000000E+00 -0.71868243731E+03  0.71868243731E+03  0.25500000920E-02 0.  1.
    10030    2    1    2    0    0  0.00000000000E+00  0.00000000000E+00  0.53774664593E+03  0.19751115206E+04  0.19004983724E+04 0.  0.
        3    1    3    3  502    0 -0.20734573837E+03  0.72268301165E+02 -0.69195510773E+03  0.72595925773E+03  0.10100000352E+00 0.  1.
       -3    1    3    3    0  502  0.20734573837E+03 -0.72268301165E+02  0.12297017537E+04  0.12491522628E+04  0.10100000352E+00 0. -1.
</event>
<event>
 5   0  0.2527750E-06  0.1898105E+04  0.7818609E-02  0.8655800E-01
        3   -1    0    0  501    0  0.00000000000E+00  0.00000000000E+00  0.10154380617E+04  0.10154380667E+04  0.10100000352E+00 0. -1.
       -3   -1    0    0    0  501  0.00000000000E+00  0.00000000000E+00 -0.88700720469E+03  0.88700721044E+03  0.10100000352E+00 0.  1.
    10030    2    1    2    0    0  0.00000000000E+00  0.00000000000E+00  0.12843085698E+03  0.19024452771E+04  0.18981052519E+04 0.  0.
        2    1    3    3  502    0  0.77840342948E+03  0.30716699720E+03  0.51294148467E+03  0.98151537425E+03  0.25500000920E-02 0. -1.
       -2    1    3    3    0  502 -0.77840342948E+03 -0.30716699720E+03 -0.38451062770E+03  0.92092990287E+03  0.25500000920E-02 0.  1.
</event>
<event>
 5   0  0.3236653E-06  0.1900413E+04  0.7818609E-02  0.8654651E-01
       -1   -1    0    0    0  501  0.00000000000E+00  0.00000000000E+00  0.53425338672E+03  0.53425338674E+03  0.50400001928E-02 0. -1.
        1   -1    0    0  501    0  0.00000000000E+00  0.00000000000E+00 -0.16900071841E+04  0.16900071841E+04  0.50400001928E-02 0.  1.
    10030    2    1    2    0    0  0.00000000000E+00  0.00000000000E+00 -0.11557537974E+04  0.22242605709E+04  0.19004126517E+04 0.  0.
        3    1    3    3  502    0 -0.60069660024E+03 -0.62179092683E+03 -0.10393087123E+04  0.13518960655E+04  0.10100000352E+00 0.  1.
       -3    1    3    3    0  502  0.60069660024E+03  0.62179092683E+03 -0.11644508513E+03  0.87236450540E+03  0.10100000352E+00 0. -1.
</event>
<event>
 5   0  0.2527750E-06  0.1890425E+04  0.7818609E-02  0.8659637E-01
        3   -1    0    0  501    0  0.00000000000E+00  0.00000000000E+00  0.13577673160E+04  0.13577673198E+04  0.10100000352E+00 0. -1.
       -3   -1    0    0    0  501  0.00000000000E+00  0.00000000000E+00 -0.65801189487E+03  0.65801190262E+03  0.10100000352E+00 0.  1.
    10030    2    1    2    0    0  0.00000000000E+00  0.00000000000E+00  0.69975542118E+03  0.20157792224E+04  0.18904254082E+04 0.  0.
        4    1    3    3  502    0  0.17612214582E+03  0.28452567928E+03  0.12924929414E+04  0.13351080439E+04  0.12699999809E+01 0. -1.
       -4    1    3    3    0  502 -0.17612214582E+03 -0.28452567928E+03 -0.59273752025E+03  0.68067117849E+03  0.12699999809E+01 0.  1.
</event>
<event>
 5   0  0.7207648E-06  0.1899150E+04  0.7818609E-02  0.8655279E-01
        2   -1    0    0  501    0  0.00000000000E+00  0.00000000000E+00  0.11492339807E+04  0.11492339807E+04  0.25500000920E-02 0. -1.
       -2   -1    0    0    0  501  0.00000000000E+00  0.00000000000E+00 -0.78460348827E+03  0.78460348827E+03  0.25500000920E-02 0.  1.
    10030    2    1    2    0    0  0.00000000000E+00  0.00000000000E+00  0.36463049247E+03  0.19338374690E+04  0.18991503259E+04 0.  0.
        4    1    3    3  502    0  0.83458054387E+03 -0.42902321636E+03  0.34383542813E+02  0.93902579586E+03  0.12699999809E+01 0.  1.
       -4    1    3    3    0  502 -0.83458054387E+03  0.42902321636E+03  0.33024694966E+03  0.99481167315E+03  0.12699999809E+01 0. -1.
</event>
<event>
 5   0  0.3379108E-06  0.1897793E+04  0.7818609E-02  0.8655956E-01
       -1   -1    0    0    0  501  0.00000000000E+00  0.00000000000E+00  0.98092941233E+03  0.98092941234E+03  0.50400001928E-02 0. -1.
        1   -1    0    0  501    0  0.00000000000E+00  0.00000000000E+00 -0.91791006697E+03  0.91791006698E+03  0.50400001928E-02 0.  1.
    10030    2    1    2    0    0  0.00000000000E+00  0.00000000000E+00  0.63019345357E+02  0.18988394793E+04  0.18977934372E+04 0.  0.
        4    1    3    3  502    0 -0.68078130996E+03 -0.36987853340E+03  0.57965289842E+03  0.96761170777E+03  0.12699999809E+01 0. -1.
       -4    1    3    3    0  502  0.68078130996E+03  0.36987853340E+03 -0.51663355306E+03  0.93122777156E+03  0.12699999809E+01 0.  1.
</event>
<event>
 5   0  0.3236653E-06  0.1900165E+04  0.7818609E-02  0.8654774E-01
        1   -1    0    0  501    0  0.00000000000E+00  0.00000000000E+00  0.10980083635E+04  0.10980083635E+04  0.50400001928E-02 0. -1.
       -1   -1    0    0    0  501  0.00000000000E+00  0.00000000000E+00 -0.82208523462E+03  0.82208523464E+03  0.50400001928E-02 0.  1.
    10030    2    1    2    0    0  0.00000000000E+00  0.00000000000E+00  0.27592312887E+03  0.19200935981E+04  0.19001646909E+04 0.  0.
        3    1    3    3  502    0  0.81537715404E+03  0.34774521452E+03  0.48343884493E+03  0.10096929061E+04  0.10100000352E+00 0. -1.
       -3    1    3    3    0  502 -0.81537715404E+03 -0.34774521452E+03 -0.20751571606E+03  0.91040069209E+03  0.10100000352E+00 0.  1.
</event>
<event>
 5   0  0.6984466E-06  0.1901049E+04  0.7818609E-02  0.8654334E-01
        2   -1    0    0  501    0  0.00000000000E+00  0.00000000000E+00  0.24024740029E+04  0.24024740029E+04  0.25500000920E-02 0. -1.
       -2   -1    0    0    0  501  0.00000000000E+00  0.00000000000E+00 -0.37606944081E+03  0.37606944082E+03  0.25500000920E-02 0.  1.
    10030    2    1    2    0    0  0.00000000000E+00  0.00000000000E+00  0.20264045621E+04  0.27785434437E+04  0.19010492417E+04 0.  0.
        2    1    3    3  502    0  0.30744961652E+03 -0.42389419564E+03  0.21726407011E+04  0.22348555147E+04  0.25500000920E-02 0. -1.
       -2    1    3    3    0  502 -0.30744961652E+03  0.42389419564E+03 -0.14623613897E+03  0.54368792900E+03  0.25500000920E-02 0.  1.
</event>
<event>
 5   0  0.3236653E-06  0.1900341E+04  0.7818609E-02  0.8654687E-01
       -1   -1    0    0    0  501  0.00000000000E+00  0.00000000000E+00  0.71162758306E+03  0.71162758308E+03  0.50400001928E-02 0. -1.
        1   -1    0    0  501    0  0.00000000000E+00  0.00000000000E+00 -0.12686748525E+04  0.12686748525E+04  0.50400001928E-02 0.  1.
    10030    2    1    2    0    0  0.00000000000E+00  0.00000000000E+00 -0.55704726940E+03  0.19803024356E+04  0.19003410420E+04 0.  0.
        3    1    3    3  502    0 -0.77324246591E+03 -0.55202216365E+03 -0.26409816210E+03  0.98609341833E+03  0.10100000352E+00 0. -1.
       -3    1    3    3    0  502  0.77324246591E+03  0.55202216365E+03 -0.29294910730E+03  0.99420901722E+03  0.10100000352E+00 0.  1.
</event>
<event>
 5   0  0.7207648E-06  0.1899890E+04  0.7818609E-02  0.8654911E-01
       -2   -1    0    0    0  501  0.00000000000E+00  0.00000000000E+00  0.50898929696E+03  0.50898929696E+03  0.25500000920E-02 0.  1.
        2   -1    0    0  501    0  0.00000000000E+00  0.00000000000E+00 -0.17729156771E+04  0.17729156771E+04  0.25500000920E-02 0. -1.
    10030    2    1    2    0    0  0.00000000000E+00  0.00000000000E+00 -0.12639263801E+04  0.22819049740E+04  0.18998895800E+04 0.  0.
        4    1    3    3  502    0  0.36579880833E+03  0.36275451072E+02  0.42010276633E+03  0.55822273664E+03  0.12699999809E+01 0.  1.
       -4    1    3    3    0  502 -0.36579880833E+03 -0.36275451072E+02 -0.16840291464E+04  0.17236822374E+04  0.12699999809E+01 0. -1.
</event>
<event>
 5   0  0.6870370E-06  0.1899041E+04  0.7818609E-02  0.8655334E-01
       -2   -1    0    0    0  501  0.00000000000E+00  0.00000000000E+00  0.10749463347E+04  0.10749463347E+04  0.25500000920E-02 0. -1.
        2   -1    0    0  501    0  0.00000000000E+00  0.00000000000E+00 -0.83872984925E+03  0.83872984925E+03  0.25500000920E-02 0.  1.
    10030    2    1    2    0    0  0.00000000000E+00  0.00000000000E+00  0.23621648544E+03  0.19136761839E+04  0.18990414184E+04 0.  0.
        1    1    3    3  502    0  0.77826882793E+03  0.53846844524E+03  0.19576666506E+03  0.96642393504E+03  0.50400001928E-02 0. -1.
       -1    1    3    3    0  502 -0.77826882793E+03 -0.53846844524E+03  0.40449820377E+02  0.94725224890E+03  0.50400001928E-02 0.  1.
</event>
<event>
 5   0  0.6862201E-06  0.1900234E+04  0.7818609E-02  0.8654740E-01
        2   -1    0    0  501    0  0.00000000000E+00  0.00000000000E+00  0.12052416135E+04  0.12052416135E+04  0.25500000920E-02 0. -1.
       -2   -1    0    0    0  501  0.00000000000E+00  0.00000000000E+00 -0.74899699882E+03  0.74899699883E+03  0.25500000920E-02 0.  1.
    10030    2    1    2    0    0  0.00000000000E+00  0.00000000000E+00  0.45624461466E+03  0.19542386123E+04  0.19002340397E+04 0.  0.
        3    1    3    3  502    0 -0.29018519328E+03 -0.13350263177E+03  0.11483667965E+04  0.11919633839E+04  0.10100000352E+00 0. -1.
       -3    1    3    3    0  502  0.29018519328E+03  0.13350263177E+03 -0.69212218182E+03  0.76227522842E+03  0.10100000352E+00 0.  1.
</event>
<event>
 5   0  0.6862201E-06  0.1901190E+04  0.7818609E-02  0.8654264E-01
       -2   -1    0    0    0  501  0.00000000000E+00  0.00000000000E+00  0.10791018962E+04  0.10791018962E+04  0.25500000920E-02 0.  1.
        2   -1    0    0  501    0  0.00000000000E+00  0.00000000000E+00 -0.83739168087E+03  0.83739168087E+03  0.25500000920E-02 0. -1.
    10030    2    1    2    0    0  0.00000000000E+00  0.00000000000E+00  0.24171021533E+03  0.19164935771E+04  0.19011901017E+04 0.  0.
        3    1    3    3  502    0  0.84392885142E+03  0.23325036191E+03  0.49398225850E+03  0.10053059830E+04  0.10100000352E+00 0.  1.
       -3    1    3    3    0  502 -0.84392885142E+03 -0.23325036191E+03 -0.25227204317E+03  0.91118759405E+03  0.10100000352E+00 0. -1.
</event>
<event>
 5   0  0.7577180E-06  0.1898366E+04  0.7818609E-02  0.8655670E-01
       -2   -1    0    0    0  501  0.00000000000E+00  0.00000000000E+00  0.77762633665E+03  0.77762633666E+03  0.25500000920E-02 0.  1.
        2   -1    0    0  501    0  0.00000000000E+00  0.00000000000E+00 -0.11585881355E+04  0.11585881355E+04  0.25500000920E-02 0. -1.
    10030    2    1    2    0    0  0.00000000000E+00  0.00000000000E+00 -0.38096179884E+03  0.19362144722E+04  0.18983662950E+04 0.  0.
        5    1    3    3  502    0  0.32263137705E+03 -0.53232683948E+03  0.54036920837E+03  0.82430809825E+03  0.46999998093E+01 0.  1.
       -5    1    3    3    0  502 -0.32263137705E+03  0.53232683948E+03 -0.92133100721E+03  0.11119063739E+04  0.46999998093E+01 0. -1.
</event>
<event>
 5   0  0.3236653E-06  0.1900527E+04  0.7818609E-02  0.8654594E-01
       -1   -1    0    0    0  501  0.00000000000E+00  0.00000000000E+00  0.18217808116E+04  0.18217808116E+04  0.50400001928E-02 0. -1.
        1   -1    0    0  501    0  0.00000000000E+00  0.00000000000E+00 -0.49566930635E+03  0.49566930638E+03  0.50400001928E-02 0.  1.
    10030    2    1    2    0    0  0.00000000000E+00  0.00000000000E+00  0.13261115053E+04  0.23174501180E+04  0.19005271177E+04 0.  0.
        3    1    3    3  502    0 -0.21435923560E+03 -0.51332773199E+03 -0.27637194676E+03  0.62115755286E+03  0.10100000352E+00 0.  1.
       -3    1    3    3    0  502  0.21435923560E+03  0.51332773199E+03  0.16024834520E+04  0.16962925651E+04  0.10100000352E+00 0. -1.
</event>
<event>
 5   0  0.3379108E-06  0.1899144E+04  0.7818609E-02  0.8655283E-01
        1   -1    0    0  501    0  0.00000000000E+00  0.00000000000E+00  0.60247152045E+03  0.60247152047E+03  0.50400001928E-02 0. -1.
       -1   -1    0    0    0  501  0.00000000000E+00  0.00000000000E+00 -0.14966459562E+04  0.14966459562E+04  0.50400001928E-02 0.  1.
    10030    2    1    2    0    0  0.00000000000E+00  0.00000000000E+00 -0.89417443577E+03  0.20991174767E+04  0.18991435595E+04 0.  0.
        4    1    3    3  502    0  0.43874444495E+03  0.62852008904E+03 -0.10665967712E+04  0.13134551669E+04  0.12699999809E+01 0.  1.
       -4    1    3    3    0  502 -0.43874444495E+03 -0.62852008904E+03  0.17242233546E+03  0.78566230975E+03  0.12699999809E+01 0. -1.
</event>
<event>
 5   0  0.7207648E-06  0.1899853E+04  0.7818609E-02  0.8654930E-01
        2   -1    0    0  501    0  0.00000000000E+00  0.00000000000E+00  0.85075239758E+03  0.85075239759E+03  0.25500000920E-02 0.  1.
       -2   -1    0    0    0  501  0.00000000000E+00  0.00000000000E+00 -0.10606612752E+04  0.10606612752E+04  0.25500000920E-02 0. -1.
    10030    2    1    2    0    0  0.00000000000E+00  0.00000000000E+00 -0.20990887764E+03  0.19114136728E+04  0.18998527553E+04 0.  0.
        4    1    3    3  502    0 -0.20388888645E+02 -0.91121562724E+03  0.16430989867E+03  0.92613658917E+03  0.12699999809E+01 0. -1.
       -4    1    3    3    0  502  0.20388888645E+02  0.91121562724E+03 -0.37421877631E+03  0.98527708364E+03  0.12699999809E+01 0.  1.
</event>
<event>
 5   0  0.3236653E-06  0.1899663E+04  0.7818609E-02  0.8655024E-01
        1   -1    0    0  501    0  0.00000000000E+00  0.00000000000E+00  0.30079097169E+03  0.30079097173E+03  0.50400001928E-02 0. -1.
       -1   -1    0    0    0  501  0.00000000000E+00  0.00000000000E+00 -0.29993578281E+04  0.29993578281E+04  0.50400001928E-02 0.  1.
    10030    2    1    2    0    0  0.00000000000E+00  0.00000000000E+00 -0.26985668564E+04  0.33001487998E+04  0.18996628707E+04 0.  0.
        3    1    3    3  502    0 -0.81493866761E+03 -0.48472076691E+03 -0.14460158958E+04  0.17291735699E+04  0.10100000352E+00 0.  1.
       -3    1    3    3    0  502  0.81493866761E+03  0.48472076691E+03 -0.12525509606E+04  0.15709752299E+04  0.10100000352E+00 0. -1.
</event>
<event>
 5   0  0.3495279E-06  0.1900184E+04  0.7818609E-02  0.8654765E-01
       -1   -1    0    0    0  501  0.00000000000E+00  0.00000000000E+00  0.57251114038E+03  0.57251114040E+03  0.50400001928E-02 0.  1.
        1   -1    0    0  501    0  0.00000000000E+00  0.00000000000E+00 -0.15766936326E+04  0.15766936326E+04  0.50400001928E-02 0. -1.
    10030    2    1    2    0    0  0.00000000000E+00  0.00000000000E+00 -0.10041824923E+04  0.21492047730E+04  0.19001838539E+04 0.  0.
        2    1    3    3  502    0 -0.21684359968E+03 -0.76037482053E+03  0.93709271587E+02  0.79622386426E+03  0.25500000920E-02 0.  1.
       -2    1    3    3    0  502  0.21684359968E+03  0.76037482053E+03 -0.10978917638E+04  0.13529809088E+04  0.25500000920E-02 0. -1.
</event>
<event>
 5   0  0.3236653E-06  0.1893772E+04  0.7818609E-02  0.8657963E-01
        1   -1    0    0  501    0  0.00000000000E+00  0.00000000000E+00  0.98377869812E+03  0.98377869813E+03  0.50400001928E-02 0. -1.
       -1   -1    0    0    0  501  0.00000000000E+00  0.00000000000E+00 -0.91137654656E+03  0.91137654657E+03  0.50400001928E-02 0.  1.
    10030    2    1    2    0    0  0.00000000000E+00  0.00000000000E+00  0.72402151554E+02  0.18951552447E+04  0.18937717207E+04 0.  0.
        3    1    3    3  502    0  0.77759085209E+02  0.64804223104E+01  0.98055586592E+03  0.98365557366E+03  0.10100000352E+00 0. -1.
       -3    1    3    3    0  502 -0.77759085209E+02 -0.64804223104E+01 -0.90815371436E+03  0.91149967104E+03  0.10100000352E+00 0.  1.
</event>
<event>
 5   0  0.3236653E-06  0.1903229E+04  0.7818609E-02  0.8653251E-01
       -1   -1    0    0    0  501  0.00000000000E+00  0.00000000000E+00  0.69924214740E+03  0.69924214742E+03  0.50400001928E-02 0.  1.
        1   -1    0    0  501    0  0.00000000000E+00  0.00000000000E+00 -0.12950740491E+04  0.12950740491E+04  0.50400001928E-02 0. -1.
    10030    2    1    2    0    0  0.00000000000E+00  0.00000000000E+00 -0.59583190166E+03  0.19943161965E+04  0.19032292128E+04 0.  0.
        3    1    3    3  502    0 -0.49812531644E+03 -0.64869853707E+03  0.21181312477E+03  0.84486888504E+03  0.10100000352E+00 0. -1.
       -3    1    3    3    0  502  0.49812531644E+03  0.64869853707E+03 -0.80764502643E+03  0.11494473115E+04  0.10100000352E+00 0.  1.
</event>
<event>
 5   0  0.3211263E-06  0.1900616E+04  0.7818609E-02  0.8654550E-01
       -1   -1    0    0    0  501  0.00000000000E+00  0.00000000000E+00  0.11954816708E+04  0.11954816708E+04  0.50400001928E-02 0. -1.
        1   -1    0    0  501    0  0.00000000000E+00  0.00000000000E+00 -0.75541520996E+03  0.75541520998E+03  0.50400001928E-02 0.  1.
    10030    2    1    2    0    0  0.00000000000E+00  0.00000000000E+00  0.44006646082E+03  0.19508968808E+04  0.19006157290E+04 0.  0.
        5    1    3    3  502    0  0.40739746936E+03  0.43452620530E+03 -0.54001315644E+03  0.80400374394E+03  0.46999998093E+01 0.  1.
       -5    1    3    3    0  502 -0.40739746936E+03 -0.43452620530E+03  0.98007961726E+03  0.11468931368E+04  0.46999998093E+01 0. -1.
</event>
<event>
 5   0  0.3495279E-06  0.1898953E+04  0.7818609E-02  0.8655378E-01
        1   -1    0    0  501    0  0.00000000000E+00  0.00000000000E+00  0.22330043906E+04  0.22330043906E+04  0.50400001928E-02 0.  1.
       -1   -1    0    0    0  501  0.00000000000E+00  0.00000000000E+00 -0.40371873153E+03  0.40371873156E+03  0.50400001928E-02 0. -1.
    10030    2    1    2    0    0  0.00000000000E+00  0.00000000000E+00  0.18292856591E+04  0.26367231222E+04  0.18989530801E+04 0.  0.
        2    1    3    3  502    0  0.46746623976E+03  0.59985554260E+03  0.12531885905E+03  0.77075039653E+03  0.25500000920E-02 0. -1.
       -2    1    3    3    0  502 -0.46746623976E+03 -0.59985554260E+03  0.17039668001E+04  0.18659727257E+04  0.25500000920E-02 0.  1.
</event>
<event>
 5   0  0.2527750E-06  0.1900993E+04  0.7818609E-02  0.8654362E-01
        3   -1    0    0  501    0  0.00000000000E+00  0.00000000000E+00  0.56505764202E+03  0.56505765105E+03  0.10100000352E+00 0.  1.
       -3   -1    0    0    0  501  0.00000000000E+00  0.00000000000E+00 -0.15988528006E+04  0.15988528038E+04  0.10100000352E+00 0. -1.
    10030    2    1    2    0    0  0.00000000000E+00  0.00000000000E+00 -0.10337951586E+04  0.21639104548E+04  0.19009934315E+04 0.  0.
        3    1    3    3  502    0  0.18131556741E+03 -0.89410986094E+03 -0.21329597996E+03  0.93691139585E+03  0.10100000352E+00 0. -1.
       -3    1    3    3    0  502 -0.18131556741E+03  0.89410986094E+03 -0.82049917860E+03  0.12269990590E+04  0.10100000352E+00 0.  1.
</event>
<event>
 5   0  0.3495279E-06  0.1900517E+04  0.7818609E-02  0.8654599E-01
       -1   -1    0    0    0  501  0.00000000000E+00  0.00000000000E+00  0.55553328731E+03  0.55553328733E+03  0.50400001928E-02 0.  1.
        1   -1    0    0  501    0  0.00000000000E+00  0.00000000000E+00 -0.16254491917E+04  0.16254491917E+04  0.50400001928E-02 0. -1.
    10030    2    1    2    0    0  0.00000000000E+00  0.00000000000E+00 -0.10699159044E+04  0.21809824791E+04  0.19005169116E+04 0.  0.
        2    1    3    3  502    0  0.36981806762E+03 -0.74963589152E+03 -0.16295745554E+02  0.83605318272E+03  0.25500000920E-02 0.  1.
       -2    1    3    3    0  502 -0.36981806762E+03  0.74963589152E+03 -0.10536201589E+04  0.13449292963E+04  0.25500000920E-02 0. -1.
</event>
<event>
 5   0  0.7577180E-06  0.1900576E+04  0.7818609E-02  0.8654570E-01
       -2   -1    0    0    0  501  0.00000000000E+00  0.00000000000E+00  0.10758318212E+04  0.10758318212E+04  0.25500000920E-02 0. -1.
        2   -1    0    0  501    0  0.00000000000E+00  0.00000000000E+00 -0.83939415832E+03  0.83939415833E+03  0.25500000920E-02 0.  1.
    10030    2    1    2    0    0  0.00000000000E+00  0.00000000000E+00  0.23643766287E+03  0.19152259795E+04  0.19005756455E+04 0.  0.
        5    1    3    3  502    0  0.10870332643E+03  0.41623444924E+03 -0.73563627519E+03  0.85220323238E+03  0.46999998093E+01 0.  1.
       -5    1    3    3    0  502 -0.10870332643E+03 -0.41623444924E+03  0.97207393805E+03  0.10630227471E+04  0.46999998093E+01 0. -1.
</event>
<event>
 5   0  0.3236653E-06  0.1899711E+04  0.7818609E-02  0.8655000E-01
        1   -1    0    0  501    0  0.00000000000E+00  0.00000000000E+00  0.12142192401E+04  0.12142192401E+04  0.50400001928E-02 0.  1.
       -1   -1    0    0    0  501  0.00000000000E+00  0.00000000000E+00 -0.74304972782E+03  0.74304972784E+03  0.50400001928E-02 0. -1.
    10030    2    1    2    0    0  0.00000000000E+00  0.00000000000E+00  0.47116951232E+03  0.19572689680E+04  0.18997107948E+04 0.  0.
        3    1    3    3  502    0 -0.72763619444E+03 -0.18167720807E+03 -0.36496894122E+03  0.83406437261E+03  0.10100000352E+00 0. -1.
       -3    1    3    3    0  502  0.72763619444E+03  0.18167720807E+03  0.83613845354E+03  0.11232045954E+04  0.10100000352E+00 0.  1.
</event>
<event>
 5   0  0.7577180E-06  0.1900253E+04  0.7818609E-02  0.8654730E-01
        2   -1    0    0  501    0  0.00000000000E+00  0.00000000000E+00  0.13783330784E+04  0.13783330784E+04  0.25500000920E-02 0. -1.
       -2   -1    0    0    0  501  0.00000000000E+00  0.00000000000E+00 -0.65495096364E+03  0.65495096364E+03  0.25500000920E-02 0.  1.
    10030    2    1    2    0    0  0.00000000000E+00  0.00000000000E+00  0.72338211476E+03  0.20332840420E+04  0.19002532230E+04 0.  0.
        5    1    3    3  502    0  0.80733288655E+03 -0.19997016161E+03 -0.12974859657E+03  0.84180237796E+03  0.46999998093E+01 0.  1.
       -5    1    3    3    0  502 -0.80733288655E+03  0.19997016161E+03  0.85313071133E+03  0.11914816641E+04  0.46999998093E+01 0. -1.
</event>
<event>
 5   0  0.3236653E-06  0.1898990E+04  0.7818609E-02  0.8655359E-01
        1   -1    0    0  501    0  0.00000000000E+00  0.00000000000E+00  0.11415979967E+04  0.11415979967E+04  0.50400001928E-02 0. -1.
       -1   -1    0    0    0  501  0.00000000000E+00  0.00000000000E+00 -0.78971788246E+03  0.78971788247E+03  0.50400001928E-02 0.  1.
    10030    2    1    2    0    0  0.00000000000E+00  0.00000000000E+00  0.35188011422E+03  0.19313158792E+04  0.18989895762E+04 0.  0.
        3    1    3    3  502    0 -0.27337061997E+03  0.25561919232E+03 -0.71153563451E+03  0.80396245978E+03  0.10100000352E+00 0.  1.
       -3    1    3    3    0  502  0.27337061997E+03 -0.25561919232E+03  0.10634157487E+04  0.11273534194E+04  0.10100000352E+00 0. -1.
</event>
<event>
 5   0  0.7207648E-06  0.1900668E+04  0.7818609E-02  0.8654524E-01
        2   -1    0    0  501    0  0.00000000000E+00  0.00000000000E+00  0.13775641149E+04  0.13775641149E+04  0.25500000920E-02 0.  1.
       -2   -1    0    0    0  501  0.00000000000E+00  0.00000000000E+00 -0.65560281296E+03  0.65560281296E+03  0.25500000920E-02 0. -1.
    10030    2    1    2    0    0  0.00000000000E+00  0.00000000000E+00  0.72196130194E+03  0.20331669279E+04  0.19006682075E+04 0.  0.
        4    1    3    3  502    0 -0.14192059373E+03 -0.12627394099E+03 -0.63508503571E+03  0.66288851143E+03  0.12699999809E+01 0. -1.
       -4    1    3    3    0  502  0.14192059373E+03  0.12627394099E+03  0.13570463377E+04  0.13702784164E+04  0.12699999809E+01 0.  1.
</event>
<event>
 5   0  0.3379108E-06  0.1899870E+04  0.7818609E-02  0.8654921E-01
        1   -1    0    0  501    0  0.00000000000E+00  0.00000000000E+00  0.15422105290E+04  0.15422105291E+04  0.50400001928E-02 0.  1.
       -1   -1    0    0    0  501  0.00000000000E+00  0.00000000000E+00 -0.58511874834E+03  0.58511874836E+03  0.50400001928E-02 0. -1.
    10030    2    1    2    0    0  0.00000000000E+00  0.00000000000E+00  0.95709178071E+03  0.21273292774E+04  0.18998697792E+04 0.  0.
        4    1    3    3  502    0 -0.20413562451E+03 -0.19747411538E+03  0.14935538681E+04  0.15203197523E+04  0.12699999809E+01 0.  1.
       -4    1    3    3    0  502  0.20413562451E+03  0.19747411538E+03 -0.53646208740E+03  0.60700952510E+03  0.12699999809E+01 0. -1.
</event>
<event>
 5   0  0.7207648E-06  0.1899268E+04  0.7818609E-02  0.8655221E-01
       -2   -1    0    0    0  501  0.00000000000E+00  0.00000000000E+00  0.59957327594E+03  0.59957327595E+03  0.25500000920E-02 0. -1.
        2   -1    0    0  501    0  0.00000000000E+00  0.00000000000E+00 -0.15040770826E+04  0.15040770826E+04  0.25500000920E-02 0.  1.
    10030    2    1    2    0    0  0.00000000000E+00  0.00000000000E+00 -0.90450380662E+03  0.21036503585E+04  0.18992676733E+04 0.  0.
        4    1    3    3  502    0 -0.55559331870E+03  0.42388161593E+03  0.25993721817E+03  0.74560614965E+03  0.12699999809E+01 0. -1.
       -4    1    3    3    0  502  0.55559331870E+03 -0.42388161593E+03 -0.11644410248E+04  0.13580442089E+04  0.12699999809E+01 0.  1.
</event>
<event>
 5   0  0.6984466E-06  0.1899864E+04  0.7818609E-02  0.8654924E-01
       -2   -1    0    0    0  501  0.00000000000E+00  0.00000000000E+00  0.58863574924E+03  0.58863574925E+03  0.25500000920E-02 0.  1.
        2   -1    0    0  501    0  0.00000000000E+00  0.00000000000E+00 -0.15329865740E+04  0.15329865740E+04  0.25500000920E-02 0. -1.
    10030    2    1    2    0    0  0.00000000000E+00  0.00000000000E+00 -0.94435082474E+03  0.21216223232E+04  0.18998638905E+04 0.  0.
        2    1    3    3  502    0  0.82683921839E+03  0.94193741412E+02  0.39370600644E+02  0.83311799776E+03  0.25500000920E-02 0.  1.
       -2    1    3    3    0  502 -0.82683921839E+03 -0.94193741412E+02 -0.98372142539E+03  0.12885043255E+04  0.25500000920E-02 0. -1.
</event>
<event>
 5   0  0.3398807E-06  0.1900198E+04  0.7818609E-02  0.8654758E-01
       -1   -1    0    0    0  501  0.00000000000E+00  0.00000000000E+00  0.76316339073E+03  0.76316339075E+03  0.50400001928E-02 0.  1.
        1   -1    0    0  501    0  0.00000000000E+00  0.00000000000E+00 -0.11828246929E+04  0.11828246929E+04  0.50400001928E-02 0. -1.
    10030    2    1    2    0    0  0.00000000000E+00  0.00000000000E+00 -0.41966130215E+03  0.19459880836E+04  0.19001984141E+04 0.  0.
        1    1    3    3  502    0  0.14477564069E+03  0.90450167657E+03  0.48447490764E+02  0.91729516975E+03  0.50400001928E-02 0.  1.
       -1    1    3    3    0  502 -0.14477564069E+03 -0.90450167657E+03 -0.46810879291E+03  0.10286929139E+04  0.50400001928E-02 0. -1.
</event>
<event>
 5   0  0.2527750E-06  0.1900755E+04  0.7818609E-02  0.8654481E-01
       -3   -1    0    0    0  501  0.00000000000E+00  0.00000000000E+00  0.41397637913E+03  0.41397639145E+03  0.10100000352E+00 0. -1.
        3   -1    0    0  501    0  0.00000000000E+00  0.00000000000E+00 -0.21818092557E+04  0.21818092580E+04  0.10100000352E+00 0.  1.
    10030    2    1    2    0    0  0.00000000000E+00  0.00000000000E+00 -0.17678328766E+04  0.25957856495E+04  0.19007551285E+04 0.  0.
        4    1    3    3  502    0 -0.69075505718E+03  0.23733425931E+03 -0.17143297113E+04  0.18634371660E+04  0.12699999809E+01 0.  1.
       -4    1    3    3    0  502  0.69075505718E+03 -0.23733425931E+03 -0.53503165245E+02  0.73234848347E+03  0.12699999809E+01 0. -1.
</event>
<event>
 5   0  0.3398807E-06  0.1899893E+04  0.7818609E-02  0.8654910E-01
        1   -1    0    0  501    0  0.00000000000E+00  0.00000000000E+00  0.10520455381E+04  0.10520455381E+04  0.50400001928E-02 0. -1.
       -1   -1    0    0    0  501  0.00000000000E+00  0.00000000000E+00 -0.85775579046E+03  0.85775579048E+03  0.50400001928E-02 0.  1.
    10030    2    1    2    0    0  0.00000000000E+00  0.00000000000E+00  0.19428974760E+03  0.19098013286E+04  0.18998927887E+04 0.  0.
        1    1    3    3  502    0 -0.32732618538E+03  0.85852747021E+03  0.33962127644E+03  0.97956850714E+03  0.50400001928E-02 0.  1.
       -1    1    3    3    0  502  0.32732618538E+03 -0.85852747021E+03 -0.14533152884E+03  0.93023282142E+03  0.50400001928E-02 0. -1.
</event>
<event>
 5   0  0.7577180E-06  0.1901167E+04  0.7818609E-02  0.8654276E-01
        2   -1    0    0  501    0  0.00000000000E+00  0.00000000000E+00  0.11427859734E+04  0.11427859734E+04  0.25500000920E-02 0. -1.
       -2   -1    0    0    0  501  0.00000000000E+00  0.00000000000E+00 -0.79070681692E+03  0.79070681693E+03  0.25500000920E-02 0.  1.
    10030    2    1    2    0    0  0.00000000000E+00  0.00000000000E+00  0.35207915647E+03  0.19334927903E+04  0.19011666518E+04 0.  0.
        5    1    3    3  502    0 -0.47974689676E+03 -0.58970026921E+03  0.75642963767E+03  0.10724324590E+04  0.46999998093E+01 0. -1.
       -5    1    3    3    0  502  0.47974689676E+03  0.58970026921E+03 -0.40435048120E+03  0.86106033128E+03  0.46999998093E+01 0.  1.
</event>
<event>
 5   0  0.6862201E-06  0.1899891E+04  0.7818609E-02  0.8654911E-01
       -2   -1    0    0    0  501  0.00000000000E+00  0.00000000000E+00  0.72484868361E+03  0.72484868362E+03  0.25500000920E-02 0. -1.
        2   -1    0    0  501    0  0.00000000000E+00  0.00000000000E+00 -0.12449444995E+04  0.12449444995E+04  0.25500000920E-02 0.  1.
    10030    2    1    2    0    0  0.00000000000E+00  0.00000000000E+00 -0.52009581588E+03  0.19697931831E+04  0.18998909249E+04 0.  0.
        3    1    3    3  502    0 -0.92187498728E+02  0.81329657281E+03  0.23981796486E+03  0.85291413210E+03  0.10100000352E+00 0. -1.
       -3    1    3    3    0  502  0.92187498728E+02 -0.81329657281E+03 -0.75991378074E+03  0.11168790510E+04  0.10100000352E+00 0.  1.
</event>
<event>
 5   0  0.7577180E-06  0.1898475E+04  0.7818609E-02  0.8655616E-01
       -2   -1    0    0    0  501  0.00000000000E+00  0.00000000000E+00  0.40933081731E+03  0.40933081732E+03  0.25500000920E-02 0. -1.
        2   -1    0    0  501    0  0.00000000000E+00  0.00000000000E+00 -0.22012799420E+04  0.22012799420E+04  0.25500000920E-02 0.  1.
    10030    2    1    2    0    0  0.00000000000E+00  0.00000000000E+00 -0.17919491247E+04  0.26106107593E+04  0.18984748803E+04 0.  0.
        5    1    3    3  502    0 -0.24965485570E+03 -0.91376774275E+03 -0.97996429759E+03  0.13629567672E+04  0.46999998093E+01 0. -1.
       -5    1    3    3    0  502  0.24965485570E+03  0.91376774275E+03 -0.81198482710E+03  0.12476539921E+04  0.46999998093E+01 0.  1.
</event>
<event>
 5   0  0.3495279E-06  0.1900573E+04  0.7818609E-02  0.8654571E-01
        1   -1    0    0  501    0  0.00000000000E+00  0.00000000000E+00  0.83668905220E+03  0.83668905221E+03  0.50400001928E-02 0. -1.
       -1   -1    0    0    0  501  0.00000000000E+00  0.00000000000E+00 -0.10793071782E+04  0.10793071782E+04  0.50400001928E-02 0.  1.
    10030    2    1    2    0    0  0.00000000000E+00  0.00000000000E+00 -0.24261812601E+03  0.19159962304E+04  0.19005730715E+04 0.  0.
        2    1    3    3  502    0 -0.60468767970E+03  0.64220987504E+03  0.23506178185E+03  0.91287170778E+03  0.25500000920E-02 0.  1.
       -2    1    3    3    0  502  0.60468767970E+03 -0.64220987504E+03 -0.47767990786E+03  0.10031245227E+04  0.25500000920E-02 0. -1.
</event>
<event>
 5   0  0.7207648E-06  0.1895514E+04  0.7818609E-02  0.8657093E-01
        2   -1    0    0  501    0  0.00000000000E+00  0.00000000000E+00  0.10858773198E+04  0.10858773198E+04  0.25500000920E-02 0. -1.
       -2   -1    0    0    0  501  0.00000000000E+00  0.00000000000E+00 -0.82720502631E+03  0.82720502632E+03  0.25500000920E-02 0.  1.
    10030    2    1    2    0    0  0.00000000000E+00  0.00000000000E+00  0.25867229352E+03  0.19130823461E+04  0.18955138374E+04 0.  0.
        4    1    3    3  502    0 -0.21742656739E+03  0.18333106917E+03 -0.78312123794E+03  0.83316569741E+03  0.12699999809E+01 0.  1.
       -4    1    3    3    0  502  0.21742656739E+03 -0.18333106917E+03  0.10417935315E+04  0.10799166487E+04  0.12699999809E+01 0. -1.
</event>
<event>
 5   0  0.3398807E-06  0.1902252E+04  0.7818609E-02  0.8653736E-01
        1   -1    0    0  501    0  0.00000000000E+00  0.00000000000E+00  0.15564290976E+04  0.15564290976E+04  0.50400001928E-02 0. -1.
       -1   -1    0    0    0  501  0.00000000000E+00  0.00000000000E+00 -0.58122852858E+03  0.58122852860E+03  0.50400001928E-02 0.  1.
    10030    2    1    2    0    0  0.00000000000E+00  0.00000000000E+00  0.97520056902E+03  0.21376576262E+04  0.19022523432E+04 0.  0.
        1    1    3    3  502    0  0.43849086881E+03  0.82402427326E+03  0.28237880298E+03  0.97520666187E+03  0.50400001928E-02 0. -1.
       -1    1    3    3    0  502 -0.43849086881E+03 -0.82402427326E+03  0.69282176604E+03  0.11624509643E+04  0.50400001928E-02 0.  1.
</event>
<event>
 5   0  0.6862201E-06  0.1901038E+04  0.7818609E-02  0.8654340E-01
       -2   -1    0    0    0  501  0.00000000000E+00  0.00000000000E+00  0.49627139732E+03  0.49627139733E+03  0.25500000920E-02 0.  1.
        2   -1    0    0  501    0  0.00000000000E+00  0.00000000000E+00 -0.18205496412E+04  0.18205496412E+04  0.25500000920E-02 0. -1.
    10030    2    1    2    0    0  0.00000000000E+00  0.00000000000E+00 -0.13242782439E+04  0.23168210385E+04  0.19010383629E+04 0.  0.
        3    1    3    3  502    0 -0.51444953047E+03  0.21060907985E+03  0.27751361341E+03  0.62131177339E+03  0.10100000352E+00 0.  1.
       -3    1    3    3    0  502  0.51444953047E+03 -0.21060907985E+03 -0.16017918573E+04  0.16955092651E+04  0.10100000352E+00 0. -1.
</event>
<event>
 5   0  0.3398807E-06  0.1899706E+04  0.7818609E-02  0.8655003E-01
        1   -1    0    0  501    0  0.00000000000E+00  0.00000000000E+00  0.89391980940E+03  0.89391980941E+03  0.50400001928E-02 0.  1.
       -1   -1    0    0    0  501  0.00000000000E+00  0.00000000000E+00 -0.10092864045E+04  0.10092864046E+04  0.50400001928E-02 0. -1.
    10030    2    1    2    0    0  0.00000000000E+00  0.00000000000E+00 -0.11536659514E+03  0.19032062140E+04  0.18997064093E+04 0.  0.
        1    1    3    3  502    0 -0.25108568658E+03 -0.78638303560E+03  0.41305339628E+03  0.92306847465E+03  0.50400001928E-02 0.  1.
       -1    1    3    3    0  502  0.25108568658E+03  0.78638303560E+03 -0.52841999142E+03  0.98013773932E+03  0.50400001928E-02 0. -1.
</event>
<event>
 5   0  0.7577180E-06  0.1899996E+04  0.7818609E-02  0.8654858E-01
       -2   -1    0    0    0  501  0.00000000000E+00  0.00000000000E+00  0.15226392254E+04  0.15226392254E+04  0.25500000920E-02 0.  1.
        2   -1    0    0  501    0  0.00000000000E+00  0.00000000000E+00 -0.59271819551E+03  0.59271819551E+03  0.25500000920E-02 0. -1.
    10030    2    1    2    0    0  0.00000000000E+00  0.00000000000E+00  0.92992102986E+03  0.21153574209E+04  0.18999957622E+04 0.  0.
        5    1    3    3  502    0  0.33600177014E+03 -0.56809770747E+03  0.12256649391E+04  0.13920879382E+04  0.46999998093E+01 0.  1.
       -5    1    3    3    0  502 -0.33600177014E+03  0.56809770747E+03 -0.29574390921E+03  0.72326948270E+03  0.46999998093E+01 0. -1.
</event>
<event>
 5   0  0.2527750E-06  0.1899762E+04  0.7818609E-02  0.8654975E-01
        3   -1    0    0  501    0  0.00000000000E+00  0.00000000000E+00  0.94678833917E+03  0.94678834456E+03  0.10100000352E+00 0.  1.
       -3   -1    0    0    0  501  0.00000000000E+00  0.00000000000E+00 -0.95298361324E+03  0.95298361859E+03  0.10100000352E+00 0. -1.
    10030    2    1    2    0    0  0.00000000000E+00  0.00000000000E+00 -0.61952740654E+01  0.18997719631E+04  0.18997618615E+04 0.  0.
        1    1    3    3  502    0 -0.13028044662E+03  0.90534793083E+03  0.25311830722E+03  0.94905044551E+03  0.50400001928E-02 0. -1.
       -1    1    3    3    0  502  0.13028044662E+03 -0.90534793083E+03 -0.25931358129E+03  0.95072151764E+03  0.50400001928E-02 0.  1.
</event>
<event>
 5   0  0.3379108E-06  0.1900708E+04  0.7818609E-02  0.8654504E-01
       -1   -1    0    0    0  501  0.00000000000E+00  0.00000000000E+00  0.57153156494E+03  0.57153156496E+03  0.50400001928E-02 0.  1.
        1   -1    0    0  501    0  0.00000000000E+00  0.00000000000E+00 -0.15802666728E+04  0.15802666728E+04  0.50400001928E-02 0. -1.
    10030    2    1    2    0    0  0.00000000000E+00  0.00000000000E+00 -0.10087351079E+04  0.21517982378E+04  0.19007075362E+04 0.  0.
        4    1    3    3  502    0 -0.73094723699E+03 -0.58422208212E+03 -0.69234917988E+03  0.11640224673E+04  0.12699999809E+01 0. -1.
       -4    1    3    3    0  502  0.73094723699E+03  0.58422208212E+03 -0.31638592798E+03  0.98777577052E+03  0.12699999809E+01 0.  1.
</event>
<event>
 5   0  0.6984466E-06  0.1904415E+04  0.7818609E-02  0.8652662E-01
       -2   -1    0    0    0  501  0.00000000000E+00  0.00000000000E+00  0.86091022440E+03  0.86091022440E+03  0.25500000920E-02 0.  1.
        2   -1    0    0  501    0  0.00000000000E+00  0.00000000000E+00 -0.10531870094E+04  0.10531870094E+04  0.25500000920E-02 0. -1.
    10030    2    1    2    0    0  0.00000000000E+00  0.00000000000E+00 -0.19227678495E+03  0.19140972338E+04  0.19044153586E+04 0.  0.
        2    1    3    3  502    0 -0.52582401859E+03  0.69891389588E+03 -0.47452002418E+03  0.99505818209E+03  0.25500000920E-02 0. -1.
       -2    1    3    3    0  502  0.52582401859E+03 -0.69891389588E+03  0.28224323923E+03  0.91903905167E+03  0.25500000920E-02 0.  1.
</event>
<event>
 5   0  0.6862201E-06  0.1899963E+04  0.7818609E-02  0.8654875E-01
       -2   -1    0    0    0  501  0.00000000000E+00  0.00000000000E+00  0.57707472096E+03  0.57707472096E+03  0.25500000920E-02 0.  1.
        2   -1    0    0  501    0  0.00000000000E+00  0.00000000000E+00 -0.15638605923E+04  0.15638605923E+04  0.25500000920E-02 0. -1.
    10030    2    1    2    0    0  0.00000000000E+00  0.00000000000E+00 -0.98678587139E+03  0.21409353133E+04  0.18999625417E+04 0.  0.
        3    1    3    3  502    0 -0.21265436198E+03  0.28122282993E+03 -0.14874055848E+04  0.15286214514E+04  0.10100000352E+00 0. -1.
       -3    1    3    3    0  502  0.21265436198E+03 -0.28122282993E+03  0.50061971346E+03  0.61231386188E+03  0.10100000352E+00 0.  1.
</event>
<event>
 5   0  0.3211263E-06  0.1900122E+04  0.7818609E-02  0.8654796E-01
        1   -1    0    0  501    0  0.00000000000E+00  0.00000000000E+00  0.55499448249E+03  0.55499448252E+03  0.50400001928E-02 0. -1.
       -1   -1    0    0    0  501  0.00000000000E+00  0.00000000000E+00 -0.16263510642E+04  0.16263510642E+04  0.50400001928E-02 0.  1.
    10030    2    1    2    0    0  0.00000000000E+00  0.00000000000E+00 -0.10713565817E+04  0.21813455467E+04  0.19001219616E+04 0.  0.
        5    1    3    3  502    0 -0.36877607219E+03 -0.14440356775E+03 -0.15270541483E+04  0.15775818976E+04  0.46999998093E+01 0.  1.
       -5    1    3    3    0  502  0.36877607219E+03  0.14440356775E+03  0.45569756660E+03  0.60376364912E+03  0.46999998093E+01 0. -1.
</event>
<event>
 5   0  0.2527750E-06  0.1898273E+04  0.7818609E-02  0.8655716E-01
       -4   -1    0    0    0  501  0.00000000000E+00  0.00000000000E+00  0.97973157896E+03  0.97973240209E+03  0.12699999809E+01 0.  1.
        4   -1    0    0  501    0  0.00000000000E+00  0.00000000000E+00 -0.91949563928E+03  0.91949651634E+03  0.12699999809E+01 0. -1.
    10030    2    1    2    0    0  0.00000000000E+00  0.00000000000E+00  0.60235939677E+02  0.18992289184E+04  0.18982734566E+04 0.  0.
        5    1    3    3  502    0 -0.40920129540E+03  0.84769518945E+03  0.15185749787E+03  0.95347554978E+03  0.46999998093E+01 0.  1.
       -5    1    3    3    0  502  0.40920129540E+03 -0.84769518945E+03 -0.91621558190E+02  0.94575336864E+03  0.46999998093E+01 0. -1.
</event>
<event>
 5   0  0.7207648E-06  0.1900714E+04  0.7818609E-02  0.8654501E-01
        2   -1    0    0  501    0  0.00000000000E+00  0.00000000000E+00  0.12173520763E+04  0.12173520763E+04  0.25500000920E-02 0.  1.
       -2   -1    0    0    0  501  0.00000000000E+00  0.00000000000E+00 -0.74192056910E+03  0.74192056911E+03  0.25500000920E-02 0. -1.
    10030    2    1    2    0    0  0.00000000000E+00  0.00000000000E+00  0.47543150720E+03  0.19592726454E+04  0.19007141240E+04 0.  0.
        4    1    3    3  502    0  0.74960715874E+03 -0.41433880776E+03  0.66221548046E+03  0.10826442146E+04  0.12699999809E+01 0.  1.
       -4    1    3    3    0  502 -0.74960715874E+03  0.41433880776E+03 -0.18678397327E+03  0.87662843076E+03  0.12699999809E+01 0. -1.
</event>
<event>
 5   0  0.6984466E-06  0.1901355E+04  0.7818609E-02  0.8654182E-01
       -2   -1    0    0    0  501  0.00000000000E+00  0.00000000000E+00  0.59876620041E+03  0.59876620041E+03  0.25500000920E-02 0. -1.
        2   -1    0    0  501    0  0.00000000000E+00  0.00000000000E+00 -0.15094159673E+04  0.15094159673E+04  0.25500000920E-02 0.  1.
    10030    2    1    2    0    0  0.00000000000E+00  0.00000000000E+00 -0.91064976689E+03  0.21081821677E+04  0.19013545315E+04 0.  0.
        2    1    3    3  502    0  0.25244680326E+02  0.17597483439E+03 -0.14908217693E+04  0.15013840228E+04  0.25500000920E-02 0.  1.
       -2    1    3    3    0  502 -0.25244680326E+02 -0.17597483439E+03  0.58017200241E+03  0.60679814487E+03  0.25500000920E-02 0. -1.
</event>
<event>
 5   0  0.3495279E-06  0.1898787E+04  0.7818609E-02  0.8655460E-01
        1   -1    0    0  501    0  0.00000000000E+00  0.00000000000E+00  0.63078043964E+03  0.63078043966E+03  0.50400001928E-02 0.  1.
       -1   -1    0    0    0  501  0.00000000000E+00  0.00000000000E+00 -0.14289407388E+04  0.14289407388E+04  0.50400001928E-02 0. -1.
    10030    2    1    2    0    0  0.00000000000E+00  0.00000000000E+00 -0.79816029916E+03  0.20597211785E+04  0.18987868416E+04 0.  0.
        2    1    3    3  502    0 -0.51182268529E+03  0.38605398516E+03  0.36051871035E+03  0.73550926653E+03  0.25500000920E-02 0.  1.
       -2    1    3    3    0  502  0.51182268529E+03 -0.38605398516E+03 -0.11586790095E+04  0.13242119119E+04  0.25500000920E-02 0. -1.
</event>
<event>
 5   0  0.6984466E-06  0.1898229E+04  0.7818609E-02  0.8655738E-01
        2   -1    0    0  501    0  0.00000000000E+00  0.00000000000E+00  0.17213315044E+04  0.17213315044E+04  0.25500000920E-02 0. -1.
       -2   -1    0    0    0  501  0.00000000000E+00  0.00000000000E+00 -0.52332672420E+03  0.52332672421E+03  0.25500000920E-02 0.  1.
    10030    2    1    2    0    0  0.00000000000E+00  0.00000000000E+00  0.11980047802E+04  0.22446582286E+04  0.18982294671E+04 0.  0.
        2    1    3    3  502    0 -0.44025236894E+03 -0.17863953134E+03  0.15705869338E+04  0.16408770664E+04  0.25500000920E-02 0. -1.
       -2    1    3    3    0  502  0.44025236894E+03  0.17863953134E+03 -0.37258215365E+03  0.60378116213E+03  0.25500000920E-02 0.  1.
</event>
<event>
 5   0  0.7577180E-06  0.1900396E+04  0.7818609E-02  0.8654659E-01
       -2   -1    0    0    0  501  0.00000000000E+00  0.00000000000E+00  0.68022325771E+03  0.68022325771E+03  0.25500000920E-02 0. -1.
        2   -1    0    0  501    0  0.00000000000E+00  0.00000000000E+00 -0.13273239574E+04  0.13273239574E+04  0.25500000920E-02 0.  1.
    10030    2    1    2    0    0  0.00000000000E+00  0.00000000000E+00 -0.64710069968E+03  0.20075472151E+04  0.19003964074E+04 0.  0.
        5    1    3    3  502    0  0.75127085576E+03 -0.51001386252E+03 -0.61921033762E+03  0.10990748705E+04  0.46999998093E+01 0.  1.
       -5    1    3    3    0  502 -0.75127085576E+03  0.51001386252E+03 -0.27890362065E+02  0.90847234464E+03  0.46999998093E+01 0. -1.
</event>
<event>
 5   0  0.7207648E-06  0.1898842E+04  0.7818609E-02  0.8655433E-01
        2   -1    0    0  501    0  0.00000000000E+00  0.00000000000E+00  0.10171406524E+04  0.10171406524E+04  0.25500000920E-02 0.  1.
       -2   -1    0    0    0  501  0.00000000000E+00  0.00000000000E+00 -0.88621022257E+03  0.88621022258E+03  0.25500000920E-02 0. -1.
    10030    2    1    2    0    0  0.00000000000E+00  0.00000000000E+00  0.13093042987E+03  0.19033508750E+04  0.18988422199E+04 0.  0.
        4    1    3    3  502    0 -0.77235950460E+02 -0.94135155458E+03  0.16208230545E+03  0.95832167251E+03  0.12699999809E+01 0.  1.
       -4    1    3    3    0  502  0.77235950460E+02  0.94135155458E+03 -0.31151875586E+02  0.94502920251E+03  0.12699999809E+01 0. -1.
</event>
<event>
 5   0  0.6984466E-06  0.1899743E+04  0.7818609E-02  0.8654984E-01
       -2   -1    0    0    0  501  0.00000000000E+00  0.00000000000E+00  0.49042674411E+03  0.49042674412E+03  0.25500000920E-02 0.  1.
        2   -1    0    0  501    0  0.00000000000E+00  0.00000000000E+00 -0.18397369356E+04  0.18397369356E+04  0.25500000920E-02 0. -1.
    10030    2    1    2    0    0  0.00000000000E+00  0.00000000000E+00 -0.13493101915E+04  0.23301636798E+04  0.18997433462E+04 0.  0.
        2    1    3    3  502    0 -0.88151775884E+03 -0.35378729197E+03 -0.67974029018E+03  0.11680264848E+04  0.25500000920E-02 0. -1.
       -2    1    3    3    0  502  0.88151775884E+03  0.35378729197E+03 -0.66956990135E+03  0.11621371950E+04  0.25500000920E-02 0.  1.
</event>
<event>
 5   0  0.2527750E-06  0.1899968E+04  0.7818609E-02  0.8654872E-01
       -4   -1    0    0    0  501  0.00000000000E+00  0.00000000000E+00  0.10055376323E+04  0.10055384343E+04  0.12699999809E+01 0.  1.
        4   -1    0    0  501    0  0.00000000000E+00  0.00000000000E+00 -0.89749793389E+03  0.89749883245E+03  0.12699999809E+01 0. -1.
    10030    2    1    2    0    0  0.00000000000E+00  0.00000000000E+00  0.10803969841E+03  0.19030372668E+04  0.18999679635E+04 0.  0.
        2    1    3    3  502    0  0.83891190986E+03 -0.31531339660E+03  0.36960634745E+03  0.96943518745E+03  0.25500000920E-02 0. -1.
       -2    1    3    3    0  502 -0.83891190986E+03  0.31531339660E+03 -0.26156664904E+03  0.93360207931E+03  0.25500000920E-02 0.  1.
</event>
<event>
 5   0  0.3398807E-06  0.1900073E+04  0.7818609E-02  0.8654820E-01
        1   -1    0    0  501    0  0.00000000000E+00  0.00000000000E+00  0.73709264026E+03  0.73709264027E+03  0.50400001928E-02 0.  1.
       -1   -1    0    0    0  501  0.00000000000E+00  0.00000000000E+00 -0.12244997780E+04  0.12244997780E+04  0.50400001928E-02 0. -1.
    10030    2    1    2    0    0  0.00000000000E+00  0.00000000000E+00 -0.48740713773E+03  0.19615924183E+04  0.19000734453E+04 0.  0.
        1    1    3    3  502    0  0.42474600035E+03 -0.76387271418E+03  0.14072225384E+03  0.88527591238E+03  0.50400001928E-02 0.  1.
       -1    1    3    3    0  502 -0.42474600035E+03  0.76387271418E+03 -0.62812939157E+03  0.10763165059E+04  0.50400001928E-02 0. -1.
</event>
<event>
 5   0  0.6862201E-06  0.1900294E+04  0.7818609E-02  0.8654710E-01
       -2   -1    0    0    0  501  0.00000000000E+00  0.00000000000E+00  0.16194620544E+04  0.16194620544E+04  0.25500000920E-02 0. -1.
        2   -1    0    0  501    0  0.00000000000E+00  0.00000000000E+00 -0.55745626793E+03  0.55745626794E+03  0.25500000920E-02 0.  1.
    10030    2    1    2    0    0  0.00000000000E+00  0.00000000000E+00  0.10620057864E+04  0.21769183223E+04  0.19002939487E+04 0.  0.
        3    1    3    3  502    0  0.41326629436E+03  0.65523825593E+03 -0.99219578020E+02  0.78100623362E+03  0.10100000352E+00 0.  1.
       -3    1    3    3    0  502 -0.41326629436E+03 -0.65523825593E+03  0.11612253644E+04  0.13959120887E+04  0.10100000352E+00 0. -1.
</event>
<event>
 5   0  0.3398807E-06  0.1899936E+04  0.7818609E-02  0.8654888E-01
       -1   -1    0    0    0  501  0.00000000000E+00  0.00000000000E+00  0.48772631384E+03  0.48772631386E+03  0.50400001928E-02 0.  1.
        1   -1    0    0  501    0  0.00000000000E+00  0.00000000000E+00 -0.18502983432E+04  0.18502983432E+04  0.50400001928E-02 0. -1.
    10030    2    1    2    0    0  0.00000000000E+00  0.00000000000E+00 -0.13625720293E+04  0.23380246570E+04  0.18999359889E+04 0.  0.
        1    1    3    3  502    0  0.68628961514E+03 -0.42706212792E+02 -0.14878769566E+04  0.16390836143E+04  0.50400001928E-02 0. -1.
       -1    1    3    3    0  502 -0.68628961514E+03  0.42706212792E+02  0.12530492729E+03  0.69894104279E+03  0.50400001928E-02 0.  1.
</event>
<event>
 5   0  0.6984466E-06  0.1900626E+04  0.7818609E-02  0.8654545E-01
        2   -1    0    0  501    0  0.00000000000E+00  0.00000000000E+00  0.16358104291E+04  0.16358104291E+04  0.25500000920E-02 0. -1.
       -2   -1    0    0    0  501  0.00000000000E+00  0.00000000000E+00 -0.55207789605E+03  0.55207789605E+03  0.25500000920E-02 0.  1.
    10030    2    1    2    0    0  0.00000000000E+00  0.00000000000E+00  0.10837325331E+04  0.21878883252E+04  0.19006259812E+04 0.  0.
        2    1    3    3  502    0  0.33152765830E+03 -0.56372572268E+03  0.13355672832E+04  0.14870901945E+04  0.25500000920E-02 0. -1.
       -2    1    3    3    0  502 -0.33152765830E+03  0.56372572268E+03 -0.25183475010E+03  0.70079813070E+03  0.25500000920E-02 0.  1.
</event>
<event>
 5   0  0.7577180E-06  0.1901775E+04  0.7818609E-02  0.8653973E-01
        2   -1    0    0  501    0  0.00000000000E+00  0.00000000000E+00  0.16667631626E+04  0.16667631626E+04  0.25500000920E-02 0. -1.
       -2   -1    0    0    0  501  0.00000000000E+00  0.00000000000E+00 -0.54248088197E+03  0.54248088197E+03  0.25500000920E-02 0.  1.
    10030    2    1    2    0    0  0.00000000000E+00  0.00000000000E+00  0.11242822806E+04  0.22092440445E+04  0.19017751186E+04 0.  0.
        5    1    3    3  502    0  0.69921007512E+03  0.16755306550E+03  0.12849943803E+04  0.14724813773E+04  0.46999998093E+01 0. -1.
       -5    1    3    3    0  502 -0.69921007512E+03 -0.16755306550E+03 -0.16071209973E+03  0.73676266728E+03  0.46999998093E+01 0.  1.
</event>
<event>
 5   0  0.3236653E-06  0.1899174E+04  0.7818609E-02  0.8655268E-01
        1   -1    0    0  501    0  0.00000000000E+00  0.00000000000E+00  0.18604456143E+04  0.18604456143E+04  0.50400001928E-02 0. -1.
       -1   -1    0    0    0  501  0.00000000000E+00  0.00000000000E+00 -0.48467727435E+03  0.48467727437E+03  0.50400001928E-02 0.  1.
    10030    2    1    2    0    0  0.00000000000E+00  0.00000000000E+00  0.13757683400E+04  0.23451228887E+04  0.18991742516E+04 0.  0.
        3    1    3    3  502    0 -0.80611390104E+03  0.34702891199E+03  0.11356069463E+04  0.14352183924E+04  0.10100000352E+00 0. -1.
       -3    1    3    3    0  502  0.80611390104E+03 -0.34702891199E+03  0.24016139369E+03  0.90990449632E+03  0.10100000352E+00 0.  1.
</event>
<event>
 5   0  0.3398807E-06  0.1908397E+04  0.7818609E-02  0.8650688E-01
       -1   -1    0    0    0  501  0.00000000000E+00  0.00000000000E+00  0.65771541606E+03  0.65771541607E+03  0.50400001928E-02 0.  1.
        1   -1    0    0  501    0  0.00000000000E+00  0.00000000000E+00 -0.13843300968E+04  0.13843300968E+04  0.50400001928E-02 0. -1.
    10030    2    1    2    0    0  0.00000000000E+00  0.00000000000E+00 -0.72661468074E+03  0.20420455129E+04  0.19083974907E+04 0.  0.
        1    1    3    3  502    0 -0.51811444637E+03 -0.72757669294E+03 -0.41131598151E+01  0.89321181237E+03  0.50400001928E-02 0.  1.
       -1    1    3    3    0  502  0.51811444637E+03  0.72757669294E+03 -0.72250152093E+03  0.11488337005E+04  0.50400001928E-02 0. -1.
</event>
<event>
 5   0  0.3211263E-06  0.1899536E+04  0.7818609E-02  0.8655087E-01
        1   -1    0    0  501    0  0.00000000000E+00  0.00000000000E+00  0.63175947754E+03  0.63175947756E+03  0.50400001928E-02 0.  1.
       -1   -1    0    0    0  501  0.00000000000E+00  0.00000000000E+00 -0.14278530908E+04  0.14278530908E+04  0.50400001928E-02 0. -1.
    10030    2    1    2    0    0  0.00000000000E+00  0.00000000000E+00 -0.79609361329E+03  0.20596125684E+04  0.18995364937E+04 0.  0.
        5    1    3    3  502    0  0.63267960126E+03 -0.69413311514E+03 -0.55113027455E+03  0.10889770103E+04  0.46999998093E+01 0. -1.
       -5    1    3    3    0  502 -0.63267960126E+03  0.69413311514E+03 -0.24496333874E+03  0.97063555813E+03  0.46999998093E+01 0.  1.
</event>
<event>
 5   0  0.2527750E-06  0.1899616E+04  0.7818609E-02  0.8655048E-01
        3   -1    0    0  501    0  0.00000000000E+00  0.00000000000E+00  0.19605754840E+04  0.19605754866E+04  0.10100000352E+00 0. -1.
       -3   -1    0    0    0  501  0.00000000000E+00  0.00000000000E+00 -0.46013781212E+03  0.46013782321E+03  0.10100000352E+00 0.  1.
    10030    2    1    2    0    0  0.00000000000E+00  0.00000000000E+00  0.15004376718E+04  0.24207133098E+04  0.18996156772E+04 0.  0.
        1    1    3    3  502    0  0.52852899522E+03  0.30397705155E+03 -0.17783948701E+03  0.63511560351E+03  0.50400001928E-02 0.  1.
       -1    1    3    3    0  502 -0.52852899522E+03 -0.30397705155E+03  0.16782771588E+04  0.17855977063E+04  0.50400001928E-02 0. -1.
</event>
<event>
 5   0  0.2527750E-06  0.1899779E+04  0.7818609E-02  0.8654966E-01
        3   -1    0    0  501    0  0.00000000000E+00  0.00000000000E+00  0.60646744361E+03  0.60646745202E+03  0.10100000352E+00 0. -1.
       -3   -1    0    0    0  501  0.00000000000E+00  0.00000000000E+00 -0.14877798944E+04  0.14877798979E+04  0.10100000352E+00 0.  1.
    10030    2    1    2    0    0  0.00000000000E+00  0.00000000000E+00 -0.88131245082E+03  0.20942473499E+04  0.18997790204E+04 0.  0.
        2    1    3    3  502    0  0.35427975675E+03 -0.82443985782E+03 -0.78411788618E+03  0.11916610611E+04  0.25500000920E-02 0. -1.
       -2    1    3    3    0  502 -0.35427975675E+03  0.82443985782E+03 -0.97194564643E+02  0.90258628874E+03  0.25500000920E-02 0.  1.
</event>
<event>
 5   0  0.3236653E-06  0.1900598E+04  0.7818609E-02  0.8654559E-01
       -1   -1    0    0    0  501  0.00000000000E+00  0.00000000000E+00  0.75889159424E+03  0.75889159425E+03  0.50400001928E-02 0. -1.
        1   -1    0    0  501    0  0.00000000000E+00  0.00000000000E+00 -0.11899832511E+04  0.11899832511E+04  0.50400001928E-02 0.  1.
    10030    2    1    2    0    0  0.00000000000E+00  0.00000000000E+00 -0.43109165683E+03  0.19488748453E+04  0.19005981022E+04 0.  0.
        3    1    3    3  502    0 -0.35710534981E+03  0.51651865066E+03  0.51584068764E+03  0.81265452227E+03  0.10100000352E+00 0. -1.
       -3    1    3    3    0  502  0.35710534981E+03 -0.51651865066E+03 -0.94693234446E+03  0.11362203231E+04  0.10100000352E+00 0.  1.
</event>
<event>
 5   0  0.7577180E-06  0.1905277E+04  0.7818609E-02  0.8652234E-01
       -2   -1    0    0    0  501  0.00000000000E+00  0.00000000000E+00  0.11798686122E+04  0.11798686122E+04  0.25500000920E-02 0. -1.
        2   -1    0    0  501    0  0.00000000000E+00  0.00000000000E+00 -0.76917020353E+03  0.76917020353E+03  0.25500000920E-02 0.  1.
    10030    2    1    2    0    0  0.00000000000E+00  0.00000000000E+00  0.41069840865E+03  0.19490388157E+04  0.19052766524E+04 0.  0.
        5    1    3    3  502    0  0.13387461329E+03 -0.88890162890E+03 -0.11721736519E+03  0.90654868520E+03  0.46999998093E+01 0. -1.
       -5    1    3    3    0  502 -0.13387461329E+03  0.88890162890E+03  0.52791577384E+03  0.10424901305E+04  0.46999998093E+01 0.  1.
</event>
<event>
 5   0  0.2527750E-06  0.1901594E+04  0.7818609E-02  0.8654064E-01
       -3   -1    0    0    0  501  0.00000000000E+00  0.00000000000E+00  0.60170087087E+03  0.60170087935E+03  0.10100000352E+00 0.  1.
        3   -1    0    0  501    0  0.00000000000E+00  0.00000000000E+00 -0.15024317527E+04  0.15024317561E+04  0.10100000352E+00 0. -1.
    10030    2    1    2    0    0  0.00000000000E+00  0.00000000000E+00 -0.90073088182E+03  0.21041326354E+04  0.19015935491E+04 0.  0.
        2    1    3    3  502    0 -0.44180990242E+03 -0.62294941890E+03  0.17630681466E+03  0.78380231008E+03  0.25500000920E-02 0.  1.
       -2    1    3    3    0  502  0.44180990242E+03  0.62294941890E+03 -0.10770376965E+04  0.13203303253E+04  0.25500000920E-02 0. -1.
</event>
<event>
 5   0  0.7577180E-06  0.1900029E+04  0.7818609E-02  0.8654842E-01
       -2   -1    0    0    0  501  0.00000000000E+00  0.00000000000E+00  0.71859623233E+03  0.71859623233E+03  0.25500000920E-02 0.  1.
        2   -1    0    0  501    0  0.00000000000E+00  0.00000000000E+00 -0.12559589000E+04  0.12559589000E+04  0.25500000920E-02 0. -1.
    10030    2    1    2    0    0  0.00000000000E+00  0.00000000000E+00 -0.53736266768E+03  0.19745551323E+04  0.19000287719E+04 0.  0.
        5    1    3    3  502    0 -0.38313951105E+02  0.27655427749E+03 -0.12123486334E+04  0.12440906423E+04  0.46999998093E+01 0. -1.
       -5    1    3    3    0  502  0.38313951105E+02 -0.27655427749E+03  0.67498596576E+03  0.73046449005E+03  0.46999998093E+01 0.  1.
</event>
<event>
 5   0  0.3398807E-06  0.1898104E+04  0.7818609E-02  0.8655801E-01
        1   -1    0    0  501    0  0.00000000000E+00  0.00000000000E+00  0.21229933214E+04  0.21229933215E+04  0.50400001928E-02 0. -1.
       -1   -1    0    0    0  501  0.00000000000E+00  0.00000000000E+00 -0.42425915121E+03  0.42425915124E+03  0.50400001928E-02 0.  1.
    10030    2    1    2    0    0  0.00000000000E+00  0.00000000000E+00  0.16987341702E+04  0.25472524727E+04  0.18981036269E+04 0.  0.
        1    1    3    3  502    0  0.89313430060E+03  0.56951558329E+02  0.42548457357E+03  0.99094373265E+03  0.50400001928E-02 0.  1.
       -1    1    3    3    0  502 -0.89313430060E+03 -0.56951558329E+02  0.12732495967E+04  0.15563087400E+04  0.50400001928E-02 0. -1.
</event>
<event>
 5   0  0.3211263E-06  0.1899573E+04  0.7818609E-02  0.8655069E-01
       -1   -1    0    0    0  501  0.00000000000E+00  0.00000000000E+00  0.53085999356E+03  0.53085999359E+03  0.50400001928E-02 0.  1.
        1   -1    0    0  501    0  0.00000000000E+00  0.00000000000E+00 -0.16993069832E+04  0.16993069832E+04  0.50400001928E-02 0. -1.
    10030    2    1    2    0    0  0.00000000000E+00  0.00000000000E+00 -0.11684469896E+04  0.22301669768E+04  0.18995726827E+04 0.  0.
        5    1    3    3  502    0 -0.73118946579E+03 -0.33442421966E+03  0.93262757088E+01  0.80410612670E+03  0.46999998093E+01 0.  1.
       -5    1    3    3    0  502  0.73118946579E+03  0.33442421966E+03 -0.11777732653E+04  0.14260608501E+04  0.46999998093E+01 0. -1.
</event>
<event>
 5   0  0.6862201E-06  0.1900123E+04  0.7818609E-02  0.8654795E-01
        2   -1    0    0  501    0  0.00000000000E+00  0.00000000000E+00  0.21098382146E+04  0.21098382146E+04  0.25500000920E-02 0. -1.
       -2   -1    0    0    0  501  0.00000000000E+00  0.00000000000E+00 -0.42781310229E+03  0.42781310230E+03  0.25500000920E-02 0.  1.
    10030    2    1    2    0    0  0.00000000000E+00  0.00000000000E+00  0.16820251123E+04  0.25376513169E+04  0.19001225560E+04 0.  0.
        3    1    3    3  502    0 -0.61931982618E+03  0.34777652603E+03 -0.16473846946E+01  0.71028746520E+03  0.10100000352E+00 0.  1.
       -3    1    3    3    0  502  0.61931982618E+03 -0.34777652603E+03  0.16836724970E+04  0.18273638517E+04  0.10100000352E+00 0. -1.
</event>
<event>
 5   0  0.7577180E-06  0.1900581E+04  0.7818609E-02  0.8654567E-01
        2   -1    0    0  501    0  0.00000000000E+00  0.00000000000E+00  0.11983762501E+04  0.11983762501E+04  0.25500000920E-02 0. -1.
       -2   -1    0    0    0  501  0.00000000000E+00  0.00000000000E+00 -0.75356296467E+03  0.75356296468E+03  0.25500000920E-02 0.  1.
    10030    2    1    2    0    0  0.00000000000E+00  0.00000000000E+00  0.44481328539E+03  0.19519392147E+04  0.19005809215E+04 0.  0.
        5    1    3    3  502    0 -0.14477410640E+03 -0.32875870586E+03 -0.68113266114E+03  0.77006858177E+03  0.46999998093E+01 0.  1.
       -5    1    3    3    0  502  0.14477410640E+03  0.32875870586E+03  0.11259459465E+04  0.11818706330E+04  0.46999998093E+01 0. -1.
</event>
<event>
 5   0  0.2527750E-06  0.1899566E+04  0.7818609E-02  0.8655073E-01
       -3   -1    0    0    0  501  0.00000000000E+00  0.00000000000E+00  0.75327560485E+03  0.75327561162E+03  0.10100000352E+00 0.  1.
        3   -1    0    0  501    0  0.00000000000E+00  0.00000000000E+00 -0.11975528098E+04  0.11975528141E+04  0.10100000352E+00 0. -1.
    10030    2    1    2    0    0  0.00000000000E+00  0.00000000000E+00 -0.44427720498E+03  0.19508284257E+04  0.18995655587E+04 0.  0.
        4    1    3    3  502    0 -0.77152402059E+03  0.32201149971E+03 -0.68501800053E+03  0.10808293086E+04  0.12699999809E+01 0. -1.
       -4    1    3    3    0  502  0.77152402059E+03 -0.32201149971E+03  0.24074079555E+03  0.86999911715E+03  0.12699999809E+01 0.  1.
</event>
<event>
 5   0  0.7207648E-06  0.1900864E+04  0.7818609E-02  0.8654426E-01
       -2   -1    0    0    0  501  0.00000000000E+00  0.00000000000E+00  0.89666108275E+03  0.89666108275E+03  0.25500000920E-02 0. -1.
        2   -1    0    0  501    0  0.00000000000E+00  0.00000000000E+00 -0.10074279147E+04  0.10074279147E+04  0.25500000920E-02 0.  1.
    10030    2    1    2    0    0  0.00000000000E+00  0.00000000000E+00 -0.11076683195E+03  0.19040889975E+04  0.19008644400E+04 0.  0.
        4    1    3    3  502    0  0.14648432715E+03  0.22940430796E+03  0.85678518389E+03  0.89898078892E+03  0.12699999809E+01 0. -1.
       -4    1    3    3    0  502 -0.14648432715E+03 -0.22940430796E+03 -0.96755201584E+03  0.10051082085E+04  0.12699999809E+01 0.  1.
</event>
<event>
 5   0  0.3236653E-06  0.1894449E+04  0.7818609E-02  0.8657624E-01
       -1   -1    0    0    0  501  0.00000000000E+00  0.00000000000E+00  0.81725890142E+03  0.81725890144E+03  0.50400001928E-02 0. -1.
        1   -1    0    0  501    0  0.00000000000E+00  0.00000000000E+00 -0.10978580910E+04  0.10978580910E+04  0.50400001928E-02 0.  1.
    10030    2    1    2    0    0  0.00000000000E+00  0.00000000000E+00 -0.28059918955E+03  0.19151169924E+04  0.18944490464E+04 0.  0.
        3    1    3    3  502    0 -0.51763513215E+03  0.16643203505E+03 -0.92438280849E+03  0.10724408325E+04  0.10100000352E+00 0.  1.
       -3    1    3    3    0  502  0.51763513215E+03 -0.16643203505E+03  0.64378361894E+03  0.84267615995E+03  0.10100000352E+00 0. -1.
</event>
<event>
 5   0  0.3379108E-06  0.1901531E+04  0.7818609E-02  0.8654095E-01
       -1   -1    0    0    0  501  0.00000000000E+00  0.00000000000E+00  0.16815693014E+04  0.16815693014E+04  0.50400001928E-02 0.  1.
        1   -1    0    0  501    0  0.00000000000E+00  0.00000000000E+00 -0.53756614361E+03  0.53756614364E+03  0.50400001928E-02 0. -1.
    10030    2    1    2    0    0  0.00000000000E+00  0.00000000000E+00  0.11440031578E+04  0.22191354451E+04  0.19015306725E+04 0.  0.
        4    1    3    3  502    0 -0.19705274362E+03  0.31951275064E+03 -0.44741732974E+03  0.58403943483E+03  0.12699999809E+01 0. -1.
       -4    1    3    3    0  502  0.19705274362E+03 -0.31951275064E+03  0.15914204875E+04  0.16350960102E+04  0.12699999809E+01 0.  1.
</event>
<event>
 5   0  0.3379108E-06  0.1895119E+04  0.7818609E-02  0.8657290E-01
       -1   -1    0    0    0  501  0.00000000000E+00  0.00000000000E+00  0.90762776724E+03  0.90762776726E+03  0.50400001928E-02 0.  1.
        1   -1    0    0  501    0  0.00000000000E+00  0.00000000000E+00 -0.98924767040E+03  0.98924767041E+03  0.50400001928E-02 0. -1.
    10030    2    1    2    0    0  0.00000000000E+00  0.00000000000E+00 -0.81619903156E+02  0.18968754377E+04  0.18951186289E+04 0.  0.
        4    1    3    3  502    0 -0.83410060276E+03 -0.68797741425E+02 -0.48553039380E+03  0.96757341889E+03  0.12699999809E+01 0. -1.
       -4    1    3    3    0  502  0.83410060276E+03  0.68797741425E+02  0.40391049064E+03  0.92930201878E+03  0.12699999809E+01 0.  1.
</event>
<event>
 5   0  0.3379108E-06  0.1898599E+04  0.7818609E-02  0.8655554E-01
       -1   -1    0    0    0  501  0.00000000000E+00  0.00000000000E+00  0.28412292633E+03  0.28412292637E+03  0.50400001928E-02 0. -1.
        1   -1    0    0  501    0  0.00000000000E+00  0.00000000000E+00 -0.31717580595E+04  0.31717580595E+04  0.50400001928E-02 0.  1.
    10030    2    1    2    0    0  0.00000000000E+00  0.00000000000E+00 -0.28876351332E+04  0.34558809859E+04  0.18985986217E+04 0.  0.
        4    1    3    3  502    0 -0.15938086656E+03 -0.60546015036E+03 -0.27426786312E+04  0.28132315833E+04  0.12699999809E+01 0.  1.
       -4    1    3    3    0  502  0.15938086656E+03  0.60546015036E+03 -0.14495650200E+03  0.64264940261E+03  0.12699999809E+01 0. -1.
</event>
<event>
 5   0  0.3398807E-06  0.1900610E+04  0.7818609E-02  0.8654553E-01
        1   -1    0    0  501    0  0.00000000000E+00  0.00000000000E+00  0.18023271303E+04  0.18023271303E+04  0.50400001928E-02 0.  1.
       -1   -1    0    0    0  501  0.00000000000E+00  0.00000000000E+00 -0.50106295200E+03  0.50106295202E+03  0.50400001928E-02 0. -1.
    10030    2    1    2    0    0  0.00000000000E+00  0.00000000000E+00  0.13012641783E+04  0.23033900824E+04  0.19006097468E+04 0.  0.
        1    1    3    3  502    0  0.93337920432E+03  0.17789232917E+03  0.66928673153E+03  0.11622336894E+04  0.50400001928E-02 0.  1.
       -1    1    3    3    0  502 -0.93337920432E+03 -0.17789232917E+03  0.63197744681E+03  0.11411563929E+04  0.50400001928E-02 0. -1.
</event>
<event>
 5   0  0.3211263E-06  0.1899276E+04  0.7818609E-02  0.8655217E-01
       -1   -1    0    0    0  501  0.00000000000E+00  0.00000000000E+00  0.67352903179E+03  0.67352903181E+03  0.50400001928E-02 0.  1.
        1   -1    0    0  501    0  0.00000000000E+00  0.00000000000E+00 -0.13389359652E+04  0.13389359652E+04  0.50400001928E-02 0. -1.
    10030    2    1    2    0    0  0.00000000000E+00  0.00000000000E+00 -0.66540693345E+03  0.20124649971E+04  0.18992759087E+04 0.  0.
        5    1    3    3  502    0  0.79749628236E+03 -0.51554470412E+03 -0.33468352452E+03  0.10068871903E+04  0.46999998093E+01 0. -1.
       -5    1    3    3    0  502 -0.79749628236E+03  0.51554470412E+03 -0.33072340893E+03  0.10055778068E+04  0.46999998093E+01 0.  1.
</event>
<event>
 5   0  0.7207648E-06  0.1894423E+04  0.7818609E-02  0.8657637E-01
       -2   -1    0    0    0  501  0.00000000000E+00  0.00000000000E+00  0.61608785762E+03  0.61608785763E+03  0.25500000920E-02 0. -1.
        2   -1    0    0  501    0  0.00000000000E+00  0.00000000000E+00 -0.14563013980E+04  0.14563013980E+04  0.25500000920E-02 0.  1.
    10030    2    1    2    0    0  0.00000000000E+00  0.00000000000E+00 -0.84021354038E+03  0.20723892556E+04  0.18944229817E+04 0.  0.
        4    1    3    3  502    0  0.85913660338E+03 -0.36197768448E+03 -0.23684468169E+03  0.96189425795E+03  0.12699999809E+01 0. -1.
       -4    1    3    3    0  502 -0.85913660338E+03  0.36197768448E+03 -0.60336885869E+03  0.11104949977E+04  0.12699999809E+01 0.  1.
</event>
<event>
 5   0  0.3211263E-06  0.1900812E+04  0.7818609E-02  0.8654452E-01
       -1   -1    0    0    0  501  0.00000000000E+00  0.00000000000E+00  0.12925676073E+04  0.12925676073E+04  0.50400001928E-02 0.  1.
        1   -1    0    0  501    0  0.00000000000E+00  0.00000000000E+00 -0.69881949497E+03  0.69881949498E+03  0.50400001928E-02 0. -1.
    10030    2    1    2    0    0  0.00000000000E+00  0.00000000000E+00  0.59374811235E+03  0.19913871023E+04  0.19008118714E+04 0.  0.
        5    1    3    3  502    0 -0.59919654846E+03 -0.70862604726E+03  0.51173692982E+03  0.10597566484E+04  0.46999998093E+01 0.  1.
       -5    1    3    3    0  502  0.59919654846E+03  0.70862604726E+03  0.82011182528E+02  0.93163045388E+03  0.46999998093E+01 0. -1.
</event>
<event>
 5   0  0.7207648E-06  0.1900646E+04  0.7818609E-02  0.8654535E-01
       -2   -1    0    0    0  501  0.00000000000E+00  0.00000000000E+00  0.14805656373E+04  0.14805656373E+04  0.25500000920E-02 0.  1.
        2   -1    0    0  501    0  0.00000000000E+00  0.00000000000E+00 -0.60997906930E+03  0.60997906930E+03  0.25500000920E-02 0. -1.
    10030    2    1    2    0    0  0.00000000000E+00  0.00000000000E+00  0.87058656798E+03  0.20905447066E+04  0.19006462580E+04 0.  0.
        4    1    3    3  502    0  0.56284301730E+02 -0.18491760075E+02 -0.60794498041E+03  0.61082614541E+03  0.12699999809E+01 0. -1.
       -4    1    3    3    0  502 -0.56284301730E+02  0.18491760075E+02  0.14785315484E+04  0.14797185612E+04  0.12699999809E+01 0.  1.
</event>
<event>
 5   0  0.3398807E-06  0.1900080E+04  0.7818609E-02  0.8654816E-01
        1   -1    0    0  501    0  0.00000000000E+00  0.00000000000E+00  0.10732749513E+04  0.10732749513E+04  0.50400001928E-02 0.  1.
       -1   -1    0    0    0  501  0.00000000000E+00  0.00000000000E+00 -0.84095524684E+03  0.84095524686E+03  0.50400001928E-02 0. -1.
    10030    2    1    2    0    0  0.00000000000E+00  0.00000000000E+00  0.23231970447E+03  0.19142301982E+04  0.19000802106E+04 0.  0.
        1    1    3    3  502    0  0.86653717087E+03 -0.37290014068E+03  0.29171656359E+01  0.94337145033E+03  0.50400001928E-02 0.  1.
       -1    1    3    3    0  502 -0.86653717087E+03  0.37290014068E+03  0.22940253884E+03  0.97085874785E+03  0.50400001928E-02 0. -1.
</event>
<event>
 5   0  0.6870370E-06  0.1897526E+04  0.7818609E-02  0.8656089E-01
       -2   -1    0    0    0  501  0.00000000000E+00  0.00000000000E+00  0.32576084251E+03  0.32576084252E+03  0.25500000920E-02 0.  1.
        2   -1    0    0  501    0  0.00000000000E+00  0.00000000000E+00 -0.27632278734E+04  0.27632278734E+04  0.25500000920E-02 0. -1.
    10030    2    1    2    0    0  0.00000000000E+00  0.00000000000E+00 -0.24374670309E+04  0.30889887159E+04  0.18975262213E+04 0.  0.
        1    1    3    3  502    0 -0.11322431823E+03 -0.22600715651E+02 -0.27517488394E+04  0.27541699682E+04  0.50400001928E-02 0. -1.
       -1    1    3    3    0  502  0.11322431823E+03  0.22600715651E+02  0.31428180855E+03  0.33481874768E+03  0.50400001928E-02 0.  1.
</event>
<event>
 5   0  0.3236653E-06  0.1899595E+04  0.7818609E-02  0.8655058E-01
        1   -1    0    0  501    0  0.00000000000E+00  0.00000000000E+00  0.20089580011E+04  0.20089580011E+04  0.50400001928E-02 0. -1.
       -1   -1    0    0    0  501  0.00000000000E+00  0.00000000000E+00 -0.44904643579E+03  0.44904643581E+03  0.50400001928E-02 0.  1.
    10030    2    1    2    0    0  0.00000000000E+00  0.00000000000E+00  0.15599115653E+04  0.24580044369E+04  0.18995951464E+04 0.  0.
        3    1    3    3  502    0  0.80096162665E+03 -0.62226218564E+02  0.14355539816E+04  0.16450613587E+04  0.10100000352E+00 0. -1.
       -3    1    3    3    0  502 -0.80096162665E+03  0.62226218564E+02  0.12435758377E+03  0.81294307826E+03  0.10100000352E+00 0.  1.
</event>
<event>
 5   0  0.6984466E-06  0.1899498E+04  0.7818609E-02  0.8655107E-01
        2   -1    0    0  501    0  0.00000000000E+00  0.00000000000E+00  0.94348632053E+03  0.94348632053E+03  0.25500000920E-02 0.  1.
       -2   -1    0    0    0  501  0.00000000000E+00  0.00000000000E+00 -0.95605277131E+03  0.95605277132E+03  0.25500000920E-02 0. -1.
    10030    2    1    2    0    0  0.00000000000E+00  0.00000000000E+00 -0.12566450789E+02  0.18995390918E+04  0.18994975245E+04 0.  0.
        2    1    3    3  502    0  0.85686756669E+03  0.34028716154E+03  0.22176854155E+03  0.94826086347E+03  0.25500000920E-02 0.  1.
       -2    1    3    3    0  502 -0.85686756669E+03 -0.34028716154E+03 -0.23433499234E+03  0.95127822838E+03  0.25500000920E-02 0. -1.
</event>
<event>
 5   0  0.3398807E-06  0.1891637E+04  0.7818609E-02  0.8659030E-01
       -1   -1    0    0    0  501  0.00000000000E+00  0.00000000000E+00  0.95333412852E+03  0.95333412853E+03  0.50400001928E-02 0.  1.
        1   -1    0    0  501    0  0.00000000000E+00  0.00000000000E+00 -0.93836209905E+03  0.93836209907E+03  0.50400001928E-02 0. -1.
    10030    2    1    2    0    0  0.00000000000E+00  0.00000000000E+00  0.14972029464E+02  0.18916962276E+04  0.18916369778E+04 0.  0.
        1    1    3    3  502    0 -0.68914601293E+03 -0.55411333621E+03  0.34306886859E+03  0.94850411972E+03  0.50400001928E-02 0. -1.
       -1    1    3    3    0  502  0.68914601293E+03  0.55411333621E+03 -0.32809683912E+03  0.94319210788E+03  0.50400001928E-02 0.  1.
</event>
<event>
 5   0  0.3236653E-06  0.1902215E+04  0.7818609E-02  0.8653754E-01
       -1   -1    0    0    0  501  0.00000000000E+00  0.00000000000E+00  0.94951726568E+03  0.94951726570E+03  0.50400001928E-02 0.  1.
        1   -1    0    0  501    0  0.00000000000E+00  0.00000000000E+00 -0.95270077328E+03  0.95270077329E+03  0.50400001928E-02 0. -1.
    10030    2    1    2    0    0  0.00000000000E+00  0.00000000000E+00 -0.31835075945E+01  0.19022180390E+04  0.19022153751E+04 0.  0.
        3    1    3    3  502    0  0.64770392869E+03  0.62324935047E+03 -0.31247108998E+03  0.95162929987E+03  0.10100000352E+00 0. -1.
       -3    1    3    3    0  502 -0.64770392869E+03 -0.62324935047E+03  0.30928758238E+03  0.95058873911E+03  0.10100000352E+00 0.  1.
</event>
<event>
 5   0  0.3398807E-06  0.1900049E+04  0.7818609E-02  0.8654832E-01
       -1   -1    0    0    0  501  0.00000000000E+00  0.00000000000E+00  0.90810556246E+03  0.90810556248E+03  0.50400001928E-02 0.  1.
        1   -1    0    0  501    0  0.00000000000E+00  0.00000000000E+00 -0.99387893120E+03  0.99387893121E+03  0.50400001928E-02 0. -1.
    10030    2    1    2    0    0  0.00000000000E+00  0.00000000000E+00 -0.85773368734E+02  0.19019844937E+04  0.19000494582E+04 0.  0.
        1    1    3    3  502    0 -0.61241477279E+03  0.17058878931E+03 -0.74957633131E+03  0.98286167158E+03  0.50400001928E-02 0. -1.
       -1    1    3    3    0  502  0.61241477279E+03 -0.17058878931E+03  0.66380296258E+03  0.91912282211E+03  0.50400001928E-02 0.  1.
</event>
<event>
 5   0  0.7577180E-06  0.1899875E+04  0.7818609E-02  0.8654918E-01
       -2   -1    0    0    0  501  0.00000000000E+00  0.00000000000E+00  0.11920372699E+04  0.11920372699E+04  0.25500000920E-02 0.  1.
        2   -1    0    0  501    0  0.00000000000E+00  0.00000000000E+00 -0.75700786139E+03  0.75700786139E+03  0.25500000920E-02 0. -1.
    10030    2    1    2    0    0  0.00000000000E+00  0.00000000000E+00  0.43502940854E+03  0.19490451313E+04  0.18998753479E+04 0.  0.
        5    1    3    3  502    0 -0.48769567573E+03  0.50660455081E+03  0.87268561838E+03  0.11207575659E+04  0.46999998093E+01 0. -1.
       -5    1    3    3    0  502  0.48769567573E+03 -0.50660455081E+03 -0.43765620984E+03  0.82828756542E+03  0.46999998093E+01 0.  1.
</event>
<event>
 5   0  0.6862201E-06  0.1899986E+04  0.7818609E-02  0.8654864E-01
       -2   -1    0    0    0  501  0.00000000000E+00  0.00000000000E+00  0.74103155860E+03  0.74103155861E+03  0.25500000920E-02 0. -1.
        2   -1    0    0  501    0  0.00000000000E+00  0.00000000000E+00 -0.12178783640E+04  0.12178783640E+04  0.25500000920E-02 0.  1.
    10030    2    1    2    0    0  0.00000000000E+00  0.00000000000E+00 -0.47684680535E+03  0.19589099226E+04  0.18999855812E+04 0.  0.
        3    1    3    3  502    0 -0.37228635171E+03 -0.63672095874E+03  0.37887329273E+03  0.82918977871E+03  0.10100000352E+00 0. -1.
       -3    1    3    3    0  502  0.37228635171E+03  0.63672095874E+03 -0.85572009808E+03  0.11297201439E+04  0.10100000352E+00 0.  1.
</event>
<event>
 5   0  0.6870370E-06  0.1900608E+04  0.7818609E-02  0.8654554E-01
        2   -1    0    0  501    0  0.00000000000E+00  0.00000000000E+00  0.14225912898E+04  0.14225912898E+04  0.25500000920E-02 0. -1.
       -2   -1    0    0    0  501  0.00000000000E+00  0.00000000000E+00 -0.63481178869E+03  0.63481178870E+03  0.25500000920E-02 0.  1.
    10030    2    1    2    0    0  0.00000000000E+00  0.00000000000E+00  0.78777950107E+03  0.20574030785E+04  0.19006080303E+04 0.  0.
        1    1    3    3  502    0  0.73017308423E+03  0.51617947700E+03  0.45662403077E+02  0.89536531119E+03  0.50400001928E-02 0.  1.
       -1    1    3    3    0  502 -0.73017308423E+03 -0.51617947700E+03  0.74211709799E+03  0.11620377673E+04  0.50400001928E-02 0. -1.
</event>
<event>
 5   0  0.3495279E-06  0.1895361E+04  0.7818609E-02  0.8657169E-01
        1   -1    0    0  501    0  0.00000000000E+00  0.00000000000E+00  0.20301147681E+04  0.20301147681E+04  0.50400001928E-02 0. -1.
       -1   -1    0    0    0  501  0.00000000000E+00  0.00000000000E+00 -0.44238803369E+03  0.44238803372E+03  0.50400001928E-02 0.  1.
    10030    2    1    2    0    0  0.00000000000E+00  0.00000000000E+00  0.15877267344E+04  0.24725028018E+04  0.18953611587E+04 0.  0.
        2    1    3    3  502    0  0.44014259100E+03  0.77571464895E+03  0.12117924917E+04  0.15046261197E+04  0.25500000920E-02 0. -1.
       -2    1    3    3    0  502 -0.44014259100E+03 -0.77571464895E+03  0.37593424270E+03  0.96787668215E+03  0.25500000920E-02 0.  1.
</event>
<event>
 5   0  0.3398807E-06  0.1898994E+04  0.7818609E-02  0.8655357E-01
        1   -1    0    0  501    0  0.00000000000E+00  0.00000000000E+00  0.13532657159E+04  0.13532657159E+04  0.50400001928E-02 0. -1.
       -1   -1    0    0    0  501  0.00000000000E+00  0.00000000000E+00 -0.66619933934E+03  0.66619933936E+03  0.50400001928E-02 0.  1.
    10030    2    1    2    0    0  0.00000000000E+00  0.00000000000E+00  0.68706637652E+03  0.20194650552E+04  0.18989941821E+04 0.  0.
        1    1    3    3  502    0 -0.81760430242E+03  0.19843512847E+03 -0.12449058269E+03  0.85050055893E+03  0.50400001928E-02 0.  1.
       -1    1    3    3    0  502  0.81760430242E+03 -0.19843512847E+03  0.81155695921E+03  0.11689644963E+04  0.50400001928E-02 0. -1.
</event>
<event>
 5   0  0.7577180E-06  0.1900166E+04  0.7818609E-02  0.8654774E-01
       -2   -1    0    0    0  501  0.00000000000E+00  0.00000000000E+00  0.60500412067E+03  0.60500412068E+03  0.25500000920E-02 0. -1.
        2   -1    0    0  501    0  0.00000000000E+00  0.00000000000E+00 -0.14919857502E+04  0.14919857502E+04  0.25500000920E-02 0.  1.
    10030    2    1    2    0    0  0.00000000000E+00  0.00000000000E+00 -0.88698162955E+03  0.20969898709E+04  0.19001658105E+04 0.  0.
        5    1    3    3  502    0 -0.21294693423E+03  0.12666691995E+03  0.56870831626E+03  0.62035646558E+03  0.46999998093E+01 0. -1.
       -5    1    3    3    0  502  0.21294693423E+03 -0.12666691995E+03 -0.14556899458E+04  0.14766334053E+04  0.46999998093E+01 0.  1.
</event>
<event>
 5   0  0.3211263E-06  0.1899941E+04  0.7818609E-02  0.8654886E-01
       -1   -1    0    0    0  501  0.00000000000E+00  0.00000000000E+00  0.87562806978E+03  0.87562806980E+03  0.50400001928E-02 0.  1.
        1   -1    0    0  501    0  0.00000000000E+00  0.00000000000E+00 -0.10306243812E+04  0.10306243812E+04  0.50400001928E-02 0. -1.
    10030    2    1    2    0    0  0.00000000000E+00  0.00000000000E+00 -0.15499631139E+03  0.19062524510E+04  0.18999406702E+04 0.  0.
        5    1    3    3  502    0 -0.33663417611E+03 -0.14344708735E+03 -0.95706429722E+03  0.10246432523E+04  0.46999998093E+01 0. -1.
       -5    1    3    3    0  502  0.33663417611E+03  0.14344708735E+03  0.80206798582E+03  0.88160919873E+03  0.46999998093E+01 0.  1.
</event>
<event>
 5   0  0.3379108E-06  0.1901034E+04  0.7818609E-02  0.8654342E-01
        1   -1    0    0  501    0  0.00000000000E+00  0.00000000000E+00  0.20750057181E+04  0.20750057181E+04  0.50400001928E-02 0.  1.
       -1   -1    0    0    0  501  0.00000000000E+00  0.00000000000E+00 -0.43541230057E+03  0.43541230060E+03  0.50400001928E-02 0. -1.
    10030    2    1    2    0    0  0.00000000000E+00  0.00000000000E+00  0.16395934176E+04  0.25104180187E+04  0.19010344694E+04 0.  0.
        4    1    3    3  502    0 -0.49171738461E+03  0.31433291936E+02  0.18931943214E+04  0.19562618408E+04  0.12699999809E+01 0.  1.
       -4    1    3    3    0  502  0.49171738461E+03 -0.31433291936E+02 -0.25360090389E+03  0.55415617792E+03  0.12699999809E+01 0. -1.
</event>
<event>
 5   0  0.7577180E-06  0.1899142E+04  0.7818609E-02  0.8655284E-01
       -2   -1    0    0    0  501  0.00000000000E+00  0.00000000000E+00  0.48239852100E+03  0.48239852101E+03  0.25500000920E-02 0.  1.
        2   -1    0    0  501    0  0.00000000000E+00  0.00000000000E+00 -0.18691695458E+04  0.18691695458E+04  0.25500000920E-02 0. -1.
    10030    2    1    2    0    0  0.00000000000E+00  0.00000000000E+00 -0.13867710248E+04  0.23515680668E+04  0.18991415160E+04 0.  0.
        5    1    3    3  502    0 -0.14652639059E+03  0.66314715662E+02  0.46539567170E+03  0.49242547242E+03  0.46999998093E+01 0.  1.
       -5    1    3    3    0  502  0.14652639059E+03 -0.66314715662E+02 -0.18521666965E+04  0.18591425944E+04  0.46999998093E+01 0. -1.
</event>
<event>
 5   0  0.3211263E-06  0.1899702E+04  0.7818609E-02  0.8655005E-01
       -1   -1    0    0    0  501  0.00000000000E+00  0.00000000000E+00  0.59904093126E+03  0.59904093128E+03  0.50400001928E-02 0. -1.
        1   -1    0    0  501    0  0.00000000000E+00  0.00000000000E+00 -0.15061029090E+04  0.15061029090E+04  0.50400001928E-02 0.  1.
    10030    2    1    2    0    0  0.00000000000E+00  0.00000000000E+00 -0.90706197776E+03  0.21051438403E+04  0.18997023864E+04 0.  0.
        5    1    3    3  502    0 -0.16129336583E+03 -0.60412786955E+03  0.33877971601E+03  0.71118198698E+03  0.46999998093E+01 0. -1.
       -5    1    3    3    0  502  0.16129336583E+03  0.60412786955E+03 -0.12458416938E+04  0.13939618533E+04  0.46999998093E+01 0.  1.
</event>
<event>
 5   0  0.7577180E-06  0.1899911E+04  0.7818609E-02  0.8654901E-01
       -2   -1    0    0    0  501  0.00000000000E+00  0.00000000000E+00  0.72636990429E+03  0.72636990429E+03  0.25500000920E-02 0.  1.
        2   -1    0    0  501    0  0.00000000000E+00  0.00000000000E+00 -0.12423633063E+04  0.12423633063E+04  0.25500000920E-02 0. -1.
    10030    2    1    2    0    0  0.00000000000E+00  0.00000000000E+00 -0.51599340201E+03  0.19687332106E+04  0.18999108567E+04 0.  0.
        5    1    3    3  502    0 -0.30767441604E+03  0.62572834595E+03  0.41050328527E+03  0.80915668843E+03  0.46999998093E+01 0.  1.
       -5    1    3    3    0  502  0.30767441604E+03 -0.62572834595E+03 -0.92649668728E+03  0.11595765222E+04  0.46999998093E+01 0. -1.
</event>
<event>
 5   0  0.7207648E-06  0.1900404E+04  0.7818609E-02  0.8654655E-01
       -2   -1    0    0    0  501  0.00000000000E+00  0.00000000000E+00  0.65788768835E+03  0.65788768835E+03  0.25500000920E-02 0.  1.
        2   -1    0    0  501    0  0.00000000000E+00  0.00000000000E+00 -0.13723976129E+04  0.13723976129E+04  0.25500000920E-02 0. -1.
    10030    2    1    2    0    0  0.00000000000E+00  0.00000000000E+00 -0.71450992455E+03  0.20302853012E+04  0.19004036340E+04 0.  0.
        4    1    3    3  502    0  0.17223505923E+03 -0.78340440171E+03  0.18696604716E+03  0.82361719745E+03  0.12699999809E+01 0.  1.
       -4    1    3    3    0  502 -0.17223505923E+03  0.78340440171E+03 -0.90147597171E+03  0.12066681038E+04  0.12699999809E+01 0. -1.
</event>
<event>
 5   0  0.6870370E-06  0.1899553E+04  0.7818609E-02  0.8655079E-01
        2   -1    0    0  501    0  0.00000000000E+00  0.00000000000E+00  0.10536089727E+04  0.10536089727E+04  0.25500000920E-02 0.  1.
       -2   -1    0    0    0  501  0.00000000000E+00  0.00000000000E+00 -0.85617629106E+03  0.85617629107E+03  0.25500000920E-02 0. -1.
    10030    2    1    2    0    0  0.00000000000E+00  0.00000000000E+00  0.19743268164E+03  0.19097852638E+04  0.18995526026E+04 0.  0.
        1    1    3    3  502    0 -0.14213012105E+03  0.16398310556E+03  0.10283505646E+04  0.10509977706E+04  0.50400001928E-02 0.  1.
       -1    1    3    3    0  502  0.14213012105E+03 -0.16398310556E+03 -0.83091788291E+03  0.85878749315E+03  0.50400001928E-02 0. -1.
</event>
<event>
 5   0  0.6870370E-06  0.1901579E+04  0.7818609E-02  0.8654071E-01
        2   -1    0    0  501    0  0.00000000000E+00  0.00000000000E+00  0.11566380325E+04  0.11566380325E+04  0.25500000920E-02 0. -1.
       -2   -1    0    0    0  501  0.00000000000E+00  0.00000000000E+00 -0.78157640143E+03  0.78157640144E+03  0.25500000920E-02 0.  1.
    10030    2    1    2    0    0  0.00000000000E+00  0.00000000000E+00  0.37506163110E+03  0.19382144340E+04  0.19015793344E+04 0.  0.
        1    1    3    3  502    0  0.46711148869E+03  0.14592790215E+03 -0.64335066889E+03  0.80832430291E+03  0.50400001928E-02 0.  1.
       -1    1    3    3    0  502 -0.46711148869E+03 -0.14592790215E+03  0.10184123000E+04  0.11298901311E+04  0.50400001928E-02 0. -1.
</event>
<event>
 5   0  0.3495279E-06  0.1899300E+04  0.7818609E-02  0.8655205E-01
       -1   -1    0    0    0  501  0.00000000000E+00  0.00000000000E+00  0.14449822425E+04  0.14449822425E+04  0.50400001928E-02 0.  1.
        1   -1    0    0  501    0  0.00000000000E+00  0.00000000000E+00 -0.62411507059E+03  0.62411507061E+03  0.50400001928E-02 0. -1.
    10030    2    1    2    0    0  0.00000000000E+00  0.00000000000E+00  0.82086717191E+03  0.20690973131E+04  0.18993000756E+04 0.  0.
        2    1    3    3  502    0 -0.74702516964E+03  0.22119432587E+03  0.10019904318E+04  0.12692353443E+04  0.25500000920E-02 0.  1.
       -2    1    3    3    0  502  0.74702516964E+03 -0.22119432587E+03 -0.18112325986E+03  0.79986196880E+03  0.25500000920E-02 0. -1.
</event>
<event>
 5   0  0.6870370E-06  0.1903067E+04  0.7818609E-02  0.8653331E-01
        2   -1    0    0  501    0  0.00000000000E+00  0.00000000000E+00  0.17688848757E+04  0.17688848757E+04  0.25500000920E-02 0.  1.
       -2   -1    0    0    0  501  0.00000000000E+00  0.00000000000E+00 -0.51185714080E+03  0.51185714081E+03  0.25500000920E-02 0. -1.
    10030    2    1    2    0    0  0.00000000000E+00  0.00000000000E+00  0.12570277349E+04  0.22807420165E+04  0.19030673713E+04 0.  0.
        1    1    3    3  502    0  0.24150843196E+03  0.56916009235E+02 -0.47240364945E+03  0.53360187673E+03  0.50400001928E-02 0. -1.
       -1    1    3    3    0  502 -0.24150843196E+03 -0.56916009235E+02  0.17294313843E+04  0.17471401398E+04  0.50400001928E-02 0.  1.
</event>
<event>
 5   0  0.3211263E-06  0.1901234E+04  0.7818609E-02  0.8654242E-01
        1   -1    0    0  501    0  0.00000000000E+00  0.00000000000E+00  0.16740435995E+04  0.16740435995E+04  0.50400001928E-02 0. -1.
       -1   -1    0    0    0  501  0.00000000000E+00  0.00000000000E+00 -0.53981457239E+03  0.53981457241E+03  0.50400001928E-02 0.  1.
    10030    2    1    2    0    0  0.00000000000E+00  0.00000000000E+00  0.11342290271E+04  0.22138581719E+04  0.19012344725E+04 0.  0.
        5    1    3    3  502    0 -0.85893211129E+02  0.63009230072E+03 -0.25565129339E+03  0.68540033919E+03  0.46999998093E+01 0.  1.
       -5    1    3    3    0  502  0.85893211129E+02 -0.63009230072E+03  0.13898803205E+04  0.15284578327E+04  0.46999998093E+01 0. -1.
</event>
<event>
 5   0  0.3236653E-06  0.1900419E+04  0.7818609E-02  0.8654648E-01
        1   -1    0    0  501    0  0.00000000000E+00  0.00000000000E+00  0.12024309393E+04  0.12024309393E+04  0.50400001928E-02 0. -1.
       -1   -1    0    0    0  501  0.00000000000E+00  0.00000000000E+00 -0.75089420510E+03  0.75089420512E+03  0.50400001928E-02 0.  1.
    10030    2    1    2    0    0  0.00000000000E+00  0.00000000000E+00  0.45153673415E+03  0.19533251444E+04  0.19004193478E+04 0.  0.
        3    1    3    3  502    0  0.28083805859E+03  0.27242575735E+03  0.11157918512E+04  0.11824031774E+04  0.10100000352E+00 0. -1.
       -3    1    3    3    0  502 -0.28083805859E+03 -0.27242575735E+03 -0.66425511709E+03  0.77092196700E+03  0.10100000352E+00 0.  1.
</event>
<event>
 5   0  0.7207648E-06  0.1899635E+04  0.7818609E-02  0.8655038E-01
        2   -1    0    0  501    0  0.00000000000E+00  0.00000000000E+00  0.99680769939E+03  0.99680769939E+03  0.25500000920E-02 0. -1.
       -2   -1    0    0    0  501  0.00000000000E+00  0.00000000000E+00 -0.90504279440E+03  0.90504279441E+03  0.25500000920E-02 0.  1.
    10030    2    1    2    0    0  0.00000000000E+00  0.00000000000E+00  0.91764904983E+02  0.19018504938E+04  0.18996353605E+04 0.  0.
        4    1    3    3  502    0  0.93491194117E+03  0.82267637556E+02 -0.10031423134E+03  0.94387120935E+03  0.12699999809E+01 0.  1.
       -4    1    3    3    0  502 -0.93491194117E+03 -0.82267637556E+02  0.19207913632E+03  0.95797928445E+03  0.12699999809E+01 0. -1.
</event>
<event>
 5   0  0.3398807E-06  0.1899554E+04  0.7818609E-02  0.8655078E-01
       -1   -1    0    0    0  501  0.00000000000E+00  0.00000000000E+00  0.59645415269E+03  0.59645415272E+03  0.50400001928E-02 0.  1.
        1   -1    0    0  501    0  0.00000000000E+00  0.00000000000E+00 -0.15123989538E+04  0.15123989538E+04  0.50400001928E-02 0. -1.
    10030    2    1    2    0    0  0.00000000000E+00  0.00000000000E+00 -0.91594480107E+03  0.21088531065E+04  0.18995543020E+04 0.  0.
        1    1    3    3  502    0  0.64756426174E+03 -0.69341745663E+03 -0.50648364599E+03  0.10754965950E+04  0.50400001928E-02 0.  1.
       -1    1    3    3    0  502 -0.64756426174E+03  0.69341745663E+03 -0.40946115509E+03  0.10333565115E+04  0.50400001928E-02 0. -1.
</event>
<event>
 5   0  0.6862201E-06  0.1900268E+04  0.7818609E-02  0.8654723E-01
       -2   -1    0    0    0  501  0.00000000000E+00  0.00000000000E+00  0.96712551954E+03  0.96712551954E+03  0.25500000920E-02 0.  1.
        2   -1    0    0  501    0  0.00000000000E+00  0.00000000000E+00 -0.93344148455E+03  0.93344148455E+03  0.25500000920E-02 0. -1.
    10030    2    1    2    0    0  0.00000000000E+00  0.00000000000E+00  0.33684034995E+02  0.19005670041E+04  0.19002684870E+04 0.  0.
        3    1    3    3  502    0  0.11311776227E+03  0.19883440049E+03 -0.90548738912E+03  0.93393691919E+03  0.10100000352E+00 0. -1.
       -3    1    3    3    0  502 -0.11311776227E+03 -0.19883440049E+03  0.93917142412E+03  0.96663008491E+03  0.10100000352E+00 0.  1.
</event>
<event>
 5   0  0.6862201E-06  0.1899055E+04  0.7818609E-02  0.8655327E-01
        2   -1    0    0  501    0  0.00000000000E+00  0.00000000000E+00  0.58106814086E+03  0.58106814087E+03  0.25500000920E-02 0. -1.
       -2   -1    0    0    0  501  0.00000000000E+00  0.00000000000E+00 -0.15516293817E+04  0.15516293817E+04  0.25500000920E-02 0.  1.
    10030    2    1    2    0    0  0.00000000000E+00  0.00000000000E+00 -0.97056124086E+03  0.21326975226E+04  0.18990549230E+04 0.  0.
        3    1    3    3  502    0  0.94244807803E+03 -0.11557527074E+03 -0.47850817922E+03  0.10632667167E+04  0.10100000352E+00 0. -1.
       -3    1    3    3    0  502 -0.94244807803E+03  0.11557527074E+03 -0.49205306164E+03  0.10694308059E+04  0.10100000352E+00 0.  1.
</event>
<event>
 5   0  0.6862201E-06  0.1900568E+04  0.7818609E-02  0.8654574E-01
       -2   -1    0    0    0  501  0.00000000000E+00  0.00000000000E+00  0.15662627183E+04  0.15662627183E+04  0.25500000920E-02 0. -1.
        2   -1    0    0  501    0  0.00000000000E+00  0.00000000000E+00 -0.57655703853E+03  0.57655703853E+03  0.25500000920E-02 0.  1.
    10030    2    1    2    0    0  0.00000000000E+00  0.00000000000E+00  0.98970567978E+03  0.21428197568E+04  0.19005681197E+04 0.  0.
        3    1    3    3  502    0 -0.26928874572E+03 -0.39238263677E+03  0.14222272566E+04  0.14997369575E+04  0.10100000352E+00 0. -1.
       -3    1    3    3    0  502  0.26928874572E+03  0.39238263677E+03 -0.43252157678E+03  0.64308279933E+03  0.10100000352E+00 0.  1.
</event>
<event>
 5   0  0.3495279E-06  0.1900217E+04  0.7818609E-02  0.8654748E-01
        1   -1    0    0  501    0  0.00000000000E+00  0.00000000000E+00  0.12176776745E+04  0.12176776745E+04  0.50400001928E-02 0.  1.
       -1   -1    0    0    0  501  0.00000000000E+00  0.00000000000E+00 -0.74133415175E+03  0.74133415177E+03  0.50400001928E-02 0. -1.
    10030    2    1    2    0    0  0.00000000000E+00  0.00000000000E+00  0.47634352276E+03  0.19590118263E+04  0.19002168781E+04 0.  0.
        2    1    3    3  502    0  0.34877845338E+03  0.24893243559E+03  0.11124027552E+04  0.11920795514E+04  0.25500000920E-02 0.  1.
       -2    1    3    3    0  502 -0.34877845338E+03 -0.24893243559E+03 -0.63605923247E+03  0.76693227488E+03  0.25500000920E-02 0. -1.
</event>
<event>
 5   0  0.7577180E-06  0.1899855E+04  0.7818609E-02  0.8654928E-01
        2   -1    0    0  501    0  0.00000000000E+00  0.00000000000E+00  0.65599929737E+03  0.65599929738E+03  0.25500000920E-02 0.  1.
       -2   -1    0    0    0  501  0.00000000000E+00  0.00000000000E+00 -0.13755539215E+04  0.13755539215E+04  0.25500000920E-02 0. -1.
    10030    2    1    2    0    0  0.00000000000E+00  0.00000000000E+00 -0.71955462413E+03  0.20315532189E+04  0.18998551587E+04 0.  0.
        5    1    3    3  502    0 -0.48854341096E+03 -0.80560991352E+03 -0.23031308181E+03  0.96992175086E+03  0.46999998093E+01 0.  1.
       -5    1    3    3    0  502  0.48854341096E+03  0.80560991352E+03 -0.48924154232E+03  0.10616314680E+04  0.46999998093E+01 0. -1.
</event>
<event>
 5   0  0.7577180E-06  0.1899530E+04  0.7818609E-02  0.8655090E-01
        2   -1    0    0  501    0  0.00000000000E+00  0.00000000000E+00  0.11926325303E+04  0.11926325303E+04  0.25500000920E-02 0. -1.
       -2   -1    0    0    0  501  0.00000000000E+00  0.00000000000E+00 -0.75635526256E+03  0.75635526256E+03  0.25500000920E-02 0.  1.
    10030    2    1    2    0    0  0.00000000000E+00  0.00000000000E+00  0.43627726776E+03  0.19489877929E+04  0.18995303531E+04 0.  0.
        5    1    3    3  502    0  0.43309501451E+03 -0.77353532379E+03  0.56775016353E+03  0.10527537827E+04  0.46999998093E+01 0. -1.
       -5    1    3    3    0  502 -0.43309501451E+03  0.77353532379E+03 -0.13147289576E+03  0.89623401021E+03  0.46999998093E+01 0.  1.
</event>
<event>
 5   0  0.7207648E-06  0.1900869E+04  0.7818609E-02  0.8654424E-01
        2   -1    0    0  501    0  0.00000000000E+00  0.00000000000E+00  0.98780706603E+03  0.98780706603E+03  0.25500000920E-02 0. -1.
       -2   -1    0    0    0  501  0.00000000000E+00  0.00000000000E+00 -0.91447626907E+03  0.91447626907E+03  0.25500000920E-02 0.  1.
    10030    2    1    2    0    0  0.00000000000E+00  0.00000000000E+00  0.73330796960E+02  0.19022833351E+04  0.19008694014E+04 0.  0.
        4    1    3    3  502    0  0.81691453245E+03  0.41375341278E+03  0.29138029695E+03  0.96096062888E+03  0.12699999809E+01 0. -1.
       -4    1    3    3    0  502 -0.81691453245E+03 -0.41375341278E+03 -0.21804949999E+03  0.94132270623E+03  0.12699999809E+01 0.  1.
</event>
<event>
 5   0  0.7207648E-06  0.1901550E+04  0.7818609E-02  0.8654085E-01
       -2   -1    0    0    0  501  0.00000000000E+00  0.00000000000E+00  0.44204966095E+03  0.44204966096E+03  0.25500000920E-02 0. -1.
        2   -1    0    0  501    0  0.00000000000E+00  0.00000000000E+00 -0.20449581307E+04  0.20449581307E+04  0.25500000920E-02 0.  1.
    10030    2    1    2    0    0  0.00000000000E+00  0.00000000000E+00 -0.16029084697E+04  0.24870077916E+04  0.19015499450E+04 0.  0.
        4    1    3    3  502    0 -0.61475337514E+03 -0.64814346904E+03 -0.37571869523E+03  0.96911187153E+03  0.12699999809E+01 0. -1.
       -4    1    3    3    0  502  0.61475337514E+03  0.64814346904E+03 -0.12271897745E+04  0.15178959201E+04  0.12699999809E+01 0.  1.
</event>
<event>
 5   0  0.3379108E-06  0.1900248E+04  0.7818609E-02  0.8654733E-01
       -1   -1    0    0    0  501  0.00000000000E+00  0.00000000000E+00  0.11530287975E+04  0.11530287975E+04  0.50400001928E-02 0. -1.
        1   -1    0    0  501    0  0.00000000000E+00  0.00000000000E+00 -0.78292527283E+03  0.78292527284E+03  0.50400001928E-02 0.  1.
    10030    2    1    2    0    0  0.00000000000E+00  0.00000000000E+00  0.37010352471E+03  0.19359540704E+04  0.19002477585E+04 0.  0.
        4    1    3    3  502    0  0.93045099845E+03  0.17093496344E+03  0.27489007205E+03  0.98515175828E+03  0.12699999809E+01 0. -1.
       -4    1    3    3    0  502 -0.93045099845E+03 -0.17093496344E+03  0.95213452662E+02  0.95080231210E+03  0.12699999809E+01 0.  1.
</event>
<event>
 5   0  0.6862201E-06  0.1899571E+04  0.7818609E-02  0.8655070E-01
        2   -1    0    0  501    0  0.00000000000E+00  0.00000000000E+00  0.95807776624E+03  0.95807776625E+03  0.25500000920E-02 0. -1.
       -2   -1    0    0    0  501  0.00000000000E+00  0.00000000000E+00 -0.94156466444E+03  0.94156466444E+03  0.25500000920E-02 0.  1.
    10030    2    1    2    0    0  0.00000000000E+00  0.00000000000E+00  0.16513101806E+02  0.18996424307E+04  0.18995706573E+04 0.  0.
        3    1    3    3  502    0 -0.22684245667E+03  0.35149799330E+03  0.86098087106E+03  0.95723372797E+03  0.10100000352E+00 0. -1.
       -3    1    3    3    0  502  0.22684245667E+03 -0.35149799330E+03 -0.84446776925E+03  0.94240870271E+03  0.10100000352E+00 0.  1.
</event>
<event>
 5   0  0.3379108E-06  0.1899719E+04  0.7818609E-02  0.8654996E-01
       -1   -1    0    0    0  501  0.00000000000E+00  0.00000000000E+00  0.20160684700E+04  0.20160684700E+04  0.50400001928E-02 0. -1.
        1   -1    0    0  501    0  0.00000000000E+00  0.00000000000E+00 -0.44752111659E+03  0.44752111662E+03  0.50400001928E-02 0.  1.
    10030    2    1    2    0    0  0.00000000000E+00  0.00000000000E+00  0.15685473535E+04  0.24635895867E+04  0.18997191507E+04 0.  0.
        4    1    3    3  502    0 -0.18436191402E+03 -0.15585886956E+03 -0.40707090563E+03  0.47327543531E+03  0.12699999809E+01 0.  1.
       -4    1    3    3    0  502  0.18436191402E+03  0.15585886956E+03  0.19756182591E+04  0.19903141513E+04  0.12699999809E+01 0. -1.
</event>
<event>
 5   0  0.6870370E-06  0.1898852E+04  0.7818609E-02  0.8655428E-01
        2   -1    0    0  501    0  0.00000000000E+00  0.00000000000E+00  0.18870411691E+04  0.18870411691E+04  0.25500000920E-02 0. -1.
       -2   -1    0    0    0  501  0.00000000000E+00  0.00000000000E+00 -0.47768420748E+03  0.47768420749E+03  0.25500000920E-02 0.  1.
    10030    2    1    2    0    0  0.00000000000E+00  0.00000000000E+00  0.14093569616E+04  0.23647253766E+04  0.18988520378E+04 0.  0.
        1    1    3    3  502    0  0.73309288096E+03  0.48891824500E+03  0.11448748897E+04  0.14447161436E+04  0.50400001928E-02 0.  1.
       -1    1    3    3    0  502 -0.73309288096E+03 -0.48891824500E+03  0.26448207189E+03  0.92000923299E+03  0.50400001928E-02 0. -1.
</event>
<event>
 5   0  0.6984466E-06  0.1901160E+04  0.7818609E-02  0.8654279E-01
        2   -1    0    0  501    0  0.00000000000E+00  0.00000000000E+00  0.10106611833E+04  0.10106611833E+04  0.25500000920E-02 0.  1.
       -2   -1    0    0    0  501  0.00000000000E+00  0.00000000000E+00 -0.89407012552E+03  0.89407012552E+03  0.25500000920E-02 0. -1.
    10030    2    1    2    0    0  0.00000000000E+00  0.00000000000E+00  0.11659105778E+03  0.19047313088E+04  0.19011596156E+04 0.  0.
        2    1    3    3  502    0  0.12514966987E+03  0.93992109882E+03  0.12541287077E+03  0.95647399339E+03  0.25500000920E-02 0. -1.
       -2    1    3    3    0  502 -0.12514966987E+03 -0.93992109882E+03 -0.88218129885E+01  0.94825731543E+03  0.25500000920E-02 0.  1.
</event>
<event>
 5   0  0.3379108E-06  0.1900636E+04  0.7818609E-02  0.8654540E-01
       -1   -1    0    0    0  501  0.00000000000E+00  0.00000000000E+00  0.65286538663E+03  0.65286538665E+03  0.50400001928E-02 0. -1.
        1   -1    0    0  501    0  0.00000000000E+00  0.00000000000E+00 -0.13832933926E+04  0.13832933926E+04  0.50400001928E-02 0.  1.
    10030    2    1    2    0    0  0.00000000000E+00  0.00000000000E+00 -0.73042800597E+03  0.20361587793E+04  0.19006360784E+04 0.  0.
        4    1    3    3  502    0  0.22612473372E+03 -0.87543298421E+03 -0.67862752892E+03  0.11305097262E+04  0.12699999809E+01 0.  1.
       -4    1    3    3    0  502 -0.22612473372E+03  0.87543298421E+03 -0.51800477052E+02  0.90564905309E+03  0.12699999809E+01 0. -1.
</event>
<event>
 5   0  0.3495279E-06  0.1900496E+04  0.7818609E-02  0.8654609E-01
       -1   -1    0    0    0  501  0.00000000000E+00  0.00000000000E+00  0.81065920355E+03  0.81065920356E+03  0.50400001928E-02 0. -1.
        1   -1    0    0  501    0  0.00000000000E+00  0.00000000000E+00 -0.11138733333E+04  0.11138733334E+04  0.50400001928E-02 0.  1.
    10030    2    1    2    0    0  0.00000000000E+00  0.00000000000E+00 -0.30321412979E+03  0.19245325369E+04  0.19004964291E+04 0.  0.
        2    1    3    3  502    0  0.24233572307E+03 -0.44140767550E+03 -0.96765522534E+03  0.10908363644E+04  0.25500000920E-02 0.  1.
       -2    1    3    3    0  502 -0.24233572307E+03  0.44140767550E+03  0.66444109555E+03  0.83369617255E+03  0.25500000920E-02 0. -1.
</event>
<event>
 5   0  0.7207648E-06  0.1900064E+04  0.7818609E-02  0.8654825E-01
        2   -1    0    0  501    0  0.00000000000E+00  0.00000000000E+00  0.14498252268E+04  0.14498252268E+04  0.25500000920E-02 0. -1.
       -2   -1    0    0    0  501  0.00000000000E+00  0.00000000000E+00 -0.62253055890E+03  0.62253055891E+03  0.25500000920E-02 0.  1.
    10030    2    1    2    0    0  0.00000000000E+00  0.00000000000E+00  0.82729466790E+03  0.20723557857E+04  0.19000636924E+04 0.  0.
        4    1    3    3  502    0  0.12878941478E+03  0.87450334961E+03  0.33916148051E+02  0.88458732743E+03  0.12699999809E+01 0.  1.
       -4    1    3    3    0  502 -0.12878941478E+03 -0.87450334961E+03  0.79337851985E+03  0.11877684583E+04  0.12699999809E+01 0. -1.
</event>
<event>
 5   0  0.7207648E-06  0.1899155E+04  0.7818609E-02  0.8655277E-01
       -2   -1    0    0    0  501  0.00000000000E+00  0.00000000000E+00  0.59945711239E+03  0.59945711239E+03  0.25500000920E-02 0.  1.
        2   -1    0    0  501    0  0.00000000000E+00  0.00000000000E+00 -0.15041901245E+04  0.15041901245E+04  0.25500000920E-02 0. -1.
    10030    2    1    2    0    0  0.00000000000E+00  0.00000000000E+00 -0.90473301215E+03  0.21036472369E+04  0.18991550422E+04 0.  0.
        4    1    3    3  502    0  0.23039780787E+03 -0.44162112176E+03 -0.13478612273E+04  0.14369564593E+04  0.12699999809E+01 0. -1.
       -4    1    3    3    0  502 -0.23039780787E+03  0.44162112176E+03  0.44312821511E+03  0.66669077764E+03  0.12699999809E+01 0.  1.
</event>
<event>
 5   0  0.3379108E-06  0.1898634E+04  0.7818609E-02  0.8655537E-01
        1   -1    0    0  501    0  0.00000000000E+00  0.00000000000E+00  0.19628580384E+04  0.19628580384E+04  0.50400001928E-02 0.  1.
       -1   -1    0    0    0  501  0.00000000000E+00  0.00000000000E+00 -0.45912786106E+03  0.45912786108E+03  0.50400001928E-02 0. -1.
    10030    2    1    2    0    0  0.00000000000E+00  0.00000000000E+00  0.15037301774E+04  0.24219858995E+04  0.18986340488E+04 0.  0.
        4    1    3    3  502    0 -0.21628526446E+03 -0.82866516504E+03  0.12743134773E+04  0.15353637102E+04  0.12699999809E+01 0.  1.
       -4    1    3    3    0  502  0.21628526446E+03  0.82866516504E+03  0.22941670007E+03  0.88662218929E+03  0.12699999809E+01 0. -1.
</event>
<event>
 5   0  0.3495279E-06  0.1900179E+04  0.7818609E-02  0.8654767E-01
       -1   -1    0    0    0  501  0.00000000000E+00  0.00000000000E+00  0.11272946642E+04  0.11272946643E+04  0.50400001928E-02 0.  1.
        1   -1    0    0  501    0  0.00000000000E+00  0.00000000000E+00 -0.80073993120E+03  0.80073993121E+03  0.50400001928E-02 0. -1.
    10030    2    1    2    0    0  0.00000000000E+00  0.00000000000E+00  0.32655473304E+03  0.19280345955E+04  0.19001787831E+04 0.  0.
        2    1    3    3  502    0 -0.21777603659E+03 -0.92304407145E+03  0.22097119852E+03  0.97378900720E+03  0.25500000920E-02 0.  1.
       -2    1    3    3    0  502  0.21777603659E+03  0.92304407145E+03  0.10558353452E+03  0.95424558827E+03  0.25500000920E-02 0. -1.
</event>
<event>
 5   0  0.7577180E-06  0.1900228E+04  0.7818609E-02  0.8654743E-01
        2   -1    0    0  501    0  0.00000000000E+00  0.00000000000E+00  0.10496773586E+04  0.10496773586E+04  0.25500000920E-02 0. -1.
       -2   -1    0    0    0  501  0.00000000000E+00  0.00000000000E+00 -0.85999470298E+03  0.85999470299E+03  0.25500000920E-02 0.  1.
    10030    2    1    2    0    0  0.00000000000E+00  0.00000000000E+00  0.18968265557E+03  0.19096720615E+04  0.19002283739E+04 0.  0.
        5    1    3    3  502    0  0.39257164992E+03  0.50275735154E+03  0.80248379477E+03  0.10251242782E+04  0.46999998093E+01 0. -1.
       -5    1    3    3    0  502 -0.39257164992E+03 -0.50275735154E+03 -0.61280113920E+03  0.88454778336E+03  0.46999998093E+01 0.  1.
</event>
<event>
 5   0  0.2527750E-06  0.1899325E+04  0.7818609E-02  0.8655193E-01
       -4   -1    0    0    0  501  0.00000000000E+00  0.00000000000E+00  0.84410114039E+03  0.84410209579E+03  0.12699999809E+01 0. -1.
        4   -1    0    0  501    0  0.00000000000E+00  0.00000000000E+00 -0.10684228793E+04  0.10684236341E+04  0.12699999809E+01 0.  1.
    10030    2    1    2    0    0  0.00000000000E+00  0.00000000000E+00 -0.22432173888E+03  0.19125257299E+04  0.18993247286E+04 0.  0.
        4    1    3    3  502    0 -0.75554512702E+03  0.52482364206E+02 -0.68907766217E+03  0.10239299170E+04  0.12699999809E+01 0.  1.
       -4    1    3    3    0  502  0.75554512702E+03 -0.52482364206E+02  0.46475592329E+03  0.88859581287E+03  0.12699999809E+01 0. -1.
</event>
<event>
 5   0  0.3211263E-06  0.1899686E+04  0.7818609E-02  0.8655013E-01
        1   -1    0    0  501    0  0.00000000000E+00  0.00000000000E+00  0.28620543057E+04  0.28620543057E+04  0.50400001928E-02 0. -1.
       -1   -1    0    0    0  501  0.00000000000E+00  0.00000000000E+00 -0.31522881255E+03  0.31522881259E+03  0.50400001928E-02 0.  1.
    10030    2    1    2    0    0  0.00000000000E+00  0.00000000000E+00  0.25468254931E+04  0.31772831182E+04  0.18996862692E+04 0.  0.
        5    1    3    3  502    0  0.61221288397E+02  0.35003681936E+03 -0.19984456823E+03  0.40771774858E+03  0.46999998093E+01 0.  1.
       -5    1    3    3    0  502 -0.61221288397E+02 -0.35003681936E+03  0.27466700613E+04  0.27695653697E+04  0.46999998093E+01 0. -1.
</event>
<event>
 5   0  0.6984466E-06  0.1901080E+04  0.7818609E-02  0.8654319E-01
        2   -1    0    0  501    0  0.00000000000E+00  0.00000000000E+00  0.16750426571E+04  0.16750426571E+04  0.25500000920E-02 0.  1.
       -2   -1    0    0    0  501  0.00000000000E+00  0.00000000000E+00 -0.53940499656E+03  0.53940499656E+03  0.25500000920E-02 0. -1.
    10030    2    1    2    0    0  0.00000000000E+00  0.00000000000E+00  0.11356376606E+04  0.22144476537E+04  0.19010800916E+04 0.  0.
        2    1    3    3  502    0  0.12152194644E+03  0.16606033315E+02 -0.53014889586E+03  0.54415181301E+03  0.25500000920E-02 0. -1.
       -2    1    3    3    0  502 -0.12152194644E+03 -0.16606033315E+02  0.16657865564E+04  0.16702958407E+04  0.25500000920E-02 0.  1.
</event>
<event>
 5   0  0.3379108E-06  0.1902760E+04  0.7818609E-02  0.8653484E-01
       -1   -1    0    0    0  501  0.00000000000E+00  0.00000000000E+00  0.66606508884E+03  0.66606508886E+03  0.50400001928E-02 0.  1.
        1   -1    0    0  501    0  0.00000000000E+00  0.00000000000E+00 -0.13589122442E+04  0.13589122443E+04  0.50400001928E-02 0. -1.
    10030    2    1    2    0    0  0.00000000000E+00  0.00000000000E+00 -0.69284715540E+03  0.20249773331E+04  0.19027601054E+04 0.  0.
        4    1    3    3  502    0  0.23284170318E+02  0.16098740394E+03  0.65115559046E+03  0.67116638228E+03  0.12699999809E+01 0.  1.
       -4    1    3    3    0  502 -0.23284170318E+02 -0.16098740394E+03 -0.13440027459E+04  0.13538109508E+04  0.12699999809E+01 0. -1.
</event>
<event>
 5   0  0.6862201E-06  0.1898208E+04  0.7818609E-02  0.8655749E-01
        2   -1    0    0  501    0  0.00000000000E+00  0.00000000000E+00  0.20320434571E+04  0.20320434571E+04  0.25500000920E-02 0. -1.
       -2   -1    0    0    0  501  0.00000000000E+00  0.00000000000E+00 -0.44329704640E+03  0.44329704641E+03  0.25500000920E-02 0.  1.
    10030    2    1    2    0    0  0.00000000000E+00  0.00000000000E+00  0.15887464107E+04  0.24753405035E+04  0.18982084846E+04 0.  0.
        3    1    3    3  502    0  0.15095213197E+03 -0.59986805111E+02  0.20137826703E+04  0.20203231466E+04  0.10100000352E+00 0. -1.
       -3    1    3    3    0  502 -0.15095213197E+03  0.59986805111E+02 -0.42503625964E+03  0.45501735697E+03  0.10100000352E+00 0.  1.
</event>
<event>
 5   0  0.2527750E-06  0.1899419E+04  0.7818609E-02  0.8655146E-01
       -4   -1    0    0    0  501  0.00000000000E+00  0.00000000000E+00  0.87284311259E+03  0.87284403653E+03  0.12699999809E+01 0. -1.
        4   -1    0    0  501    0  0.00000000000E+00  0.00000000000E+00 -0.10333431757E+04  0.10333439562E+04  0.12699999809E+01 0.  1.
    10030    2    1    2    0    0  0.00000000000E+00  0.00000000000E+00 -0.16050006315E+03  0.19061879927E+04  0.18994189620E+04 0.  0.
        3    1    3    3  502    0 -0.93422088242E+03  0.60406227922E+02  0.80102115154E+02  0.93959242684E+03  0.10100000352E+00 0.  1.
       -3    1    3    3    0  502  0.93422088242E+03 -0.60406227922E+02 -0.24060217831E+03  0.96659556586E+03  0.10100000352E+00 0. -1.
</event>
<event>
 5   0  0.6984466E-06  0.1900725E+04  0.7818609E-02  0.8654495E-01
       -2   -1    0    0    0  501  0.00000000000E+00  0.00000000000E+00  0.50085941927E+03  0.50085941927E+03  0.25500000920E-02 0.  1.
        2   -1    0    0  501    0  0.00000000000E+00  0.00000000000E+00 -0.18032786076E+04  0.18032786076E+04  0.25500000920E-02 0. -1.
    10030    2    1    2    0    0  0.00000000000E+00  0.00000000000E+00 -0.13024191883E+04  0.23041380269E+04  0.19007252050E+04 0.  0.
        2    1    3    3  502    0  0.57182931694E+03 -0.75673487837E+03 -0.57895519580E+03  0.11112270527E+04  0.25500000920E-02 0.  1.
       -2    1    3    3    0  502 -0.57182931694E+03  0.75673487837E+03 -0.72346399253E+03  0.11929109742E+04  0.25500000920E-02 0. -1.
</event>
<event>
 5   0  0.3236653E-06  0.1897376E+04  0.7818609E-02  0.8656163E-01
        1   -1    0    0  501    0  0.00000000000E+00  0.00000000000E+00  0.10892116353E+04  0.10892116353E+04  0.50400001928E-02 0.  1.
       -1   -1    0    0    0  501  0.00000000000E+00  0.00000000000E+00 -0.82629431003E+03  0.82629431004E+03  0.50400001928E-02 0. -1.
    10030    2    1    2    0    0  0.00000000000E+00  0.00000000000E+00  0.26291732529E+03  0.19155059454E+04  0.18973764800E+04 0.  0.
        3    1    3    3  502    0 -0.82931697067E+03  0.37868005186E+03 -0.13343008078E+03  0.92139503807E+03  0.10100000352E+00 0. -1.
       -3    1    3    3    0  502  0.82931697067E+03 -0.37868005186E+03  0.39634740607E+03  0.99411090730E+03  0.10100000352E+00 0.  1.
</event>
<event>
 5   0  0.6984466E-06  0.1898995E+04  0.7818609E-02  0.8655357E-01
        2   -1    0    0  501    0  0.00000000000E+00  0.00000000000E+00  0.66365329459E+03  0.66365329459E+03  0.25500000920E-02 0. -1.
       -2   -1    0    0    0  501  0.00000000000E+00  0.00000000000E+00 -0.13584590837E+04  0.13584590837E+04  0.25500000920E-02 0.  1.
    10030    2    1    2    0    0  0.00000000000E+00  0.00000000000E+00 -0.69480578911E+03  0.20221123783E+04  0.18989953622E+04 0.  0.
        2    1    3    3  502    0  0.14563544155E+02  0.80152925939E+03  0.19439147648E+03  0.82489350623E+03  0.25500000920E-02 0. -1.
       -2    1    3    3    0  502 -0.14563544155E+02 -0.80152925939E+03 -0.88919726558E+03  0.11972188721E+04  0.25500000920E-02 0.  1.
</event>
<event>
 5   0  0.3211263E-06  0.1900007E+04  0.7818609E-02  0.8654853E-01
        1   -1    0    0  501    0  0.00000000000E+00  0.00000000000E+00  0.20355502277E+04  0.20355502277E+04  0.50400001928E-02 0.  1.
       -1   -1    0    0    0  501  0.00000000000E+00  0.00000000000E+00 -0.44337243785E+03  0.44337243788E+03  0.50400001928E-02 0. -1.
    10030    2    1    2    0    0  0.00000000000E+00  0.00000000000E+00  0.15921777899E+04  0.24789226656E+04  0.19000072283E+04 0.  0.
        5    1    3    3  502    0  0.81416053798E+03 -0.28850136262E+03  0.28012624152E+03  0.90806564686E+03  0.46999998093E+01 0. -1.
       -5    1    3    3    0  502 -0.81416053798E+03  0.28850136262E+03  0.13120515484E+04  0.15708570188E+04  0.46999998093E+01 0.  1.
</event>
<event>
 5   0  0.3379108E-06  0.1899657E+04  0.7818609E-02  0.8655027E-01
        1   -1    0    0  501    0  0.00000000000E+00  0.00000000000E+00  0.88025970428E+03  0.88025970429E+03  0.50400001928E-02 0. -1.
       -1   -1    0    0    0  501  0.00000000000E+00  0.00000000000E+00 -0.10248952143E+04  0.10248952143E+04  0.50400001928E-02 0.  1.
    10030    2    1    2    0    0  0.00000000000E+00  0.00000000000E+00 -0.14463551000E+03  0.19051549186E+04  0.18996567672E+04 0.  0.
        4    1    3    3  502    0  0.66623828814E+03  0.66610171692E+03 -0.19352860358E+03  0.96177954188E+03  0.12699999809E+01 0.  1.
       -4    1    3    3    0  502 -0.66623828814E+03 -0.66610171692E+03  0.48893093580E+02  0.94337537670E+03  0.12699999809E+01 0. -1.
</event>
<event>
 5   0  0.6862201E-06  0.1899562E+04  0.7818609E-02  0.8655075E-01
        2   -1    0    0  501    0  0.00000000000E+00  0.00000000000E+00  0.19664372160E+04  0.19664372160E+04  0.25500000920E-02 0.  1.
       -2   -1    0    0    0  501  0.00000000000E+00  0.00000000000E+00 -0.45874010575E+03  0.45874010575E+03  0.25500000920E-02 0. -1.
    10030    2    1    2    0    0  0.00000000000E+00  0.00000000000E+00  0.15076971103E+04  0.24251773218E+04  0.18995616509E+04 0.  0.
        3    1    3    3  502    0 -0.68038557791E+03  0.63813994037E+03  0.52569161499E+03  0.10707468433E+04  0.10100000352E+00 0.  1.
       -3    1    3    3    0  502  0.68038557791E+03 -0.63813994037E+03  0.98200549530E+03  0.13544304785E+04  0.10100000352E+00 0. -1.
</event>
<event>
 5   0  0.3236653E-06  0.1900136E+04  0.7818609E-02  0.8654789E-01
        1   -1    0    0  501    0  0.00000000000E+00  0.00000000000E+00  0.14878614516E+04  0.14878614516E+04  0.50400001928E-02 0. -1.
       -1   -1    0    0    0  501  0.00000000000E+00  0.00000000000E+00 -0.60666231688E+03  0.60666231690E+03  0.50400001928E-02 0.  1.
    10030    2    1    2    0    0  0.00000000000E+00  0.00000000000E+00  0.88119913474E+03  0.20945237685E+04  0.19001362851E+04 0.  0.
        3    1    3    3  502    0  0.43685280801E+03 -0.29936055327E+03 -0.42887302081E+03  0.68146107365E+03  0.10100000352E+00 0.  1.
       -3    1    3    3    0  502 -0.43685280801E+03  0.29936055327E+03  0.13100721555E+04  0.14130626949E+04  0.10100000352E+00 0. -1.
</event>
<event>
 5   0  0.3495279E-06  0.1899557E+04  0.7818609E-02  0.8655077E-01
        1   -1    0    0  501    0  0.00000000000E+00  0.00000000000E+00  0.19755614080E+04  0.19755614080E+04  0.50400001928E-02 0.  1.
       -1   -1    0    0    0  501  0.00000000000E+00  0.00000000000E+00 -0.45661895991E+03  0.45661895994E+03  0.50400001928E-02 0. -1.
    10030    2    1    2    0    0  0.00000000000E+00  0.00000000000E+00  0.15189424481E+04  0.24321803679E+04  0.18995565750E+04 0.  0.
        2    1    3    3  502    0 -0.44377724718E+03  0.17026216071E+02 -0.31548827225E+03  0.54475773247E+03  0.25500000920E-02 0. -1.
       -2    1    3    3    0  502  0.44377724718E+03 -0.17026216071E+02  0.18344307203E+04  0.18874226355E+04  0.25500000920E-02 0.  1.
</event>
<event>
 5   0  0.3495279E-06  0.1900203E+04  0.7818609E-02  0.8654755E-01
       -1   -1    0    0    0  501  0.00000000000E+00  0.00000000000E+00  0.71072792314E+03  0.71072792315E+03  0.50400001928E-02 0. -1.
        1   -1    0    0  501    0  0.00000000000E+00  0.00000000000E+00 -0.12700961505E+04  0.12700961505E+04  0.50400001928E-02 0.  1.
    10030    2    1    2    0    0  0.00000000000E+00  0.00000000000E+00 -0.55936822739E+03  0.19808240737E+04  0.19002029358E+04 0.  0.
        2    1    3    3  502    0  0.18217187055E+03 -0.48030108832E+03  0.55348694972E+03  0.75513146496E+03  0.25500000920E-02 0. -1.
       -2    1    3    3    0  502 -0.18217187055E+03  0.48030108832E+03 -0.11128551771E+04  0.12256926087E+04  0.25500000920E-02 0.  1.
</event>
<event>
 5   0  0.7207648E-06  0.1900194E+04  0.7818609E-02  0.8654760E-01
       -2   -1    0    0    0  501  0.00000000000E+00  0.00000000000E+00  0.46016627618E+03  0.46016627619E+03  0.25500000920E-02 0. -1.
        2   -1    0    0  501    0  0.00000000000E+00  0.00000000000E+00 -0.19616490452E+04  0.19616490452E+04  0.25500000920E-02 0.  1.
    10030    2    1    2    0    0  0.00000000000E+00  0.00000000000E+00 -0.15014827690E+04  0.24218153214E+04  0.19001944493E+04 0.  0.
        4    1    3    3  502    0 -0.23643261020E+03  0.90915886515E+03 -0.56954175131E+03  0.10985670852E+04  0.12699999809E+01 0. -1.
       -4    1    3    3    0  502  0.23643261020E+03 -0.90915886515E+03 -0.93194101767E+03  0.13232482362E+04  0.12699999809E+01 0.  1.
</event>
<event>
 5   0  0.3398807E-06  0.1893697E+04  0.7818609E-02  0.8658000E-01
        1   -1    0    0  501    0  0.00000000000E+00  0.00000000000E+00  0.52675571275E+03  0.52675571277E+03  0.50400001928E-02 0.  1.
       -1   -1    0    0    0  501  0.00000000000E+00  0.00000000000E+00 -0.17019685646E+04  0.17019685647E+04  0.50400001928E-02 0. -1.
    10030    2    1    2    0    0  0.00000000000E+00  0.00000000000E+00 -0.11752128519E+04  0.22287242774E+04  0.18936965590E+04 0.  0.
        1    1    3    3  502    0  0.68516470740E+03  0.19870355931E+03  0.14510177062E+03  0.72800295645E+03  0.50400001928E-02 0.  1.
       -1    1    3    3    0  502 -0.68516470740E+03 -0.19870355931E+03 -0.13203146225E+04  0.15007213210E+04  0.50400001928E-02 0. -1.
</event>
<event>
 5   0  0.3398807E-06  0.1900213E+04  0.7818609E-02  0.8654750E-01
        1   -1    0    0  501    0  0.00000000000E+00  0.00000000000E+00  0.12051417849E+04  0.12051417849E+04  0.50400001928E-02 0.  1.
       -1   -1    0    0    0  501  0.00000000000E+00  0.00000000000E+00 -0.74904275722E+03  0.74904275724E+03  0.50400001928E-02 0. -1.
    10030    2    1    2    0    0  0.00000000000E+00  0.00000000000E+00  0.45609902766E+03  0.19541845421E+04  0.19002133832E+04 0.  0.
        1    1    3    3  502    0 -0.17298734642E+03 -0.89573023362E+03 -0.44904623143E+02  0.91338584325E+03  0.50400001928E-02 0. -1.
       -1    1    3    3    0  502  0.17298734642E+03  0.89573023362E+03  0.50100365080E+03  0.10407986989E+04  0.50400001928E-02 0.  1.
</event>
<event>
 5   0  0.7577180E-06  0.1901206E+04  0.7818609E-02  0.8654256E-01
       -2   -1    0    0    0  501  0.00000000000E+00  0.00000000000E+00  0.46236567048E+03  0.46236567048E+03  0.25500000920E-02 0.  1.
        2   -1    0    0  501    0  0.00000000000E+00  0.00000000000E+00 -0.19543971350E+04  0.19543971350E+04  0.25500000920E-02 0. -1.
    10030    2    1    2    0    0  0.00000000000E+00  0.00000000000E+00 -0.14920314645E+04  0.24167628055E+04  0.19012060822E+04 0.  0.
        5    1    3    3  502    0 -0.55989805910E+03 -0.63609794818E+03 -0.19849898197E+03  0.87036220742E+03  0.46999998093E+01 0.  1.
       -5    1    3    3    0  502  0.55989805910E+03  0.63609794818E+03 -0.12935324826E+04  0.15464005981E+04  0.46999998093E+01 0. -1.
</event>
<event>
 5   0  0.6870370E-06  0.1900072E+04  0.7818609E-02  0.8654820E-01
       -2   -1    0    0    0  501  0.00000000000E+00  0.00000000000E+00  0.78071044342E+03  0.78071044342E+03  0.25500000920E-02 0.  1.
        2   -1    0    0  501    0  0.00000000000E+00  0.00000000000E+00 -0.11560865404E+04  0.11560865404E+04  0.25500000920E-02 0. -1.
    10030    2    1    2    0    0  0.00000000000E+00  0.00000000000E+00 -0.37537609698E+03  0.19367969838E+04  0.19000724571E+04 0.  0.
        1    1    3    3  502    0  0.67562339900E+03  0.19787703499E+03  0.46256532836E+03  0.84237104727E+03  0.50400001928E-02 0.  1.
       -1    1    3    3    0  502 -0.67562339900E+03 -0.19787703499E+03 -0.83794142534E+03  0.10944259365E+04  0.50400001928E-02 0. -1.
</event>
<event>
 5   0  0.6870370E-06  0.1899691E+04  0.7818609E-02  0.8655010E-01
       -2   -1    0    0    0  501  0.00000000000E+00  0.00000000000E+00  0.77606261709E+03  0.77606261710E+03  0.25500000920E-02 0. -1.
        2   -1    0    0  501    0  0.00000000000E+00  0.00000000000E+00 -0.11625432704E+04  0.11625432704E+04  0.25500000920E-02 0.  1.
    10030    2    1    2    0    0  0.00000000000E+00  0.00000000000E+00 -0.38648065336E+03  0.19386058875E+04  0.18996908938E+04 0.  0.
        1    1    3    3  502    0  0.78464657479E+03  0.22172108768E+03 -0.69043318840E+03  0.10684233598E+04  0.50400001928E-02 0.  1.
       -1    1    3    3    0  502 -0.78464657479E+03 -0.22172108768E+03  0.30395253504E+03  0.87018252777E+03  0.50400001928E-02 0. -1.
</event>
<event>
 5   0  0.3236653E-06  0.1902473E+04  0.7818609E-02  0.8653626E-01
       -1   -1    0    0    0  501  0.00000000000E+00  0.00000000000E+00  0.17550075231E+04  0.17550075231E+04  0.50400001928E-02 0.  1.
        1   -1    0    0  501    0  0.00000000000E+00  0.00000000000E+00 -0.51558236946E+03  0.51558236948E+03  0.50400001928E-02 0. -1.
    10030    2    1    2    0    0  0.00000000000E+00  0.00000000000E+00  0.12394251537E+04  0.22705898926E+04  0.19024730613E+04 0.  0.
        3    1    3    3  502    0  0.20870501071E+03  0.17978099736E+03  0.17063636146E+04  0.17284547388E+04  0.10100000352E+00 0.  1.
       -3    1    3    3    0  502 -0.20870501071E+03 -0.17978099736E+03 -0.46693846095E+03  0.54213515383E+03  0.10100000352E+00 0. -1.
</event>
<event>
 5   0  0.7577180E-06  0.1897504E+04  0.7818609E-02  0.8656100E-01
        2   -1    0    0  501    0  0.00000000000E+00  0.00000000000E+00  0.87550993361E+03  0.87550993362E+03  0.25500000920E-02 0. -1.
       -2   -1    0    0    0  501  0.00000000000E+00  0.00000000000E+00 -0.10281214442E+04  0.10281214442E+04  0.25500000920E-02 0.  1.
    10030    2    1    2    0    0  0.00000000000E+00  0.00000000000E+00 -0.15261151054E+03  0.19036313778E+04  0.18975041895E+04 0.  0.
        5    1    3    3  502    0 -0.94818061572E+03  0.31511785392E+02 -0.84637673128E+02  0.95248364729E+03  0.46999998093E+01 0.  1.
       -5    1    3    3    0  502  0.94818061572E+03 -0.31511785392E+02 -0.67973837408E+02  0.95114773049E+03  0.46999998093E+01 0. -1.
</event>
<event>
 5   0  0.6984466E-06  0.1901241E+04  0.7818609E-02  0.8654239E-01
       -2   -1    0    0    0  501  0.00000000000E+00  0.00000000000E+00  0.73491518749E+03  0.73491518749E+03  0.25500000920E-02 0. -1.
        2   -1    0    0  501    0  0.00000000000E+00  0.00000000000E+00 -0.12296373944E+04  0.12296373944E+04  0.25500000920E-02 0.  1.
    10030    2    1    2    0    0  0.00000000000E+00  0.00000000000E+00 -0.49472220690E+03  0.19645525819E+04  0.19012408540E+04 0.  0.
        2    1    3    3  502    0 -0.83018655785E+03  0.31392701115E+03 -0.59916804770E+03  0.10708698514E+04  0.25500000920E-02 0.  1.
       -2    1    3    3    0  502  0.83018655785E+03 -0.31392701115E+03  0.10444584081E+03  0.89368273052E+03  0.25500000920E-02 0. -1.
</event>
<event>
 5   0  0.3211263E-06  0.1899646E+04  0.7818609E-02  0.8655032E-01
       -1   -1    0    0    0  501  0.00000000000E+00  0.00000000000E+00  0.20712992398E+04  0.20712992398E+04  0.50400001928E-02 0.  1.
        1   -1    0    0  501    0  0.00000000000E+00  0.00000000000E+00 -0.43555462798E+03  0.43555462801E+03  0.50400001928E-02 0. -1.
    10030    2    1    2    0    0  0.00000000000E+00  0.00000000000E+00  0.16357446118E+04  0.25068538678E+04  0.18996462511E+04 0.  0.
        5    1    3    3  502    0  0.19953208096E+03 -0.45599403162E+03  0.18853955873E+04  0.19499954407E+04  0.46999998093E+01 0.  1.
       -5    1    3    3    0  502 -0.19953208096E+03  0.45599403162E+03 -0.24965097552E+03  0.55685842706E+03  0.46999998093E+01 0. -1.
</event>
<event>
 5   0  0.6870370E-06  0.1899793E+04  0.7818609E-02  0.8654959E-01
       -2   -1    0    0    0  501  0.00000000000E+00  0.00000000000E+00  0.54386205136E+03  0.54386205137E+03  0.25500000920E-02 0. -1.
        2   -1    0    0  501    0  0.00000000000E+00  0.00000000000E+00 -0.16590668696E+04  0.16590668697E+04  0.25500000920E-02 0.  1.
    10030    2    1    2    0    0  0.00000000000E+00  0.00000000000E+00 -0.11152048183E+04  0.22029289210E+04  0.18997931583E+04 0.  0.
        1    1    3    3  502    0 -0.15361614689E+03 -0.75905044363E+03  0.80207583102E+02  0.77858124366E+03  0.50400001928E-02 0. -1.
       -1    1    3    3    0  502  0.15361614689E+03  0.75905044363E+03 -0.11954124014E+04  0.14243476774E+04  0.50400001928E-02 0.  1.
</event>
<event>
 5   0  0.7207648E-06  0.1900688E+04  0.7818609E-02  0.8654514E-01
       -2   -1    0    0    0  501  0.00000000000E+00  0.00000000000E+00  0.82458572350E+03  0.82458572351E+03  0.25500000920E-02 0.  1.
        2   -1    0    0  501    0  0.00000000000E+00  0.00000000000E+00 -0.10952820683E+04  0.10952820683E+04  0.25500000920E-02 0. -1.
    10030    2    1    2    0    0  0.00000000000E+00  0.00000000000E+00 -0.27069634483E+03  0.19198677918E+04  0.19006882509E+04 0.  0.
        4    1    3    3  502    0  0.73372532019E+03  0.55838841158E+03 -0.36789267157E+03  0.99272206300E+03  0.12699999809E+01 0. -1.
       -4    1    3    3    0  502 -0.73372532019E+03 -0.55838841158E+03  0.97196326743E+02  0.92714572884E+03  0.12699999809E+01 0.  1.
</event>
<event>
 5   0  0.6870370E-06  0.1896108E+04  0.7818609E-02  0.8656796E-01
       -2   -1    0    0    0  501  0.00000000000E+00  0.00000000000E+00  0.40344444578E+03  0.40344444578E+03  0.25500000920E-02 0. -1.
        2   -1    0    0  501    0  0.00000000000E+00  0.00000000000E+00 -0.22278321860E+04  0.22278321860E+04  0.25500000920E-02 0.  1.
    10030    2    1    2    0    0  0.00000000000E+00  0.00000000000E+00 -0.18243877403E+04  0.26312766318E+04  0.18961081421E+04 0.  0.
        1    1    3    3  502    0  0.37916188913E+03  0.55820938105E+02 -0.21155417290E+04  0.21499759353E+04  0.50400001928E-02 0.  1.
       -1    1    3    3    0  502 -0.37916188913E+03 -0.55820938105E+02  0.29115398871E+03  0.48130069652E+03  0.50400001928E-02 0. -1.
</event>
<event>
 5   0  0.6984466E-06  0.1899641E+04  0.7818609E-02  0.8655035E-01
       -2   -1    0    0    0  501  0.00000000000E+00  0.00000000000E+00  0.45983497907E+03  0.45983497908E+03  0.25500000920E-02 0. -1.
        2   -1    0    0  501    0  0.00000000000E+00  0.00000000000E+00 -0.19619195084E+04  0.19619195084E+04  0.25500000920E-02 0.  1.
    10030    2    1    2    0    0  0.00000000000E+00  0.00000000000E+00 -0.15020845293E+04  0.24217544875E+04  0.18996412462E+04 0.  0.
        2    1    3    3  502    0  0.37691927382E+03  0.63751868333E+03 -0.15091869784E+04  0.16811137815E+04  0.25500000920E-02 0.  1.
       -2    1    3    3    0  502 -0.37691927382E+03 -0.63751868333E+03  0.71024490622E+01  0.74064070598E+03  0.25500000920E-02 0. -1.
</event>
<event>
 5   0  0.3495279E-06  0.1900079E+04  0.7818609E-02  0.8654817E-01
        1   -1    0    0  501    0  0.00000000000E+00  0.00000000000E+00  0.90306610193E+03  0.90306610194E+03  0.50400001928E-02 0.  1.
       -1   -1    0    0    0  501  0.00000000000E+00  0.00000000000E+00 -0.99945589707E+03  0.99945589709E+03  0.50400001928E-02 0. -1.
    10030    2    1    2    0    0  0.00000000000E+00  0.00000000000E+00 -0.96389795146E+02  0.19025219990E+04  0.19000786732E+04 0.  0.
        2    1    3    3  502    0  0.82667294159E+03  0.36747373454E+03 -0.33865349979E+03  0.96597685835E+03  0.25500000920E-02 0.  1.
       -2    1    3    3    0  502 -0.82667294159E+03 -0.36747373454E+03  0.24226370464E+03  0.93654514068E+03  0.25500000920E-02 0. -1.
</event>
<event>
 5   0  0.3495279E-06  0.1900822E+04  0.7818609E-02  0.8654447E-01
       -1   -1    0    0    0  501  0.00000000000E+00  0.00000000000E+00  0.55642814304E+03  0.55642814306E+03  0.50400001928E-02 0. -1.
        1   -1    0    0  501    0  0.00000000000E+00  0.00000000000E+00 -0.16233566273E+04  0.16233566273E+04  0.50400001928E-02 0.  1.
    10030    2    1    2    0    0  0.00000000000E+00  0.00000000000E+00 -0.10669284843E+04  0.21797847704E+04  0.19008222575E+04 0.  0.
        2    1    3    3  502    0 -0.64606057523E+03  0.69676202467E+03 -0.51025185559E+03  0.10785307330E+04  0.25500000920E-02 0. -1.
       -2    1    3    3    0  502  0.64606057523E+03 -0.69676202467E+03 -0.55667662867E+03  0.11012540374E+04  0.25500000920E-02 0.  1.
</event>
<event>
 5   0  0.6870370E-06  0.1903110E+04  0.7818609E-02  0.8653310E-01
        2   -1    0    0  501    0  0.00000000000E+00  0.00000000000E+00  0.10531954776E+04  0.10531954776E+04  0.25500000920E-02 0.  1.
       -2   -1    0    0    0  501  0.00000000000E+00  0.00000000000E+00 -0.85972342281E+03  0.85972342281E+03  0.25500000920E-02 0. -1.
    10030    2    1    2    0    0  0.00000000000E+00  0.00000000000E+00  0.19347205481E+03  0.19129189004E+04  0.19031098979E+04 0.  0.
        1    1    3    3  502    0  0.41861637157E+03  0.57021612524E+03  0.73646809174E+03  0.10211617630E+04  0.50400001928E-02 0. -1.
       -1    1    3    3    0  502 -0.41861637157E+03 -0.57021612524E+03 -0.54299603692E+03  0.89175713744E+03  0.50400001928E-02 0.  1.
</event>
<event>
 5   0  0.3398807E-06  0.1899878E+04  0.7818609E-02  0.8654917E-01
        1   -1    0    0  501    0  0.00000000000E+00  0.00000000000E+00  0.78654349182E+03  0.78654349184E+03  0.50400001928E-02 0. -1.
       -1   -1    0    0    0  501  0.00000000000E+00  0.00000000000E+00 -0.11472777753E+04  0.11472777754E+04  0.50400001928E-02 0.  1.
    10030    2    1    2    0    0  0.00000000000E+00  0.00000000000E+00 -0.36073428352E+03  0.19338212672E+04  0.18998777514E+04 0.  0.
        1    1    3    3  502    0  0.35806320968E+03 -0.83706319531E+03 -0.45631929712E+03  0.10183866437E+04  0.50400001928E-02 0.  1.
       -1    1    3    3    0  502 -0.35806320968E+03  0.83706319531E+03  0.95585013602E+02  0.91543462351E+03  0.50400001928E-02 0. -1.
</event>
<event>
 5   0  0.3211263E-06  0.1903098E+04  0.7818609E-02  0.8653316E-01
        1   -1    0    0  501    0  0.00000000000E+00  0.00000000000E+00  0.12243507473E+04  0.12243507473E+04  0.50400001928E-02 0. -1.
       -1   -1    0    0    0  501  0.00000000000E+00  0.00000000000E+00 -0.73953132592E+03  0.73953132594E+03  0.50400001928E-02 0.  1.
    10030    2    1    2    0    0  0.00000000000E+00  0.00000000000E+00  0.48481942138E+03  0.19638820732E+04  0.19030982440E+04 0.  0.
        5    1    3    3  502    0 -0.46751206556E+03 -0.11525568405E+03 -0.60451789033E+03  0.77286180775E+03  0.46999998093E+01 0.  1.
       -5    1    3    3    0  502  0.46751206556E+03  0.11525568405E+03  0.10893373117E+04  0.11910202655E+04  0.46999998093E+01 0. -1.
</event>
<event>
 5   0  0.6870370E-06  0.1899685E+04  0.7818609E-02  0.8655013E-01
       -2   -1    0    0    0  501  0.00000000000E+00  0.00000000000E+00  0.55957738517E+03  0.55957738518E+03  0.25500000920E-02 0.  1.
        2   -1    0    0  501    0  0.00000000000E+00  0.00000000000E+00 -0.16122899152E+04  0.16122899152E+04  0.25500000920E-02 0. -1.
    10030    2    1    2    0    0  0.00000000000E+00  0.00000000000E+00 -0.10527125300E+04  0.21718673004E+04  0.18996852107E+04 0.  0.
        1    1    3    3  502    0 -0.86031569642E+03  0.29810438584E+03 -0.21705448363E+03  0.93601387343E+03  0.50400001928E-02 0. -1.
       -1    1    3    3    0  502  0.86031569642E+03 -0.29810438584E+03 -0.83565804641E+03  0.12358534270E+04  0.50400001928E-02 0.  1.
</event>
<event>
 5   0  0.3379108E-06  0.1899826E+04  0.7818609E-02  0.8654943E-01
       -1   -1    0    0    0  501  0.00000000000E+00  0.00000000000E+00  0.71370635541E+03  0.71370635543E+03  0.50400001928E-02 0.  1.
        1   -1    0    0  501    0  0.00000000000E+00  0.00000000000E+00 -0.12642943992E+04  0.12642943992E+04  0.50400001928E-02 0. -1.
    10030    2    1    2    0    0  0.00000000000E+00  0.00000000000E+00 -0.55058804378E+03  0.19780007546E+04  0.18998262529E+04 0.  0.
        4    1    3    3  502    0  0.68646187599E+03  0.10626356680E+03 -0.94988375094E+03  0.11767763619E+04  0.12699999809E+01 0. -1.
       -4    1    3    3    0  502 -0.68646187599E+03 -0.10626356680E+03  0.39929570716E+03  0.80122439270E+03  0.12699999809E+01 0.  1.
</event>
<event>
 5   0  0.6984466E-06  0.1900311E+04  0.7818609E-02  0.8654701E-01
       -2   -1    0    0    0  501  0.00000000000E+00  0.00000000000E+00  0.45983003638E+03  0.45983003639E+03  0.25500000920E-02 0.  1.
        2   -1    0    0  501    0  0.00000000000E+00  0.00000000000E+00 -0.19633249083E+04  0.19633249083E+04  0.25500000920E-02 0. -1.
    10030    2    1    2    0    0  0.00000000000E+00  0.00000000000E+00 -0.15034948719E+04  0.24231549447E+04  0.19003113051E+04 0.  0.
        2    1    3    3  502    0 -0.22141398831E+03  0.85978054397E+02  0.42136319760E+03  0.48369755463E+03  0.25500000920E-02 0.  1.
       -2    1    3    3    0  502  0.22141398831E+03 -0.85978054397E+02 -0.19248580695E+04  0.19394573901E+04  0.25500000920E-02 0. -1.
</event>
<event>
 5   0  0.3379108E-06  0.1895287E+04  0.7818609E-02  0.8657206E-01
       -1   -1    0    0    0  501  0.00000000000E+00  0.00000000000E+00  0.90250862581E+03  0.90250862582E+03  0.50400001928E-02 0. -1.
        1   -1    0    0  501    0  0.00000000000E+00  0.00000000000E+00 -0.99503546114E+03  0.99503546115E+03  0.50400001928E-02 0.  1.
    10030    2    1    2    0    0  0.00000000000E+00  0.00000000000E+00 -0.92526835329E+02  0.18975440870E+04  0.18952868772E+04 0.  0.
        4    1    3    3  502    0 -0.15708030797E+03  0.56765192332E+02 -0.98018192415E+03  0.99431118245E+03  0.12699999809E+01 0.  1.
       -4    1    3    3    0  502  0.15708030797E+03 -0.56765192332E+02  0.88765508882E+03  0.90323290453E+03  0.12699999809E+01 0. -1.
</event>
<event>
 5   0  0.3398807E-06  0.1900106E+04  0.7818609E-02  0.8654803E-01
        1   -1    0    0  501    0  0.00000000000E+00  0.00000000000E+00  0.95780234018E+03  0.95780234019E+03  0.50400001928E-02 0. -1.
       -1   -1    0    0    0  501  0.00000000000E+00  0.00000000000E+00 -0.94236670779E+03  0.94236670780E+03  0.50400001928E-02 0.  1.
    10030    2    1    2    0    0  0.00000000000E+00  0.00000000000E+00  0.15435632387E+02  0.19001690480E+04  0.19001063529E+04 0.  0.
        1    1    3    3  502    0 -0.38980167822E+03  0.78926039071E+03  0.36511417057E+03  0.95298775976E+03  0.50400001928E-02 0. -1.
       -1    1    3    3    0  502  0.38980167822E+03 -0.78926039071E+03 -0.34967853818E+03  0.94718128823E+03  0.50400001928E-02 0.  1.
</event>
<event>
 5   0  0.7577180E-06  0.1898895E+04  0.7818609E-02  0.8655407E-01
        2   -1    0    0  501    0  0.00000000000E+00  0.00000000000E+00  0.74962156238E+03  0.74962156239E+03  0.25500000920E-02 0.  1.
       -2   -1    0    0    0  501  0.00000000000E+00  0.00000000000E+00 -0.12025403537E+04  0.12025403537E+04  0.25500000920E-02 0. -1.
    10030    2    1    2    0    0  0.00000000000E+00  0.00000000000E+00 -0.45291879127E+03  0.19521619160E+04  0.18988946034E+04 0.  0.
        5    1    3    3  502    0  0.92915688107E+03  0.13756189086E+03 -0.84111141905E+02  0.94305490701E+03  0.46999998093E+01 0.  1.
       -5    1    3    3    0  502 -0.92915688107E+03 -0.13756189086E+03 -0.36880764937E+03  0.10091070090E+04  0.46999998093E+01 0. -1.
</event>
<event>
 5   0  0.3236653E-06  0.1897912E+04  0.7818609E-02  0.8655896E-01
        1   -1    0    0  501    0  0.00000000000E+00  0.00000000000E+00  0.44202057879E+03  0.44202057882E+03  0.50400001928E-02 0. -1.
       -1   -1    0    0    0  501  0.00000000000E+00  0.00000000000E+00 -0.20372751506E+04  0.20372751506E+04  0.50400001928E-02 0.  1.
    10030    2    1    2    0    0  0.00000000000E+00  0.00000000000E+00 -0.15952545718E+04  0.24792957294E+04  0.18979120541E+04 0.  0.
        3    1    3    3  502    0 -0.70840943238E+03  0.48076900907E+03 -0.26293401156E+03  0.89560988639E+03  0.10100000352E+00 0. -1.
       -3    1    3    3    0  502  0.70840943238E+03 -0.48076900907E+03 -0.13323205603E+04  0.15836858431E+04  0.10100000352E+00 0.  1.
</event>
<event>
 5   0  0.3236653E-06  0.1900370E+04  0.7818609E-02  0.8654672E-01
       -1   -1    0    0    0  501  0.00000000000E+00  0.00000000000E+00  0.11095889857E+04  0.11095889857E+04  0.50400001928E-02 0. -1.
        1   -1    0    0  501    0  0.00000000000E+00  0.00000000000E+00 -0.81368066858E+03  0.81368066859E+03  0.50400001928E-02 0.  1.
    10030    2    1    2    0    0  0.00000000000E+00  0.00000000000E+00  0.29590831713E+03  0.19232696543E+04  0.19003695512E+04 0.  0.
        3    1    3    3  502    0  0.47775498570E+03  0.56632944452E+03  0.74999417417E+03  0.10542628408E+04  0.10100000352E+00 0. -1.
       -3    1    3    3    0  502 -0.47775498570E+03 -0.56632944452E+03 -0.45408585704E+03  0.86900681347E+03  0.10100000352E+00 0.  1.
</event>
<event>
 5   0  0.6984466E-06  0.1899710E+04  0.7818609E-02  0.8655001E-01
       -2   -1    0    0    0  501  0.00000000000E+00  0.00000000000E+00  0.15092925641E+04  0.15092925641E+04  0.25500000920E-02 0.  1.
        2   -1    0    0  501    0  0.00000000000E+00  0.00000000000E+00 -0.59777959070E+03  0.59777959070E+03  0.25500000920E-02 0. -1.
    10030    2    1    2    0    0  0.00000000000E+00  0.00000000000E+00  0.91151297338E+03  0.21070721548E+04  0.18997097580E+04 0.  0.
        2    1    3    3  502    0  0.63708180953E+03 -0.41101593454E+03 -0.17890587102E+03  0.77898308144E+03  0.25500000920E-02 0. -1.
       -2    1    3    3    0  502 -0.63708180953E+03  0.41101593454E+03  0.10904188444E+04  0.13280890733E+04  0.25500000920E-02 0.  1.
</event>
<event>
 5   0  0.7207648E-06  0.1900318E+04  0.7818609E-02  0.8654698E-01
        2   -1    0    0  501    0  0.00000000000E+00  0.00000000000E+00  0.99575146746E+03  0.99575146746E+03  0.25500000920E-02 0.  1.
       -2   -1    0    0    0  501  0.00000000000E+00  0.00000000000E+00 -0.90665365892E+03  0.90665365892E+03  0.25500000920E-02 0. -1.
    10030    2    1    2    0    0  0.00000000000E+00  0.00000000000E+00  0.89097808542E+02  0.19024051264E+04  0.19003175644E+04 0.  0.
        4    1    3    3  502    0 -0.34064547348E+02 -0.79976005232E+03  0.55699359706E+03  0.97520255062E+03  0.12699999809E+01 0.  1.
       -4    1    3    3    0  502  0.34064547348E+02  0.79976005232E+03 -0.46789578852E+03  0.92720257576E+03  0.12699999809E+01 0. -1.
</event>
<event>
 5   0  0.3236653E-06  0.1891279E+04  0.7818609E-02  0.8659210E-01
        1   -1    0    0  501    0  0.00000000000E+00  0.00000000000E+00  0.19084135451E+04  0.19084135451E+04  0.50400001928E-02 0. -1.
       -1   -1    0    0    0  501  0.00000000000E+00  0.00000000000E+00 -0.46857458043E+03  0.46857458046E+03  0.50400001928E-02 0.  1.
    10030    2    1    2    0    0  0.00000000000E+00  0.00000000000E+00  0.14398389647E+04  0.23769881256E+04  0.18912790130E+04 0.  0.
        3    1    3    3  502    0  0.28597517640E+03 -0.52459261845E+03 -0.20129674790E+03  0.63047569958E+03  0.10100000352E+00 0.  1.
       -3    1    3    3    0  502 -0.28597517640E+03  0.52459261845E+03  0.16411357126E+04  0.17465124260E+04  0.10100000352E+00 0. -1.
</event>
<event>
 5   0  0.6984466E-06  0.1898470E+04  0.7818609E-02  0.8655619E-01
        2   -1    0    0  501    0  0.00000000000E+00  0.00000000000E+00  0.77178191929E+03  0.77178191929E+03  0.25500000920E-02 0. -1.
       -2   -1    0    0    0  501  0.00000000000E+00  0.00000000000E+00 -0.11674887451E+04  0.11674887451E+04  0.25500000920E-02 0.  1.
    10030    2    1    2    0    0  0.00000000000E+00  0.00000000000E+00 -0.39570682576E+03  0.19392706643E+04  0.18984695988E+04 0.  0.
        2    1    3    3  502    0  0.91611925342E+03 -0.32414397096E+02 -0.44956668498E+03  0.10209972497E+04  0.25500000920E-02 0. -1.
       -2    1    3    3    0  502 -0.91611925342E+03  0.32414397096E+02  0.53859859212E+02  0.91827341466E+03  0.25500000920E-02 0.  1.
</event>
<event>
 5   0  0.7207648E-06  0.1900012E+04  0.7818609E-02  0.8654851E-01
       -2   -1    0    0    0  501  0.00000000000E+00  0.00000000000E+00  0.44735728572E+03  0.44735728572E+03  0.25500000920E-02 0. -1.
        2   -1    0    0  501    0  0.00000000000E+00  0.00000000000E+00 -0.20174280539E+04  0.20174280539E+04  0.25500000920E-02 0.  1.
    10030    2    1    2    0    0  0.00000000000E+00  0.00000000000E+00 -0.15700707682E+04  0.24647853396E+04  0.19000117245E+04 0.  0.
        4    1    3    3  502    0  0.29908479579E+02  0.91311663720E+03 -0.44717024612E+03  0.10171722333E+04  0.12699999809E+01 0. -1.
       -4    1    3    3    0  502 -0.29908479579E+02 -0.91311663720E+03 -0.11229005221E+04  0.14476131063E+04  0.12699999809E+01 0.  1.
</event>
<event>
 5   0  0.6862201E-06  0.1899207E+04  0.7818609E-02  0.8655251E-01
       -2   -1    0    0    0  501  0.00000000000E+00  0.00000000000E+00  0.80937754133E+03  0.80937754133E+03  0.25500000920E-02 0. -1.
        2   -1    0    0  501    0  0.00000000000E+00  0.00000000000E+00 -0.11141239814E+04  0.11141239814E+04  0.25500000920E-02 0.  1.
    10030    2    1    2    0    0  0.00000000000E+00  0.00000000000E+00 -0.30474644007E+03  0.19235015227E+04  0.18992071280E+04 0.  0.
        3    1    3    3  502    0 -0.51619398243E+03 -0.73804005634E+03 -0.45720096902E+03  0.10100455874E+04  0.10100000352E+00 0. -1.
       -3    1    3    3    0  502  0.51619398243E+03  0.73804005634E+03  0.15245452895E+03  0.91345593537E+03  0.10100000352E+00 0.  1.
</event>
<event>
 5   0  0.3236653E-06  0.1899647E+04  0.7818609E-02  0.8655032E-01
        1   -1    0    0  501    0  0.00000000000E+00  0.00000000000E+00  0.12420586265E+04  0.12420586265E+04  0.50400001928E-02 0. -1.
       -1   -1    0    0    0  501  0.00000000000E+00  0.00000000000E+00 -0.72634649625E+03  0.72634649627E+03  0.50400001928E-02 0.  1.
    10030    2    1    2    0    0  0.00000000000E+00  0.00000000000E+00  0.51571213028E+03  0.19684051228E+04  0.18996472636E+04 0.  0.
        3    1    3    3  502    0 -0.88016610625E+02 -0.55899262120E+03  0.10483209521E+04  0.11913003412E+04  0.10100000352E+00 0. -1.
       -3    1    3    3    0  502  0.88016610625E+02  0.55899262120E+03 -0.53260882178E+03  0.77710478157E+03  0.10100000352E+00 0.  1.
</event>
<event>
 5   0  0.6984466E-06  0.1900026E+04  0.7818609E-02  0.8654844E-01
       -2   -1    0    0    0  501  0.00000000000E+00  0.00000000000E+00  0.16934029863E+04  0.16934029863E+04  0.25500000920E-02 0. -1.
        2   -1    0    0  501    0  0.00000000000E+00  0.00000000000E+00 -0.53296482899E+03  0.53296482900E+03  0.25500000920E-02 0.  1.
    10030    2    1    2    0    0  0.00000000000E+00  0.00000000000E+00  0.11604381573E+04  0.22263678153E+04  0.19000255083E+04 0.  0.
        2    1    3    3  502    0 -0.11869213138E+03 -0.10886218422E+03 -0.51685160293E+03  0.54136344231E+03  0.25500000920E-02 0.  1.
       -2    1    3    3    0  502  0.11869213138E+03  0.10886218422E+03  0.16772897603E+04  0.16850043730E+04  0.25500000920E-02 0. -1.
</event>
<event>
 5   0  0.3211263E-06  0.1899010E+04  0.7818609E-02  0.8655349E-01
        1   -1    0    0  501    0  0.00000000000E+00  0.00000000000E+00  0.10108652368E+04  0.10108652368E+04  0.50400001928E-02 0.  1.
       -1   -1    0    0    0  501  0.00000000000E+00  0.00000000000E+00 -0.89186928614E+03  0.89186928615E+03  0.50400001928E-02 0. -1.
    10030    2    1    2    0    0  0.00000000000E+00  0.00000000000E+00  0.11899595066E+03  0.19027345230E+04  0.18990099075E+04 0.  0.
        5    1    3    3  502    0 -0.89112462515E+02  0.93610635687E+03 -0.72294890660E+02  0.94312500951E+03  0.46999998093E+01 0. -1.
       -5    1    3    3    0  502  0.89112462515E+02 -0.93610635687E+03  0.19129084132E+03  0.95960951346E+03  0.46999998093E+01 0.  1.
</event>
<event>
 5   0  0.3379108E-06  0.1899346E+04  0.7818609E-02  0.8655182E-01
        1   -1    0    0  501    0  0.00000000000E+00  0.00000000000E+00  0.13771613138E+04  0.13771613139E+04  0.50400001928E-02 0.  1.
       -1   -1    0    0    0  501  0.00000000000E+00  0.00000000000E+00 -0.65488259379E+03  0.65488259380E+03  0.50400001928E-02 0. -1.
    10030    2    1    2    0    0  0.00000000000E+00  0.00000000000E+00  0.72227872006E+03  0.20320439077E+04  0.18993461752E+04 0.  0.
        4    1    3    3  502    0 -0.17989723133E+03  0.73898539131E+03  0.96956708931E+03  0.12322842107E+04  0.12699999809E+01 0. -1.
       -4    1    3    3    0  502  0.17989723133E+03 -0.73898539131E+03 -0.24728836924E+03  0.79975969695E+03  0.12699999809E+01 0.  1.
</event>
<event>
 5   0  0.6984466E-06  0.1901543E+04  0.7818609E-02  0.8654089E-01
       -2   -1    0    0    0  501  0.00000000000E+00  0.00000000000E+00  0.60947942053E+03  0.60947942053E+03  0.25500000920E-02 0.  1.
        2   -1    0    0  501    0  0.00000000000E+00  0.00000000000E+00 -0.14831773119E+04  0.14831773119E+04  0.25500000920E-02 0. -1.
    10030    2    1    2    0    0  0.00000000000E+00  0.00000000000E+00 -0.87369789135E+03  0.20926567324E+04  0.19015425828E+04 0.  0.
        2    1    3    3  502    0  0.23583001515E+03 -0.91856059934E+03 -0.51146185511E+03  0.10774797446E+04  0.25500000920E-02 0. -1.
       -2    1    3    3    0  502 -0.23583001515E+03  0.91856059934E+03 -0.36223603624E+03  0.10151769879E+04  0.25500000920E-02 0.  1.
</event>
<event>
 5   0  0.3211263E-06  0.1899663E+04  0.7818609E-02  0.8655024E-01
       -1   -1    0    0    0  501  0.00000000000E+00  0.00000000000E+00  0.10616294653E+04  0.10616294653E+04  0.50400001928E-02 0.  1.
        1   -1    0    0  501    0  0.00000000000E+00  0.00000000000E+00 -0.84980709007E+03  0.84980709009E+03  0.50400001928E-02 0. -1.
    10030    2    1    2    0    0  0.00000000000E+00  0.00000000000E+00  0.21182237519E+03  0.19114365554E+04  0.18996633877E+04 0.  0.
        5    1    3    3  502    0  0.25031653323E+03 -0.28402669330E+03  0.98241758066E+03  0.10528513295E+04  0.46999998093E+01 0.  1.
       -5    1    3    3    0  502 -0.25031653323E+03  0.28402669330E+03 -0.77059520547E+03  0.85858522583E+03  0.46999998093E+01 0. -1.
</event>
<event>
 5   0  0.3211263E-06  0.1900131E+04  0.7818609E-02  0.8654791E-01
       -1   -1    0    0    0  501  0.00000000000E+00  0.00000000000E+00  0.84842340326E+03  0.84842340328E+03  0.50400001928E-02 0.  1.
        1   -1    0    0  501    0  0.00000000000E+00  0.00000000000E+00 -0.10638841813E+04  0.10638841813E+04  0.50400001928E-02 0. -1.
    10030    2    1    2    0    0  0.00000000000E+00  0.00000000000E+00 -0.21546077803E+03  0.19123075846E+04  0.19001307721E+04 0.  0.
        5    1    3    3  502    0  0.47229156086E+03  0.14791691311E+03  0.70843109949E+03  0.86419641539E+03  0.46999998093E+01 0.  1.
       -5    1    3    3    0  502 -0.47229156086E+03 -0.14791691311E+03 -0.92389187752E+03  0.10481111692E+04  0.46999998093E+01 0. -1.
</event>
<event>
 5   0  0.3236653E-06  0.1901231E+04  0.7818609E-02  0.8654244E-01
       -1   -1    0    0    0  501  0.00000000000E+00  0.00000000000E+00  0.50665640392E+03  0.50665640395E+03  0.50400001928E-02 0. -1.
        1   -1    0    0  501    0  0.00000000000E+00  0.00000000000E+00 -0.17835958647E+04  0.17835958647E+04  0.50400001928E-02 0.  1.
    10030    2    1    2    0    0  0.00000000000E+00  0.00000000000E+00 -0.12769394608E+04  0.22902522686E+04  0.19012314608E+04 0.  0.
        3    1    3    3  502    0 -0.14254003265E+03  0.93023891993E+03 -0.80012238876E+03  0.12352562310E+04  0.10100000352E+00 0. -1.
       -3    1    3    3    0  502  0.14254003265E+03 -0.93023891993E+03 -0.47681707199E+03  0.10549960376E+04  0.10100000352E+00 0.  1.
</event>
<event>
 5   0  0.3495279E-06  0.1900372E+04  0.7818609E-02  0.8654671E-01
        1   -1    0    0  501    0  0.00000000000E+00  0.00000000000E+00  0.19357731519E+04  0.19357731519E+04  0.50400001928E-02 0.  1.
       -1   -1    0    0    0  501  0.00000000000E+00  0.00000000000E+00 -0.46640439540E+03  0.46640439543E+03  0.50400001928E-02 0. -1.
    10030    2    1    2    0    0  0.00000000000E+00  0.00000000000E+00  0.14693687565E+04  0.24021775473E+04  0.19003716548E+04 0.  0.
        2    1    3    3  502    0  0.45321732455E+03 -0.37048741500E+03  0.16807750867E+04  0.17797954264E+04  0.25500000920E-02 0.  1.
       -2    1    3    3    0  502 -0.45321732455E+03  0.37048741500E+03 -0.21140633019E+03  0.62238212089E+03  0.25500000920E-02 0. -1.
</event>
<event>
 5   0  0.7577180E-06  0.1899704E+04  0.7818609E-02  0.8655003E-01
        2   -1    0    0  501    0  0.00000000000E+00  0.00000000000E+00  0.12187492307E+04  0.12187492307E+04  0.25500000920E-02 0. -1.
       -2   -1    0    0    0  501  0.00000000000E+00  0.00000000000E+00 -0.74028294956E+03  0.74028294957E+03  0.25500000920E-02 0.  1.
    10030    2    1    2    0    0  0.00000000000E+00  0.00000000000E+00  0.47846628110E+03  0.19590321802E+04  0.18997044773E+04 0.  0.
        5    1    3    3  502    0  0.16074401412E+03  0.91049189927E+03  0.46366026650E+03  0.10343292848E+04  0.46999998093E+01 0. -1.
       -5    1    3    3    0  502 -0.16074401412E+03 -0.91049189927E+03  0.14806014595E+02  0.92470289541E+03  0.46999998093E+01 0.  1.
</event>
<event>
 5   0  0.3379108E-06  0.1901226E+04  0.7818609E-02  0.8654246E-01
        1   -1    0    0  501    0  0.00000000000E+00  0.00000000000E+00  0.28967419737E+04  0.28967419737E+04  0.50400001928E-02 0.  1.
       -1   -1    0    0    0  501  0.00000000000E+00  0.00000000000E+00 -0.31195915990E+03  0.31195915994E+03  0.50400001928E-02 0. -1.
    10030    2    1    2    0    0  0.00000000000E+00  0.00000000000E+00  0.25847828138E+04  0.32087011336E+04  0.19012261229E+04 0.  0.
        4    1    3    3  502    0 -0.89363737562E+03  0.32328867245E+03  0.12524440250E+04  0.15721707838E+04  0.12699999809E+01 0. -1.
       -4    1    3    3    0  502  0.89363737562E+03 -0.32328867245E+03  0.13323387888E+04  0.16365303498E+04  0.12699999809E+01 0.  1.
</event>
<event>
 5   0  0.3211263E-06  0.1899524E+04  0.7818609E-02  0.8655094E-01
       -1   -1    0    0    0  501  0.00000000000E+00  0.00000000000E+00  0.16888278667E+04  0.16888278667E+04  0.50400001928E-02 0. -1.
        1   -1    0    0  501    0  0.00000000000E+00  0.00000000000E+00 -0.53412634575E+03  0.53412634577E+03  0.50400001928E-02 0.  1.
    10030    2    1    2    0    0  0.00000000000E+00  0.00000000000E+00  0.11547015209E+04  0.22229542124E+04  0.18995235793E+04 0.  0.
        5    1    3    3  502    0  0.57352220057E+03 -0.53649556905E+03  0.12023996658E+04  0.14361553733E+04  0.46999998093E+01 0.  1.
       -5    1    3    3    0  502 -0.57352220057E+03  0.53649556905E+03 -0.47698144866E+02  0.78679883908E+03  0.46999998093E+01 0. -1.
</event>
<event>
 5   0  0.6984466E-06  0.1898628E+04  0.7818609E-02  0.8655540E-01
       -2   -1    0    0    0  501  0.00000000000E+00  0.00000000000E+00  0.47427657708E+03  0.47427657709E+03  0.25500000920E-02 0. -1.
        2   -1    0    0  501    0  0.00000000000E+00  0.00000000000E+00 -0.19001506033E+04  0.19001506033E+04  0.25500000920E-02 0.  1.
    10030    2    1    2    0    0  0.00000000000E+00  0.00000000000E+00 -0.14258740262E+04  0.23744271804E+04  0.18986278457E+04 0.  0.
        2    1    3    3  502    0 -0.88331283324E+03  0.34525007319E+03 -0.76536914581E+03  0.12186997595E+04  0.25500000920E-02 0. -1.
       -2    1    3    3    0  502  0.88331283324E+03 -0.34525007319E+03 -0.66050488041E+03  0.11557274209E+04  0.25500000920E-02 0.  1.
</event>
<event>
 5   0  0.3495279E-06  0.1900768E+04  0.7818609E-02  0.8654474E-01
        1   -1    0    0  501    0  0.00000000000E+00  0.00000000000E+00  0.20640742744E+04  0.20640742744E+04  0.50400001928E-02 0.  1.
       -1   -1    0    0    0  501  0.00000000000E+00  0.00000000000E+00 -0.43759569863E+03  0.43759569866E+03  0.50400001928E-02 0. -1.
    10030    2    1    2    0    0  0.00000000000E+00  0.00000000000E+00  0.16264785758E+04  0.25016699731E+04  0.19007682912E+04 0.  0.
        2    1    3    3  502    0 -0.56761078283E+03 -0.49336524448E+03  0.48476082043E+02  0.75361873369E+03  0.25500000920E-02 0. -1.
       -2    1    3    3    0  502  0.56761078283E+03  0.49336524448E+03  0.15780024937E+04  0.17480512394E+04  0.25500000920E-02 0.  1.
</event>
<event>
 5   0  0.7577180E-06  0.1899997E+04  0.7818609E-02  0.8654858E-01
        2   -1    0    0  501    0  0.00000000000E+00  0.00000000000E+00  0.14888289902E+04  0.14888289902E+04  0.25500000920E-02 0.  1.
       -2   -1    0    0    0  501  0.00000000000E+00  0.00000000000E+00 -0.60617915217E+03  0.60617915217E+03  0.25500000920E-02 0. -1.
    10030    2    1    2    0    0  0.00000000000E+00  0.00000000000E+00  0.88264983806E+03  0.20950081424E+04  0.18999969421E+04 0.  0.
        5    1    3    3  502    0  0.67360447554E+03 -0.63129961381E+03  0.19429271005E+03  0.94342670041E+03  0.46999998093E+01 0.  1.
       -5    1    3    3    0  502 -0.67360447554E+03  0.63129961381E+03  0.68835712801E+03  0.11515814420E+04  0.46999998093E+01 0. -1.
</event>
<event>
 5   0  0.3398807E-06  0.1900227E+04  0.7818609E-02  0.8654743E-01
        1   -1    0    0  501    0  0.00000000000E+00  0.00000000000E+00  0.67138053089E+03  0.67138053091E+03  0.50400001928E-02 0. -1.
       -1   -1    0    0    0  501  0.00000000000E+00  0.00000000000E+00 -0.13445662285E+04  0.13445662285E+04  0.50400001928E-02 0.  1.
    10030    2    1    2    0    0  0.00000000000E+00  0.00000000000E+00 -0.67318569761E+03  0.20159467594E+04  0.19002269215E+04 0.  0.
        1    1    3    3  502    0  0.44829461921E+03  0.23593809794E+03 -0.11893335413E+04  0.12927293314E+04  0.50400001928E-02 0.  1.
       -1    1    3    3    0  502 -0.44829461921E+03 -0.23593809794E+03  0.51614784369E+03  0.72321742806E+03  0.50400001928E-02 0. -1.
</event>
<event>
 5   0  0.6862201E-06  0.1900372E+04  0.7818609E-02  0.8654671E-01
        2   -1    0    0  501    0  0.00000000000E+00  0.00000000000E+00  0.92962037421E+03  0.92962037421E+03  0.25500000920E-02 0. -1.
       -2   -1    0    0    0  501  0.00000000000E+00  0.00000000000E+00 -0.97120622826E+03  0.97120622826E+03  0.25500000920E-02 0.  1.
    10030    2    1    2    0    0  0.00000000000E+00  0.00000000000E+00 -0.41585854053E+02  0.19008266025E+04  0.19003716451E+04 0.  0.
        3    1    3    3  502    0 -0.91228102277E+02  0.14546557766E+03  0.91397362871E+03  0.92996269017E+03  0.10100000352E+00 0. -1.
       -3    1    3    3    0  502  0.91228102277E+02 -0.14546557766E+03 -0.95555948276E+03  0.97086391231E+03  0.10100000352E+00 0.  1.
</event>
<event>
 5   0  0.7577180E-06  0.1900076E+04  0.7818609E-02  0.8654818E-01
       -2   -1    0    0    0  501  0.00000000000E+00  0.00000000000E+00  0.75653424628E+03  0.75653424629E+03  0.25500000920E-02 0. -1.
        2   -1    0    0  501    0  0.00000000000E+00  0.00000000000E+00 -0.11930357613E+04  0.11930357613E+04  0.25500000920E-02 0.  1.
    10030    2    1    2    0    0  0.00000000000E+00  0.00000000000E+00 -0.43650151505E+03  0.19495700076E+04  0.19000762200E+04 0.  0.
        5    1    3    3  502    0 -0.62401292392E+02  0.94497854706E+03 -0.29552483163E+03  0.99208638324E+03  0.46999998093E+01 0.  1.
       -5    1    3    3    0  502  0.62401292392E+02 -0.94497854706E+03 -0.14097668342E+03  0.95748362439E+03  0.46999998093E+01 0. -1.
</event>
<event>
 5   0  0.3398807E-06  0.1900161E+04  0.7818609E-02  0.8654776E-01
       -1   -1    0    0    0  501  0.00000000000E+00  0.00000000000E+00  0.93471192826E+03  0.93471192827E+03  0.50400001928E-02 0.  1.
        1   -1    0    0  501    0  0.00000000000E+00  0.00000000000E+00 -0.96570144072E+03  0.96570144073E+03  0.50400001928E-02 0. -1.
    10030    2    1    2    0    0  0.00000000000E+00  0.00000000000E+00 -0.30989512465E+02  0.19004133690E+04  0.19001606835E+04 0.  0.
        1    1    3    3  502    0 -0.19197078170E+03 -0.40311577018E+03  0.82324514004E+03  0.93652958620E+03  0.50400001928E-02 0.  1.
       -1    1    3    3    0  502  0.19197078170E+03  0.40311577018E+03 -0.85423465251E+03  0.96388378281E+03  0.50400001928E-02 0. -1.
</event>
<event>
 5   0  0.6984466E-06  0.1900145E+04  0.7818609E-02  0.8654784E-01
        2   -1    0    0  501    0  0.00000000000E+00  0.00000000000E+00  0.23446624677E+04  0.23446624677E+04  0.25500000920E-02 0.  1.
       -2   -1    0    0    0  501  0.00000000000E+00  0.00000000000E+00 -0.38497537369E+03  0.38497537370E+03  0.25500000920E-02 0. -1.
    10030    2    1    2    0    0  0.00000000000E+00  0.00000000000E+00  0.19596870940E+04  0.27296378414E+04  0.19001445310E+04 0.  0.
        2    1    3    3  502    0  0.69748859752E+01 -0.49406042038E+03 -0.18587568865E+03  0.52791487918E+03  0.25500000920E-02 0. -1.
       -2    1    3    3    0  502 -0.69748859752E+01  0.49406042038E+03  0.21455627826E+04  0.22017229622E+04  0.25500000920E-02 0.  1.
</event>
<event>
 5   0  0.7577180E-06  0.1900785E+04  0.7818609E-02  0.8654466E-01
        2   -1    0    0  501    0  0.00000000000E+00  0.00000000000E+00  0.18291571760E+04  0.18291571760E+04  0.25500000920E-02 0.  1.
       -2   -1    0    0    0  501  0.00000000000E+00  0.00000000000E+00 -0.49380442103E+03  0.49380442104E+03  0.25500000920E-02 0. -1.
    10030    2    1    2    0    0  0.00000000000E+00  0.00000000000E+00  0.13353527550E+04  0.23229615971E+04  0.19007849960E+04 0.  0.
        5    1    3    3  502    0  0.65410693170E+03 -0.43336668145E+03  0.12324998567E+02  0.78475254334E+03  0.46999998093E+01 0. -1.
       -5    1    3    3    0  502 -0.65410693170E+03  0.43336668145E+03  0.13230277564E+04  0.15382090537E+04  0.46999998093E+01 0.  1.
</event>
<event>
 5   0  0.3495279E-06  0.1905888E+04  0.7818609E-02  0.8651931E-01
        1   -1    0    0  501    0  0.00000000000E+00  0.00000000000E+00  0.11365129043E+04  0.11365129043E+04  0.50400001928E-02 0. -1.
       -1   -1    0    0    0  501  0.00000000000E+00  0.00000000000E+00 -0.79902494255E+03  0.79902494257E+03  0.50400001928E-02 0.  1.
    10030    2    1    2    0    0  0.00000000000E+00  0.00000000000E+00  0.33748796175E+03  0.19355378469E+04  0.19058878856E+04 0.  0.
        2    1    3    3  502    0  0.13112629556E+02 -0.83634460344E+03  0.63241880899E+03  0.10486170830E+04  0.25500000920E-02 0. -1.
       -2    1    3    3    0  502 -0.13112629556E+02  0.83634460344E+03 -0.29493084724E+03  0.88692076389E+03  0.25500000920E-02 0.  1.
</event>
<event>
 5   0  0.7577180E-06  0.1900744E+04  0.7818609E-02  0.8654486E-01
        2   -1    0    0  501    0  0.00000000000E+00  0.00000000000E+00  0.17567176644E+04  0.17567176644E+04  0.25500000920E-02 0.  1.
       -2   -1    0    0    0  501  0.00000000000E+00  0.00000000000E+00 -0.51414487527E+03  0.51414487528E+03  0.25500000920E-02 0. -1.
    10030    2    1    2    0    0  0.00000000000E+00  0.00000000000E+00  0.12425727891E+04  0.22708625396E+04  0.19007444694E+04 0.  0.
        5    1    3    3  502    0 -0.51250917122E+03  0.52306804808E+03  0.13449762488E+04  0.15314205933E+04  0.46999998093E+01 0.  1.
       -5    1    3    3    0  502  0.51250917122E+03 -0.52306804808E+03 -0.10240345975E+03  0.73944194639E+03  0.46999998093E+01 0. -1.
</event>
<event>
 5   0  0.3379108E-06  0.1900719E+04  0.7818609E-02  0.8654499E-01
        1   -1    0    0  501    0  0.00000000000E+00  0.00000000000E+00  0.16741171169E+04  0.16741171169E+04  0.50400001928E-02 0.  1.
       -1   -1    0    0    0  501  0.00000000000E+00  0.00000000000E+00 -0.53949822553E+03  0.53949822556E+03  0.50400001928E-02 0. -1.
    10030    2    1    2    0    0  0.00000000000E+00  0.00000000000E+00  0.11346188914E+04  0.22136153425E+04  0.19007190365E+04 0.  0.
        4    1    3    3  502    0  0.74489605185E+03  0.40458400494E+03  0.66897769385E+02  0.85031480615E+03  0.12699999809E+01 0. -1.
       -4    1    3    3    0  502 -0.74489605185E+03 -0.40458400494E+03  0.10677211220E+04  0.13633005364E+04  0.12699999809E+01 0.  1.
</event>
<event>
 5   0  0.3211263E-06  0.1898651E+04  0.7818609E-02  0.8655528E-01
       -1   -1    0    0    0  501  0.00000000000E+00  0.00000000000E+00  0.92209034001E+03  0.92209034002E+03  0.50400001928E-02 0. -1.
        1   -1    0    0  501    0  0.00000000000E+00  0.00000000000E+00 -0.97736490280E+03  0.97736490281E+03  0.50400001928E-02 0.  1.
    10030    2    1    2    0    0  0.00000000000E+00  0.00000000000E+00 -0.55274562792E+02  0.18994552428E+04  0.18986508216E+04 0.  0.
        5    1    3    3  502    0 -0.10913494947E+03 -0.28619320656E+03 -0.92656105113E+03  0.97588649962E+03  0.46999998093E+01 0.  1.
       -5    1    3    3    0  502  0.10913494947E+03  0.28619320656E+03  0.87128648834E+03  0.92356874321E+03  0.46999998093E+01 0. -1.
</event>
<event>
 5   0  0.3211263E-06  0.1900210E+04  0.7818609E-02  0.8654752E-01
        1   -1    0    0  501    0  0.00000000000E+00  0.00000000000E+00  0.14442382344E+04  0.14442382344E+04  0.50400001928E-02 0. -1.
       -1   -1    0    0    0  501  0.00000000000E+00  0.00000000000E+00 -0.62503474277E+03  0.62503474279E+03  0.50400001928E-02 0.  1.
    10030    2    1    2    0    0  0.00000000000E+00  0.00000000000E+00  0.81920349167E+03  0.20692729772E+04  0.19002095394E+04 0.  0.
        5    1    3    3  502    0  0.73603672559E+03 -0.15535148500E+03  0.10415735700E+04  0.12848275126E+04  0.46999998093E+01 0. -1.
       -5    1    3    3    0  502 -0.73603672559E+03  0.15535148500E+03 -0.22237007835E+03  0.78444546467E+03  0.46999998093E+01 0.  1.
</event>
<event>
 5   0  0.2527750E-06  0.1900137E+04  0.7818609E-02  0.8654788E-01
        3   -1    0    0  501    0  0.00000000000E+00  0.00000000000E+00  0.59041734657E+03  0.59041735521E+03  0.10100000352E+00 0.  1.
       -3   -1    0    0    0  501  0.00000000000E+00  0.00000000000E+00 -0.15288002779E+04  0.15288002812E+04  0.10100000352E+00 0. -1.
    10030    2    1    2    0    0  0.00000000000E+00  0.00000000000E+00 -0.93838293130E+03  0.21192176364E+04  0.19001370647E+04 0.  0.
        2    1    3    3  502    0  0.28755453656E+03  0.86561595363E+03 -0.17274129196E+03  0.92834160988E+03  0.25500000920E-02 0.  1.
       -2    1    3    3    0  502 -0.28755453656E+03 -0.86561595363E+03 -0.76564163934E+03  0.11908760265E+04  0.25500000920E-02 0. -1.
</event>
<event>
 5   0  0.6862201E-06  0.1902814E+04  0.7818609E-02  0.8653457E-01
        2   -1    0    0  501    0  0.00000000000E+00  0.00000000000E+00  0.15037061895E+04  0.15037061895E+04  0.25500000920E-02 0.  1.
       -2   -1    0    0    0  501  0.00000000000E+00  0.00000000000E+00 -0.60196311288E+03  0.60196311289E+03  0.25500000920E-02 0. -1.
    10030    2    1    2    0    0  0.00000000000E+00  0.00000000000E+00  0.90174307663E+03  0.21056693024E+04  0.19028143984E+04 0.  0.
        3    1    3    3  502    0  0.23713438689E+03  0.18930028359E+03  0.14487276988E+04  0.14801619068E+04  0.10100000352E+00 0.  1.
       -3    1    3    3    0  502 -0.23713438689E+03 -0.18930028359E+03 -0.54698462220E+03  0.62550739559E+03  0.10100000352E+00 0. -1.
</event>
<event>
 5   0  0.3211263E-06  0.1900277E+04  0.7818609E-02  0.8654718E-01
       -1   -1    0    0    0  501  0.00000000000E+00  0.00000000000E+00  0.83274463208E+03  0.83274463210E+03  0.50400001928E-02 0. -1.
        1   -1    0    0  501    0  0.00000000000E+00  0.00000000000E+00 -0.10840820125E+04  0.10840820126E+04  0.50400001928E-02 0.  1.
    10030    2    1    2    0    0  0.00000000000E+00  0.00000000000E+00 -0.25133738046E+03  0.19168266447E+04  0.19002773237E+04 0.  0.
        5    1    3    3  502    0  0.53915611674E+03 -0.38713532458E+03 -0.81142629327E+03  0.10483309578E+04  0.46999998093E+01 0.  1.
       -5    1    3    3    0  502 -0.53915611674E+03  0.38713532458E+03  0.56008891281E+03  0.86849568681E+03  0.46999998093E+01 0. -1.
</event>
<event>
 5   0  0.3211263E-06  0.1900126E+04  0.7818609E-02  0.8654794E-01
       -1   -1    0    0    0  501  0.00000000000E+00  0.00000000000E+00  0.64895347075E+03  0.64895347076E+03  0.50400001928E-02 0.  1.
        1   -1    0    0  501    0  0.00000000000E+00  0.00000000000E+00 -0.13908844026E+04  0.13908844026E+04  0.50400001928E-02 0. -1.
    10030    2    1    2    0    0  0.00000000000E+00  0.00000000000E+00 -0.74193093187E+03  0.20398378734E+04  0.19001255332E+04 0.  0.
        5    1    3    3  502    0  0.80816503325E+02  0.90273984108E+03 -0.67673563177E+03  0.11311338264E+04  0.46999998093E+01 0. -1.
       -5    1    3    3    0  502 -0.80816503325E+02 -0.90273984108E+03 -0.65195300098E+02  0.90870404700E+03  0.46999998093E+01 0.  1.
</event>
<event>
 5   0  0.6862201E-06  0.1899665E+04  0.7818609E-02  0.8655023E-01
        2   -1    0    0  501    0  0.00000000000E+00  0.00000000000E+00  0.12268775194E+04  0.12268775194E+04  0.25500000920E-02 0. -1.
       -2   -1    0    0    0  501  0.00000000000E+00  0.00000000000E+00 -0.73534771616E+03  0.73534771617E+03  0.25500000920E-02 0.  1.
    10030    2    1    2    0    0  0.00000000000E+00  0.00000000000E+00  0.49152980322E+03  0.19622252356E+04  0.18996647935E+04 0.  0.
        3    1    3    3  502    0  0.92627715364E+03 -0.20770768675E+03  0.27923132362E+03  0.98949582656E+03  0.10100000352E+00 0.  1.
       -3    1    3    3    0  502 -0.92627715364E+03  0.20770768675E+03  0.21229847960E+03  0.97272940900E+03  0.10100000352E+00 0. -1.
</event>
<event>
 5   0  0.6870370E-06  0.1899586E+04  0.7818609E-02  0.8655062E-01
       -2   -1    0    0    0  501  0.00000000000E+00  0.00000000000E+00  0.92516333442E+03  0.92516333443E+03  0.25500000920E-02 0. -1.
        2   -1    0    0  501    0  0.00000000000E+00  0.00000000000E+00 -0.97507852797E+03  0.97507852797E+03  0.25500000920E-02 0.  1.
    10030    2    1    2    0    0  0.00000000000E+00  0.00000000000E+00 -0.49915193540E+02  0.19002418624E+04  0.18995861678E+04 0.  0.
        1    1    3    3  502    0 -0.86270218307E+03  0.32218560807E+03  0.20760550966E+03  0.94401200754E+03  0.50400001928E-02 0. -1.
       -1    1    3    3    0  502  0.86270218307E+03 -0.32218560807E+03 -0.25752070320E+03  0.95622985486E+03  0.50400001928E-02 0.  1.
</event>
<event>
 5   0  0.7207648E-06  0.1900543E+04  0.7818609E-02  0.8654586E-01
        2   -1    0    0  501    0  0.00000000000E+00  0.00000000000E+00  0.14524493537E+04  0.14524493538E+04  0.25500000920E-02 0. -1.
       -2   -1    0    0    0  501  0.00000000000E+00  0.00000000000E+00 -0.62171924992E+03  0.62171924992E+03  0.25500000920E-02 0.  1.
    10030    2    1    2    0    0  0.00000000000E+00  0.00000000000E+00  0.83073010383E+03  0.20741686037E+04  0.19005427885E+04 0.  0.
        4    1    3    3  502    0 -0.68418192280E+03  0.54282030752E+03  0.82408522758E+03  0.12007817724E+04  0.12699999809E+01 0. -1.
       -4    1    3    3    0  502  0.68418192280E+03 -0.54282030752E+03  0.66448762510E+01  0.87338683126E+03  0.12699999809E+01 0.  1.
</event>
<event>
 5   0  0.3495279E-06  0.1900269E+04  0.7818609E-02  0.8654723E-01
        1   -1    0    0  501    0  0.00000000000E+00  0.00000000000E+00  0.67176933379E+03  0.67176933381E+03  0.50400001928E-02 0.  1.
       -1   -1    0    0    0  501  0.00000000000E+00  0.00000000000E+00 -0.13438470987E+04  0.13438470987E+04  0.50400001928E-02 0. -1.
    10030    2    1    2    0    0  0.00000000000E+00  0.00000000000E+00 -0.67207776491E+03  0.20156164325E+04  0.19002686865E+04 0.  0.
        2    1    3    3  502    0  0.22518641488E+03  0.80016597520E+03 -0.82416959145E+03  0.11705682487E+04  0.25500000920E-02 0. -1.
       -2    1    3    3    0  502 -0.22518641488E+03 -0.80016597520E+03  0.15209182654E+03  0.84504818384E+03  0.25500000920E-02 0.  1.
</event>
<event>
 5   0  0.7577180E-06  0.1898002E+04  0.7818609E-02  0.8655852E-01
       -2   -1    0    0    0  501  0.00000000000E+00  0.00000000000E+00  0.98417696082E+03  0.98417696083E+03  0.25500000920E-02 0. -1.
        2   -1    0    0  501    0  0.00000000000E+00  0.00000000000E+00 -0.91508233727E+03  0.91508233727E+03  0.25500000920E-02 0.  1.
    10030    2    1    2    0    0  0.00000000000E+00  0.00000000000E+00  0.69094623557E+02  0.18992592981E+04  0.18980020586E+04 0.  0.
        5    1    3    3  502    0 -0.31847343547E+03 -0.37657012804E+03  0.84585589767E+03  0.97914487184E+03  0.46999998093E+01 0. -1.
       -5    1    3    3    0  502  0.31847343547E+03  0.37657012804E+03 -0.77676127412E+03  0.92011442625E+03  0.46999998093E+01 0.  1.
</event>
<event>
 5   0  0.3379108E-06  0.1899886E+04  0.7818609E-02  0.8654913E-01
        1   -1    0    0  501    0  0.00000000000E+00  0.00000000000E+00  0.13719079673E+04  0.13719079673E+04  0.50400001928E-02 0.  1.
       -1   -1    0    0    0  501  0.00000000000E+00  0.00000000000E+00 -0.65776396227E+03  0.65776396229E+03  0.50400001928E-02 0. -1.
    10030    2    1    2    0    0  0.00000000000E+00  0.00000000000E+00  0.71414400503E+03  0.20296719296E+04  0.18998859129E+04 0.  0.
        4    1    3    3  502    0  0.68116752335E+03 -0.48090734402E+03  0.84327621059E+03  0.11859078584E+04  0.12699999809E+01 0.  1.
       -4    1    3    3    0  502 -0.68116752335E+03  0.48090734402E+03 -0.12913220556E+03  0.84376407118E+03  0.12699999809E+01 0. -1.
</event>
<event>
 5   0  0.6870370E-06  0.1900388E+04  0.7818609E-02  0.8654663E-01
        2   -1    0    0  501    0  0.00000000000E+00  0.00000000000E+00  0.17485720943E+04  0.17485720944E+04  0.25500000920E-02 0. -1.
       -2   -1    0    0    0  501  0.00000000000E+00  0.00000000000E+00 -0.51634640462E+03  0.51634640463E+03  0.25500000920E-02 0.  1.
    10030    2    1    2    0    0  0.00000000000E+00  0.00000000000E+00  0.12322256897E+04  0.22649184990E+04  0.19003882910E+04 0.  0.
        1    1    3    3  502    0  0.29353754609E+03 -0.73912875934E+03 -0.36252551058E+01  0.79529161717E+03  0.50400001928E-02 0.  1.
       -1    1    3    3    0  502 -0.29353754609E+03  0.73912875934E+03  0.12358509448E+04  0.14696268818E+04  0.50400001928E-02 0. -1.
</event>
<event>
 5   0  0.2527750E-06  0.1899940E+04  0.7818609E-02  0.8654886E-01
        4   -1    0    0  501    0  0.00000000000E+00  0.00000000000E+00  0.14646964042E+04  0.14646969548E+04  0.12699999809E+01 0. -1.
       -4   -1    0    0    0  501  0.00000000000E+00  0.00000000000E+00 -0.61612811455E+03  0.61612942345E+03  0.12699999809E+01 0.  1.
    10030    2    1    2    0    0  0.00000000000E+00  0.00000000000E+00  0.84856828965E+03  0.20808263782E+04  0.18999395449E+04 0.  0.
        2    1    3    3  502    0  0.81827739837E+03 -0.35644653606E+03  0.78053877479E+03  0.11856950758E+04  0.25500000920E-02 0. -1.
       -2    1    3    3    0  502 -0.81827739837E+03  0.35644653606E+03  0.68029514860E+02  0.89513130246E+03  0.25500000920E-02 0.  1.
</event>
<event>
 5   0  0.6984466E-06  0.1899745E+04  0.7818609E-02  0.8654983E-01
        2   -1    0    0  501    0  0.00000000000E+00  0.00000000000E+00  0.12352074046E+04  0.12352074046E+04  0.25500000920E-02 0.  1.
       -2   -1    0    0    0  501  0.00000000000E+00  0.00000000000E+00 -0.73045053765E+03  0.73045053765E+03  0.25500000920E-02 0. -1.
    10030    2    1    2    0    0  0.00000000000E+00  0.00000000000E+00  0.50475686697E+03  0.19656579423E+04  0.18997451543E+04 0.  0.
        2    1    3    3  502    0 -0.56525499952E+03 -0.76163221185E+03  0.19900305968E+03  0.96912282935E+03  0.25500000920E-02 0. -1.
       -2    1    3    3    0  502  0.56525499952E+03  0.76163221185E+03  0.30575380729E+03  0.99653511292E+03  0.25500000920E-02 0.  1.
</event>
<event>
 5   0  0.3398807E-06  0.1900123E+04  0.7818609E-02  0.8654795E-01
        1   -1    0    0  501    0  0.00000000000E+00  0.00000000000E+00  0.13301980528E+04  0.13301980529E+04  0.50400001928E-02 0.  1.
       -1   -1    0    0    0  501  0.00000000000E+00  0.00000000000E+00 -0.67855801115E+03  0.67855801117E+03  0.50400001928E-02 0. -1.
    10030    2    1    2    0    0  0.00000000000E+00  0.00000000000E+00  0.65164004169E+03  0.20087560640E+04  0.19001226752E+04 0.  0.
        1    1    3    3  502    0 -0.56670490234E+02 -0.57999840241E+03  0.11190559939E+04  0.12617036136E+04  0.50400001928E-02 0.  1.
       -1    1    3    3    0  502  0.56670490234E+02  0.57999840241E+03 -0.46741595216E+03  0.74705245038E+03  0.50400001928E-02 0. -1.
</event>
<event>
 5   0  0.3379108E-06  0.1899094E+04  0.7818609E-02  0.8655307E-01
        1   -1    0    0  501    0  0.00000000000E+00  0.00000000000E+00  0.86390312458E+03  0.86390312460E+03  0.50400001928E-02 0. -1.
       -1   -1    0    0    0  501  0.00000000000E+00  0.00000000000E+00 -0.10436815745E+04  0.10436815745E+04  0.50400001928E-02 0.  1.
    10030    2    1    2    0    0  0.00000000000E+00  0.00000000000E+00 -0.17977844994E+03  0.19075846991E+04  0.18990942824E+04 0.  0.
        4    1    3    3  502    0 -0.51173837140E+03 -0.64657780626E+03 -0.56284366656E+03  0.99836547727E+03  0.12699999809E+01 0.  1.
       -4    1    3    3    0  502  0.51173837140E+03  0.64657780626E+03  0.38306521662E+03  0.90921922186E+03  0.12699999809E+01 0. -1.
</event>
<event>
 5   0  0.6984466E-06  0.1899892E+04  0.7818609E-02  0.8654910E-01
        2   -1    0    0  501    0  0.00000000000E+00  0.00000000000E+00  0.17443069434E+04  0.17443069434E+04  0.25500000920E-02 0.  1.
       -2   -1    0    0    0  501  0.00000000000E+00  0.00000000000E+00 -0.51733864613E+03  0.51733864613E+03  0.25500000920E-02 0. -1.
    10030    2    1    2    0    0  0.00000000000E+00  0.00000000000E+00  0.12269682973E+04  0.22616455896E+04  0.18998919891E+04 0.  0.
        2    1    3    3  502    0 -0.24793169120E+03  0.66528296301E+03  0.13647867338E+04  0.15384129397E+04  0.25500000920E-02 0.  1.
       -2    1    3    3    0  502  0.24793169120E+03 -0.66528296301E+03 -0.13781843647E+03  0.72323264986E+03  0.25500000920E-02 0. -1.
</event>
<event>
 5   0  0.7577180E-06  0.1900334E+04  0.7818609E-02  0.8654690E-01
        2   -1    0    0  501    0  0.00000000000E+00  0.00000000000E+00  0.10713790102E+04  0.10713790102E+04  0.25500000920E-02 0.  1.
       -2   -1    0    0    0  501  0.00000000000E+00  0.00000000000E+00 -0.84266863688E+03  0.84266863688E+03  0.25500000920E-02 0. -1.
    10030    2    1    2    0    0  0.00000000000E+00  0.00000000000E+00  0.22871037334E+03  0.19140476471E+04  0.19003341708E+04 0.  0.
        5    1    3    3  502    0 -0.77485804051E+03  0.44243064908E+03  0.44327808739E+03  0.99632696187E+03  0.46999998093E+01 0.  1.
       -5    1    3    3    0  502  0.77485804051E+03 -0.44243064908E+03 -0.21456771405E+03  0.91772068523E+03  0.46999998093E+01 0. -1.
</event>
<event>
 5   0  0.3398807E-06  0.1900615E+04  0.7818609E-02  0.8654550E-01
        1   -1    0    0  501    0  0.00000000000E+00  0.00000000000E+00  0.72971921317E+03  0.72971921318E+03  0.50400001928E-02 0. -1.
       -1   -1    0    0    0  501  0.00000000000E+00  0.00000000000E+00 -0.12375776069E+04  0.12375776069E+04  0.50400001928E-02 0.  1.
    10030    2    1    2    0    0  0.00000000000E+00  0.00000000000E+00 -0.50785839372E+03  0.19672968201E+04  0.19006148032E+04 0.  0.
        1    1    3    3  502    0 -0.16555967203E+03 -0.40281609852E+02  0.71377874379E+03  0.73383425118E+03  0.50400001928E-02 0. -1.
       -1    1    3    3    0  502  0.16555967203E+03  0.40281609852E+02 -0.12216371375E+04  0.12334625689E+04  0.50400001928E-02 0.  1.
</event>
<event>
 5   0  0.3495279E-06  0.1899484E+04  0.7818609E-02  0.8655113E-01
        1   -1    0    0  501    0  0.00000000000E+00  0.00000000000E+00  0.73564227380E+03  0.73564227382E+03  0.50400001928E-02 0. -1.
       -1   -1    0    0    0  501  0.00000000000E+00  0.00000000000E+00 -0.12261524608E+04  0.12261524608E+04  0.50400001928E-02 0.  1.
    10030    2    1    2    0    0  0.00000000000E+00  0.00000000000E+00 -0.49051018697E+03  0.19617947346E+04  0.18994837028E+04 0.  0.
        2    1    3    3  502    0  0.80482852346E+02  0.12242659657E+03 -0.12144106282E+04  0.12232166345E+04  0.25500000920E-02 0.  1.
       -2    1    3    3    0  502 -0.80482852346E+02 -0.12242659657E+03  0.72390044124E+03  0.73857810007E+03  0.25500000920E-02 0. -1.
</event>
<event>
 5   0  0.7207648E-06  0.1907783E+04  0.7818609E-02  0.8650992E-01
       -2   -1    0    0    0  501  0.00000000000E+00  0.00000000000E+00  0.41681921012E+03  0.41681921013E+03  0.25500000920E-02 0. -1.
        2   -1    0    0  501    0  0.00000000000E+00  0.00000000000E+00 -0.21829820258E+04  0.21829820258E+04  0.25500000920E-02 0.  1.
    10030    2    1    2    0    0  0.00000000000E+00  0.00000000000E+00 -0.17661628157E+04  0.25998012360E+04  0.19077828427E+04 0.  0.
        4    1    3    3  502    0 -0.10045251468E+03  0.48354188877E+03 -0.19951960258E+04  0.20554104846E+04  0.12699999809E+01 0.  1.
       -4    1    3    3    0  502  0.10045251468E+03 -0.48354188877E+03  0.22903321012E+03  0.54439075134E+03  0.12699999809E+01 0. -1.
</event>
<event>
 5   0  0.3211263E-06  0.1901850E+04  0.7818609E-02  0.8653936E-01
       -1   -1    0    0    0  501  0.00000000000E+00  0.00000000000E+00  0.17646000320E+04  0.17646000320E+04  0.50400001928E-02 0. -1.
        1   -1    0    0  501    0  0.00000000000E+00  0.00000000000E+00 -0.51244356570E+03  0.51244356573E+03  0.50400001928E-02 0.  1.
    10030    2    1    2    0    0  0.00000000000E+00  0.00000000000E+00  0.12521564663E+04  0.22770435977E+04  0.19018495550E+04 0.  0.
        5    1    3    3  502    0 -0.52091018060E+03 -0.33711500146E+03 -0.23666200255E+03  0.66409708169E+03  0.46999998093E+01 0.  1.
       -5    1    3    3    0  502  0.52091018060E+03  0.33711500146E+03  0.14888184688E+04  0.16129465160E+04  0.46999998093E+01 0. -1.
</event>
<event>
 5   0  0.7207648E-06  0.1899956E+04  0.7818609E-02  0.8654878E-01
        2   -1    0    0  501    0  0.00000000000E+00  0.00000000000E+00  0.11168601195E+04  0.11168601195E+04  0.25500000920E-02 0.  1.
       -2   -1    0    0    0  501  0.00000000000E+00  0.00000000000E+00 -0.80803150080E+03  0.80803150080E+03  0.25500000920E-02 0. -1.
    10030    2    1    2    0    0  0.00000000000E+00  0.00000000000E+00  0.30882861870E+03  0.19248916203E+04  0.18999559559E+04 0.  0.
        4    1    3    3  502    0 -0.43427261638E+03  0.80146161735E+03 -0.11653369873E+03  0.91897505149E+03  0.12699999809E+01 0. -1.
       -4    1    3    3    0  502  0.43427261638E+03 -0.80146161735E+03  0.42536231743E+03  0.10059165688E+04  0.12699999809E+01 0.  1.
</event>
<event>
 5   0  0.7207648E-06  0.1899025E+04  0.7818609E-02  0.8655342E-01
        2   -1    0    0  501    0  0.00000000000E+00  0.00000000000E+00  0.12178635486E+04  0.12178635486E+04  0.25500000920E-02 0.  1.
       -2   -1    0    0    0  501  0.00000000000E+00  0.00000000000E+00 -0.74029169251E+03  0.74029169251E+03  0.25500000920E-02 0. -1.
    10030    2    1    2    0    0  0.00000000000E+00  0.00000000000E+00  0.47757185607E+03  0.19581552411E+04  0.18990252949E+04 0.  0.
        4    1    3    3  502    0  0.59079697028E+03 -0.59417108614E+03 -0.22176690157E+03  0.86675400849E+03  0.12699999809E+01 0.  1.
       -4    1    3    3    0  502 -0.59079697028E+03  0.59417108614E+03  0.69933875765E+03  0.10914012326E+04  0.12699999809E+01 0. -1.
</event>
<event>
 5   0  0.6862201E-06  0.1899779E+04  0.7818609E-02  0.8654966E-01
        2   -1    0    0  501    0  0.00000000000E+00  0.00000000000E+00  0.17018869072E+04  0.17018869072E+04  0.25500000920E-02 0. -1.
       -2   -1    0    0    0  501  0.00000000000E+00  0.00000000000E+00 -0.53017034801E+03  0.53017034801E+03  0.25500000920E-02 0.  1.
    10030    2    1    2    0    0  0.00000000000E+00  0.00000000000E+00  0.11717165592E+04  0.22320572552E+04  0.18997789070E+04 0.  0.
        3    1    3    3  502    0 -0.69681335363E+03  0.64451429411E+03  0.54281062671E+03  0.10934307988E+04  0.10100000352E+00 0.  1.
       -3    1    3    3    0  502  0.69681335363E+03 -0.64451429411E+03  0.62890593249E+03  0.11386264564E+04  0.10100000352E+00 0. -1.
</event>
<event>
 5   0  0.3495279E-06  0.1899874E+04  0.7818609E-02  0.8654919E-01
        1   -1    0    0  501    0  0.00000000000E+00  0.00000000000E+00  0.46153379653E+03  0.46153379656E+03  0.50400001928E-02 0. -1.
       -1   -1    0    0    0  501  0.00000000000E+00  0.00000000000E+00 -0.19551769301E+04  0.19551769301E+04  0.50400001928E-02 0.  1.
    10030    2    1    2    0    0  0.00000000000E+00  0.00000000000E+00 -0.14936431335E+04  0.24167107266E+04  0.18998739237E+04 0.  0.
        2    1    3    3  502    0  0.80855913080E+03  0.37273180323E+03 -0.11681010153E+04  0.14687262669E+04  0.25500000920E-02 0.  1.
       -2    1    3    3    0  502 -0.80855913080E+03 -0.37273180323E+03 -0.32554211823E+03  0.94798445973E+03  0.25500000920E-02 0. -1.
</event>
<event>
 5   0  0.3398807E-06  0.1900474E+04  0.7818609E-02  0.8654621E-01
       -1   -1    0    0    0  501  0.00000000000E+00  0.00000000000E+00  0.43700770976E+03  0.43700770979E+03  0.50400001928E-02 0.  1.
        1   -1    0    0  501    0  0.00000000000E+00  0.00000000000E+00 -0.20662104192E+04  0.20662104192E+04  0.50400001928E-02 0. -1.
    10030    2    1    2    0    0  0.00000000000E+00  0.00000000000E+00 -0.16292027094E+04  0.25032181290E+04  0.19004735023E+04 0.  0.
        1    1    3    3  502    0  0.32684337106E+03 -0.63577469691E+03  0.99774562606E+01  0.71493748265E+03  0.50400001928E-02 0. -1.
       -1    1    3    3    0  502 -0.32684337106E+03  0.63577469691E+03 -0.16391801657E+04  0.17882806463E+04  0.50400001928E-02 0.  1.
</event>
<event>
 5   0  0.3211263E-06  0.1896932E+04  0.7818609E-02  0.8656385E-01
        1   -1    0    0  501    0  0.00000000000E+00  0.00000000000E+00  0.13082528339E+04  0.13082528339E+04  0.50400001928E-02 0.  1.
       -1   -1    0    0    0  501  0.00000000000E+00  0.00000000000E+00 -0.68762521661E+03  0.68762521663E+03  0.50400001928E-02 0. -1.
    10030    2    1    2    0    0  0.00000000000E+00  0.00000000000E+00  0.62062761729E+03  0.19958780505E+04  0.18969318789E+04 0.  0.
        5    1    3    3  502    0 -0.21493789450E+03 -0.66074950382E+03  0.98957111381E+03  0.12091572621E+04  0.46999998093E+01 0.  1.
       -5    1    3    3    0  502  0.21493789450E+03  0.66074950382E+03 -0.36894349652E+03  0.78672078841E+03  0.46999998093E+01 0. -1.
</event>
<event>
 5   0  0.6870370E-06  0.1898180E+04  0.7818609E-02  0.8655763E-01
        2   -1    0    0  501    0  0.00000000000E+00  0.00000000000E+00  0.79669221847E+03  0.79669221847E+03  0.25500000920E-02 0.  1.
       -2   -1    0    0    0  501  0.00000000000E+00  0.00000000000E+00 -0.11306402618E+04  0.11306402618E+04  0.25500000920E-02 0. -1.
    10030    2    1    2    0    0  0.00000000000E+00  0.00000000000E+00 -0.33394804338E+03  0.19273324803E+04  0.18981804956E+04 0.  0.
        1    1    3    3  502    0  0.72633395610E+03 -0.58981405646E+03 -0.53736335472E+01  0.93566581264E+03  0.50400001928E-02 0.  1.
       -1    1    3    3    0  502 -0.72633395610E+03  0.58981405646E+03 -0.32857440983E+03  0.99166666768E+03  0.50400001928E-02 0. -1.
</event>
<event>
 5   0  0.7577180E-06  0.1900066E+04  0.7818609E-02  0.8654824E-01
        2   -1    0    0  501    0  0.00000000000E+00  0.00000000000E+00  0.64370950130E+03  0.64370950131E+03  0.25500000920E-02 0.  1.
       -2   -1    0    0    0  501  0.00000000000E+00  0.00000000000E+00 -0.14021269123E+04  0.14021269123E+04  0.25500000920E-02 0. -1.
    10030    2    1    2    0    0  0.00000000000E+00  0.00000000000E+00 -0.75841741097E+03  0.20458364136E+04  0.19000656994E+04 0.  0.
        5    1    3    3  502    0  0.64711666984E+03  0.36864629643E+03 -0.10142722347E+04  0.12583442821E+04  0.46999998093E+01 0. -1.
       -5    1    3    3    0  502 -0.64711666984E+03 -0.36864629643E+03  0.25585482375E+03  0.78749213145E+03  0.46999998093E+01 0.  1.
</event>
<event>
 5   0  0.7207648E-06  0.1899937E+04  0.7818609E-02  0.8654888E-01
        2   -1    0    0  501    0  0.00000000000E+00  0.00000000000E+00  0.94775417521E+03  0.94775417521E+03  0.25500000920E-02 0.  1.
       -2   -1    0    0    0  501  0.00000000000E+00  0.00000000000E+00 -0.95218821391E+03  0.95218821391E+03  0.25500000920E-02 0. -1.
    10030    2    1    2    0    0  0.00000000000E+00  0.00000000000E+00 -0.44340386951E+01  0.18999423891E+04  0.18999372151E+04 0.  0.
        4    1    3    3  502    0 -0.82531337845E+03  0.18924818431E+03 -0.43289405001E+03  0.95097629800E+03  0.12699999809E+01 0. -1.
       -4    1    3    3    0  502  0.82531337845E+03 -0.18924818431E+03  0.42846001132E+03  0.94896609113E+03  0.12699999809E+01 0.  1.
</event>
<event>
 5   0  0.3211263E-06  0.1899597E+04  0.7818609E-02  0.8655057E-01
       -1   -1    0    0    0  501  0.00000000000E+00  0.00000000000E+00  0.59380983100E+03  0.59380983102E+03  0.50400001928E-02 0. -1.
        1   -1    0    0  501    0  0.00000000000E+00  0.00000000000E+00 -0.15192014780E+04  0.15192014780E+04  0.50400001928E-02 0.  1.
    10030    2    1    2    0    0  0.00000000000E+00  0.00000000000E+00 -0.92539164696E+03  0.21130113090E+04  0.18995965602E+04 0.  0.
        5    1    3    3  502    0 -0.15783835400E+03 -0.46557514978E+03  0.44126800768E+03  0.66061540301E+03  0.46999998093E+01 0. -1.
       -5    1    3    3    0  502  0.15783835400E+03  0.46557514978E+03 -0.13666596546E+04  0.14523959060E+04  0.46999998093E+01 0.  1.
</event>
<event>
 5   0  0.3398807E-06  0.1900019E+04  0.7818609E-02  0.8654847E-01
        1   -1    0    0  501    0  0.00000000000E+00  0.00000000000E+00  0.13666502824E+04  0.13666502824E+04  0.50400001928E-02 0.  1.
       -1   -1    0    0    0  501  0.00000000000E+00  0.00000000000E+00 -0.66038729783E+03  0.66038729785E+03  0.50400001928E-02 0. -1.
    10030    2    1    2    0    0  0.00000000000E+00  0.00000000000E+00  0.70626298461E+03  0.20270375803E+04  0.19000194600E+04 0.  0.
        1    1    3    3  502    0 -0.19062949009E+03  0.20951690796E+03  0.13205491816E+04  0.13505876789E+04  0.50400001928E-02 0.  1.
       -1    1    3    3    0  502  0.19062949009E+03 -0.20951690796E+03 -0.61428619703E+03  0.67644990140E+03  0.50400001928E-02 0. -1.
</event>
<event>
 5   0  0.3495279E-06  0.1900266E+04  0.7818609E-02  0.8654724E-01
        1   -1    0    0  501    0  0.00000000000E+00  0.00000000000E+00  0.98906877525E+03  0.98906877526E+03  0.50400001928E-02 0.  1.
       -1   -1    0    0    0  501  0.00000000000E+00  0.00000000000E+00 -0.91273040745E+03  0.91273040747E+03  0.50400001928E-02 0. -1.
    10030    2    1    2    0    0  0.00000000000E+00  0.00000000000E+00  0.76338367791E+02  0.19017991827E+04  0.19002664511E+04 0.  0.
        2    1    3    3  502    0  0.33772592212E+03  0.77761000859E+03 -0.39114887279E+03  0.93366673102E+03  0.25500000920E-02 0. -1.
       -2    1    3    3    0  502 -0.33772592212E+03 -0.77761000859E+03  0.46748724058E+03  0.96813245170E+03  0.25500000920E-02 0.  1.
</event>
<event>
 5   0  0.3495279E-06  0.1899931E+04  0.7818609E-02  0.8654891E-01
        1   -1    0    0  501    0  0.00000000000E+00  0.00000000000E+00  0.17665008240E+04  0.17665008241E+04  0.50400001928E-02 0.  1.
       -1   -1    0    0    0  501  0.00000000000E+00  0.00000000000E+00 -0.51086015110E+03  0.51086015113E+03  0.50400001928E-02 0. -1.
    10030    2    1    2    0    0  0.00000000000E+00  0.00000000000E+00  0.12556406729E+04  0.22773609752E+04  0.18999314492E+04 0.  0.
        2    1    3    3  502    0  0.35223641253E+03  0.77640071058E+03  0.12557657496E+03  0.86176448632E+03  0.25500000920E-02 0. -1.
       -2    1    3    3    0  502 -0.35223641253E+03 -0.77640071058E+03  0.11300640980E+04  0.14155964889E+04  0.25500000920E-02 0.  1.
</event>
<event>
 5   0  0.3211263E-06  0.1901363E+04  0.7818609E-02  0.8654178E-01
       -1   -1    0    0    0  501  0.00000000000E+00  0.00000000000E+00  0.55110372317E+03  0.55110372320E+03  0.50400001928E-02 0. -1.
        1   -1    0    0  501    0  0.00000000000E+00  0.00000000000E+00 -0.16399723709E+04  0.16399723709E+04  0.50400001928E-02 0.  1.
    10030    2    1    2    0    0  0.00000000000E+00  0.00000000000E+00 -0.10888686477E+04  0.21910760941E+04  0.19013625425E+04 0.  0.
        5    1    3    3  502    0  0.22473483580E+02  0.54562715807E+02 -0.16378464716E+04  0.16389158922E+04  0.46999998093E+01 0.  1.
       -5    1    3    3    0  502 -0.22473483580E+02 -0.54562715807E+02  0.54897782386E+03  0.55216020185E+03  0.46999998093E+01 0. -1.
</event>
<event>
 5   0  0.6870370E-06  0.1902371E+04  0.7818609E-02  0.8653677E-01
       -2   -1    0    0    0  501  0.00000000000E+00  0.00000000000E+00  0.79594015021E+03  0.79594015021E+03  0.25500000920E-02 0. -1.
        2   -1    0    0  501    0  0.00000000000E+00  0.00000000000E+00 -0.11367105420E+04  0.11367105420E+04  0.25500000920E-02 0.  1.
    10030    2    1    2    0    0  0.00000000000E+00  0.00000000000E+00 -0.34077039176E+03  0.19326506922E+04  0.19023706889E+04 0.  0.
        1    1    3    3  502    0 -0.41368548730E+03 -0.84002219341E+03 -0.34032169522E+03  0.99628902638E+03  0.50400001928E-02 0. -1.
       -1    1    3    3    0  502  0.41368548730E+03  0.84002219341E+03 -0.44869654134E+00  0.93636166580E+03  0.50400001928E-02 0.  1.
</event>
<event>
 5   0  0.3379108E-06  0.1900627E+04  0.7818609E-02  0.8654544E-01
       -1   -1    0    0    0  501  0.00000000000E+00  0.00000000000E+00  0.63564468931E+03  0.63564468933E+03  0.50400001928E-02 0. -1.
        1   -1    0    0  501    0  0.00000000000E+00  0.00000000000E+00 -0.14207556996E+04  0.14207556996E+04  0.50400001928E-02 0.  1.
    10030    2    1    2    0    0  0.00000000000E+00  0.00000000000E+00 -0.78511101033E+03  0.20564003890E+04  0.19006270705E+04 0.  0.
        4    1    3    3  502    0  0.40093655880E+03  0.48029314412E+03 -0.11664871281E+04  0.13236787607E+04  0.12699999809E+01 0.  1.
       -4    1    3    3    0  502 -0.40093655880E+03 -0.48029314412E+03  0.38137611778E+03  0.73272162831E+03  0.12699999809E+01 0. -1.
</event>
<event>
 5   0  0.3398807E-06  0.1904596E+04  0.7818609E-02  0.8652572E-01
       -1   -1    0    0    0  501  0.00000000000E+00  0.00000000000E+00  0.15794476401E+04  0.15794476401E+04  0.50400001928E-02 0. -1.
        1   -1    0    0  501    0  0.00000000000E+00  0.00000000000E+00 -0.57417024413E+03  0.57417024415E+03  0.50400001928E-02 0.  1.
    10030    2    1    2    0    0  0.00000000000E+00  0.00000000000E+00  0.10052773960E+04  0.21536178843E+04  0.19045963742E+04 0.  0.
        1    1    3    3  502    0  0.59825266323E+03  0.52945550191E+03  0.10887134647E+04  0.13503800894E+04  0.50400001928E-02 0. -1.
       -1    1    3    3    0  502 -0.59825266323E+03 -0.52945550191E+03 -0.83436068712E+02  0.80323779490E+03  0.50400001928E-02 0.  1.
</event>
<event>
 5   0  0.7207648E-06  0.1899974E+04  0.7818609E-02  0.8654869E-01
        2   -1    0    0  501    0  0.00000000000E+00  0.00000000000E+00  0.14653023312E+04  0.14653023312E+04  0.25500000920E-02 0. -1.
       -2   -1    0    0    0  501  0.00000000000E+00  0.00000000000E+00 -0.61589691678E+03  0.61589691678E+03  0.25500000920E-02 0.  1.
    10030    2    1    2    0    0  0.00000000000E+00  0.00000000000E+00  0.84940541442E+03  0.20811992480E+04  0.18999738819E+04 0.  0.
        4    1    3    3  502    0 -0.30740068736E+03  0.19495960936E+03 -0.53647278746E+03  0.64831249907E+03  0.12699999809E+01 0.  1.
       -4    1    3    3    0  502  0.30740068736E+03 -0.19495960936E+03  0.13858782019E+04  0.14328867489E+04  0.12699999809E+01 0. -1.
</event>
<event>
 5   0  0.3211263E-06  0.1900384E+04  0.7818609E-02  0.8654665E-01
        1   -1    0    0  501    0  0.00000000000E+00  0.00000000000E+00  0.12341847146E+04  0.12341847146E+04  0.50400001928E-02 0. -1.
       -1   -1    0    0    0  501  0.00000000000E+00  0.00000000000E+00 -0.73154768922E+03  0.73154768924E+03  0.50400001928E-02 0.  1.
    10030    2    1    2    0    0  0.00000000000E+00  0.00000000000E+00  0.50263702540E+03  0.19657324039E+04  0.19003841465E+04 0.  0.
        5    1    3    3  502    0 -0.39975822563E+03  0.58374487550E+03 -0.40474552063E+03  0.81511087902E+03  0.46999998093E+01 0.  1.
       -5    1    3    3    0  502  0.39975822563E+03 -0.58374487550E+03  0.90738254603E+03  0.11506215249E+04  0.46999998093E+01 0. -1.
</event>
<event>
 5   0  0.3211263E-06  0.1898269E+04  0.7818609E-02  0.8655718E-01
       -1   -1    0    0    0  501  0.00000000000E+00  0.00000000000E+00  0.98143826671E+03  0.98143826672E+03  0.50400001928E-02 0. -1.
        1   -1    0    0  501    0  0.00000000000E+00  0.00000000000E+00 -0.91789409555E+03  0.91789409557E+03  0.50400001928E-02 0.  1.
    10030    2    1    2    0    0  0.00000000000E+00  0.00000000000E+00  0.63544171153E+02  0.18993323623E+04  0.18982690960E+04 0.  0.
        5    1    3    3  502    0  0.49425203723E+03  0.68973223516E+03 -0.39369387803E+03  0.93543176775E+03  0.46999998093E+01 0. -1.
       -5    1    3    3    0  502 -0.49425203723E+03 -0.68973223516E+03  0.45723804918E+03  0.96390059453E+03  0.46999998093E+01 0.  1.
</event>
<event>
 5   0  0.3379108E-06  0.1899680E+04  0.7818609E-02  0.8655015E-01
        1   -1    0    0  501    0  0.00000000000E+00  0.00000000000E+00  0.15267733248E+04  0.15267733248E+04  0.50400001928E-02 0. -1.
       -1   -1    0    0    0  501  0.00000000000E+00  0.00000000000E+00 -0.59091704919E+03  0.59091704921E+03  0.50400001928E-02 0.  1.
    10030    2    1    2    0    0  0.00000000000E+00  0.00000000000E+00  0.93585627560E+03  0.21176903740E+04  0.18996803814E+04 0.  0.
        4    1    3    3  502    0 -0.82956520764E+03  0.44759266270E+03  0.33755752019E+03  0.10012314007E+04  0.12699999809E+01 0.  1.
       -4    1    3    3    0  502  0.82956520764E+03 -0.44759266270E+03  0.59829875541E+03  0.11164589733E+04  0.12699999809E+01 0. -1.
</event>
<event>
 5   0  0.6870370E-06  0.1899904E+04  0.7818609E-02  0.8654904E-01
       -2   -1    0    0    0  501  0.00000000000E+00  0.00000000000E+00  0.75913329337E+03  0.75913329338E+03  0.25500000920E-02 0. -1.
        2   -1    0    0  501    0  0.00000000000E+00  0.00000000000E+00 -0.11887362572E+04  0.11887362572E+04  0.25500000920E-02 0.  1.
    10030    2    1    2    0    0  0.00000000000E+00  0.00000000000E+00 -0.42960296379E+03  0.19478695505E+04  0.18999044922E+04 0.  0.
        1    1    3    3  502    0 -0.61165808146E+03 -0.34599261796E+03 -0.87013564447E+03  0.11184688373E+04  0.50400001928E-02 0.  1.
       -1    1    3    3    0  502  0.61165808146E+03  0.34599261796E+03  0.44053268068E+03  0.82940071321E+03  0.50400001928E-02 0. -1.
</event>
<event>
 5   0  0.3379108E-06  0.1899863E+04  0.7818609E-02  0.8654924E-01
        1   -1    0    0  501    0  0.00000000000E+00  0.00000000000E+00  0.19294379445E+04  0.19294379445E+04  0.50400001928E-02 0.  1.
       -1   -1    0    0    0  501  0.00000000000E+00  0.00000000000E+00 -0.46768543372E+03  0.46768543375E+03  0.50400001928E-02 0. -1.
    10030    2    1    2    0    0  0.00000000000E+00  0.00000000000E+00  0.14617525108E+04  0.23971233783E+04  0.18998631761E+04 0.  0.
        4    1    3    3  502    0  0.48239557270E+03 -0.80038290517E+03  0.94592755411E+03  0.13296987757E+04  0.12699999809E+01 0. -1.
       -4    1    3    3    0  502 -0.48239557270E+03  0.80038290517E+03  0.51582495668E+03  0.10674246026E+04  0.12699999809E+01 0.  1.
</event>
<event>
 5   0  0.6870370E-06  0.1900577E+04  0.7818609E-02  0.8654569E-01
        2   -1    0    0  501    0  0.00000000000E+00  0.00000000000E+00  0.21228004859E+04  0.21228004859E+04  0.25500000920E-02 0.  1.
       -2   -1    0    0    0  501  0.00000000000E+00  0.00000000000E+00 -0.42540409180E+03  0.42540409181E+03  0.25500000920E-02 0. -1.
    10030    2    1    2    0    0  0.00000000000E+00  0.00000000000E+00  0.16973963941E+04  0.25482045777E+04  0.19005767680E+04 0.  0.
        1    1    3    3  502    0 -0.18160080170E+03 -0.64741178740E+02 -0.39890696517E+03  0.44305421597E+03  0.50400001928E-02 0. -1.
       -1    1    3    3    0  502  0.18160080170E+03  0.64741178740E+02  0.20963033593E+04  0.21051503618E+04  0.50400001928E-02 0.  1.
</event>
<event>
 5   0  0.6862201E-06  0.1900119E+04  0.7818609E-02  0.8654797E-01
        2   -1    0    0  501    0  0.00000000000E+00  0.00000000000E+00  0.11266145047E+04  0.11266145047E+04  0.25500000920E-02 0.  1.
       -2   -1    0    0    0  501  0.00000000000E+00  0.00000000000E+00 -0.80117326777E+03  0.80117326778E+03  0.25500000920E-02 0. -1.
    10030    2    1    2    0    0  0.00000000000E+00  0.00000000000E+00  0.32544123696E+03  0.19277877725E+04  0.19001193902E+04 0.  0.
        3    1    3    3  502    0 -0.17734191511E+03 -0.86541621685E+03  0.51740819144E+03  0.10237707898E+04  0.10100000352E+00 0.  1.
       -3    1    3    3    0  502  0.17734191511E+03  0.86541621685E+03 -0.19196695448E+03  0.90401698273E+03  0.10100000352E+00 0. -1.
</event>
<event>
 5   0  0.6862201E-06  0.1903947E+04  0.7818609E-02  0.8652894E-01
       -2   -1    0    0    0  501  0.00000000000E+00  0.00000000000E+00  0.58868917884E+03  0.58868917885E+03  0.25500000920E-02 0. -1.
        2   -1    0    0  501    0  0.00000000000E+00  0.00000000000E+00 -0.15394426187E+04  0.15394426187E+04  0.25500000920E-02 0.  1.
    10030    2    1    2    0    0  0.00000000000E+00  0.00000000000E+00 -0.95075343987E+03  0.21281317976E+04  0.19039466496E+04 0.  0.
        3    1    3    3  502    0 -0.92358390295E+02 -0.60314157847E+03  0.34137741718E+03  0.69917693548E+03  0.10100000352E+00 0. -1.
       -3    1    3    3    0  502  0.92358390295E+02  0.60314157847E+03 -0.12921308570E+04  0.14289548621E+04  0.10100000352E+00 0.  1.
</event>
<event>
 5   0  0.3398807E-06  0.1900033E+04  0.7818609E-02  0.8654840E-01
        1   -1    0    0  501    0  0.00000000000E+00  0.00000000000E+00  0.14289212440E+04  0.14289212440E+04  0.50400001928E-02 0. -1.
       -1   -1    0    0    0  501  0.00000000000E+00  0.00000000000E+00 -0.63161715387E+03  0.63161715389E+03  0.50400001928E-02 0.  1.
    10030    2    1    2    0    0  0.00000000000E+00  0.00000000000E+00  0.79730409017E+03  0.20605383979E+04  0.19000328095E+04 0.  0.
        1    1    3    3  502    0 -0.36644671314E+03 -0.41551807272E+03 -0.43828790200E+03  0.70642391479E+03  0.50400001928E-02 0.  1.
       -1    1    3    3    0  502  0.36644671314E+03  0.41551807272E+03  0.12355919922E+04  0.13541144831E+04  0.50400001928E-02 0. -1.
</event>
<event>
 5   0  0.3211263E-06  0.1899320E+04  0.7818609E-02  0.8655195E-01
       -1   -1    0    0    0  501  0.00000000000E+00  0.00000000000E+00  0.82068504304E+03  0.82068504306E+03  0.50400001928E-02 0. -1.
        1   -1    0    0  501    0  0.00000000000E+00  0.00000000000E+00 -0.10989045611E+04  0.10989045611E+04  0.50400001928E-02 0.  1.
    10030    2    1    2    0    0  0.00000000000E+00  0.00000000000E+00 -0.27821951810E+03  0.19195896042E+04  0.18993204438E+04 0.  0.
        5    1    3    3  502    0 -0.26559959147E+03 -0.34406819932E+03  0.71423867633E+03  0.83611305787E+03  0.46999998093E+01 0. -1.
       -5    1    3    3    0  502  0.26559959147E+03  0.34406819932E+03 -0.99245819443E+03  0.10834765463E+04  0.46999998093E+01 0.  1.
</event>
<event>
 5   0  0.6862201E-06  0.1900077E+04  0.7818609E-02  0.8654818E-01
       -2   -1    0    0    0  501  0.00000000000E+00  0.00000000000E+00  0.67520641538E+03  0.67520641538E+03  0.25500000920E-02 0.  1.
        2   -1    0    0  501    0  0.00000000000E+00  0.00000000000E+00 -0.13367359581E+04  0.13367359581E+04  0.25500000920E-02 0. -1.
    10030    2    1    2    0    0  0.00000000000E+00  0.00000000000E+00 -0.66152954275E+03  0.20119423735E+04  0.19000765191E+04 0.  0.
        3    1    3    3  502    0 -0.17596128467E+03 -0.39816398265E+03  0.56338914104E+03  0.71197209582E+03  0.10100000352E+00 0.  1.
       -3    1    3    3    0  502  0.17596128467E+03  0.39816398265E+03 -0.12249186838E+04  0.12999702777E+04  0.10100000352E+00 0. -1.
</event>
<event>
 5   0  0.3211263E-06  0.1900442E+04  0.7818609E-02  0.8654636E-01
       -1   -1    0    0    0  501  0.00000000000E+00  0.00000000000E+00  0.98370086782E+03  0.98370086783E+03  0.50400001928E-02 0.  1.
        1   -1    0    0  501    0  0.00000000000E+00  0.00000000000E+00 -0.91788107580E+03  0.91788107581E+03  0.50400001928E-02 0. -1.
    10030    2    1    2    0    0  0.00000000000E+00  0.00000000000E+00  0.65819792023E+02  0.19015819436E+04  0.19004424862E+04 0.  0.
        5    1    3    3  502    0 -0.40659466871E+03 -0.75424462884E+03  0.44388007283E+03  0.96501595521E+03  0.46999998093E+01 0.  1.
       -5    1    3    3    0  502  0.40659466871E+03  0.75424462884E+03 -0.37806028081E+03  0.93656598843E+03  0.46999998093E+01 0. -1.
</event>
<event>
 5   0  0.6984466E-06  0.1900780E+04  0.7818609E-02  0.8654468E-01
       -2   -1    0    0    0  501  0.00000000000E+00  0.00000000000E+00  0.40100592788E+03  0.40100592789E+03  0.25500000920E-02 0. -1.
        2   -1    0    0  501    0  0.00000000000E+00  0.00000000000E+00 -0.22524390463E+04  0.22524390463E+04  0.25500000920E-02 0.  1.
    10030    2    1    2    0    0  0.00000000000E+00  0.00000000000E+00 -0.18514331184E+04  0.26534449742E+04  0.19007802711E+04 0.  0.
        2    1    3    3  502    0  0.44922847887E+02  0.77182488844E+03 -0.15411932123E+03  0.78834287329E+03  0.25500000920E-02 0. -1.
       -2    1    3    3    0  502 -0.44922847887E+02 -0.77182488844E+03 -0.16973137972E+04  0.18651021009E+04  0.25500000920E-02 0.  1.
</event>
<event>
 5   0  0.3236653E-06  0.1899467E+04  0.7818609E-02  0.8655121E-01
        1   -1    0    0  501    0  0.00000000000E+00  0.00000000000E+00  0.15724655645E+04  0.15724655645E+04  0.50400001928E-02 0.  1.
       -1   -1    0    0    0  501  0.00000000000E+00  0.00000000000E+00 -0.57361775900E+03  0.57361775902E+03  0.50400001928E-02 0. -1.
    10030    2    1    2    0    0  0.00000000000E+00  0.00000000000E+00  0.99884780553E+03  0.21460833236E+04  0.18994674762E+04 0.  0.
        3    1    3    3  502    0 -0.43547197681E+03  0.65371835640E+03  0.11026015625E+04  0.13537775844E+04  0.10100000352E+00 0.  1.
       -3    1    3    3    0  502  0.43547197681E+03 -0.65371835640E+03 -0.10375375697E+03  0.79230573920E+03  0.10100000352E+00 0. -1.
</event>
<event>
 5   0  0.3398807E-06  0.1898025E+04  0.7818609E-02  0.8655840E-01
       -1   -1    0    0    0  501  0.00000000000E+00  0.00000000000E+00  0.12181850668E+04  0.12181850668E+04  0.50400001928E-02 0. -1.
        1   -1    0    0  501    0  0.00000000000E+00  0.00000000000E+00 -0.73931707102E+03  0.73931707104E+03  0.50400001928E-02 0.  1.
    10030    2    1    2    0    0  0.00000000000E+00  0.00000000000E+00  0.47886799577E+03  0.19575021378E+04  0.18980253060E+04 0.  0.
        1    1    3    3  502    0 -0.16793657381E+03 -0.43381670050E+03  0.10925337984E+04  0.11874467244E+04  0.50400001928E-02 0. -1.
       -1    1    3    3    0  502  0.16793657381E+03  0.43381670050E+03 -0.61366580266E+03  0.77005541348E+03  0.50400001928E-02 0.  1.
</event>
<event>
 5   0  0.3379108E-06  0.1900911E+04  0.7818609E-02  0.8654403E-01
       -1   -1    0    0    0  501  0.00000000000E+00  0.00000000000E+00  0.47764878602E+03  0.47764878605E+03  0.50400001928E-02 0. -1.
        1   -1    0    0  501    0  0.00000000000E+00  0.00000000000E+00 -0.18912767130E+04  0.18912767131E+04  0.50400001928E-02 0.  1.
    10030    2    1    2    0    0  0.00000000000E+00  0.00000000000E+00 -0.14136279270E+04  0.23689254991E+04  0.19009113878E+04 0.  0.
        4    1    3    3  502    0 -0.41857149153E+02 -0.70717881763E+03  0.82842128840E+02  0.71324493146E+03  0.12699999809E+01 0. -1.
       -4    1    3    3    0  502  0.41857149153E+02  0.70717881763E+03 -0.14964700559E+04  0.16556805676E+04  0.12699999809E+01 0.  1.
</event>
<event>
 5   0  0.7207648E-06  0.1900492E+04  0.7818609E-02  0.8654611E-01
        2   -1    0    0  501    0  0.00000000000E+00  0.00000000000E+00  0.10328649781E+04  0.10328649781E+04  0.25500000920E-02 0.  1.
       -2   -1    0    0    0  501  0.00000000000E+00  0.00000000000E+00 -0.87423590495E+03  0.87423590495E+03  0.25500000920E-02 0. -1.
    10030    2    1    2    0    0  0.00000000000E+00  0.00000000000E+00  0.15862907319E+03  0.19071008831E+04  0.19004921982E+04 0.  0.
        4    1    3    3  502    0 -0.45103119964E+03 -0.83605976826E+03  0.10265389251E+03  0.95549176538E+03  0.12699999809E+01 0. -1.
       -4    1    3    3    0  502  0.45103119964E+03  0.83605976826E+03  0.55975180685E+02  0.95160911771E+03  0.12699999809E+01 0.  1.
</event>
<event>
 5   0  0.3236653E-06  0.1900555E+04  0.7818609E-02  0.8654580E-01
       -1   -1    0    0    0  501  0.00000000000E+00  0.00000000000E+00  0.71777307997E+03  0.71777307999E+03  0.50400001928E-02 0.  1.
        1   -1    0    0  501    0  0.00000000000E+00  0.00000000000E+00 -0.12580953756E+04  0.12580953756E+04  0.50400001928E-02 0. -1.
    10030    2    1    2    0    0  0.00000000000E+00  0.00000000000E+00 -0.54032229566E+03  0.19758684556E+04  0.19005546482E+04 0.  0.
        3    1    3    3  502    0  0.15734449239E+02 -0.78364717165E+03  0.28841629913E+03  0.83518526946E+03  0.10100000352E+00 0.  1.
       -3    1    3    3    0  502 -0.15734449239E+02  0.78364717165E+03 -0.82873859479E+03  0.11406831862E+04  0.10100000352E+00 0. -1.
</event>
<event>
 5   0  0.3211263E-06  0.1899790E+04  0.7818609E-02  0.8654961E-01
       -1   -1    0    0    0  501  0.00000000000E+00  0.00000000000E+00  0.66165498853E+03  0.66165498854E+03  0.50400001928E-02 0. -1.
        1   -1    0    0  501    0  0.00000000000E+00  0.00000000000E+00 -0.13637027000E+04  0.13637027000E+04  0.50400001928E-02 0.  1.
    10030    2    1    2    0    0  0.00000000000E+00  0.00000000000E+00 -0.70204771145E+03  0.20253576885E+04  0.18997901930E+04 0.  0.
        5    1    3    3  502    0  0.64104760490E+03  0.34745248078E+03  0.29799396056E+03  0.78771044723E+03  0.46999998093E+01 0. -1.
       -5    1    3    3    0  502 -0.64104760490E+03 -0.34745248078E+03 -0.10000416720E+04  0.12376472413E+04  0.46999998093E+01 0.  1.
</event>
<event>
 5   0  0.3379108E-06  0.1899057E+04  0.7818609E-02  0.8655326E-01
        1   -1    0    0  501    0  0.00000000000E+00  0.00000000000E+00  0.84305918332E+03  0.84305918334E+03  0.50400001928E-02 0. -1.
       -1   -1    0    0    0  501  0.00000000000E+00  0.00000000000E+00 -0.10694431999E+04  0.10694431999E+04  0.50400001928E-02 0.  1.
    10030    2    1    2    0    0  0.00000000000E+00  0.00000000000E+00 -0.22638401655E+03  0.19125023832E+04  0.18990565139E+04 0.  0.
        4    1    3    3  502    0  0.33052471298E+03  0.19976835910E+03 -0.98677150586E+03  0.10596573035E+04  0.12699999809E+01 0.  1.
       -4    1    3    3    0  502 -0.33052471298E+03 -0.19976835910E+03  0.76038748931E+03  0.85284507971E+03  0.12699999809E+01 0. -1.
</event>
<event>
 5   0  0.6984466E-06  0.1899844E+04  0.7818609E-02  0.8654934E-01
        2   -1    0    0  501    0  0.00000000000E+00  0.00000000000E+00  0.10275405459E+04  0.10275405459E+04  0.25500000920E-02 0.  1.
       -2   -1    0    0    0  501  0.00000000000E+00  0.00000000000E+00 -0.87816654598E+03  0.87816654598E+03  0.25500000920E-02 0. -1.
    10030    2    1    2    0    0  0.00000000000E+00  0.00000000000E+00  0.14937399994E+03  0.19057070919E+04  0.18998439221E+04 0.  0.
        2    1    3    3  502    0  0.21117256480E+03  0.47076682883E+03 -0.72535608276E+03  0.89014420520E+03  0.25500000920E-02 0. -1.
       -2    1    3    3    0  502 -0.21117256480E+03 -0.47076682883E+03  0.87473008270E+03  0.10155628867E+04  0.25500000920E-02 0.  1.
</event>
<event>
 5   0  0.7207648E-06  0.1899679E+04  0.7818609E-02  0.8655016E-01
        2   -1    0    0  501    0  0.00000000000E+00  0.00000000000E+00  0.17406532890E+04  0.17406532890E+04  0.25500000920E-02 0. -1.
       -2   -1    0    0    0  501  0.00000000000E+00  0.00000000000E+00 -0.51830808849E+03  0.51830808849E+03  0.25500000920E-02 0.  1.
    10030    2    1    2    0    0  0.00000000000E+00  0.00000000000E+00  0.12223452005E+04  0.22589613775E+04  0.18996785822E+04 0.  0.
        4    1    3    3  502    0  0.44632931493E+03 -0.26935017914E+03 -0.33299346237E+03  0.61858357176E+03  0.12699999809E+01 0.  1.
       -4    1    3    3    0  502 -0.44632931493E+03  0.26935017914E+03  0.15553386629E+04  0.16403778057E+04  0.12699999809E+01 0. -1.
</event>
<event>
 5   0  0.7207648E-06  0.1901090E+04  0.7818609E-02  0.8654314E-01
       -2   -1    0    0    0  501  0.00000000000E+00  0.00000000000E+00  0.10223672006E+04  0.10223672007E+04  0.25500000920E-02 0.  1.
        2   -1    0    0  501    0  0.00000000000E+00  0.00000000000E+00 -0.88376859582E+03  0.88376859582E+03  0.25500000920E-02 0. -1.
    10030    2    1    2    0    0  0.00000000000E+00  0.00000000000E+00  0.13859860483E+03  0.19061357965E+04  0.19010902402E+04 0.  0.
        4    1    3    3  502    0  0.17537132822E+03 -0.77635001649E+03 -0.45175286385E+03  0.91518124639E+03  0.12699999809E+01 0. -1.
       -4    1    3    3    0  502 -0.17537132822E+03  0.77635001649E+03  0.59035146867E+03  0.99095455008E+03  0.12699999809E+01 0.  1.
</event>
<event>
 5   0  0.3379108E-06  0.1897831E+04  0.7818609E-02  0.8655937E-01
        1   -1    0    0  501    0  0.00000000000E+00  0.00000000000E+00  0.14217898508E+04  0.14217898508E+04  0.50400001928E-02 0.  1.
       -1   -1    0    0    0  501  0.00000000000E+00  0.00000000000E+00 -0.63331488517E+03  0.63331488519E+03  0.50400001928E-02 0. -1.
    10030    2    1    2    0    0  0.00000000000E+00  0.00000000000E+00  0.78847496562E+03  0.20551047360E+04  0.18978310527E+04 0.  0.
        4    1    3    3  502    0  0.53752233645E+03 -0.45975198065E+02  0.12395667087E+04  0.13518769246E+04  0.12699999809E+01 0.  1.
       -4    1    3    3    0  502 -0.53752233645E+03  0.45975198065E+02 -0.45109174313E+03  0.70322781134E+03  0.12699999809E+01 0. -1.
</event>
<event>
 5   0  0.6984466E-06  0.1900950E+04  0.7818609E-02  0.8654384E-01
        2   -1    0    0  501    0  0.00000000000E+00  0.00000000000E+00  0.23121293783E+04  0.23121293783E+04  0.25500000920E-02 0.  1.
       -2   -1    0    0    0  501  0.00000000000E+00  0.00000000000E+00 -0.39072327087E+03  0.39072327088E+03  0.25500000920E-02 0. -1.
    10030    2    1    2    0    0  0.00000000000E+00  0.00000000000E+00  0.19214061074E+04  0.27028526491E+04  0.19009500292E+04 0.  0.
        2    1    3    3  502    0  0.64022521904E+02 -0.36672364648E+03 -0.28275350287E+03  0.46747690808E+03  0.25500000920E-02 0. -1.
       -2    1    3    3    0  502 -0.64022521904E+02  0.36672364648E+03  0.22041596103E+04  0.22353757411E+04  0.25500000920E-02 0.  1.
</event>
<event>
 5   0  0.7207648E-06  0.1899144E+04  0.7818609E-02  0.8655283E-01
        2   -1    0    0  501    0  0.00000000000E+00  0.00000000000E+00  0.77155076867E+03  0.77155076867E+03  0.25500000920E-02 0. -1.
       -2   -1    0    0    0  501  0.00000000000E+00  0.00000000000E+00 -0.11686677749E+04  0.11686677749E+04  0.25500000920E-02 0.  1.
    10030    2    1    2    0    0  0.00000000000E+00  0.00000000000E+00 -0.39711700620E+03  0.19402185435E+04  0.18991435122E+04 0.  0.
        4    1    3    3  502    0 -0.80193970852E+03  0.28483200642E+03 -0.62891546823E+03  0.10581931993E+04  0.12699999809E+01 0.  1.
       -4    1    3    3    0  502  0.80193970852E+03 -0.28483200642E+03  0.23179846203E+03  0.88202534424E+03  0.12699999809E+01 0. -1.
</event>
<event>
 5   0  0.7577180E-06  0.1899760E+04  0.7818609E-02  0.8654976E-01
       -2   -1    0    0    0  501  0.00000000000E+00  0.00000000000E+00  0.53753317840E+03  0.53753317841E+03  0.25500000920E-02 0.  1.
        2   -1    0    0  501    0  0.00000000000E+00  0.00000000000E+00 -0.16785414215E+04  0.16785414215E+04  0.25500000920E-02 0. -1.
    10030    2    1    2    0    0  0.00000000000E+00  0.00000000000E+00 -0.11410082431E+04  0.22160746000E+04  0.18997596747E+04 0.  0.
        5    1    3    3  502    0 -0.54853626138E+03 -0.77352495785E+03 -0.63457395116E+03  0.11410254511E+04  0.46999998093E+01 0. -1.
       -5    1    3    3    0  502  0.54853626138E+03  0.77352495785E+03 -0.50643429198E+03  0.10750491489E+04  0.46999998093E+01 0.  1.
</event>
<event>
 5   0  0.3495279E-06  0.1899953E+04  0.7818609E-02  0.8654880E-01
       -1   -1    0    0    0  501  0.00000000000E+00  0.00000000000E+00  0.93307669802E+03  0.93307669804E+03  0.50400001928E-02 0.  1.
        1   -1    0    0  501    0  0.00000000000E+00  0.00000000000E+00 -0.96718221748E+03  0.96718221750E+03  0.50400001928E-02 0. -1.
    10030    2    1    2    0    0  0.00000000000E+00  0.00000000000E+00 -0.34105519461E+02  0.19002589155E+04  0.18999528309E+04 0.  0.
        2    1    3    3  502    0  0.57541284448E+03 -0.42691322424E+03  0.60682681712E+03  0.93893217466E+03  0.25500000920E-02 0.  1.
       -2    1    3    3    0  502 -0.57541284448E+03  0.42691322424E+03 -0.64093233659E+03  0.96132674087E+03  0.25500000920E-02 0. -1.
</event>
<event>
 5   0  0.7577180E-06  0.1900656E+04  0.7818609E-02  0.8654530E-01
       -2   -1    0    0    0  501  0.00000000000E+00  0.00000000000E+00  0.58981231449E+03  0.58981231450E+03  0.25500000920E-02 0.  1.
        2   -1    0    0  501    0  0.00000000000E+00  0.00000000000E+00 -0.15312040611E+04  0.15312040611E+04  0.25500000920E-02 0. -1.
    10030    2    1    2    0    0  0.00000000000E+00  0.00000000000E+00 -0.94139174658E+03  0.21210163756E+04  0.19006556882E+04 0.  0.
        5    1    3    3  502    0  0.74372812045E+03 -0.55595047912E+03 -0.69634881304E+03  0.11606619714E+04  0.46999998093E+01 0. -1.
       -5    1    3    3    0  502 -0.74372812045E+03  0.55595047912E+03 -0.24504293354E+03  0.96035440419E+03  0.46999998093E+01 0.  1.
</event>
<event>
 5   0  0.3211263E-06  0.1899993E+04  0.7818609E-02  0.8654860E-01
       -1   -1    0    0    0  501  0.00000000000E+00  0.00000000000E+00  0.43319665097E+03  0.43319665100E+03  0.50400001928E-02 0. -1.
        1   -1    0    0  501    0  0.00000000000E+00  0.00000000000E+00 -0.20833341483E+04  0.20833341483E+04  0.50400001928E-02 0.  1.
    10030    2    1    2    0    0  0.00000000000E+00  0.00000000000E+00 -0.16501374973E+04  0.25165307993E+04  0.18999930273E+04 0.  0.
        5    1    3    3  502    0 -0.28850892086E+03 -0.71742781817E+03 -0.94154968398E+02  0.77899121932E+03  0.46999998093E+01 0. -1.
       -5    1    3    3    0  502  0.28850892086E+03  0.71742781817E+03 -0.15559825289E+04  0.17375395800E+04  0.46999998093E+01 0.  1.
</event>
<event>
 5   0  0.3495279E-06  0.1900239E+04  0.7818609E-02  0.8654738E-01
        1   -1    0    0  501    0  0.00000000000E+00  0.00000000000E+00  0.13382955685E+04  0.13382955685E+04  0.50400001928E-02 0. -1.
       -1   -1    0    0    0  501  0.00000000000E+00  0.00000000000E+00 -0.67453472301E+03  0.67453472303E+03  0.50400001928E-02 0.  1.
    10030    2    1    2    0    0  0.00000000000E+00  0.00000000000E+00  0.66376084549E+03  0.20128302915E+04  0.19002387541E+04 0.  0.
        2    1    3    3  502    0 -0.79693235490E+03 -0.35552293582E+03 -0.66191068576E+02  0.87514512725E+03  0.25500000920E-02 0.  1.
       -2    1    3    3    0  502  0.79693235490E+03  0.35552293582E+03  0.72995191407E+03  0.11376851643E+04  0.25500000920E-02 0. -1.
</event>
<event>
 5   0  0.6870370E-06  0.1900334E+04  0.7818609E-02  0.8654690E-01
       -2   -1    0    0    0  501  0.00000000000E+00  0.00000000000E+00  0.58555733321E+03  0.58555733321E+03  0.25500000920E-02 0.  1.
        2   -1    0    0  501    0  0.00000000000E+00  0.00000000000E+00 -0.15418090758E+04  0.15418090758E+04  0.25500000920E-02 0. -1.
    10030    2    1    2    0    0  0.00000000000E+00  0.00000000000E+00 -0.95625174262E+03  0.21273664090E+04  0.19003342977E+04 0.  0.
        1    1    3    3  502    0  0.59585468551E+03  0.51473493791E+03  0.11722015577E+03  0.79607501374E+03  0.50400001928E-02 0.  1.
       -1    1    3    3    0  502 -0.59585468551E+03 -0.51473493791E+03 -0.10734718984E+04  0.13312913953E+04  0.50400001928E-02 0. -1.
</event>
<event>
 5   0  0.3379108E-06  0.1899864E+04  0.7818609E-02  0.8654924E-01
        1   -1    0    0  501    0  0.00000000000E+00  0.00000000000E+00  0.59901082903E+03  0.59901082905E+03  0.50400001928E-02 0. -1.
       -1   -1    0    0    0  501  0.00000000000E+00  0.00000000000E+00 -0.15064350218E+04  0.15064350218E+04  0.50400001928E-02 0.  1.
    10030    2    1    2    0    0  0.00000000000E+00  0.00000000000E+00 -0.90742419278E+03  0.21054458509E+04  0.18998640913E+04 0.  0.
        4    1    3    3  502    0 -0.50587337576E+03  0.53724922240E+03  0.20920113495E+03  0.76701455464E+03  0.12699999809E+01 0. -1.
       -4    1    3    3    0  502  0.50587337576E+03 -0.53724922240E+03 -0.11166253277E+04  0.13384312962E+04  0.12699999809E+01 0.  1.
</event>
<event>
 5   0  0.6862201E-06  0.1899215E+04  0.7818609E-02  0.8655247E-01
       -2   -1    0    0    0  501  0.00000000000E+00  0.00000000000E+00  0.55210316644E+03  0.55210316645E+03  0.25500000920E-02 0. -1.
        2   -1    0    0  501    0  0.00000000000E+00  0.00000000000E+00 -0.16333079614E+04  0.16333079614E+04  0.25500000920E-02 0.  1.
    10030    2    1    2    0    0  0.00000000000E+00  0.00000000000E+00 -0.10812047950E+04  0.21854111279E+04  0.18992150982E+04 0.  0.
        3    1    3    3  502    0  0.94492207618E+03  0.75124016235E+02 -0.60603153549E+03  0.11250758108E+04  0.10100000352E+00 0.  1.
       -3    1    3    3    0  502 -0.94492207618E+03 -0.75124016235E+02 -0.47517325949E+03  0.10603353171E+04  0.10100000352E+00 0. -1.
</event>
<event>
 5   0  0.3211263E-06  0.1899500E+04  0.7818609E-02  0.8655105E-01
        1   -1    0    0  501    0  0.00000000000E+00  0.00000000000E+00  0.17329661663E+04  0.17329661663E+04  0.50400001928E-02 0. -1.
       -1   -1    0    0    0  501  0.00000000000E+00  0.00000000000E+00 -0.52050953627E+03  0.52050953629E+03  0.50400001928E-02 0.  1.
    10030    2    1    2    0    0  0.00000000000E+00  0.00000000000E+00  0.12124566300E+04  0.22534757026E+04  0.18995003718E+04 0.  0.
        5    1    3    3  502    0 -0.78290893524E+03  0.51254996396E+03  0.79880306808E+03  0.12303504777E+04  0.46999998093E+01 0.  1.
       -5    1    3    3    0  502  0.78290893524E+03 -0.51254996396E+03  0.41365356192E+03  0.10231252249E+04  0.46999998093E+01 0. -1.
</event>
<event>
 5   0  0.3236653E-06  0.1899903E+04  0.7818609E-02  0.8654905E-01
       -1   -1    0    0    0  501  0.00000000000E+00  0.00000000000E+00  0.64804273984E+03  0.64804273986E+03  0.50400001928E-02 0. -1.
        1   -1    0    0  501    0  0.00000000000E+00  0.00000000000E+00 -0.13925122713E+04  0.13925122713E+04  0.50400001928E-02 0.  1.
    10030    2    1    2    0    0  0.00000000000E+00  0.00000000000E+00 -0.74446953144E+03  0.20405550112E+04  0.18999025949E+04 0.  0.
        3    1    3    3  502    0  0.14088668950E+03  0.25476141989E+02 -0.13808579542E+04  0.13882603477E+04  0.10100000352E+00 0.  1.
       -3    1    3    3    0  502 -0.14088668950E+03 -0.25476141989E+02  0.63638842278E+03  0.65229466343E+03  0.10100000352E+00 0. -1.
</event>
<event>
 5   0  0.2527750E-06  0.1900352E+04  0.7818609E-02  0.8654681E-01
       -3   -1    0    0    0  501  0.00000000000E+00  0.00000000000E+00  0.22971701715E+04  0.22971701737E+04  0.10100000352E+00 0. -1.
        3   -1    0    0  501    0  0.00000000000E+00  0.00000000000E+00 -0.39302034205E+03  0.39302035503E+03  0.10100000352E+00 0.  1.
    10030    2    1    2    0    0  0.00000000000E+00  0.00000000000E+00  0.19041498295E+04  0.26901905288E+04  0.19003522063E+04 0.  0.
        2    1    3    3  502    0  0.94595461177E+03  0.86145578675E+02  0.98626865194E+03  0.13692980107E+04  0.25500000920E-02 0.  1.
       -2    1    3    3    0  502 -0.94595461177E+03 -0.86145578675E+02  0.91788117753E+03  0.13208925181E+04  0.25500000920E-02 0. -1.
</event>
<event>
 5   0  0.6984466E-06  0.1900783E+04  0.7818609E-02  0.8654467E-01
        2   -1    0    0  501    0  0.00000000000E+00  0.00000000000E+00  0.10125069804E+04  0.10125069804E+04  0.25500000920E-02 0. -1.
       -2   -1    0    0    0  501  0.00000000000E+00  0.00000000000E+00 -0.89208630636E+03  0.89208630636E+03  0.25500000920E-02 0.  1.
    10030    2    1    2    0    0  0.00000000000E+00  0.00000000000E+00  0.12042067401E+03  0.19045932867E+04  0.19007825886E+04 0.  0.
        2    1    3    3  502    0 -0.70150442464E+03 -0.26609766243E+03  0.64475557528E+03  0.98925536420E+03  0.25500000920E-02 0. -1.
       -2    1    3    3    0  502  0.70150442464E+03  0.26609766243E+03 -0.52433490127E+03  0.91533792254E+03  0.25500000920E-02 0.  1.
</event>
<event>
 5   0  0.7577180E-06  0.1885263E+04  0.7818609E-02  0.8662227E-01
        2   -1    0    0  501    0  0.00000000000E+00  0.00000000000E+00  0.13195756072E+04  0.13195756072E+04  0.25500000920E-02 0.  1.
       -2   -1    0    0    0  501  0.00000000000E+00  0.00000000000E+00 -0.67336371940E+03  0.67336371940E+03  0.25500000920E-02 0. -1.
    10030    2    1    2    0    0  0.00000000000E+00  0.00000000000E+00  0.64621188782E+03  0.19929393266E+04  0.18852632059E+04 0.  0.
        5    1    3    3  502    0  0.72935255528E+02  0.66611640794E+03  0.10239192352E+04  0.12237088341E+04  0.46999998093E+01 0.  1.
       -5    1    3    3    0  502 -0.72935255528E+02 -0.66611640794E+03 -0.37770734735E+03  0.76923049255E+03  0.46999998093E+01 0. -1.
</event>
<event>
 5   0  0.3379108E-06  0.1899979E+04  0.7818609E-02  0.8654867E-01
        1   -1    0    0  501    0  0.00000000000E+00  0.00000000000E+00  0.10992686442E+04  0.10992686442E+04  0.50400001928E-02 0. -1.
       -1   -1    0    0    0  501  0.00000000000E+00  0.00000000000E+00 -0.82098228121E+03  0.82098228123E+03  0.50400001928E-02 0.  1.
    10030    2    1    2    0    0  0.00000000000E+00  0.00000000000E+00  0.27828636294E+03  0.19202509254E+04  0.18999790306E+04 0.  0.
        4    1    3    3  502    0  0.54776608031E+03 -0.15772045277E+03 -0.62893577502E+03  0.84881402083E+03  0.12699999809E+01 0.  1.
       -4    1    3    3    0  502 -0.54776608031E+03  0.15772045277E+03  0.90722213795E+03  0.10714369046E+04  0.12699999809E+01 0. -1.
</event>
<event>
 5   0  0.7207648E-06  0.1899785E+04  0.7818609E-02  0.8654964E-01
        2   -1    0    0  501    0  0.00000000000E+00  0.00000000000E+00  0.99006788084E+03  0.99006788084E+03  0.25500000920E-02 0. -1.
       -2   -1    0    0    0  501  0.00000000000E+00  0.00000000000E+00 -0.91134717697E+03  0.91134717697E+03  0.25500000920E-02 0.  1.
    10030    2    1    2    0    0  0.00000000000E+00  0.00000000000E+00  0.78720703869E+02  0.19014150578E+04  0.18997847965E+04 0.  0.
        4    1    3    3  502    0  0.17478880711E+03  0.49084964132E+03 -0.75555634480E+03  0.91779709116E+03  0.12699999809E+01 0.  1.
       -4    1    3    3    0  502 -0.17478880711E+03 -0.49084964132E+03  0.83427704867E+03  0.98361796665E+03  0.12699999809E+01 0. -1.
</event>
<event>
 5   0  0.3211263E-06  0.1901484E+04  0.7818609E-02  0.8654118E-01
       -1   -1    0    0    0  501  0.00000000000E+00  0.00000000000E+00  0.82922287369E+03  0.82922287371E+03  0.50400001928E-02 0. -1.
        1   -1    0    0  501    0  0.00000000000E+00  0.00000000000E+00 -0.10900694982E+04  0.10900694982E+04  0.50400001928E-02 0.  1.
    10030    2    1    2    0    0  0.00000000000E+00  0.00000000000E+00 -0.26084662453E+03  0.19192923719E+04  0.19014842222E+04 0.  0.
        5    1    3    3  502    0 -0.11809642820E+02  0.21161439574E+03 -0.10659086660E+04  0.10867858549E+04  0.46999998093E+01 0.  1.
       -5    1    3    3    0  502  0.11809642820E+02 -0.21161439574E+03  0.80506204152E+03  0.83250651700E+03  0.46999998093E+01 0. -1.
</event>
<event>
 5   0  0.6984466E-06  0.1900462E+04  0.7818609E-02  0.8654626E-01
        2   -1    0    0  501    0  0.00000000000E+00  0.00000000000E+00  0.23155751208E+04  0.23155751208E+04  0.25500000920E-02 0. -1.
       -2   -1    0    0    0  501  0.00000000000E+00  0.00000000000E+00 -0.38994168499E+03  0.38994168500E+03  0.25500000920E-02 0.  1.
    10030    2    1    2    0    0  0.00000000000E+00  0.00000000000E+00  0.19256334358E+04  0.27055168058E+04  0.19004623273E+04 0.  0.
        2    1    3    3  502    0  0.70264292388E+03  0.22192724801E+03  0.10867398886E+03  0.74482804576E+03  0.25500000920E-02 0.  1.
       -2    1    3    3    0  502 -0.70264292388E+03 -0.22192724801E+03  0.18169594469E+04  0.19606887600E+04  0.25500000920E-02 0. -1.
</event>
<event>
 5   0  0.6862201E-06  0.1899829E+04  0.7818609E-02  0.8654941E-01
        2   -1    0    0  501    0  0.00000000000E+00  0.00000000000E+00  0.16710898361E+04  0.16710898361E+04  0.25500000920E-02 0. -1.
       -2   -1    0    0    0  501  0.00000000000E+00  0.00000000000E+00 -0.53996951635E+03  0.53996951635E+03  0.25500000920E-02 0.  1.
    10030    2    1    2    0    0  0.00000000000E+00  0.00000000000E+00  0.11311203197E+04  0.22110593524E+04  0.18998290139E+04 0.  0.
        3    1    3    3  502    0  0.11300578790E+03  0.80000233431E+03 -0.15841722878E+02  0.80809963085E+03  0.10100000352E+00 0.  1.
       -3    1    3    3    0  502 -0.11300578790E+03 -0.80000233431E+03  0.11469620426E+04  0.14029597216E+04  0.10100000352E+00 0. -1.
</event>
<event>
 5   0  0.3495279E-06  0.1896935E+04  0.7818609E-02  0.8656383E-01
        1   -1    0    0  501    0  0.00000000000E+00  0.00000000000E+00  0.90296691254E+03  0.90296691256E+03  0.50400001928E-02 0.  1.
       -1   -1    0    0    0  501  0.00000000000E+00  0.00000000000E+00 -0.99626114246E+03  0.99626114247E+03  0.50400001928E-02 0. -1.
    10030    2    1    2    0    0  0.00000000000E+00  0.00000000000E+00 -0.93294229920E+02  0.18992280550E+04  0.18969352629E+04 0.  0.
        2    1    3    3  502    0  0.48976515413E+03  0.21312813663E+03  0.73807144426E+03  0.91106693808E+03  0.25500000920E-02 0.  1.
       -2    1    3    3    0  502 -0.48976515413E+03 -0.21312813663E+03 -0.83136567418E+03  0.98816111695E+03  0.25500000920E-02 0. -1.
</event>
<event>
 5   0  0.3211263E-06  0.1900221E+04  0.7818609E-02  0.8654746E-01
       -1   -1    0    0    0  501  0.00000000000E+00  0.00000000000E+00  0.61163436791E+03  0.61163436793E+03  0.50400001928E-02 0.  1.
        1   -1    0    0  501    0  0.00000000000E+00  0.00000000000E+00 -0.14758982736E+04  0.14758982736E+04  0.50400001928E-02 0. -1.
    10030    2    1    2    0    0  0.00000000000E+00  0.00000000000E+00 -0.86426390565E+03  0.20875326415E+04  0.19002211531E+04 0.  0.
        5    1    3    3  502    0  0.84404732783E+03 -0.22018591829E+03 -0.18463532215E+02  0.87250256289E+03  0.46999998093E+01 0.  1.
       -5    1    3    3    0  502 -0.84404732783E+03  0.22018591829E+03 -0.84580037343E+03  0.12150300786E+04  0.46999998093E+01 0. -1.
</event>
<event>
 5   0  0.6862201E-06  0.1899954E+04  0.7818609E-02  0.8654879E-01
        2   -1    0    0  501    0  0.00000000000E+00  0.00000000000E+00  0.78663036696E+03  0.78663036697E+03  0.25500000920E-02 0.  1.
       -2   -1    0    0    0  501  0.00000000000E+00  0.00000000000E+00 -0.11472436889E+04  0.11472436889E+04  0.25500000920E-02 0. -1.
    10030    2    1    2    0    0  0.00000000000E+00  0.00000000000E+00 -0.36061332189E+03  0.19338740558E+04  0.18999544457E+04 0.  0.
        3    1    3    3  502    0 -0.53779318812E+03 -0.78221107587E+03 -0.21813237066E+03  0.97399046285E+03  0.10100000352E+00 0.  1.
       -3    1    3    3    0  502  0.53779318812E+03  0.78221107587E+03 -0.14248095124E+03  0.95988359298E+03  0.10100000352E+00 0. -1.
</event>
<event>
 5   0  0.6862201E-06  0.1900149E+04  0.7818609E-02  0.8654782E-01
       -2   -1    0    0    0  501  0.00000000000E+00  0.00000000000E+00  0.41370281271E+03  0.41370281272E+03  0.25500000920E-02 0. -1.
        2   -1    0    0  501    0  0.00000000000E+00  0.00000000000E+00 -0.21818605519E+04  0.21818605519E+04  0.25500000920E-02 0.  1.
    10030    2    1    2    0    0  0.00000000000E+00  0.00000000000E+00 -0.17681577392E+04  0.25955633646E+04  0.19001493070E+04 0.  0.
        3    1    3    3  502    0  0.64536373751E+03  0.43753231957E+03 -0.16256341296E+04  0.18029462604E+04  0.10100000352E+00 0.  1.
       -3    1    3    3    0  502 -0.64536373751E+03 -0.43753231957E+03 -0.14252360955E+03  0.79261710418E+03  0.10100000352E+00 0. -1.
</event>
<event>
 5   0  0.6984466E-06  0.1900819E+04  0.7818609E-02  0.8654449E-01
       -2   -1    0    0    0  501  0.00000000000E+00  0.00000000000E+00  0.46708906607E+03  0.46708906608E+03  0.25500000920E-02 0.  1.
        2   -1    0    0  501    0  0.00000000000E+00  0.00000000000E+00 -0.19338451075E+04  0.19338451075E+04  0.25500000920E-02 0. -1.
    10030    2    1    2    0    0  0.00000000000E+00  0.00000000000E+00 -0.14667560414E+04  0.24009341736E+04  0.19008186712E+04 0.  0.
        2    1    3    3  502    0  0.28451860605E+02  0.18485580844E+03 -0.19103703863E+04  0.19195041524E+04  0.25500000920E-02 0. -1.
       -2    1    3    3    0  502 -0.28451860605E+02 -0.18485580844E+03  0.44361434488E+03  0.48143002116E+03  0.25500000920E-02 0.  1.
</event>
<event>
 5   0  0.3398807E-06  0.1900337E+04  0.7818609E-02  0.8654689E-01
        1   -1    0    0  501    0  0.00000000000E+00  0.00000000000E+00  0.82562645188E+03  0.82562645190E+03  0.50400001928E-02 0. -1.
       -1   -1    0    0    0  501  0.00000000000E+00  0.00000000000E+00 -0.10934966934E+04  0.10934966935E+04  0.50400001928E-02 0.  1.
    10030    2    1    2    0    0  0.00000000000E+00  0.00000000000E+00 -0.26787024156E+03  0.19191231454E+04  0.19003365967E+04 0.  0.
        1    1    3    3  502    0  0.38542088209E+03 -0.35886985322E+03 -0.93262844606E+03  0.10710427845E+04  0.50400001928E-02 0.  1.
       -1    1    3    3    0  502 -0.38542088209E+03  0.35886985322E+03  0.66475820451E+03  0.84808036081E+03  0.50400001928E-02 0. -1.
</event>
<event>
 5   0  0.7207648E-06  0.1900195E+04  0.7818609E-02  0.8654759E-01
       -2   -1    0    0    0  501  0.00000000000E+00  0.00000000000E+00  0.65800066980E+03  0.65800066980E+03  0.25500000920E-02 0. -1.
        2   -1    0    0  501    0  0.00000000000E+00  0.00000000000E+00 -0.13718611813E+04  0.13718611813E+04  0.25500000920E-02 0.  1.
    10030    2    1    2    0    0  0.00000000000E+00  0.00000000000E+00 -0.71386051151E+03  0.20298618511E+04  0.19001953333E+04 0.  0.
        4    1    3    3  502    0  0.50170545487E+03  0.75270984233E+03 -0.66727789395E+03  0.11240737835E+04  0.12699999809E+01 0.  1.
       -4    1    3    3    0  502 -0.50170545487E+03 -0.75270984233E+03 -0.46582617552E+02  0.90578806757E+03  0.12699999809E+01 0. -1.
</event>
<event>
 5   0  0.6862201E-06  0.1899461E+04  0.7818609E-02  0.8655125E-01
        2   -1    0    0  501    0  0.00000000000E+00  0.00000000000E+00  0.11840411828E+04  0.11840411828E+04  0.25500000920E-02 0.  1.
       -2   -1    0    0    0  501  0.00000000000E+00  0.00000000000E+00 -0.76178735410E+03  0.76178735411E+03  0.25500000920E-02 0. -1.
    10030    2    1    2    0    0  0.00000000000E+00  0.00000000000E+00  0.42225382874E+03  0.19458285370E+04  0.18994605548E+04 0.  0.
        3    1    3    3  502    0 -0.33602971530E+03 -0.69881259043E+03 -0.35065083225E+03  0.85100588862E+03  0.10100000352E+00 0. -1.
       -3    1    3    3    0  502  0.33602971530E+03  0.69881259043E+03  0.77290466099E+03  0.10948226483E+04  0.10100000352E+00 0.  1.
</event>
<event>
 5   0  0.3495279E-06  0.1900556E+04  0.7818609E-02  0.8654579E-01
       -1   -1    0    0    0  501  0.00000000000E+00  0.00000000000E+00  0.90921078737E+03  0.90921078739E+03  0.50400001928E-02 0.  1.
        1   -1    0    0  501    0  0.00000000000E+00  0.00000000000E+00 -0.99320061390E+03  0.99320061392E+03  0.50400001928E-02 0. -1.
    10030    2    1    2    0    0  0.00000000000E+00  0.00000000000E+00 -0.83989826533E+02  0.19024114013E+04  0.19005564577E+04 0.  0.
        2    1    3    3  502    0 -0.25576033366E+03 -0.17142820489E+03  0.85789739439E+03  0.91147622954E+03  0.25500000920E-02 0.  1.
       -2    1    3    3    0  502  0.25576033366E+03  0.17142820489E+03 -0.94188722092E+03  0.99093517177E+03  0.25500000920E-02 0. -1.
</event>
<event>
 5   0  0.3398807E-06  0.1904571E+04  0.7818609E-02  0.8652584E-01
        1   -1    0    0  501    0  0.00000000000E+00  0.00000000000E+00  0.83234589477E+03  0.83234589478E+03  0.50400001928E-02 0.  1.
       -1   -1    0    0    0  501  0.00000000000E+00  0.00000000000E+00 -0.10895085436E+04  0.10895085436E+04  0.50400001928E-02 0. -1.
    10030    2    1    2    0    0  0.00000000000E+00  0.00000000000E+00 -0.25716264880E+03  0.19218544384E+04  0.19045713046E+04 0.  0.
        1    1    3    3  502    0  0.26552317007E+03 -0.89788459435E+03  0.46628033025E+02  0.93748251830E+03  0.50400001928E-02 0.  1.
       -1    1    3    3    0  502 -0.26552317007E+03  0.89788459435E+03 -0.30379068182E+03  0.98437192006E+03  0.50400001928E-02 0. -1.
</event>
<event>
 5   0  0.6870370E-06  0.1899742E+04  0.7818609E-02  0.8654985E-01
        2   -1    0    0  501    0  0.00000000000E+00  0.00000000000E+00  0.48935971668E+03  0.48935971669E+03  0.25500000920E-02 0.  1.
       -2   -1    0    0    0  501  0.00000000000E+00  0.00000000000E+00 -0.18437465799E+04  0.18437465799E+04  0.25500000920E-02 0. -1.
    10030    2    1    2    0    0  0.00000000000E+00  0.00000000000E+00 -0.13543868632E+04  0.23331062966E+04  0.18997424078E+04 0.  0.
        1    1    3    3  502    0 -0.42177963923E+03 -0.10351184453E+03 -0.17146744812E+04  0.17688191944E+04  0.50400001928E-02 0. -1.
       -1    1    3    3    0  502  0.42177963923E+03  0.10351184453E+03  0.36028761796E+03  0.56428710219E+03  0.50400001928E-02 0.  1.
</event>
<event>
 5   0  0.3211263E-06  0.1900398E+04  0.7818609E-02  0.8654658E-01
        1   -1    0    0  501    0  0.00000000000E+00  0.00000000000E+00  0.16066954121E+04  0.16066954121E+04  0.50400001928E-02 0. -1.
       -1   -1    0    0    0  501  0.00000000000E+00  0.00000000000E+00 -0.56194737613E+03  0.56194737615E+03  0.50400001928E-02 0.  1.
    10030    2    1    2    0    0  0.00000000000E+00  0.00000000000E+00  0.10447480360E+04  0.21686427883E+04  0.19003981384E+04 0.  0.
        5    1    3    3  502    0 -0.49082552787E+03  0.58631190984E+03 -0.12132546277E+03  0.77421787136E+03  0.46999998093E+01 0.  1.
       -5    1    3    3    0  502  0.49082552787E+03 -0.58631190984E+03  0.11660734988E+04  0.13944249169E+04  0.46999998093E+01 0. -1.
</event>
<event>
 5   0  0.3398807E-06  0.1899373E+04  0.7818609E-02  0.8655169E-01
        1   -1    0    0  501    0  0.00000000000E+00  0.00000000000E+00  0.48221933502E+03  0.48221933504E+03  0.50400001928E-02 0.  1.
       -1   -1    0    0    0  501  0.00000000000E+00  0.00000000000E+00 -0.18703200884E+04  0.18703200884E+04  0.50400001928E-02 0. -1.
    10030    2    1    2    0    0  0.00000000000E+00  0.00000000000E+00 -0.13881007533E+04  0.23525394234E+04  0.18993730643E+04 0.  0.
        1    1    3    3  502    0  0.60228037229E+03  0.62278843675E+03 -0.11758233179E+04  0.14605367365E+04  0.50400001928E-02 0. -1.
       -1    1    3    3    0  502 -0.60228037229E+03 -0.62278843675E+03 -0.21227743547E+03  0.89200268690E+03  0.50400001928E-02 0.  1.
</event>
<event>
 5   0  0.6862201E-06  0.1900500E+04  0.7818609E-02  0.8654608E-01
        2   -1    0    0  501    0  0.00000000000E+00  0.00000000000E+00  0.14089169420E+04  0.14089169420E+04  0.25500000920E-02 0.  1.
       -2   -1    0    0    0  501  0.00000000000E+00  0.00000000000E+00 -0.64089987730E+03  0.64089987731E+03  0.25500000920E-02 0. -1.
    10030    2    1    2    0    0  0.00000000000E+00  0.00000000000E+00  0.76801706472E+03  0.20498168193E+04  0.19004996136E+04 0.  0.
        3    1    3    3  502    0  0.15745768072E+03 -0.81520930240E+03 -0.11448979541E+03  0.83813307499E+03  0.10100000352E+00 0. -1.
       -3    1    3    3    0  502 -0.15745768072E+03  0.81520930240E+03  0.88250686013E+03  0.12116837443E+04  0.10100000352E+00 0.  1.
</event>
<event>
 5   0  0.3398807E-06  0.1899030E+04  0.7818609E-02  0.8655340E-01
       -1   -1    0    0    0  501  0.00000000000E+00  0.00000000000E+00  0.50453665313E+03  0.50453665316E+03  0.50400001928E-02 0. -1.
        1   -1    0    0  501    0  0.00000000000E+00  0.00000000000E+00 -0.17869432819E+04  0.17869432819E+04  0.50400001928E-02 0.  1.
    10030    2    1    2    0    0  0.00000000000E+00  0.00000000000E+00 -0.12824066288E+04  0.22914799350E+04  0.18990296288E+04 0.  0.
        1    1    3    3  502    0  0.41319072066E+03 -0.54393207447E+03 -0.14370397337E+04  0.15911228330E+04  0.50400001928E-02 0.  1.
       -1    1    3    3    0  502 -0.41319072066E+03  0.54393207447E+03  0.15463310495E+03  0.70035710209E+03  0.50400001928E-02 0. -1.
</event>
<event>
 5   0  0.3398807E-06  0.1898864E+04  0.7818609E-02  0.8655422E-01
       -1   -1    0    0    0  501  0.00000000000E+00  0.00000000000E+00  0.90607414914E+03  0.90607414915E+03  0.50400001928E-02 0. -1.
        1   -1    0    0  501    0  0.00000000000E+00  0.00000000000E+00 -0.99486459672E+03  0.99486459673E+03  0.50400001928E-02 0.  1.
    10030    2    1    2    0    0  0.00000000000E+00  0.00000000000E+00 -0.88790447582E+02  0.19009387459E+04  0.18988639688E+04 0.  0.
        1    1    3    3  502    0  0.72107823155E+03 -0.33177277777E+03  0.47712898244E+03  0.92610963605E+03  0.50400001928E-02 0. -1.
       -1    1    3    3    0  502 -0.72107823155E+03  0.33177277777E+03 -0.56591943002E+03  0.97482910983E+03  0.50400001928E-02 0.  1.
</event>
<event>
 5   0  0.3495279E-06  0.1900479E+04  0.7818609E-02  0.8654618E-01
       -1   -1    0    0    0  501  0.00000000000E+00  0.00000000000E+00  0.88719539349E+03  0.88719539351E+03  0.50400001928E-02 0. -1.
        1   -1    0    0  501    0  0.00000000000E+00  0.00000000000E+00 -0.10177636961E+04  0.10177636961E+04  0.50400001928E-02 0.  1.
    10030    2    1    2    0    0  0.00000000000E+00  0.00000000000E+00 -0.13056830262E+03  0.19049590896E+04  0.19004791637E+04 0.  0.
        2    1    3    3  502    0 -0.67584058057E+03 -0.29634833372E+03  0.53476916627E+03  0.91135113235E+03  0.25500000920E-02 0.  1.
       -2    1    3    3    0  502  0.67584058057E+03  0.29634833372E+03 -0.66533746889E+03  0.99360795728E+03  0.25500000920E-02 0. -1.
</event>
<event>
 5   0  0.6870370E-06  0.1901734E+04  0.7818609E-02  0.8653994E-01
        2   -1    0    0  501    0  0.00000000000E+00  0.00000000000E+00  0.10689612358E+04  0.10689612358E+04  0.25500000920E-02 0. -1.
       -2   -1    0    0    0  501  0.00000000000E+00  0.00000000000E+00 -0.84581930932E+03  0.84581930933E+03  0.25500000920E-02 0.  1.
    10030    2    1    2    0    0  0.00000000000E+00  0.00000000000E+00  0.22314192646E+03  0.19147805451E+04  0.19017340026E+04 0.  0.
        1    1    3    3  502    0  0.32750650425E+03  0.37536186642E+03  0.92706009867E+03  0.10524245663E+04  0.50400001928E-02 0. -1.
       -1    1    3    3    0  502 -0.32750650425E+03 -0.37536186642E+03 -0.70391817221E+03  0.86235597886E+03  0.50400001928E-02 0.  1.
</event>
<event>
 5   0  0.2527750E-06  0.1898858E+04  0.7818609E-02  0.8655425E-01
        3   -1    0    0  501    0  0.00000000000E+00  0.00000000000E+00  0.11266507933E+04  0.11266507978E+04  0.10100000352E+00 0.  1.
       -3   -1    0    0    0  501  0.00000000000E+00  0.00000000000E+00 -0.80008433135E+03  0.80008433773E+03  0.10100000352E+00 0. -1.
    10030    2    1    2    0    0  0.00000000000E+00  0.00000000000E+00  0.32656646190E+03  0.19267351355E+04  0.18988582434E+04 0.  0.
        2    1    3    3  502    0 -0.36424091535E+02 -0.89128484287E+03  0.49317199536E+03  0.10192811205E+04  0.25500000920E-02 0.  1.
       -2    1    3    3    0  502  0.36424091535E+02  0.89128484287E+03 -0.16660553346E+03  0.90745401502E+03  0.25500000920E-02 0. -1.
</event>
<event>
 5   0  0.6862201E-06  0.1900984E+04  0.7818609E-02  0.8654367E-01
       -2   -1    0    0    0  501  0.00000000000E+00  0.00000000000E+00  0.65003319068E+03  0.65003319068E+03  0.25500000920E-02 0. -1.
        2   -1    0    0  501    0  0.00000000000E+00  0.00000000000E+00 -0.13898293654E+04  0.13898293654E+04  0.25500000920E-02 0.  1.
    10030    2    1    2    0    0  0.00000000000E+00  0.00000000000E+00 -0.73979617475E+03  0.20398625561E+04  0.19009841840E+04 0.  0.
        3    1    3    3  502    0  0.11627345222E+03  0.50769463606E+02  0.64090597828E+03  0.65334335332E+03  0.10100000352E+00 0. -1.
       -3    1    3    3    0  502 -0.11627345222E+03 -0.50769463606E+02 -0.13807021530E+04  0.13865192028E+04  0.10100000352E+00 0.  1.
</event>
<event>
 5   0  0.6984466E-06  0.1904159E+04  0.7818609E-02  0.8652789E-01
       -2   -1    0    0    0  501  0.00000000000E+00  0.00000000000E+00  0.50045625756E+03  0.50045625757E+03  0.25500000920E-02 0.  1.
        2   -1    0    0  501    0  0.00000000000E+00  0.00000000000E+00 -0.18112586090E+04  0.18112586090E+04  0.25500000920E-02 0. -1.
    10030    2    1    2    0    0  0.00000000000E+00  0.00000000000E+00 -0.13108023515E+04  0.23117148666E+04  0.19041593473E+04 0.  0.
        2    1    3    3  502    0 -0.60700743088E+02  0.77136116892E+03  0.18112295337E+02  0.77395780788E+03  0.25500000920E-02 0.  1.
       -2    1    3    3    0  502  0.60700743088E+02 -0.77136116892E+03 -0.13289146468E+04  0.15377570587E+04  0.25500000920E-02 0. -1.
</event>
<event>
 5   0  0.6870370E-06  0.1899632E+04  0.7818609E-02  0.8655040E-01
       -2   -1    0    0    0  501  0.00000000000E+00  0.00000000000E+00  0.45160721800E+03  0.45160721801E+03  0.25500000920E-02 0. -1.
        2   -1    0    0  501    0  0.00000000000E+00  0.00000000000E+00 -0.19976435342E+04  0.19976435342E+04  0.25500000920E-02 0.  1.
    10030    2    1    2    0    0  0.00000000000E+00  0.00000000000E+00 -0.15460363162E+04  0.24492507522E+04  0.18996317949E+04 0.  0.
        1    1    3    3  502    0  0.29986109761E+02 -0.13676337307E+02  0.45086975783E+03  0.45207272372E+03  0.50400001928E-02 0. -1.
       -1    1    3    3    0  502 -0.29986109761E+02  0.13676337307E+02 -0.19969060741E+04  0.19971780285E+04  0.50400001928E-02 0.  1.
</event>
<event>
 5   0  0.6862201E-06  0.1900177E+04  0.7818609E-02  0.8654768E-01
       -2   -1    0    0    0  501  0.00000000000E+00  0.00000000000E+00  0.74179909443E+03  0.74179909443E+03  0.25500000920E-02 0.  1.
        2   -1    0    0  501    0  0.00000000000E+00  0.00000000000E+00 -0.12168638739E+04  0.12168638739E+04  0.25500000920E-02 0. -1.
    10030    2    1    2    0    0  0.00000000000E+00  0.00000000000E+00 -0.47506477947E+03  0.19586629683E+04  0.19001773809E+04 0.  0.
        3    1    3    3  502    0  0.19243470348E+03 -0.76194869493E+03 -0.78788690032E+03  0.11128174633E+04  0.10100000352E+00 0. -1.
       -3    1    3    3    0  502 -0.19243470348E+03  0.76194869493E+03  0.31282212085E+03  0.84584550499E+03  0.10100000352E+00 0.  1.
</event>
<event>
 5   0  0.3398807E-06  0.1899479E+04  0.7818609E-02  0.8655116E-01
       -1   -1    0    0    0  501  0.00000000000E+00  0.00000000000E+00  0.10719841427E+04  0.10719841428E+04  0.50400001928E-02 0. -1.
        1   -1    0    0  501    0  0.00000000000E+00  0.00000000000E+00 -0.84143505591E+03  0.84143505592E+03  0.50400001928E-02 0.  1.
    10030    2    1    2    0    0  0.00000000000E+00  0.00000000000E+00  0.23054908683E+03  0.19134191987E+04  0.18994789150E+04 0.  0.
        1    1    3    3  502    0  0.63005911089E+03 -0.42834594171E+03 -0.45594112969E+03  0.88788346238E+03  0.50400001928E-02 0.  1.
       -1    1    3    3    0  502 -0.63005911089E+03  0.42834594171E+03  0.68649021652E+03  0.10255357363E+04  0.50400001928E-02 0. -1.
</event>
<event>
 5   0  0.3211263E-06  0.1900176E+04  0.7818609E-02  0.8654769E-01
        1   -1    0    0  501    0  0.00000000000E+00  0.00000000000E+00  0.15221825361E+04  0.15221825361E+04  0.50400001928E-02 0.  1.
       -1   -1    0    0    0  501  0.00000000000E+00  0.00000000000E+00 -0.59300822833E+03  0.59300822835E+03  0.50400001928E-02 0. -1.
    10030    2    1    2    0    0  0.00000000000E+00  0.00000000000E+00  0.92917430774E+03  0.21151907644E+04  0.19001755381E+04 0.  0.
        5    1    3    3  502    0  0.63532460142E+03  0.25835032123E+03  0.11964497798E+04  0.13790926014E+04  0.46999998093E+01 0.  1.
       -5    1    3    3    0  502 -0.63532460142E+03 -0.25835032123E+03 -0.26727547206E+03  0.73609816303E+03  0.46999998093E+01 0. -1.
</event>
<event>
 5   0  0.2527750E-06  0.1899358E+04  0.7818609E-02  0.8655176E-01
        3   -1    0    0  501    0  0.00000000000E+00  0.00000000000E+00  0.16928365608E+04  0.16928365638E+04  0.10100000352E+00 0.  1.
       -3   -1    0    0    0  501  0.00000000000E+00  0.00000000000E+00 -0.53276852330E+03  0.53276853288E+03  0.10100000352E+00 0. -1.
    10030    2    1    2    0    0  0.00000000000E+00  0.00000000000E+00  0.11600680375E+04  0.22256050967E+04  0.18993578375E+04 0.  0.
        1    1    3    3  502    0  0.18434769592E+03  0.88139229072E+03  0.93361580690E+03  0.12971025087E+04  0.50400001928E-02 0.  1.
       -1    1    3    3    0  502 -0.18434769592E+03 -0.88139229072E+03  0.22645223058E+03  0.92850258798E+03  0.50400001928E-02 0. -1.
</event>
<event>
 5   0  0.7207648E-06  0.1898723E+04  0.7818609E-02  0.8655492E-01
        2   -1    0    0  501    0  0.00000000000E+00  0.00000000000E+00  0.21878113418E+04  0.21878113418E+04  0.25500000920E-02 0.  1.
       -2   -1    0    0    0  501  0.00000000000E+00  0.00000000000E+00 -0.41195858184E+03  0.41195858185E+03  0.25500000920E-02 0. -1.
    10030    2    1    2    0    0  0.00000000000E+00  0.00000000000E+00  0.17758527599E+04  0.25997699236E+04  0.18987234214E+04 0.  0.
        4    1    3    3  502    0 -0.27350814001E+03  0.53709758457E+02 -0.35466962745E+03  0.45109156314E+03  0.12699999809E+01 0. -1.
       -4    1    3    3    0  502  0.27350814001E+03 -0.53709758457E+02  0.21305223874E+04  0.21486783605E+04  0.12699999809E+01 0.  1.
</event>
<event>
 5   0  0.6984466E-06  0.1900181E+04  0.7818609E-02  0.8654766E-01
       -2   -1    0    0    0  501  0.00000000000E+00  0.00000000000E+00  0.94233738115E+03  0.94233738115E+03  0.25500000920E-02 0. -1.
        2   -1    0    0  501    0  0.00000000000E+00  0.00000000000E+00 -0.95790742376E+03  0.95790742376E+03  0.25500000920E-02 0.  1.
    10030    2    1    2    0    0  0.00000000000E+00  0.00000000000E+00 -0.15570042612E+02  0.19002448049E+04  0.19001810157E+04 0.  0.
        2    1    3    3  502    0  0.76895596824E+02 -0.13494466583E+03 -0.94512592212E+03  0.95780269593E+03  0.25500000920E-02 0.  1.
       -2    1    3    3    0  502 -0.76895596824E+02  0.13494466583E+03  0.92955587951E+03  0.94244210898E+03  0.25500000920E-02 0. -1.
</event>
<event>
 5   0  0.3495279E-06  0.1900095E+04  0.7818609E-02  0.8654809E-01
       -1   -1    0    0    0  501  0.00000000000E+00  0.00000000000E+00  0.68480914595E+03  0.68480914597E+03  0.50400001928E-02 0.  1.
        1   -1    0    0  501    0  0.00000000000E+00  0.00000000000E+00 -0.13180168604E+04  0.13180168604E+04  0.50400001928E-02 0. -1.
    10030    2    1    2    0    0  0.00000000000E+00  0.00000000000E+00 -0.63320771448E+03  0.20028260064E+04  0.19000947351E+04 0.  0.
        2    1    3    3  502    0  0.57851367895E+03 -0.66961861391E+03  0.47808765285E+02  0.88620135571E+03  0.25500000920E-02 0.  1.
       -2    1    3    3    0  502 -0.57851367895E+03  0.66961861391E+03 -0.68101647977E+03  0.11166246507E+04  0.25500000920E-02 0. -1.
</event>
<event>
 5   0  0.3495279E-06  0.1898428E+04  0.7818609E-02  0.8655639E-01
       -1   -1    0    0    0  501  0.00000000000E+00  0.00000000000E+00  0.80698981783E+03  0.80698981785E+03  0.50400001928E-02 0. -1.
        1   -1    0    0  501    0  0.00000000000E+00  0.00000000000E+00 -0.11165040932E+04  0.11165040932E+04  0.50400001928E-02 0.  1.
    10030    2    1    2    0    0  0.00000000000E+00  0.00000000000E+00 -0.30951427539E+03  0.19234939111E+04  0.18984282286E+04 0.  0.
        2    1    3    3  502    0  0.88389621077E+03  0.52879435197E+02 -0.50123520063E+03  0.10174996179E+04  0.25500000920E-02 0.  1.
       -2    1    3    3    0  502 -0.88389621077E+03 -0.52879435197E+02  0.19172092525E+03  0.90599429317E+03  0.25500000920E-02 0. -1.
</event>
<event>
 5   0  0.6870370E-06  0.1899719E+04  0.7818609E-02  0.8654996E-01
       -2   -1    0    0    0  501  0.00000000000E+00  0.00000000000E+00  0.41381688205E+03  0.41381688206E+03  0.25500000920E-02 0.  1.
        2   -1    0    0  501    0  0.00000000000E+00  0.00000000000E+00 -0.21802707027E+04  0.21802707027E+04  0.25500000920E-02 0. -1.
    10030    2    1    2    0    0  0.00000000000E+00  0.00000000000E+00 -0.17664538206E+04  0.25940875847E+04  0.18997187415E+04 0.  0.
        1    1    3    3  502    0  0.21939865354E+02 -0.83145224945E+03 -0.15096360043E+04  0.17235994506E+04  0.50400001928E-02 0. -1.
       -1    1    3    3    0  502 -0.21939865354E+02  0.83145224945E+03 -0.25681781638E+03  0.87048813412E+03  0.50400001928E-02 0.  1.
</event>
<event>
 5   0  0.3398807E-06  0.1899762E+04  0.7818609E-02  0.8654975E-01
       -1   -1    0    0    0  501  0.00000000000E+00  0.00000000000E+00  0.52524087277E+03  0.52524087280E+03  0.50400001928E-02 0. -1.
        1   -1    0    0  501    0  0.00000000000E+00  0.00000000000E+00 -0.17178288788E+04  0.17178288788E+04  0.50400001928E-02 0.  1.
    10030    2    1    2    0    0  0.00000000000E+00  0.00000000000E+00 -0.11925880060E+04  0.22430697516E+04  0.18997620268E+04 0.  0.
        1    1    3    3  502    0  0.11954376306E+03  0.22574777418E+03 -0.16765129676E+04  0.16958621700E+04  0.50400001928E-02 0.  1.
       -1    1    3    3    0  502 -0.11954376306E+03 -0.22574777418E+03  0.48392496165E+03  0.54720758160E+03  0.50400001928E-02 0. -1.
</event>
<event>
 5   0  0.3211263E-06  0.1899372E+04  0.7818609E-02  0.8655169E-01
       -1   -1    0    0    0  501  0.00000000000E+00  0.00000000000E+00  0.11650976467E+04  0.11650976467E+04  0.50400001928E-02 0. -1.
        1   -1    0    0  501    0  0.00000000000E+00  0.00000000000E+00 -0.77410142604E+03  0.77410142606E+03  0.50400001928E-02 0.  1.
    10030    2    1    2    0    0  0.00000000000E+00  0.00000000000E+00  0.39099622066E+03  0.19391990728E+04  0.18993722645E+04 0.  0.
        5    1    3    3  502    0 -0.33421573921E+03  0.49569925978E+03 -0.55785187689E+03  0.81770332213E+03  0.46999998093E+01 0.  1.
       -5    1    3    3    0  502  0.33421573921E+03 -0.49569925978E+03  0.94884809755E+03  0.11214957506E+04  0.46999998093E+01 0. -1.
</event>
<event>
 5   0  0.3398807E-06  0.1900348E+04  0.7818609E-02  0.8654683E-01
       -1   -1    0    0    0  501  0.00000000000E+00  0.00000000000E+00  0.88162789631E+03  0.88162789632E+03  0.50400001928E-02 0. -1.
        1   -1    0    0  501    0  0.00000000000E+00  0.00000000000E+00 -0.10240492577E+04  0.10240492577E+04  0.50400001928E-02 0.  1.
    10030    2    1    2    0    0  0.00000000000E+00  0.00000000000E+00 -0.14242136139E+03  0.19056771540E+04  0.19003477501E+04 0.  0.
        1    1    3    3  502    0 -0.11738699425E+03  0.66767356173E+03  0.59643622555E+03  0.90294178253E+03  0.50400001928E-02 0. -1.
       -1    1    3    3    0  502  0.11738699425E+03 -0.66767356173E+03 -0.73885758694E+03  0.10027353715E+04  0.50400001928E-02 0.  1.
</event>
<event>
 5   0  0.3236653E-06  0.1901043E+04  0.7818609E-02  0.8654337E-01
        1   -1    0    0  501    0  0.00000000000E+00  0.00000000000E+00  0.10909275192E+04  0.10909275192E+04  0.50400001928E-02 0.  1.
       -1   -1    0    0    0  501  0.00000000000E+00  0.00000000000E+00 -0.82818648819E+03  0.82818648820E+03  0.50400001928E-02 0. -1.
    10030    2    1    2    0    0  0.00000000000E+00  0.00000000000E+00  0.26274103104E+03  0.19191140074E+04  0.19010433252E+04 0.  0.
        3    1    3    3  502    0 -0.62345651675E+03 -0.96610224309E+02 -0.58634460494E+03  0.86129644702E+03  0.10100000352E+00 0. -1.
       -3    1    3    3    0  502  0.62345651675E+03  0.96610224309E+02  0.84908563598E+03  0.10578175604E+04  0.10100000352E+00 0.  1.
</event>
<event>
 5   0  0.6862201E-06  0.1900980E+04  0.7818609E-02  0.8654369E-01
        2   -1    0    0  501    0  0.00000000000E+00  0.00000000000E+00  0.11181333961E+04  0.11181333961E+04  0.25500000920E-02 0.  1.
       -2   -1    0    0    0  501  0.00000000000E+00  0.00000000000E+00 -0.80798160925E+03  0.80798160925E+03  0.25500000920E-02 0. -1.
    10030    2    1    2    0    0  0.00000000000E+00  0.00000000000E+00  0.31015178682E+03  0.19261150053E+04  0.19009799796E+04 0.  0.
        3    1    3    3  502    0 -0.92528667741E+03  0.10765719284E+03  0.34648024429E+03  0.99387830062E+03  0.10100000352E+00 0.  1.
       -3    1    3    3    0  502  0.92528667741E+03 -0.10765719284E+03 -0.36328457473E+02  0.93223670470E+03  0.10100000352E+00 0. -1.
</event>
<event>
 5   0  0.6870370E-06  0.1902627E+04  0.7818609E-02  0.8653550E-01
       -2   -1    0    0    0  501  0.00000000000E+00  0.00000000000E+00  0.74761113023E+03  0.74761113023E+03  0.25500000920E-02 0.  1.
        2   -1    0    0  501    0  0.00000000000E+00  0.00000000000E+00 -0.12105182581E+04  0.12105182581E+04  0.25500000920E-02 0. -1.
    10030    2    1    2    0    0  0.00000000000E+00  0.00000000000E+00 -0.46290712787E+03  0.19581293883E+04  0.19026265247E+04 0.  0.
        1    1    3    3  502    0  0.90836236701E+03  0.27479071916E+03 -0.29944742621E+03  0.99513862865E+03  0.50400001928E-02 0.  1.
       -1    1    3    3    0  502 -0.90836236701E+03 -0.27479071916E+03 -0.16345970166E+03  0.96299075968E+03  0.50400001928E-02 0. -1.
</event>
<event>
 5   0  0.2527750E-06  0.1900483E+04  0.7818609E-02  0.8654616E-01
       -3   -1    0    0    0  501  0.00000000000E+00  0.00000000000E+00  0.95949011392E+03  0.95949011924E+03  0.10100000352E+00 0.  1.
        3   -1    0    0  501    0  0.00000000000E+00  0.00000000000E+00 -0.94108160882E+03  0.94108161424E+03  0.10100000352E+00 0. -1.
    10030    2    1    2    0    0  0.00000000000E+00  0.00000000000E+00  0.18408505096E+02  0.19005717335E+04  0.19004825811E+04 0.  0.
        4    1    3    3  502    0  0.93489404190E+03  0.45950243739E+02  0.17297579793E+03  0.95187212064E+03  0.12699999809E+01 0.  1.
       -4    1    3    3    0  502 -0.93489404190E+03 -0.45950243739E+02 -0.15456729283E+03  0.94869961284E+03  0.12699999809E+01 0. -1.
</event>
<event>
 5   0  0.7207648E-06  0.1900346E+04  0.7818609E-02  0.8654684E-01
        2   -1    0    0  501    0  0.00000000000E+00  0.00000000000E+00  0.22966625330E+04  0.22966625330E+04  0.25500000920E-02 0.  1.
       -2   -1    0    0    0  501  0.00000000000E+00  0.00000000000E+00 -0.39310459060E+03  0.39310459061E+03  0.25500000920E-02 0. -1.
    10030    2    1    2    0    0  0.00000000000E+00  0.00000000000E+00  0.19035579423E+04  0.26897671236E+04  0.19003458472E+04 0.  0.
        4    1    3    3  502    0 -0.47135351506E+03  0.80458718587E+03  0.12100370457E+04  0.15276537372E+04  0.12699999809E+01 0.  1.
       -4    1    3    3    0  502  0.47135351506E+03 -0.80458718587E+03  0.69352089662E+03  0.11621133864E+04  0.12699999809E+01 0. -1.
</event>
<event>
 5   0  0.3495279E-06  0.1897058E+04  0.7818609E-02  0.8656322E-01
       -1   -1    0    0    0  501  0.00000000000E+00  0.00000000000E+00  0.57622108094E+03  0.57622108096E+03  0.50400001928E-02 0.  1.
        1   -1    0    0  501    0  0.00000000000E+00  0.00000000000E+00 -0.15613923522E+04  0.15613923522E+04  0.50400001928E-02 0. -1.
    10030    2    1    2    0    0  0.00000000000E+00  0.00000000000E+00 -0.98517127125E+03  0.21376134332E+04  0.18970579211E+04 0.  0.
        2    1    3    3  502    0  0.38574210546E+03  0.17376208899E+03  0.46401562324E+03  0.62793370200E+03  0.25500000920E-02 0.  1.
       -2    1    3    3    0  502 -0.38574210546E+03 -0.17376208899E+03 -0.14491868945E+04  0.15096797312E+04  0.25500000920E-02 0. -1.
</event>
<event>
 5   0  0.7577180E-06  0.1900555E+04  0.7818609E-02  0.8654580E-01
       -2   -1    0    0    0  501  0.00000000000E+00  0.00000000000E+00  0.75092874598E+03  0.75092874599E+03  0.25500000920E-02 0.  1.
        2   -1    0    0  501    0  0.00000000000E+00  0.00000000000E+00 -0.12025478572E+04  0.12025478572E+04  0.25500000920E-02 0. -1.
    10030    2    1    2    0    0  0.00000000000E+00  0.00000000000E+00 -0.45161911124E+03  0.19534766032E+04  0.19005554498E+04 0.  0.
        5    1    3    3  502    0 -0.20420304695E+03 -0.27994790726E+03  0.68366548818E+03  0.76647916141E+03  0.46999998093E+01 0.  1.
       -5    1    3    3    0  502  0.20420304695E+03  0.27994790726E+03 -0.11352845994E+04  0.11869974418E+04  0.46999998093E+01 0. -1.
</event>
<event>
 5   0  0.7577180E-06  0.1898834E+04  0.7818609E-02  0.8655437E-01
       -2   -1    0    0    0  501  0.00000000000E+00  0.00000000000E+00  0.30499231624E+03  0.30499231625E+03  0.25500000920E-02 0.  1.
        2   -1    0    0  501    0  0.00000000000E+00  0.00000000000E+00 -0.29554605591E+04  0.29554605591E+04  0.25500000920E-02 0. -1.
    10030    2    1    2    0    0  0.00000000000E+00  0.00000000000E+00 -0.26504682429E+04  0.32604528754E+04  0.18988341281E+04 0.  0.
        5    1    3    3  502    0  0.11341185681E+03  0.81063311165E+03 -0.49927977817E+03  0.95879647363E+03  0.46999998093E+01 0.  1.
       -5    1    3    3    0  502 -0.11341185681E+03 -0.81063311165E+03 -0.21511884647E+04  0.23016564017E+04  0.46999998093E+01 0. -1.
</event>
<event>
 5   0  0.6862201E-06  0.1901411E+04  0.7818609E-02  0.8654154E-01
       -2   -1    0    0    0  501  0.00000000000E+00  0.00000000000E+00  0.65343586477E+03  0.65343586478E+03  0.25500000920E-02 0. -1.
        2   -1    0    0  501    0  0.00000000000E+00  0.00000000000E+00 -0.13832135463E+04  0.13832135463E+04  0.25500000920E-02 0.  1.
    10030    2    1    2    0    0  0.00000000000E+00  0.00000000000E+00 -0.72977768154E+03  0.20366494111E+04  0.19014114124E+04 0.  0.
        3    1    3    3  502    0 -0.12687003390E+03 -0.55011859676E+03 -0.11842223957E+04  0.13119105033E+04  0.10100000352E+00 0.  1.
       -3    1    3    3    0  502  0.12687003390E+03  0.55011859676E+03  0.45444471417E+03  0.72473890778E+03  0.10100000352E+00 0. -1.
</event>
<event>
 5   0  0.7577180E-06  0.1899838E+04  0.7818609E-02  0.8654937E-01
       -2   -1    0    0    0  501  0.00000000000E+00  0.00000000000E+00  0.52522515828E+03  0.52522515828E+03  0.25500000920E-02 0. -1.
        2   -1    0    0  501    0  0.00000000000E+00  0.00000000000E+00 -0.17180178630E+04  0.17180178630E+04  0.25500000920E-02 0.  1.
    10030    2    1    2    0    0  0.00000000000E+00  0.00000000000E+00 -0.11927927047E+04  0.22432430213E+04  0.18998381026E+04 0.  0.
        5    1    3    3  502    0  0.71649808765E+03 -0.45798371251E+03 -0.10962414391E+04  0.13874025996E+04  0.46999998093E+01 0.  1.
       -5    1    3    3    0  502 -0.71649808765E+03  0.45798371251E+03 -0.96551265629E+02  0.85584042171E+03  0.46999998093E+01 0. -1.
</event>
<event>
 5   0  0.6984466E-06  0.1900614E+04  0.7818609E-02  0.8654551E-01
       -2   -1    0    0    0  501  0.00000000000E+00  0.00000000000E+00  0.36664068490E+03  0.36664068491E+03  0.25500000920E-02 0. -1.
        2   -1    0    0  501    0  0.00000000000E+00  0.00000000000E+00 -0.24631303360E+04  0.24631303360E+04  0.25500000920E-02 0.  1.
    10030    2    1    2    0    0  0.00000000000E+00  0.00000000000E+00 -0.20964896511E+04  0.28297710209E+04  0.19006144200E+04 0.  0.
        2    1    3    3  502    0 -0.82753890792E+03 -0.35453295714E+03 -0.15012376345E+04  0.17504938438E+04  0.25500000920E-02 0.  1.
       -2    1    3    3    0  502  0.82753890792E+03  0.35453295714E+03 -0.59525201657E+03  0.10792771771E+04  0.25500000920E-02 0. -1.
</event>
<event>
 5   0  0.7577180E-06  0.1897978E+04  0.7818609E-02  0.8655864E-01
       -2   -1    0    0    0  501  0.00000000000E+00  0.00000000000E+00  0.11766730397E+04  0.11766730397E+04  0.25500000920E-02 0. -1.
        2   -1    0    0  501    0  0.00000000000E+00  0.00000000000E+00 -0.76536136344E+03  0.76536136344E+03  0.25500000920E-02 0.  1.
    10030    2    1    2    0    0  0.00000000000E+00  0.00000000000E+00  0.41131167630E+03  0.19420344032E+04  0.18979779577E+04 0.  0.
        5    1    3    3  502    0  0.61579299512E+02  0.34292938861E+03  0.11088488916E+04  0.11623082767E+04  0.46999998093E+01 0. -1.
       -5    1    3    3    0  502 -0.61579299512E+02 -0.34292938861E+03 -0.69753721526E+03  0.77972612652E+03  0.46999998093E+01 0.  1.
</event>
<event>
 5   0  0.6984466E-06  0.1901475E+04  0.7818609E-02  0.8654123E-01
        2   -1    0    0  501    0  0.00000000000E+00  0.00000000000E+00  0.70907714977E+03  0.70907714977E+03  0.25500000920E-02 0.  1.
       -2   -1    0    0    0  501  0.00000000000E+00  0.00000000000E+00 -0.12747576824E+04  0.12747576824E+04  0.25500000920E-02 0. -1.
    10030    2    1    2    0    0  0.00000000000E+00  0.00000000000E+00 -0.56568053267E+03  0.19838348322E+04  0.19014747373E+04 0.  0.
        2    1    3    3  502    0  0.42392591625E+03  0.32862830087E+03 -0.11018195370E+04  0.12254452394E+04  0.25500000920E-02 0. -1.
       -2    1    3    3    0  502 -0.42392591625E+03 -0.32862830087E+03  0.53613900431E+03  0.75838959285E+03  0.25500000920E-02 0.  1.
</event>
<event>
 5   0  0.7207648E-06  0.1901058E+04  0.7818609E-02  0.8654330E-01
       -2   -1    0    0    0  501  0.00000000000E+00  0.00000000000E+00  0.96883036585E+03  0.96883036586E+03  0.25500000920E-02 0.  1.
        2   -1    0    0  501    0  0.00000000000E+00  0.00000000000E+00 -0.93257382704E+03  0.93257382704E+03  0.25500000920E-02 0. -1.
    10030    2    1    2    0    0  0.00000000000E+00  0.00000000000E+00  0.36256538812E+02  0.19014041929E+04  0.19010584863E+04 0.  0.
        4    1    3    3  502    0 -0.19712309355E+03  0.92215148300E+03 -0.10140646550E+03  0.94842277269E+03  0.12699999809E+01 0.  1.
       -4    1    3    3    0  502  0.19712309355E+03 -0.92215148300E+03  0.13766300431E+03  0.95298142021E+03  0.12699999809E+01 0. -1.
</event>
<event>
 5   0  0.6870370E-06  0.1899807E+04  0.7818609E-02  0.8654952E-01
       -2   -1    0    0    0  501  0.00000000000E+00  0.00000000000E+00  0.59691180374E+03  0.59691180375E+03  0.25500000920E-02 0.  1.
        2   -1    0    0  501    0  0.00000000000E+00  0.00000000000E+00 -0.15116420277E+04  0.15116420277E+04  0.25500000920E-02 0. -1.
    10030    2    1    2    0    0  0.00000000000E+00  0.00000000000E+00 -0.91473022394E+03  0.21085538314E+04  0.18998073264E+04 0.  0.
        1    1    3    3  502    0  0.82590982854E+03 -0.44358975064E+03 -0.62720925289E+03  0.11279584916E+04  0.50400001928E-02 0. -1.
       -1    1    3    3    0  502 -0.82590982854E+03  0.44358975064E+03 -0.28752097105E+03  0.98059533987E+03  0.50400001928E-02 0.  1.
</event>
<event>
 5   0  0.3398807E-06  0.1899227E+04  0.7818609E-02  0.8655241E-01
       -1   -1    0    0    0  501  0.00000000000E+00  0.00000000000E+00  0.35396800492E+03  0.35396800496E+03  0.50400001928E-02 0. -1.
        1   -1    0    0  501    0  0.00000000000E+00  0.00000000000E+00 -0.25475900263E+04  0.25475900263E+04  0.50400001928E-02 0.  1.
    10030    2    1    2    0    0  0.00000000000E+00  0.00000000000E+00 -0.21936220213E+04  0.29015580312E+04  0.18992265363E+04 0.  0.
        1    1    3    3  502    0  0.69071338117E+03  0.34807987862E+03 -0.25512771605E+03  0.81445363794E+03  0.50400001928E-02 0. -1.
       -1    1    3    3    0  502 -0.69071338117E+03 -0.34807987862E+03 -0.19384943053E+04  0.20871043933E+04  0.50400001928E-02 0.  1.
</event>
<event>
 5   0  0.3211263E-06  0.1899888E+04  0.7818609E-02  0.8654912E-01
       -1   -1    0    0    0  501  0.00000000000E+00  0.00000000000E+00  0.21295818612E+04  0.21295818612E+04  0.50400001928E-02 0.  1.
        1   -1    0    0  501    0  0.00000000000E+00  0.00000000000E+00 -0.42374230413E+03  0.42374230416E+03  0.50400001928E-02 0. -1.
    10030    2    1    2    0    0  0.00000000000E+00  0.00000000000E+00  0.17058395571E+04  0.25533241654E+04  0.18998883386E+04 0.  0.
        5    1    3    3  502    0 -0.81189062768E+03  0.29237286817E+03  0.31918420520E+03  0.92008093786E+03  0.46999998093E+01 0. -1.
       -5    1    3    3    0  502  0.81189062768E+03 -0.29237286817E+03  0.13866553519E+04  0.16332432275E+04  0.46999998093E+01 0.  1.
</event>
<event>
 5   0  0.3495279E-06  0.1900278E+04  0.7818609E-02  0.8654718E-01
        1   -1    0    0  501    0  0.00000000000E+00  0.00000000000E+00  0.95511977717E+03  0.95511977719E+03  0.50400001928E-02 0. -1.
       -1   -1    0    0    0  501  0.00000000000E+00  0.00000000000E+00 -0.94518447338E+03  0.94518447339E+03  0.50400001928E-02 0.  1.
    10030    2    1    2    0    0  0.00000000000E+00  0.00000000000E+00  0.99353037937E+01  0.19003042506E+04  0.19002782782E+04 0.  0.
        2    1    3    3  502    0  0.22028536155E+03 -0.42337979315E+03  0.82655559304E+03  0.95444760891E+03  0.25500000920E-02 0. -1.
       -2    1    3    3    0  502 -0.22028536155E+03  0.42337979315E+03 -0.81662028925E+03  0.94585664167E+03  0.25500000920E-02 0.  1.
</event>
<event>
 5   0  0.3211263E-06  0.1899530E+04  0.7818609E-02  0.8655090E-01
       -1   -1    0    0    0  501  0.00000000000E+00  0.00000000000E+00  0.69348104772E+03  0.69348104774E+03  0.50400001928E-02 0. -1.
        1   -1    0    0  501    0  0.00000000000E+00  0.00000000000E+00 -0.13007621746E+04  0.13007621746E+04  0.50400001928E-02 0.  1.
    10030    2    1    2    0    0  0.00000000000E+00  0.00000000000E+00 -0.60728112690E+03  0.19942432224E+04  0.18995303796E+04 0.  0.
        5    1    3    3  502    0 -0.28242581278E+03  0.84132113743E+03 -0.65880757906E+03  0.11052760344E+04  0.46999998093E+01 0.  1.
       -5    1    3    3    0  502  0.28242581278E+03 -0.84132113743E+03  0.51526452154E+02  0.88896718797E+03  0.46999998093E+01 0. -1.
</event>
<event>
 5   0  0.6870370E-06  0.1898143E+04  0.7818609E-02  0.8655781E-01
        2   -1    0    0  501    0  0.00000000000E+00  0.00000000000E+00  0.15261019669E+04  0.15261019669E+04  0.25500000920E-02 0. -1.
       -2   -1    0    0    0  501  0.00000000000E+00  0.00000000000E+00 -0.59022041524E+03  0.59022041524E+03  0.25500000920E-02 0.  1.
    10030    2    1    2    0    0  0.00000000000E+00  0.00000000000E+00  0.93588155168E+03  0.21163223822E+04  0.18981428151E+04 0.  0.
        1    1    3    3  502    0 -0.39542944068E+03 -0.37614398719E+02 -0.49308459371E+03  0.63317588561E+03  0.50400001928E-02 0.  1.
       -1    1    3    3    0  502  0.39542944068E+03  0.37614398719E+02  0.14289661454E+04  0.14831464966E+04  0.50400001928E-02 0. -1.
</event>
<event>
 5   0  0.7207648E-06  0.1901229E+04  0.7818609E-02  0.8654245E-01
       -2   -1    0    0    0  501  0.00000000000E+00  0.00000000000E+00  0.88491239184E+03  0.88491239185E+03  0.25500000920E-02 0. -1.
        2   -1    0    0  501    0  0.00000000000E+00  0.00000000000E+00 -0.10211948274E+04  0.10211948274E+04  0.25500000920E-02 0.  1.
    10030    2    1    2    0    0  0.00000000000E+00  0.00000000000E+00 -0.13628243554E+03  0.19061072192E+04  0.19012290312E+04 0.  0.
        4    1    3    3  502    0 -0.28895863330E+03  0.98143742835E+02  0.83446709087E+03  0.88851911890E+03  0.12699999809E+01 0. -1.
       -4    1    3    3    0  502  0.28895863330E+03 -0.98143742835E+02 -0.97074952640E+03  0.10175881003E+04  0.12699999809E+01 0.  1.
</event>
<event>
 5   0  0.3379108E-06  0.1901029E+04  0.7818609E-02  0.8654345E-01
        1   -1    0    0  501    0  0.00000000000E+00  0.00000000000E+00  0.10113861562E+04  0.10113861562E+04  0.50400001928E-02 0.  1.
       -1   -1    0    0    0  501  0.00000000000E+00  0.00000000000E+00 -0.89330612230E+03  0.89330612231E+03  0.50400001928E-02 0. -1.
    10030    2    1    2    0    0  0.00000000000E+00  0.00000000000E+00  0.11808003386E+03  0.19046922785E+04  0.19010286114E+04 0.  0.
        4    1    3    3  502    0 -0.33817238308E+03  0.65929125645E+03  0.65554468786E+03  0.98932601916E+03  0.12699999809E+01 0.  1.
       -4    1    3    3    0  502  0.33817238308E+03 -0.65929125645E+03 -0.53746465400E+03  0.91536625932E+03  0.12699999809E+01 0. -1.
</event>
<event>
 5   0  0.3495279E-06  0.1899701E+04  0.7818609E-02  0.8655005E-01
        1   -1    0    0  501    0  0.00000000000E+00  0.00000000000E+00  0.19570369856E+04  0.19570369856E+04  0.50400001928E-02 0.  1.
       -1   -1    0    0    0  501  0.00000000000E+00  0.00000000000E+00 -0.46101096341E+03  0.46101096344E+03  0.50400001928E-02 0. -1.
    10030    2    1    2    0    0  0.00000000000E+00  0.00000000000E+00  0.14960260222E+04  0.24180479490E+04  0.18997005092E+04 0.  0.
        2    1    3    3  502    0 -0.62686074043E+03 -0.47060243081E+03  0.65169806192E+02  0.78655460041E+03  0.25500000920E-02 0. -1.
       -2    1    3    3    0  502  0.62686074043E+03  0.47060243081E+03  0.14308562160E+04  0.16314933486E+04  0.25500000920E-02 0.  1.
</event>
<event>
 5   0  0.3495279E-06  0.1899082E+04  0.7818609E-02  0.8655313E-01
        1   -1    0    0  501    0  0.00000000000E+00  0.00000000000E+00  0.18178446925E+04  0.18178446925E+04  0.50400001928E-02 0.  1.
       -1   -1    0    0    0  501  0.00000000000E+00  0.00000000000E+00 -0.49598749107E+03  0.49598749109E+03  0.50400001928E-02 0. -1.
    10030    2    1    2    0    0  0.00000000000E+00  0.00000000000E+00  0.13218572014E+04  0.23138321836E+04  0.18990821238E+04 0.  0.
        2    1    3    3  502    0  0.51665754317E+03  0.54620530967E+03  0.13675483084E+04  0.15605972040E+04  0.25500000920E-02 0.  1.
       -2    1    3    3    0  502 -0.51665754317E+03 -0.54620530967E+03 -0.45691106992E+02  0.75323497960E+03  0.25500000920E-02 0. -1.
</event>
<event>
 5   0  0.6984466E-06  0.1900367E+04  0.7818609E-02  0.8654674E-01
       -2   -1    0    0    0  501  0.00000000000E+00  0.00000000000E+00  0.18510383487E+04  0.18510383487E+04  0.25500000920E-02 0.  1.
        2   -1    0    0  501    0  0.00000000000E+00  0.00000000000E+00 -0.48775250351E+03  0.48775250351E+03  0.25500000920E-02 0. -1.
    10030    2    1    2    0    0  0.00000000000E+00  0.00000000000E+00  0.13632858452E+04  0.23387908522E+04  0.19003669000E+04 0.  0.
        2    1    3    3  502    0  0.88997210959E+03  0.12143173327E+03  0.10630672745E+04  0.13917284404E+04  0.25500000920E-02 0.  1.
       -2    1    3    3    0  502 -0.88997210959E+03 -0.12143173327E+03  0.30021857072E+03  0.94706241183E+03  0.25500000920E-02 0. -1.
</event>
<event>
 5   0  0.3398807E-06  0.1900007E+04  0.7818609E-02  0.8654853E-01
        1   -1    0    0  501    0  0.00000000000E+00  0.00000000000E+00  0.62049033280E+03  0.62049033282E+03  0.50400001928E-02 0.  1.
       -1   -1    0    0    0  501  0.00000000000E+00  0.00000000000E+00 -0.14545053741E+04  0.14545053741E+04  0.50400001928E-02 0. -1.
    10030    2    1    2    0    0  0.00000000000E+00  0.00000000000E+00 -0.83401504133E+03  0.20749957070E+04  0.19000068670E+04 0.  0.
        1    1    3    3  502    0  0.49394309931E+03  0.60068780999E+03  0.17886327518E+03  0.79799605366E+03  0.50400001928E-02 0.  1.
       -1    1    3    3    0  502 -0.49394309931E+03 -0.60068780999E+03 -0.10128783165E+04  0.12769996533E+04  0.50400001928E-02 0. -1.
</event>
<event>
 5   0  0.3379108E-06  0.1900481E+04  0.7818609E-02  0.8654617E-01
        1   -1    0    0  501    0  0.00000000000E+00  0.00000000000E+00  0.17045447533E+04  0.17045447533E+04  0.50400001928E-02 0.  1.
       -1   -1    0    0    0  501  0.00000000000E+00  0.00000000000E+00 -0.52973514560E+03  0.52973514563E+03  0.50400001928E-02 0. -1.
    10030    2    1    2    0    0  0.00000000000E+00  0.00000000000E+00  0.11748096077E+04  0.22342798990E+04  0.19004812686E+04 0.  0.
        4    1    3    3  502    0 -0.76943621647E+03 -0.28203922595E+02 -0.67298515007E+02  0.77288954935E+03  0.12699999809E+01 0. -1.
       -4    1    3    3    0  502  0.76943621647E+03  0.28203922595E+02  0.12421081227E+04  0.14613903496E+04  0.12699999809E+01 0.  1.
</event>
<event>
 5   0  0.3236653E-06  0.1900335E+04  0.7818609E-02  0.8654690E-01
        1   -1    0    0  501    0  0.00000000000E+00  0.00000000000E+00  0.12393603115E+04  0.12393603115E+04  0.50400001928E-02 0.  1.
       -1   -1    0    0    0  501  0.00000000000E+00  0.00000000000E+00 -0.72845493231E+03  0.72845493233E+03  0.50400001928E-02 0. -1.
    10030    2    1    2    0    0  0.00000000000E+00  0.00000000000E+00  0.51090537922E+03  0.19678152439E+04  0.19003348462E+04 0.  0.
        3    1    3    3  502    0  0.37895285377E+03 -0.12654767382E+03  0.11481549063E+04  0.12156805823E+04  0.10100000352E+00 0.  1.
       -3    1    3    3    0  502 -0.37895285377E+03  0.12654767382E+03 -0.63724952709E+03  0.75213466156E+03  0.10100000352E+00 0. -1.
</event>
<event>
 5   0  0.3379108E-06  0.1903826E+04  0.7818609E-02  0.8652954E-01
       -1   -1    0    0    0  501  0.00000000000E+00  0.00000000000E+00  0.80989912423E+03  0.80989912425E+03  0.50400001928E-02 0.  1.
        1   -1    0    0  501    0  0.00000000000E+00  0.00000000000E+00 -0.11188284010E+04  0.11188284010E+04  0.50400001928E-02 0. -1.
    10030    2    1    2    0    0  0.00000000000E+00  0.00000000000E+00 -0.30892927678E+03  0.19287275253E+04  0.19038257716E+04 0.  0.
        4    1    3    3  502    0  0.94251512612E+03 -0.13098296581E+03 -0.18019824210E+03  0.96848558051E+03  0.12699999809E+01 0.  1.
       -4    1    3    3    0  502 -0.94251512612E+03  0.13098296581E+03 -0.12873103468E+03  0.96024194477E+03  0.12699999809E+01 0. -1.
</event>
<event>
 5   0  0.7207648E-06  0.1900358E+04  0.7818609E-02  0.8654678E-01
       -2   -1    0    0    0  501  0.00000000000E+00  0.00000000000E+00  0.72164339318E+03  0.72164339319E+03  0.25500000920E-02 0.  1.
        2   -1    0    0  501    0  0.00000000000E+00  0.00000000000E+00 -0.12510895208E+04  0.12510895208E+04  0.25500000920E-02 0. -1.
    10030    2    1    2    0    0  0.00000000000E+00  0.00000000000E+00 -0.52944612765E+03  0.19727329140E+04  0.19003583736E+04 0.  0.
        4    1    3    3  502    0  0.23514092747E+03 -0.36913372733E+03 -0.11402217428E+04  0.12213345979E+04  0.12699999809E+01 0. -1.
       -4    1    3    3    0  502 -0.23514092747E+03  0.36913372733E+03  0.61077561517E+03  0.75139831608E+03  0.12699999809E+01 0.  1.
</event>
<event>
 5   0  0.6984466E-06  0.1899023E+04  0.7818609E-02  0.8655343E-01
       -2   -1    0    0    0  501  0.00000000000E+00  0.00000000000E+00  0.10853420669E+04  0.10853420669E+04  0.25500000920E-02 0.  1.
        2   -1    0    0  501    0  0.00000000000E+00  0.00000000000E+00 -0.83068023878E+03  0.83068023879E+03  0.25500000920E-02 0. -1.
    10030    2    1    2    0    0  0.00000000000E+00  0.00000000000E+00  0.25466182809E+03  0.19160223057E+04  0.18990231250E+04 0.  0.
        2    1    3    3  502    0  0.38871894241E+03 -0.70323692594E+03 -0.38309049712E+03  0.89017016305E+03  0.25500000920E-02 0. -1.
       -2    1    3    3    0  502 -0.38871894241E+03  0.70323692594E+03  0.63775232520E+03  0.10258521426E+04  0.25500000920E-02 0.  1.
</event>
<event>
 5   0  0.7577180E-06  0.1900407E+04  0.7818609E-02  0.8654654E-01
       -2   -1    0    0    0  501  0.00000000000E+00  0.00000000000E+00  0.90561887798E+03  0.90561887798E+03  0.25500000920E-02 0. -1.
        2   -1    0    0  501    0  0.00000000000E+00  0.00000000000E+00 -0.99698343250E+03  0.99698343250E+03  0.25500000920E-02 0.  1.
    10030    2    1    2    0    0  0.00000000000E+00  0.00000000000E+00 -0.91364554522E+02  0.19026023105E+04  0.19004073432E+04 0.  0.
        5    1    3    3  502    0  0.81622050603E+03 -0.43259187538E+03 -0.26845508520E+03  0.96199889183E+03  0.46999998093E+01 0. -1.
       -5    1    3    3    0  502 -0.81622050603E+03  0.43259187538E+03  0.17709053067E+03  0.94060341865E+03  0.46999998093E+01 0.  1.
</event>
<event>
 5   0  0.6862201E-06  0.1906552E+04  0.7818609E-02  0.8651602E-01
       -2   -1    0    0    0  501  0.00000000000E+00  0.00000000000E+00  0.11662302339E+04  0.11662302339E+04  0.25500000920E-02 0. -1.
        2   -1    0    0  501    0  0.00000000000E+00  0.00000000000E+00 -0.77920717007E+03  0.77920717007E+03  0.25500000920E-02 0.  1.
    10030    2    1    2    0    0  0.00000000000E+00  0.00000000000E+00  0.38702306379E+03  0.19454374039E+04  0.19065518196E+04 0.  0.
        3    1    3    3  502    0 -0.15855098919E+03  0.62561958240E+02 -0.76353186828E+03  0.78232559645E+03  0.10100000352E+00 0.  1.
       -3    1    3    3    0  502  0.15855098919E+03 -0.62561958240E+02  0.11505549321E+04  0.11631118075E+04  0.10100000352E+00 0. -1.
</event>
<event>
 5   0  0.6870370E-06  0.1900163E+04  0.7818609E-02  0.8654775E-01
       -2   -1    0    0    0  501  0.00000000000E+00  0.00000000000E+00  0.75464752034E+03  0.75464752034E+03  0.25500000920E-02 0. -1.
        2   -1    0    0  501    0  0.00000000000E+00  0.00000000000E+00 -0.11961278126E+04  0.11961278126E+04  0.25500000920E-02 0.  1.
    10030    2    1    2    0    0  0.00000000000E+00  0.00000000000E+00 -0.44148029226E+03  0.19507753329E+04  0.19001630328E+04 0.  0.
        1    1    3    3  502    0 -0.50166730050E+03 -0.38708911347E+03 -0.94751330995E+03  0.11398638229E+04  0.50400001928E-02 0.  1.
       -1    1    3    3    0  502  0.50166730050E+03  0.38708911347E+03  0.50603301769E+03  0.81091151007E+03  0.50400001928E-02 0. -1.
</event>
<event>
 5   0  0.3236653E-06  0.1900302E+04  0.7818609E-02  0.8654706E-01
       -1   -1    0    0    0  501  0.00000000000E+00  0.00000000000E+00  0.45028398477E+03  0.45028398480E+03  0.50400001928E-02 0.  1.
        1   -1    0    0  501    0  0.00000000000E+00  0.00000000000E+00 -0.20049272973E+04  0.20049272973E+04  0.50400001928E-02 0. -1.
    10030    2    1    2    0    0  0.00000000000E+00  0.00000000000E+00 -0.15546433125E+04  0.24552112821E+04  0.19003017157E+04 0.  0.
        3    1    3    3  502    0 -0.41574880781E+03  0.56933317094E+03  0.45720278845E+02  0.70645430484E+03  0.10100000352E+00 0.  1.
       -3    1    3    3    0  502  0.41574880781E+03 -0.56933317094E+03 -0.16003635913E+04  0.17487569772E+04  0.10100000352E+00 0. -1.
</event>
<event>
 5   0  0.3236653E-06  0.1900473E+04  0.7818609E-02  0.8654621E-01
       -1   -1    0    0    0  501  0.00000000000E+00  0.00000000000E+00  0.54966205963E+03  0.54966205965E+03  0.50400001928E-02 0. -1.
        1   -1    0    0  501    0  0.00000000000E+00  0.00000000000E+00 -0.16427359708E+04  0.16427359708E+04  0.50400001928E-02 0.  1.
    10030    2    1    2    0    0  0.00000000000E+00  0.00000000000E+00 -0.10930739112E+04  0.21923980305E+04  0.19004732434E+04 0.  0.
        3    1    3    3  502    0 -0.22753670679E+03  0.92252037837E+03 -0.55983226438E+03  0.11028277181E+04  0.10100000352E+00 0. -1.
       -3    1    3    3    0  502  0.22753670679E+03 -0.92252037837E+03 -0.53324164683E+03  0.10895703124E+04  0.10100000352E+00 0.  1.
</event>
<event>
 5   0  0.7577180E-06  0.1899999E+04  0.7818609E-02  0.8654857E-01
       -2   -1    0    0    0  501  0.00000000000E+00  0.00000000000E+00  0.88837183861E+03  0.88837183862E+03  0.25500000920E-02 0. -1.
        2   -1    0    0  501    0  0.00000000000E+00  0.00000000000E+00 -0.10159021937E+04  0.10159021937E+04  0.25500000920E-02 0.  1.
    10030    2    1    2    0    0  0.00000000000E+00  0.00000000000E+00 -0.12753035506E+03  0.19042740323E+04  0.18999988417E+04 0.  0.
        5    1    3    3  502    0  0.10058760108E+03  0.20973032154E+03 -0.98690887099E+03  0.10139604938E+04  0.46999998093E+01 0.  1.
       -5    1    3    3    0  502 -0.10058760108E+03 -0.20973032154E+03  0.85937851593E+03  0.89031353854E+03  0.46999998093E+01 0. -1.
</event>
<event>
 5   0  0.3379108E-06  0.1899448E+04  0.7818609E-02  0.8655131E-01
        1   -1    0    0  501    0  0.00000000000E+00  0.00000000000E+00  0.77074594853E+03  0.77074594855E+03  0.50400001928E-02 0. -1.
       -1   -1    0    0    0  501  0.00000000000E+00  0.00000000000E+00 -0.11702634215E+04  0.11702634215E+04  0.50400001928E-02 0.  1.
    10030    2    1    2    0    0  0.00000000000E+00  0.00000000000E+00 -0.39951747299E+03  0.19410093701E+04  0.18994481208E+04 0.  0.
        4    1    3    3  502    0  0.82732262502E+03  0.45626878211E+03 -0.29846548579E+03  0.99082147055E+03  0.12699999809E+01 0. -1.
       -4    1    3    3    0  502 -0.82732262502E+03 -0.45626878211E+03 -0.10105198720E+03  0.95018789953E+03  0.12699999809E+01 0.  1.
</event>
<event>
 5   0  0.6870370E-06  0.1901506E+04  0.7818609E-02  0.8654107E-01
       -2   -1    0    0    0  501  0.00000000000E+00  0.00000000000E+00  0.10008985222E+04  0.10008985222E+04  0.25500000920E-02 0.  1.
        2   -1    0    0  501    0  0.00000000000E+00  0.00000000000E+00 -0.90311975498E+03  0.90311975499E+03  0.25500000920E-02 0. -1.
    10030    2    1    2    0    0  0.00000000000E+00  0.00000000000E+00  0.97778767206E+02  0.19040182772E+04  0.19015059591E+04 0.  0.
        1    1    3    3  502    0  0.20443173169E+03  0.81986742097E+03  0.48530499862E+03  0.97442078313E+03  0.50400001928E-02 0. -1.
       -1    1    3    3    0  502 -0.20443173169E+03 -0.81986742097E+03 -0.38752623141E+03  0.92959749405E+03  0.50400001928E-02 0.  1.
</event>
<event>
 5   0  0.6862201E-06  0.1896704E+04  0.7818609E-02  0.8656499E-01
       -2   -1    0    0    0  501  0.00000000000E+00  0.00000000000E+00  0.68442728558E+03  0.68442728558E+03  0.25500000920E-02 0.  1.
        2   -1    0    0  501    0  0.00000000000E+00  0.00000000000E+00 -0.13140492670E+04  0.13140492670E+04  0.25500000920E-02 0. -1.
    10030    2    1    2    0    0  0.00000000000E+00  0.00000000000E+00 -0.62962198139E+03  0.19984765525E+04  0.18967036383E+04 0.  0.
        3    1    3    3  502    0 -0.85828378740E+03 -0.39217505480E+03 -0.21530401933E+03  0.96788850818E+03  0.10100000352E+00 0.  1.
       -3    1    3    3    0  502  0.85828378740E+03  0.39217505480E+03 -0.41431796205E+03  0.10305880444E+04  0.10100000352E+00 0. -1.
</event>
<event>
 5   0  0.3236653E-06  0.1900016E+04  0.7818609E-02  0.8654848E-01
        1   -1    0    0  501    0  0.00000000000E+00  0.00000000000E+00  0.59045786333E+03  0.59045786335E+03  0.50400001928E-02 0.  1.
       -1   -1    0    0    0  501  0.00000000000E+00  0.00000000000E+00 -0.15285003287E+04  0.15285003287E+04  0.50400001928E-02 0. -1.
    10030    2    1    2    0    0  0.00000000000E+00  0.00000000000E+00 -0.93804246535E+03  0.21189581920E+04  0.19000158296E+04 0.  0.
        3    1    3    3  502    0  0.34323362815E+03 -0.77268570223E+03 -0.95214002306E+03  0.12733511502E+04  0.10100000352E+00 0. -1.
       -3    1    3    3    0  502 -0.34323362815E+03  0.77268570223E+03  0.14097557702E+02  0.84560704187E+03  0.10100000352E+00 0.  1.
</event>
<event>
 5   0  0.6862201E-06  0.1900525E+04  0.7818609E-02  0.8654595E-01
       -2   -1    0    0    0  501  0.00000000000E+00  0.00000000000E+00  0.68871818617E+03  0.68871818618E+03  0.25500000920E-02 0. -1.
        2   -1    0    0  501    0  0.00000000000E+00  0.00000000000E+00 -0.13111294014E+04  0.13111294014E+04  0.25500000920E-02 0.  1.
    10030    2    1    2    0    0  0.00000000000E+00  0.00000000000E+00 -0.62241121521E+03  0.19998475876E+04  0.19005248361E+04 0.  0.
        3    1    3    3  502    0  0.63821412588E+03  0.31681585029E+03  0.35038869226E+03  0.79401624626E+03  0.10100000352E+00 0. -1.
       -3    1    3    3    0  502 -0.63821412588E+03 -0.31681585029E+03 -0.97279990747E+03  0.12058313413E+04  0.10100000352E+00 0.  1.
</event>
<event>
 5   0  0.6870370E-06  0.1897495E+04  0.7818609E-02  0.8656104E-01
        2   -1    0    0  501    0  0.00000000000E+00  0.00000000000E+00  0.97743233689E+03  0.97743233690E+03  0.25500000920E-02 0. -1.
       -2   -1    0    0    0  501  0.00000000000E+00  0.00000000000E+00 -0.92090409631E+03  0.92090409631E+03  0.25500000920E-02 0.  1.
    10030    2    1    2    0    0  0.00000000000E+00  0.00000000000E+00  0.56528240586E+02  0.18983364332E+04  0.18974946039E+04 0.  0.
        1    1    3    3  502    0  0.33937445387E+03 -0.58598131538E+03  0.69306801449E+03  0.96896459928E+03  0.50400001928E-02 0. -1.
       -1    1    3    3    0  502 -0.33937445387E+03  0.58598131538E+03 -0.63653977391E+03  0.92937183393E+03  0.50400001928E-02 0.  1.
</event>
<event>
 5   0  0.3495279E-06  0.1904733E+04  0.7818609E-02  0.8652504E-01
        1   -1    0    0  501    0  0.00000000000E+00  0.00000000000E+00  0.18576544608E+04  0.18576544608E+04  0.50400001928E-02 0. -1.
       -1   -1    0    0    0  501  0.00000000000E+00  0.00000000000E+00 -0.48825094151E+03  0.48825094153E+03  0.50400001928E-02 0.  1.
    10030    2    1    2    0    0  0.00000000000E+00  0.00000000000E+00  0.13694035193E+04  0.23459054024E+04  0.19047325687E+04 0.  0.
        2    1    3    3  502    0 -0.89118403712E+03 -0.20408598974E+03  0.10132036518E+04  0.13647130538E+04  0.25500000920E-02 0. -1.
       -2    1    3    3    0  502  0.89118403712E+03  0.20408598974E+03  0.35619986755E+03  0.98119234857E+03  0.25500000920E-02 0.  1.
</event>
<event>
 5   0  0.7207648E-06  0.1901466E+04  0.7818609E-02  0.8654127E-01
        2   -1    0    0  501    0  0.00000000000E+00  0.00000000000E+00  0.11144031178E+04  0.11144031178E+04  0.25500000920E-02 0. -1.
       -2   -1    0    0    0  501  0.00000000000E+00  0.00000000000E+00 -0.81110058867E+03  0.81110058867E+03  0.25500000920E-02 0.  1.
    10030    2    1    2    0    0  0.00000000000E+00  0.00000000000E+00  0.30330252914E+03  0.19255037065E+04  0.19014657766E+04 0.  0.
        4    1    3    3  502    0  0.57220692615E+02 -0.90035919997E+03  0.45539403500E+03  0.10105969704E+04  0.12699999809E+01 0. -1.
       -4    1    3    3    0  502 -0.57220692615E+02  0.90035919997E+03 -0.15209150586E+03  0.91490673606E+03  0.12699999809E+01 0.  1.
</event>
<event>
 5   0  0.6984466E-06  0.1900982E+04  0.7818609E-02  0.8654368E-01
       -2   -1    0    0    0  501  0.00000000000E+00  0.00000000000E+00  0.58704457390E+03  0.58704457391E+03  0.25500000920E-02 0. -1.
        2   -1    0    0  501    0  0.00000000000E+00  0.00000000000E+00 -0.15389520193E+04  0.15389520193E+04  0.25500000920E-02 0.  1.
    10030    2    1    2    0    0  0.00000000000E+00  0.00000000000E+00 -0.95190744543E+03  0.21259965932E+04  0.19009823065E+04 0.  0.
        2    1    3    3  502    0  0.19903409402E+03 -0.32508281439E+03 -0.14497300272E+04  0.14990031884E+04  0.25500000920E-02 0.  1.
       -2    1    3    3    0  502 -0.19903409402E+03  0.32508281439E+03  0.49782258182E+03  0.62699340488E+03  0.25500000920E-02 0. -1.
</event>
<event>
 5   0  0.3236653E-06  0.1899834E+04  0.7818609E-02  0.8654939E-01
       -1   -1    0    0    0  501  0.00000000000E+00  0.00000000000E+00  0.41164590476E+03  0.41164590479E+03  0.50400001928E-02 0.  1.
        1   -1    0    0  501    0  0.00000000000E+00  0.00000000000E+00 -0.21920356319E+04  0.21920356319E+04  0.50400001928E-02 0. -1.
    10030    2    1    2    0    0  0.00000000000E+00  0.00000000000E+00 -0.17803897271E+04  0.26036815367E+04  0.18998341938E+04 0.  0.
        3    1    3    3  502    0  0.13328751359E+03 -0.62291712619E+03 -0.18559214100E+04  0.19622017220E+04  0.10100000352E+00 0. -1.
       -3    1    3    3    0  502 -0.13328751359E+03  0.62291712619E+03  0.75531682874E+02  0.64147981473E+03  0.10100000352E+00 0.  1.
</event>
<event>
 5   0  0.3379108E-06  0.1900536E+04  0.7818609E-02  0.8654590E-01
       -1   -1    0    0    0  501  0.00000000000E+00  0.00000000000E+00  0.79769483919E+03  0.79769483921E+03  0.50400001928E-02 0.  1.
        1   -1    0    0  501    0  0.00000000000E+00  0.00000000000E+00 -0.11320237421E+04  0.11320237421E+04  0.50400001928E-02 0. -1.
    10030    2    1    2    0    0  0.00000000000E+00  0.00000000000E+00 -0.33432890288E+03  0.19297185813E+04  0.19005362369E+04 0.  0.
        4    1    3    3  502    0  0.28630513658E+03  0.21472793129E+02  0.75260138662E+03  0.80550740042E+03  0.12699999809E+01 0.  1.
       -4    1    3    3    0  502 -0.28630513658E+03 -0.21472793129E+02 -0.10869302895E+04  0.11242111809E+04  0.12699999809E+01 0. -1.
</event>
<event>
 5   0  0.3211263E-06  0.1899713E+04  0.7818609E-02  0.8654999E-01
       -1   -1    0    0    0  501  0.00000000000E+00  0.00000000000E+00  0.10139628219E+04  0.10139628219E+04  0.50400001928E-02 0. -1.
        1   -1    0    0  501    0  0.00000000000E+00  0.00000000000E+00 -0.88980315762E+03  0.88980315763E+03  0.50400001928E-02 0.  1.
    10030    2    1    2    0    0  0.00000000000E+00  0.00000000000E+00  0.12415966430E+03  0.19037659796E+04  0.18997129475E+04 0.  0.
        5    1    3    3  502    0 -0.35664475646E+03  0.87458382835E+03  0.16285717670E+03  0.95845547895E+03  0.46999998093E+01 0. -1.
       -5    1    3    3    0  502  0.35664475646E+03 -0.87458382835E+03 -0.38697512398E+02  0.94531050062E+03  0.46999998093E+01 0.  1.
</event>
<event>
 5   0  0.3379108E-06  0.1900078E+04  0.7818609E-02  0.8654817E-01
        1   -1    0    0  501    0  0.00000000000E+00  0.00000000000E+00  0.10467003773E+04  0.10467003773E+04  0.50400001928E-02 0. -1.
       -1   -1    0    0    0  501  0.00000000000E+00  0.00000000000E+00 -0.86230441424E+03  0.86230441425E+03  0.50400001928E-02 0.  1.
    10030    2    1    2    0    0  0.00000000000E+00  0.00000000000E+00  0.18439596301E+03  0.19090047915E+04  0.19000782676E+04 0.  0.
        4    1    3    3  502    0  0.47970155166E+03  0.77996883853E+03  0.34658261881E+03  0.97907409950E+03  0.12699999809E+01 0. -1.
       -4    1    3    3    0  502 -0.47970155166E+03 -0.77996883853E+03 -0.16218665580E+03  0.92993069202E+03  0.12699999809E+01 0.  1.
</event>
<event>
 5   0  0.3398807E-06  0.1900035E+04  0.7818609E-02  0.8654839E-01
        1   -1    0    0  501    0  0.00000000000E+00  0.00000000000E+00  0.12875310450E+04  0.12875310450E+04  0.50400001928E-02 0. -1.
       -1   -1    0    0    0  501  0.00000000000E+00  0.00000000000E+00 -0.70098014308E+03  0.70098014310E+03  0.50400001928E-02 0.  1.
    10030    2    1    2    0    0  0.00000000000E+00  0.00000000000E+00  0.58655090193E+03  0.19885111881E+04  0.19000354693E+04 0.  0.
        1    1    3    3  502    0  0.37295415109E+03 -0.43446814854E+03  0.10866494868E+04  0.12282770364E+04  0.50400001928E-02 0. -1.
       -1    1    3    3    0  502 -0.37295415109E+03  0.43446814854E+03 -0.50009858485E+03  0.76023415176E+03  0.50400001928E-02 0.  1.
</event>
<event>
 5   0  0.7577180E-06  0.1900211E+04  0.7818609E-02  0.8654751E-01
       -2   -1    0    0    0  501  0.00000000000E+00  0.00000000000E+00  0.98835938633E+03  0.98835938633E+03  0.25500000920E-02 0. -1.
        2   -1    0    0  501    0  0.00000000000E+00  0.00000000000E+00 -0.91333200488E+03  0.91333200488E+03  0.25500000920E-02 0.  1.
    10030    2    1    2    0    0  0.00000000000E+00  0.00000000000E+00  0.75027381445E+02  0.19016913912E+04  0.19002107882E+04 0.  0.
        5    1    3    3  502    0  0.68727045104E+03  0.64420805173E+03  0.16143861728E+03  0.95573490254E+03  0.46999998093E+01 0. -1.
       -5    1    3    3    0  502 -0.68727045104E+03 -0.64420805173E+03 -0.86411235834E+02  0.94595648867E+03  0.46999998093E+01 0.  1.
</event>
<event>
 5   0  0.3379108E-06  0.1899790E+04  0.7818609E-02  0.8654961E-01
        1   -1    0    0  501    0  0.00000000000E+00  0.00000000000E+00  0.17238420073E+04  0.17238420073E+04  0.50400001928E-02 0. -1.
       -1   -1    0    0    0  501  0.00000000000E+00  0.00000000000E+00 -0.52342423921E+03  0.52342423923E+03  0.50400001928E-02 0.  1.
    10030    2    1    2    0    0  0.00000000000E+00  0.00000000000E+00  0.12004177681E+04  0.22472662465E+04  0.18997901897E+04 0.  0.
        4    1    3    3  502    0  0.13522787965E+03 -0.81226395667E+03  0.40057773207E+02  0.82441831180E+03  0.12699999809E+01 0.  1.
       -4    1    3    3    0  502 -0.13522787965E+03  0.81226395667E+03  0.11603599949E+04  0.14228479347E+04  0.12699999809E+01 0. -1.
</event>
<event>
 5   0  0.2527750E-06  0.1899946E+04  0.7818609E-02  0.8654883E-01
        4   -1    0    0  501    0  0.00000000000E+00  0.00000000000E+00  0.93071680096E+03  0.93071766745E+03  0.12699999809E+01 0. -1.
       -4   -1    0    0    0  501  0.00000000000E+00  0.00000000000E+00 -0.96962554268E+03  0.96962637439E+03  0.12699999809E+01 0.  1.
    10030    2    1    2    0    0  0.00000000000E+00  0.00000000000E+00 -0.38908741715E+02  0.19003440418E+04  0.18999456801E+04 0.  0.
        5    1    3    3  502    0  0.19773515873E+03 -0.48251979546E+03 -0.81366226759E+03  0.96643309220E+03  0.46999998093E+01 0.  1.
       -5    1    3    3    0  502 -0.19773515873E+03  0.48251979546E+03  0.77475352587E+03  0.93391094964E+03  0.46999998093E+01 0. -1.
</event>
<event>
 5   0  0.6862201E-06  0.1900977E+04  0.7818609E-02  0.8654370E-01
       -2   -1    0    0    0  501  0.00000000000E+00  0.00000000000E+00  0.68708961822E+03  0.68708961822E+03  0.25500000920E-02 0. -1.
        2   -1    0    0  501    0  0.00000000000E+00  0.00000000000E+00 -0.13148629505E+04  0.13148629505E+04  0.25500000920E-02 0.  1.
    10030    2    1    2    0    0  0.00000000000E+00  0.00000000000E+00 -0.62777333232E+03  0.20019525688E+04  0.19009773094E+04 0.  0.
        3    1    3    3  502    0 -0.41797080191E+03 -0.72846046221E+03 -0.78258246957E+03  0.11479501593E+04  0.10100000352E+00 0.  1.
       -3    1    3    3    0  502  0.41797080191E+03  0.72846046221E+03  0.15480913726E+03  0.85400240950E+03  0.10100000352E+00 0. -1.
</event>
<event>
 5   0  0.6862201E-06  0.1900150E+04  0.7818609E-02  0.8654782E-01
        2   -1    0    0  501    0  0.00000000000E+00  0.00000000000E+00  0.86576110331E+03  0.86576110331E+03  0.25500000920E-02 0.  1.
       -2   -1    0    0    0  501  0.00000000000E+00  0.00000000000E+00 -0.10426000722E+04  0.10426000722E+04  0.25500000920E-02 0. -1.
    10030    2    1    2    0    0  0.00000000000E+00  0.00000000000E+00 -0.17683896890E+03  0.19083611755E+04  0.19001500876E+04 0.  0.
        3    1    3    3  502    0  0.69426305669E+03 -0.54697245201E+03  0.26160128594E+03  0.92174578825E+03  0.10100000352E+00 0.  1.
       -3    1    3    3    0  502 -0.69426305669E+03  0.54697245201E+03 -0.43844025484E+03  0.98661538727E+03  0.10100000352E+00 0. -1.
</event>
<event>
 5   0  0.3211263E-06  0.1902514E+04  0.7818609E-02  0.8653606E-01
       -1   -1    0    0    0  501  0.00000000000E+00  0.00000000000E+00  0.44541534570E+03  0.44541534573E+03  0.50400001928E-02 0. -1.
        1   -1    0    0  501    0  0.00000000000E+00  0.00000000000E+00 -0.20315633235E+04  0.20315633235E+04  0.50400001928E-02 0.  1.
    10030    2    1    2    0    0  0.00000000000E+00  0.00000000000E+00 -0.15861479778E+04  0.24769786693E+04  0.19025135796E+04 0.  0.
        5    1    3    3  502    0  0.64057284840E+03  0.24402786256E+02  0.12194658990E+03  0.65255048147E+03  0.46999998093E+01 0. -1.
       -5    1    3    3    0  502 -0.64057284840E+03 -0.24402786256E+02 -0.17080945677E+04  0.18244281878E+04  0.46999998093E+01 0.  1.
</event>
<event>
 5   0  0.7577180E-06  0.1898816E+04  0.7818609E-02  0.8655446E-01
       -2   -1    0    0    0  501  0.00000000000E+00  0.00000000000E+00  0.39988881613E+03  0.39988881614E+03  0.25500000920E-02 0. -1.
        2   -1    0    0  501    0  0.00000000000E+00  0.00000000000E+00 -0.22540646650E+04  0.22540646650E+04  0.25500000920E-02 0.  1.
    10030    2    1    2    0    0  0.00000000000E+00  0.00000000000E+00 -0.18541758489E+04  0.26539534812E+04  0.18988156839E+04 0.  0.
        5    1    3    3  502    0  0.86135389977E+03  0.29510935756E+03 -0.55118215142E+03  0.10643514117E+04  0.46999998093E+01 0. -1.
       -5    1    3    3    0  502 -0.86135389977E+03 -0.29510935756E+03 -0.13029936975E+04  0.15896020695E+04  0.46999998093E+01 0.  1.
</event>
<event>
 5   0  0.6862201E-06  0.1899820E+04  0.7818609E-02  0.8654946E-01
        2   -1    0    0  501    0  0.00000000000E+00  0.00000000000E+00  0.74848859363E+03  0.74848859363E+03  0.25500000920E-02 0. -1.
       -2   -1    0    0    0  501  0.00000000000E+00  0.00000000000E+00 -0.12055343660E+04  0.12055343660E+04  0.25500000920E-02 0.  1.
    10030    2    1    2    0    0  0.00000000000E+00  0.00000000000E+00 -0.45704577240E+03  0.19540229597E+04  0.18998196990E+04 0.  0.
        3    1    3    3  502    0 -0.30548882970E+02 -0.72725775761E+03  0.39921094625E+03  0.83018459999E+03  0.10100000352E+00 0. -1.
       -3    1    3    3    0  502  0.30548882970E+02  0.72725775761E+03 -0.85625671865E+03  0.11238383597E+04  0.10100000352E+00 0.  1.
</event>
<event>
 5   0  0.3236653E-06  0.1898766E+04  0.7818609E-02  0.8655471E-01
        1   -1    0    0  501    0  0.00000000000E+00  0.00000000000E+00  0.93839119860E+03  0.93839119861E+03  0.50400001928E-02 0. -1.
       -1   -1    0    0    0  501  0.00000000000E+00  0.00000000000E+00 -0.96050351938E+03  0.96050351940E+03  0.50400001928E-02 0.  1.
    10030    2    1    2    0    0  0.00000000000E+00  0.00000000000E+00 -0.22112320786E+02  0.18988947180E+04  0.18987659665E+04 0.  0.
        3    1    3    3  502    0 -0.15129739538E+03 -0.25722700683E+03  0.89026595989E+03  0.93895160921E+03  0.10100000352E+00 0. -1.
       -3    1    3    3    0  502  0.15129739538E+03  0.25722700683E+03 -0.91237828068E+03  0.95994310880E+03  0.10100000352E+00 0.  1.
</event>
<event>
 5   0  0.3236653E-06  0.1899979E+04  0.7818609E-02  0.8654867E-01
        1   -1    0    0  501    0  0.00000000000E+00  0.00000000000E+00  0.51699729938E+03  0.51699729940E+03  0.50400001928E-02 0.  1.
       -1   -1    0    0    0  501  0.00000000000E+00  0.00000000000E+00 -0.17456180721E+04  0.17456180721E+04  0.50400001928E-02 0. -1.
    10030    2    1    2    0    0  0.00000000000E+00  0.00000000000E+00 -0.12286207727E+04  0.22626153715E+04  0.18999787673E+04 0.  0.
        3    1    3    3  502    0  0.14562696279E+03  0.83284414081E+02  0.49921787411E+03  0.52665168940E+03  0.10100000352E+00 0.  1.
       -3    1    3    3    0  502 -0.14562696279E+03 -0.83284414081E+02 -0.17278386469E+04  0.17359636821E+04  0.10100000352E+00 0. -1.
</event>
<event>
 5   0  0.3379108E-06  0.1899866E+04  0.7818609E-02  0.8654923E-01
       -1   -1    0    0    0  501  0.00000000000E+00  0.00000000000E+00  0.76460720651E+03  0.76460720653E+03  0.50400001928E-02 0.  1.
        1   -1    0    0  501    0  0.00000000000E+00  0.00000000000E+00 -0.11801785187E+04  0.11801785187E+04  0.50400001928E-02 0. -1.
    10030    2    1    2    0    0  0.00000000000E+00  0.00000000000E+00 -0.41557131221E+03  0.19447857253E+04  0.18998663115E+04 0.  0.
        4    1    3    3  502    0  0.14665142595E+03 -0.60999673415E+03  0.52235901871E+03  0.81637198245E+03  0.12699999809E+01 0.  1.
       -4    1    3    3    0  502 -0.14665142595E+03  0.60999673415E+03 -0.93793033092E+03  0.11284137428E+04  0.12699999809E+01 0. -1.
</event>
<event>
 5   0  0.6870370E-06  0.1899821E+04  0.7818609E-02  0.8654946E-01
       -2   -1    0    0    0  501  0.00000000000E+00  0.00000000000E+00  0.39727360015E+03  0.39727360016E+03  0.25500000920E-02 0. -1.
        2   -1    0    0  501    0  0.00000000000E+00  0.00000000000E+00 -0.22713056524E+04  0.22713056524E+04  0.25500000920E-02 0.  1.
    10030    2    1    2    0    0  0.00000000000E+00  0.00000000000E+00 -0.18740320523E+04  0.26685792526E+04  0.18998208058E+04 0.  0.
        1    1    3    3  502    0 -0.48149441388E+03 -0.76913833248E+03 -0.13316174117E+04  0.16114017427E+04  0.50400001928E-02 0.  1.
       -1    1    3    3    0  502  0.48149441388E+03  0.76913833248E+03 -0.54241464052E+03  0.10571775099E+04  0.50400001928E-02 0. -1.
</event>
<event>
 5   0  0.2527750E-06  0.1900390E+04  0.7818609E-02  0.8654662E-01
       -4   -1    0    0    0  501  0.00000000000E+00  0.00000000000E+00  0.61813324453E+03  0.61813454918E+03  0.12699999809E+01 0. -1.
        4   -1    0    0  501    0  0.00000000000E+00  0.00000000000E+00 -0.14606376402E+04  0.14606381923E+04  0.12699999809E+01 0.  1.
    10030    2    1    2    0    0  0.00000000000E+00  0.00000000000E+00 -0.84250439562E+03  0.20787727415E+04  0.19003900794E+04 0.  0.
        1    1    3    3  502    0  0.90144482006E+02 -0.87492828136E+03 -0.27999887653E+02  0.88000540844E+03  0.50400001928E-02 0. -1.
       -1    1    3    3    0  502 -0.90144482006E+02  0.87492828136E+03 -0.81450450797E+03  0.11987673330E+04  0.50400001928E-02 0.  1.
</event>
<event>
 5   0  0.6984466E-06  0.1899259E+04  0.7818609E-02  0.8655225E-01
       -2   -1    0    0    0  501  0.00000000000E+00  0.00000000000E+00  0.54911139776E+03  0.54911139776E+03  0.25500000920E-02 0. -1.
        2   -1    0    0  501    0  0.00000000000E+00  0.00000000000E+00 -0.16422827105E+04  0.16422827105E+04  0.25500000920E-02 0.  1.
    10030    2    1    2    0    0  0.00000000000E+00  0.00000000000E+00 -0.10931713128E+04  0.21913941083E+04  0.18992589657E+04 0.  0.
        2    1    3    3  502    0  0.14725996826E+03 -0.49406192320E+03  0.37358729316E+03  0.63667114575E+03  0.25500000920E-02 0. -1.
       -2    1    3    3    0  502 -0.14725996826E+03  0.49406192320E+03 -0.14667586059E+04  0.15547229625E+04  0.25500000920E-02 0.  1.
</event>
<event>
 5   0  0.6862201E-06  0.1899727E+04  0.7818609E-02  0.8654992E-01
        2   -1    0    0  501    0  0.00000000000E+00  0.00000000000E+00  0.21846857462E+04  0.21846857462E+04  0.25500000920E-02 0.  1.
       -2   -1    0    0    0  501  0.00000000000E+00  0.00000000000E+00 -0.41298406931E+03  0.41298406932E+03  0.25500000920E-02 0. -1.
    10030    2    1    2    0    0  0.00000000000E+00  0.00000000000E+00  0.17717016769E+04  0.25976698155E+04  0.18997267273E+04 0.  0.
        3    1    3    3  502    0 -0.76460601513E+03  0.19906387075E+03  0.16068066791E+04  0.17905520091E+04  0.10100000352E+00 0.  1.
       -3    1    3    3    0  502  0.76460601513E+03 -0.19906387075E+03  0.16489499780E+03  0.80711780646E+03  0.10100000352E+00 0. -1.
</event>
<event>
 5   0  0.3379108E-06  0.1900381E+04  0.7818609E-02  0.8654667E-01
        1   -1    0    0  501    0  0.00000000000E+00  0.00000000000E+00  0.65095691012E+03  0.65095691014E+03  0.50400001928E-02 0. -1.
       -1   -1    0    0    0  501  0.00000000000E+00  0.00000000000E+00 -0.13869766331E+04  0.13869766331E+04  0.50400001928E-02 0.  1.
    10030    2    1    2    0    0  0.00000000000E+00  0.00000000000E+00 -0.73601972299E+03  0.20379335433E+04  0.19003810392E+04 0.  0.
        4    1    3    3  502    0  0.25596568605E+03 -0.56322461309E+02 -0.13474469591E+04  0.13727001030E+04  0.12699999809E+01 0.  1.
       -4    1    3    3    0  502 -0.25596568605E+03  0.56322461309E+02  0.61142723615E+03  0.66523344029E+03  0.12699999809E+01 0. -1.
</event>
<event>
 5   0  0.3398807E-06  0.1899378E+04  0.7818609E-02  0.8655166E-01
        1   -1    0    0  501    0  0.00000000000E+00  0.00000000000E+00  0.12807459479E+04  0.12807459479E+04  0.50400001928E-02 0.  1.
       -1   -1    0    0    0  501  0.00000000000E+00  0.00000000000E+00 -0.70420614567E+03  0.70420614569E+03  0.50400001928E-02 0. -1.
    10030    2    1    2    0    0  0.00000000000E+00  0.00000000000E+00  0.57653980220E+03  0.19849520936E+04  0.18993779693E+04 0.  0.
        1    1    3    3  502    0 -0.10098269859E+03 -0.63187511980E+03  0.10216307443E+04  0.12054845707E+04  0.50400001928E-02 0.  1.
       -1    1    3    3    0  502  0.10098269859E+03  0.63187511980E+03 -0.44509094211E+03  0.77946752287E+03  0.50400001928E-02 0. -1.
</event>
<event>
 5   0  0.6862201E-06  0.1902083E+04  0.7818609E-02  0.8653820E-01
       -2   -1    0    0    0  501  0.00000000000E+00  0.00000000000E+00  0.49690801171E+03  0.49690801172E+03  0.25500000920E-02 0.  1.
        2   -1    0    0  501    0  0.00000000000E+00  0.00000000000E+00 -0.18202151986E+04  0.18202151986E+04  0.25500000920E-02 0. -1.
    10030    2    1    2    0    0  0.00000000000E+00  0.00000000000E+00 -0.13233071868E+04  0.23171232103E+04  0.19020825589E+04 0.  0.
        3    1    3    3  502    0  0.60560409256E+03 -0.68596187253E+02 -0.15510402316E+04  0.16664895932E+04  0.10100000352E+00 0. -1.
       -3    1    3    3    0  502 -0.60560409256E+03  0.68596187253E+02  0.22773304477E+03  0.65063361711E+03  0.10100000352E+00 0.  1.
</event>
<event>
 5   0  0.7577180E-06  0.1900054E+04  0.7818609E-02  0.8654830E-01
       -2   -1    0    0    0  501  0.00000000000E+00  0.00000000000E+00  0.66482354964E+03  0.66482354965E+03  0.25500000920E-02 0.  1.
        2   -1    0    0  501    0  0.00000000000E+00  0.00000000000E+00 -0.13575798090E+04  0.13575798090E+04  0.25500000920E-02 0. -1.
    10030    2    1    2    0    0  0.00000000000E+00  0.00000000000E+00 -0.69275625937E+03  0.20224033587E+04  0.19000537125E+04 0.  0.
        5    1    3    3  502    0 -0.93965929693E+03 -0.14330327786E+00 -0.19747980977E+03  0.96019788591E+03  0.46999998093E+01 0. -1.
       -5    1    3    3    0  502  0.93965929693E+03  0.14330327786E+00 -0.49527644960E+03  0.10622054728E+04  0.46999998093E+01 0.  1.
</event>
<event>
 5   0  0.3236653E-06  0.1899150E+04  0.7818609E-02  0.8655280E-01
       -1   -1    0    0    0  501  0.00000000000E+00  0.00000000000E+00  0.33532133410E+03  0.33532133414E+03  0.50400001928E-02 0.  1.
        1   -1    0    0  501    0  0.00000000000E+00  0.00000000000E+00 -0.26890396318E+04  0.26890396318E+04  0.50400001928E-02 0. -1.
    10030    2    1    2    0    0  0.00000000000E+00  0.00000000000E+00 -0.23537182977E+04  0.30243609659E+04  0.18991496590E+04 0.  0.
        3    1    3    3  502    0  0.30849820290E+03 -0.68569996357E+02 -0.26028367495E+04  0.26219519714E+04  0.10100000352E+00 0. -1.
       -3    1    3    3    0  502 -0.30849820290E+03  0.68569996357E+02  0.24911845185E+03  0.40240899449E+03  0.10100000352E+00 0.  1.
</event>
<event>
 5   0  0.3379108E-06  0.1897408E+04  0.7818609E-02  0.8656148E-01
       -1   -1    0    0    0  501  0.00000000000E+00  0.00000000000E+00  0.44734151324E+03  0.44734151327E+03  0.50400001928E-02 0.  1.
        1   -1    0    0  501    0  0.00000000000E+00  0.00000000000E+00 -0.20119732630E+04  0.20119732630E+04  0.50400001928E-02 0. -1.
    10030    2    1    2    0    0  0.00000000000E+00  0.00000000000E+00 -0.15646317497E+04  0.24593147762E+04  0.18974078782E+04 0.  0.
        4    1    3    3  502    0 -0.30505291433E+03  0.64185386931E+03  0.32302310730E+02  0.71139210163E+03  0.12699999809E+01 0.  1.
       -4    1    3    3    0  502  0.30505291433E+03 -0.64185386931E+03 -0.15969340605E+04  0.17479226746E+04  0.12699999809E+01 0. -1.
</event>
<event>
 5   0  0.3495279E-06  0.1896445E+04  0.7818609E-02  0.8656628E-01
        1   -1    0    0  501    0  0.00000000000E+00  0.00000000000E+00  0.14455650542E+04  0.14455650542E+04  0.50400001928E-02 0.  1.
       -1   -1    0    0    0  501  0.00000000000E+00  0.00000000000E+00 -0.62198942970E+03  0.62198942972E+03  0.50400001928E-02 0. -1.
    10030    2    1    2    0    0  0.00000000000E+00  0.00000000000E+00  0.82357562447E+03  0.20675544839E+04  0.18964452891E+04 0.  0.
        2    1    3    3  502    0  0.71321745402E+03  0.30295131480E+03  0.10076017560E+04  0.12711097256E+04  0.25500000920E-02 0.  1.
       -2    1    3    3    0  502 -0.71321745402E+03 -0.30295131480E+03 -0.18402613155E+03  0.79644475826E+03  0.25500000920E-02 0. -1.
</event>
<event>
 5   0  0.7207648E-06  0.1900766E+04  0.7818609E-02  0.8654475E-01
       -2   -1    0    0    0  501  0.00000000000E+00  0.00000000000E+00  0.14273091140E+04  0.14273091140E+04  0.25500000920E-02 0.  1.
        2   -1    0    0  501    0  0.00000000000E+00  0.00000000000E+00 -0.63281855759E+03  0.63281855759E+03  0.25500000920E-02 0. -1.
    10030    2    1    2    0    0  0.00000000000E+00  0.00000000000E+00  0.79449055645E+03  0.20601276716E+04  0.19007658402E+04 0.  0.
        4    1    3    3  502    0 -0.77930344228E+03 -0.32897086622E+03  0.86680035711E+03  0.12111482807E+04  0.12699999809E+01 0.  1.
       -4    1    3    3    0  502  0.77930344228E+03  0.32897086622E+03 -0.72309800667E+02  0.84897939088E+03  0.12699999809E+01 0. -1.
</event>
<event>
 5   0  0.3211263E-06  0.1900408E+04  0.7818609E-02  0.8654654E-01
       -1   -1    0    0    0  501  0.00000000000E+00  0.00000000000E+00  0.86118380766E+03  0.86118380767E+03  0.50400001928E-02 0.  1.
        1   -1    0    0  501    0  0.00000000000E+00  0.00000000000E+00 -0.10484257097E+04  0.10484257097E+04  0.50400001928E-02 0. -1.
    10030    2    1    2    0    0  0.00000000000E+00  0.00000000000E+00 -0.18724190202E+03  0.19096095174E+04  0.19004075823E+04 0.  0.
        5    1    3    3  502    0 -0.40001083439E+03 -0.27497747805E+03 -0.91442617811E+03  0.10352867266E+04  0.46999998093E+01 0. -1.
       -5    1    3    3    0  502  0.40001083439E+03  0.27497747805E+03  0.72718427608E+03  0.87432279076E+03  0.46999998093E+01 0.  1.
</event>
<event>
 5   0  0.7577180E-06  0.1899072E+04  0.7818609E-02  0.8655318E-01
       -2   -1    0    0    0  501  0.00000000000E+00  0.00000000000E+00  0.86009750771E+03  0.86009750771E+03  0.25500000920E-02 0.  1.
        2   -1    0    0  501    0  0.00000000000E+00  0.00000000000E+00 -0.10482750573E+04  0.10482750573E+04  0.25500000920E-02 0. -1.
    10030    2    1    2    0    0  0.00000000000E+00  0.00000000000E+00 -0.18817754956E+03  0.19083725650E+04  0.18990721568E+04 0.  0.
        5    1    3    3  502    0  0.26650767374E+03  0.41719448873E+03 -0.90831554736E+03  0.10344741684E+04  0.46999998093E+01 0. -1.
       -5    1    3    3    0  502 -0.26650767374E+03 -0.41719448873E+03  0.72013799781E+03  0.87389839654E+03  0.46999998093E+01 0.  1.
</event>
<event>
 5   0  0.3495279E-06  0.1901174E+04  0.7818609E-02  0.8654272E-01
        1   -1    0    0  501    0  0.00000000000E+00  0.00000000000E+00  0.13917411058E+04  0.13917411058E+04  0.50400001928E-02 0. -1.
       -1   -1    0    0    0  501  0.00000000000E+00  0.00000000000E+00 -0.64927010354E+03  0.64927010356E+03  0.50400001928E-02 0.  1.
    10030    2    1    2    0    0  0.00000000000E+00  0.00000000000E+00  0.74247100230E+03  0.20410112094E+04  0.19011742602E+04 0.  0.
        2    1    3    3  502    0 -0.70116379368E+03  0.48796612469E+03 -0.76417134463E+02  0.85766029572E+03  0.25500000920E-02 0.  1.
       -2    1    3    3    0  502  0.70116379368E+03 -0.48796612469E+03  0.81888813676E+03  0.11833509137E+04  0.25500000920E-02 0. -1.
</event>
<event>
 5   0  0.6870370E-06  0.1902450E+04  0.7818609E-02  0.8653638E-01
        2   -1    0    0  501    0  0.00000000000E+00  0.00000000000E+00  0.18164987271E+04  0.18164987271E+04  0.25500000920E-02 0.  1.
       -2   -1    0    0    0  501  0.00000000000E+00  0.00000000000E+00 -0.49811730291E+03  0.49811730291E+03  0.25500000920E-02 0. -1.
    10030    2    1    2    0    0  0.00000000000E+00  0.00000000000E+00  0.13183814242E+04  0.23146160300E+04  0.19024504689E+04 0.  0.
        1    1    3    3  502    0  0.45788157645E+02 -0.89884016492E+03  0.10338304613E+04  0.13706989531E+04  0.50400001928E-02 0.  1.
       -1    1    3    3    0  502 -0.45788157645E+02  0.89884016492E+03  0.28455096289E+03  0.94391707685E+03  0.50400001928E-02 0. -1.
</event>
<event>
 5   0  0.3211263E-06  0.1898729E+04  0.7818609E-02  0.8655489E-01
       -1   -1    0    0    0  501  0.00000000000E+00  0.00000000000E+00  0.10835572574E+04  0.10835572574E+04  0.50400001928E-02 0. -1.
        1   -1    0    0  501    0  0.00000000000E+00  0.00000000000E+00 -0.83179074546E+03  0.83179074547E+03  0.50400001928E-02 0.  1.
    10030    2    1    2    0    0  0.00000000000E+00  0.00000000000E+00  0.25176651194E+03  0.19153480029E+04  0.18987289421E+04 0.  0.
        5    1    3    3  502    0  0.55398801071E+03 -0.30217506498E+03  0.84135731508E+03  0.10517208316E+04  0.46999998093E+01 0. -1.
       -5    1    3    3    0  502 -0.55398801071E+03  0.30217506498E+03 -0.58959080313E+03  0.86362717132E+03  0.46999998093E+01 0.  1.
</event>
<event>
 5   0  0.3495279E-06  0.1901071E+04  0.7818609E-02  0.8654323E-01
       -1   -1    0    0    0  501  0.00000000000E+00  0.00000000000E+00  0.54524345937E+03  0.54524345940E+03  0.50400001928E-02 0. -1.
        1   -1    0    0  501    0  0.00000000000E+00  0.00000000000E+00 -0.16570910073E+04  0.16570910073E+04  0.50400001928E-02 0.  1.
    10030    2    1    2    0    0  0.00000000000E+00  0.00000000000E+00 -0.11118475479E+04  0.22023344667E+04  0.19010713120E+04 0.  0.
        2    1    3    3  502    0 -0.11303009867E+03  0.19809378201E+03  0.51307564679E+03  0.56148336486E+03  0.25500000920E-02 0. -1.
       -2    1    3    3    0  502  0.11303009867E+03 -0.19809378201E+03 -0.16249231947E+04  0.16408511018E+04  0.25500000920E-02 0.  1.
</event>
<event>
 5   0  0.6984466E-06  0.1899194E+04  0.7818609E-02  0.8655258E-01
       -2   -1    0    0    0  501  0.00000000000E+00  0.00000000000E+00  0.14715358273E+04  0.14715358273E+04  0.25500000920E-02 0. -1.
        2   -1    0    0  501    0  0.00000000000E+00  0.00000000000E+00 -0.61278440717E+03  0.61278440717E+03  0.25500000920E-02 0.  1.
    10030    2    1    2    0    0  0.00000000000E+00  0.00000000000E+00  0.85875142016E+03  0.20843202345E+04  0.18991937338E+04 0.  0.
        2    1    3    3  502    0 -0.38733887050E+03  0.85551335337E+03  0.27494822329E+03  0.97853514188E+03  0.25500000920E-02 0. -1.
       -2    1    3    3    0  502  0.38733887050E+03 -0.85551335337E+03  0.58380319687E+03  0.11057850926E+04  0.25500000920E-02 0.  1.
</event>
<event>
 5   0  0.6984466E-06  0.1900861E+04  0.7818609E-02  0.8654428E-01
        2   -1    0    0  501    0  0.00000000000E+00  0.00000000000E+00  0.13702638323E+04  0.13702638323E+04  0.25500000920E-02 0.  1.
       -2   -1    0    0    0  501  0.00000000000E+00  0.00000000000E+00 -0.65922950483E+03  0.65922950483E+03  0.25500000920E-02 0. -1.
    10030    2    1    2    0    0  0.00000000000E+00  0.00000000000E+00  0.71103432746E+03  0.20294933371E+04  0.19008612234E+04 0.  0.
        2    1    3    3  502    0  0.79431764894E+03 -0.13258450461E+03 -0.18341762972E+03  0.82593050869E+03  0.25500000920E-02 0. -1.
       -2    1    3    3    0  502 -0.79431764894E+03  0.13258450461E+03  0.89445195718E+03  0.12035628284E+04  0.25500000920E-02 0.  1.
</event>
<event>
 5   0  0.7207648E-06  0.1899594E+04  0.7818609E-02  0.8655058E-01
       -2   -1    0    0    0  501  0.00000000000E+00  0.00000000000E+00  0.76003473040E+03  0.76003473040E+03  0.25500000920E-02 0. -1.
        2   -1    0    0  501    0  0.00000000000E+00  0.00000000000E+00 -0.11869388494E+04  0.11869388494E+04  0.25500000920E-02 0.  1.
    10030    2    1    2    0    0  0.00000000000E+00  0.00000000000E+00 -0.42690411900E+03  0.19469735798E+04  0.18995944287E+04 0.  0.
        4    1    3    3  502    0  0.48332939382E+03  0.69495515782E+03 -0.65494284822E+03  0.10702904847E+04  0.12699999809E+01 0. -1.
       -4    1    3    3    0  502 -0.48332939382E+03 -0.69495515782E+03  0.22803872921E+03  0.87668309510E+03  0.12699999809E+01 0.  1.
</event>
<event>
 5   0  0.6984466E-06  0.1900268E+04  0.7818609E-02  0.8654723E-01
       -2   -1    0    0    0  501  0.00000000000E+00  0.00000000000E+00  0.59021880830E+03  0.59021880830E+03  0.25500000920E-02 0.  1.
        2   -1    0    0  501    0  0.00000000000E+00  0.00000000000E+00 -0.15295245890E+04  0.15295245890E+04  0.25500000920E-02 0. -1.
    10030    2    1    2    0    0  0.00000000000E+00  0.00000000000E+00 -0.93930578070E+03  0.21197433973E+04  0.19002675393E+04 0.  0.
        2    1    3    3  502    0 -0.87993496804E+03 -0.87758501061E+02 -0.85730559660E+03  0.12316492960E+04  0.25500000920E-02 0. -1.
       -2    1    3    3    0  502  0.87993496804E+03  0.87758501061E+02 -0.82000184097E+02  0.88809410125E+03  0.25500000920E-02 0.  1.
</event>
<event>
 5   0  0.6984466E-06  0.1900118E+04  0.7818609E-02  0.8654797E-01
       -2   -1    0    0    0  501  0.00000000000E+00  0.00000000000E+00  0.12873523459E+04  0.12873523459E+04  0.25500000920E-02 0. -1.
        2   -1    0    0  501    0  0.00000000000E+00  0.00000000000E+00 -0.70113867003E+03  0.70113867003E+03  0.25500000920E-02 0.  1.
    10030    2    1    2    0    0  0.00000000000E+00  0.00000000000E+00  0.58621367587E+03  0.19884910159E+04  0.19001184296E+04 0.  0.
        2    1    3    3  502    0 -0.81278434771E+03 -0.36201679955E+01 -0.22168731506E+03  0.84248250259E+03  0.25500000920E-02 0.  1.
       -2    1    3    3    0  502  0.81278434771E+03  0.36201679955E+01  0.80790099092E+03  0.11460085133E+04  0.25500000920E-02 0. -1.
</event>
<event>
 5   0  0.6862201E-06  0.1899245E+04  0.7818609E-02  0.8655232E-01
        2   -1    0    0  501    0  0.00000000000E+00  0.00000000000E+00  0.12400246006E+04  0.12400246006E+04  0.25500000920E-02 0. -1.
       -2   -1    0    0    0  501  0.00000000000E+00  0.00000000000E+00 -0.72722982055E+03  0.72722982056E+03  0.25500000920E-02 0.  1.
    10030    2    1    2    0    0  0.00000000000E+00  0.00000000000E+00  0.51279478001E+03  0.19672544211E+04  0.18992449739E+04 0.  0.
        3    1    3    3  502    0 -0.49570681748E+03  0.24689649508E+03  0.10554482451E+04  0.11919119667E+04  0.10100000352E+00 0. -1.
       -3    1    3    3    0  502  0.49570681748E+03 -0.24689649508E+03 -0.54265346510E+03  0.77534245437E+03  0.10100000352E+00 0.  1.
</event>
<event>
 5   0  0.3379108E-06  0.1900904E+04  0.7818609E-02  0.8654406E-01
       -1   -1    0    0    0  501  0.00000000000E+00  0.00000000000E+00  0.75171139185E+03  0.75171139187E+03  0.50400001928E-02 0.  1.
        1   -1    0    0  501    0  0.00000000000E+00  0.00000000000E+00 -0.12017369781E+04  0.12017369781E+04  0.50400001928E-02 0. -1.
    10030    2    1    2    0    0  0.00000000000E+00  0.00000000000E+00 -0.45002558622E+03  0.19534483700E+04  0.19009043916E+04 0.  0.
        4    1    3    3  502    0 -0.49622890524E+03  0.22288662857E+03 -0.10259380587E+04  0.11612373094E+04  0.12699999809E+01 0. -1.
       -4    1    3    3    0  502  0.49622890524E+03 -0.22288662857E+03  0.57591247248E+03  0.79221106054E+03  0.12699999809E+01 0.  1.
</event>
<event>
 5   0  0.3398807E-06  0.1900068E+04  0.7818609E-02  0.8654823E-01
       -1   -1    0    0    0  501  0.00000000000E+00  0.00000000000E+00  0.63097304788E+03  0.63097304790E+03  0.50400001928E-02 0.  1.
        1   -1    0    0  501    0  0.00000000000E+00  0.00000000000E+00 -0.14304321571E+04  0.14304321571E+04  0.50400001928E-02 0. -1.
    10030    2    1    2    0    0  0.00000000000E+00  0.00000000000E+00 -0.79945910922E+03  0.20614052050E+04  0.19000675125E+04 0.  0.
        1    1    3    3  502    0 -0.40860926861E+03 -0.39196940734E+03  0.42791120166E+03  0.70972497998E+03  0.50400001928E-02 0.  1.
       -1    1    3    3    0  502  0.40860926861E+03  0.39196940734E+03 -0.12273703109E+04  0.13516802250E+04  0.50400001928E-02 0. -1.
</event>
<event>
 5   0  0.3236653E-06  0.1899329E+04  0.7818609E-02  0.8655191E-01
        1   -1    0    0  501    0  0.00000000000E+00  0.00000000000E+00  0.97598277867E+03  0.97598277868E+03  0.50400001928E-02 0.  1.
       -1   -1    0    0    0  501  0.00000000000E+00  0.00000000000E+00 -0.92405578903E+03  0.92405578904E+03  0.50400001928E-02 0. -1.
    10030    2    1    2    0    0  0.00000000000E+00  0.00000000000E+00  0.51926989638E+02  0.19000385677E+04  0.18993288674E+04 0.  0.
        3    1    3    3  502    0  0.10085542449E+03 -0.12880641481E+03 -0.90985364343E+03  0.92444392572E+03  0.10100000352E+00 0. -1.
       -3    1    3    3    0  502 -0.10085542449E+03  0.12880641481E+03  0.96178063307E+03  0.97559464200E+03  0.10100000352E+00 0.  1.
</event>
<event>
 5   0  0.3495279E-06  0.1899978E+04  0.7818609E-02  0.8654867E-01
        1   -1    0    0  501    0  0.00000000000E+00  0.00000000000E+00  0.17584397742E+04  0.17584397742E+04  0.50400001928E-02 0.  1.
       -1   -1    0    0    0  501  0.00000000000E+00  0.00000000000E+00 -0.51322716644E+03  0.51322716647E+03  0.50400001928E-02 0. -1.
    10030    2    1    2    0    0  0.00000000000E+00  0.00000000000E+00  0.12452126077E+04  0.22716669406E+04  0.18999779606E+04 0.  0.
        2    1    3    3  502    0  0.49899369083E+03 -0.78386253047E+03  0.38635585143E+03  0.10063329539E+04  0.25500000920E-02 0.  1.
       -2    1    3    3    0  502 -0.49899369083E+03  0.78386253047E+03  0.85885675629E+03  0.12653339867E+04  0.25500000920E-02 0. -1.
</event>
<event>
 5   0  0.3236653E-06  0.1900783E+04  0.7818609E-02  0.8654467E-01
        1   -1    0    0  501    0  0.00000000000E+00  0.00000000000E+00  0.77437439167E+03  0.77437439169E+03  0.50400001928E-02 0. -1.
       -1   -1    0    0    0  501  0.00000000000E+00  0.00000000000E+00 -0.11664176078E+04  0.11664176079E+04  0.50400001928E-02 0.  1.
    10030    2    1    2    0    0  0.00000000000E+00  0.00000000000E+00 -0.39204321618E+03  0.19407919995E+04  0.19007829182E+04 0.  0.
        3    1    3    3  502    0  0.59573273808E+03  0.52054312894E+03 -0.73377732953E+03  0.10790235511E+04  0.10100000352E+00 0.  1.
       -3    1    3    3    0  502 -0.59573273808E+03 -0.52054312894E+03  0.34173411335E+03  0.86176844844E+03  0.10100000352E+00 0. -1.
</event>
<event>
 5   0  0.7207648E-06  0.1900218E+04  0.7818609E-02  0.8654748E-01
       -2   -1    0    0    0  501  0.00000000000E+00  0.00000000000E+00  0.11116468413E+04  0.11116468413E+04  0.25500000920E-02 0. -1.
        2   -1    0    0  501    0  0.00000000000E+00  0.00000000000E+00 -0.81204495272E+03  0.81204495273E+03  0.25500000920E-02 0.  1.
    10030    2    1    2    0    0  0.00000000000E+00  0.00000000000E+00  0.29960188858E+03  0.19236917940E+04  0.19002180998E+04 0.  0.
        4    1    3    3  502    0 -0.40185642426E+03 -0.29409446051E+03 -0.66934569808E+03  0.83426938926E+03  0.12699999809E+01 0.  1.
       -4    1    3    3    0  502  0.40185642426E+03  0.29409446051E+03  0.96894758666E+03  0.10894224048E+04  0.12699999809E+01 0. -1.
</event>
<event>
 5   0  0.7207648E-06  0.1900010E+04  0.7818609E-02  0.8654851E-01
        2   -1    0    0  501    0  0.00000000000E+00  0.00000000000E+00  0.15157428581E+04  0.15157428581E+04  0.25500000920E-02 0.  1.
       -2   -1    0    0    0  501  0.00000000000E+00  0.00000000000E+00 -0.59542407151E+03  0.59542407152E+03  0.25500000920E-02 0. -1.
    10030    2    1    2    0    0  0.00000000000E+00  0.00000000000E+00  0.92031878655E+03  0.21111669296E+04  0.19000102988E+04 0.  0.
        4    1    3    3  502    0 -0.97148969523E+02 -0.84153315378E+03 -0.17618349242E+02  0.84730631434E+03  0.12699999809E+01 0. -1.
       -4    1    3    3    0  502  0.97148969523E+02  0.84153315378E+03  0.93793713579E+03  0.12638606152E+04  0.12699999809E+01 0.  1.
</event>
<event>
 5   0  0.6984466E-06  0.1896431E+04  0.7818609E-02  0.8656635E-01
        2   -1    0    0  501    0  0.00000000000E+00  0.00000000000E+00  0.17516906361E+04  0.17516906361E+04  0.25500000920E-02 0. -1.
       -2   -1    0    0    0  501  0.00000000000E+00  0.00000000000E+00 -0.51328298156E+03  0.51328298156E+03  0.25500000920E-02 0.  1.
    10030    2    1    2    0    0  0.00000000000E+00  0.00000000000E+00  0.12384076545E+04  0.22649736176E+04  0.18964313776E+04 0.  0.
        2    1    3    3  502    0  0.13921351997E+03  0.93790865326E+03  0.60995668062E+03  0.11274307953E+04  0.25500000920E-02 0. -1.
       -2    1    3    3    0  502 -0.13921351997E+03 -0.93790865326E+03  0.62845097387E+03  0.11375428223E+04  0.25500000920E-02 0.  1.
</event>
<event>
 5   0  0.3211263E-06  0.1898586E+04  0.7818609E-02  0.8655560E-01
        1   -1    0    0  501    0  0.00000000000E+00  0.00000000000E+00  0.19551506320E+04  0.19551506321E+04  0.50400001928E-02 0.  1.
       -1   -1    0    0    0  501  0.00000000000E+00  0.00000000000E+00 -0.46091460499E+03  0.46091460502E+03  0.50400001928E-02 0. -1.
    10030    2    1    2    0    0  0.00000000000E+00  0.00000000000E+00  0.14942360271E+04  0.24160652371E+04  0.18985862965E+04 0.  0.
        5    1    3    3  502    0 -0.90406556011E+03  0.13799846937E+03  0.10709521321E+04  0.14083105744E+04  0.46999998093E+01 0.  1.
       -5    1    3    3    0  502  0.90406556011E+03 -0.13799846937E+03  0.42328389492E+03  0.10077546627E+04  0.46999998093E+01 0. -1.
</event>
<event>
 5   0  0.3379108E-06  0.1900630E+04  0.7818609E-02  0.8654543E-01
        1   -1    0    0  501    0  0.00000000000E+00  0.00000000000E+00  0.10173354482E+04  0.10173354482E+04  0.50400001928E-02 0. -1.
       -1   -1    0    0    0  501  0.00000000000E+00  0.00000000000E+00 -0.88771015952E+03  0.88771015954E+03  0.50400001928E-02 0.  1.
    10030    2    1    2    0    0  0.00000000000E+00  0.00000000000E+00  0.12962528865E+03  0.19050456077E+04  0.19006304354E+04 0.  0.
        4    1    3    3  502    0 -0.70489073409E+02 -0.81319402132E+03  0.55260956149E+03  0.98571403872E+03  0.12699999809E+01 0. -1.
       -4    1    3    3    0  502  0.70489073409E+02  0.81319402132E+03 -0.42298427284E+03  0.91933156900E+03  0.12699999809E+01 0.  1.
</event>
<event>
 5   0  0.3236653E-06  0.1899767E+04  0.7818609E-02  0.8654972E-01
       -1   -1    0    0    0  501  0.00000000000E+00  0.00000000000E+00  0.79845334581E+03  0.79845334582E+03  0.50400001928E-02 0. -1.
        1   -1    0    0  501    0  0.00000000000E+00  0.00000000000E+00 -0.11300329007E+04  0.11300329007E+04  0.50400001928E-02 0.  1.
    10030    2    1    2    0    0  0.00000000000E+00  0.00000000000E+00 -0.33157955485E+03  0.19284862465E+04  0.18997668809E+04 0.  0.
        3    1    3    3  502    0 -0.51912003646E+03 -0.70038375691E+03  0.21707974716E+03  0.89841340485E+03  0.10100000352E+00 0. -1.
       -3    1    3    3    0  502  0.51912003646E+03  0.70038375691E+03 -0.54865930201E+03  0.10300728416E+04  0.10100000352E+00 0.  1.
</event>
<event>
 5   0  0.3379108E-06  0.1899017E+04  0.7818609E-02  0.8655346E-01
        1   -1    0    0  501    0  0.00000000000E+00  0.00000000000E+00  0.81514016494E+03  0.81514016495E+03  0.50400001928E-02 0.  1.
       -1   -1    0    0    0  501  0.00000000000E+00  0.00000000000E+00 -0.11060257406E+04  0.11060257406E+04  0.50400001928E-02 0. -1.
    10030    2    1    2    0    0  0.00000000000E+00  0.00000000000E+00 -0.29088557568E+03  0.19211659056E+04  0.18990165925E+04 0.  0.
        4    1    3    3  502    0  0.44467525917E+03 -0.59786599710E+03  0.44996617915E+03  0.87043150901E+03  0.12699999809E+01 0.  1.
       -4    1    3    3    0  502 -0.44467525917E+03  0.59786599710E+03 -0.74085175483E+03  0.10507343966E+04  0.12699999809E+01 0. -1.
</event>
<event>
 5   0  0.3379108E-06  0.1900595E+04  0.7818609E-02  0.8654560E-01
        1   -1    0    0  501    0  0.00000000000E+00  0.00000000000E+00  0.70097657732E+03  0.70097657734E+03  0.50400001928E-02 0.  1.
       -1   -1    0    0    0  501  0.00000000000E+00  0.00000000000E+00 -0.12882954895E+04  0.12882954895E+04  0.50400001928E-02 0. -1.
    10030    2    1    2    0    0  0.00000000000E+00  0.00000000000E+00 -0.58731891219E+03  0.19892720669E+04  0.19005946047E+04 0.  0.
        4    1    3    3  502    0 -0.41269470534E+03  0.14716469186E+02 -0.11894724491E+04  0.12591186657E+04  0.12699999809E+01 0. -1.
       -4    1    3    3    0  502  0.41269470534E+03 -0.14716469186E+02  0.60215353691E+03  0.73015340114E+03  0.12699999809E+01 0.  1.
</event>
<event>
 5   0  0.6870370E-06  0.1900292E+04  0.7818609E-02  0.8654711E-01
        2   -1    0    0  501    0  0.00000000000E+00  0.00000000000E+00  0.68665216595E+03  0.68665216596E+03  0.25500000920E-02 0. -1.
       -2   -1    0    0    0  501  0.00000000000E+00  0.00000000000E+00 -0.13147528266E+04  0.13147528266E+04  0.25500000920E-02 0.  1.
    10030    2    1    2    0    0  0.00000000000E+00  0.00000000000E+00 -0.62810066066E+03  0.20014049926E+04  0.19002924786E+04 0.  0.
        1    1    3    3  502    0  0.10085494244E+03  0.46195211670E+02  0.67980850339E+03  0.68879991166E+03  0.50400001928E-02 0. -1.
       -1    1    3    3    0  502 -0.10085494244E+03 -0.46195211670E+02 -0.13079091640E+04  0.13126050809E+04  0.50400001928E-02 0.  1.
</event>
<event>
 5   0  0.6984466E-06  0.1905309E+04  0.7818609E-02  0.8652218E-01
       -2   -1    0    0    0  501  0.00000000000E+00  0.00000000000E+00  0.10590187879E+04  0.10590187879E+04  0.25500000920E-02 0. -1.
        2   -1    0    0  501    0  0.00000000000E+00  0.00000000000E+00 -0.85697310307E+03  0.85697310307E+03  0.25500000920E-02 0.  1.
    10030    2    1    2    0    0  0.00000000000E+00  0.00000000000E+00  0.20204568486E+03  0.19159918910E+04  0.19053090216E+04 0.  0.
        2    1    3    3  502    0  0.58521626200E+03 -0.24681298742E+03  0.81504331931E+03  0.10332910221E+04  0.25500000920E-02 0. -1.
       -2    1    3    3    0  502 -0.58521626200E+03  0.24681298742E+03 -0.61299763445E+03  0.88270086887E+03  0.25500000920E-02 0.  1.
</event>
<event>
 5   0  0.6862201E-06  0.1899208E+04  0.7818609E-02  0.8655251E-01
       -2   -1    0    0    0  501  0.00000000000E+00  0.00000000000E+00  0.56553524836E+03  0.56553524836E+03  0.25500000920E-02 0.  1.
        2   -1    0    0  501    0  0.00000000000E+00  0.00000000000E+00 -0.15945033107E+04  0.15945033107E+04  0.25500000920E-02 0. -1.
    10030    2    1    2    0    0  0.00000000000E+00  0.00000000000E+00 -0.10289680624E+04  0.21600385591E+04  0.18992080727E+04 0.  0.
        3    1    3    3  502    0 -0.94258948975E+03 -0.10406278859E+03 -0.57070810032E+03  0.11068024919E+04  0.10100000352E+00 0.  1.
       -3    1    3    3    0  502  0.94258948975E+03  0.10406278859E+03 -0.45825996204E+03  0.10532360672E+04  0.10100000352E+00 0. -1.
</event>
<event>
 5   0  0.7577180E-06  0.1900475E+04  0.7818609E-02  0.8654620E-01
       -2   -1    0    0    0  501  0.00000000000E+00  0.00000000000E+00  0.69965433816E+03  0.69965433817E+03  0.25500000920E-02 0.  1.
        2   -1    0    0  501    0  0.00000000000E+00  0.00000000000E+00 -0.12905682245E+04  0.12905682245E+04  0.25500000920E-02 0. -1.
    10030    2    1    2    0    0  0.00000000000E+00  0.00000000000E+00 -0.59091388632E+03  0.19902225627E+04  0.19004753689E+04 0.  0.
        5    1    3    3  502    0  0.89920268840E+03  0.23764448227E+03 -0.91613346690E+02  0.93458839607E+03  0.46999998093E+01 0. -1.
       -5    1    3    3    0  502 -0.89920268840E+03 -0.23764448227E+03 -0.49930053963E+03  0.10556341666E+04  0.46999998093E+01 0.  1.
</event>
<event>
 5   0  0.3211263E-06  0.1902664E+04  0.7818609E-02  0.8653531E-01
       -1   -1    0    0    0  501  0.00000000000E+00  0.00000000000E+00  0.55386634735E+03  0.55386634737E+03  0.50400001928E-02 0. -1.
        1   -1    0    0  501    0  0.00000000000E+00  0.00000000000E+00 -0.16340274514E+04  0.16340274514E+04  0.50400001928E-02 0.  1.
    10030    2    1    2    0    0  0.00000000000E+00  0.00000000000E+00 -0.10801611041E+04  0.21878937988E+04  0.19026642542E+04 0.  0.
        5    1    3    3  502    0  0.54433192557E+03 -0.78012532156E+03 -0.55256984660E+03  0.11001128524E+04  0.46999998093E+01 0.  1.
       -5    1    3    3    0  502 -0.54433192557E+03  0.78012532156E+03 -0.52759125748E+03  0.10877809465E+04  0.46999998093E+01 0. -1.
</event>
<event>
 5   0  0.3495279E-06  0.1899355E+04  0.7818609E-02  0.8655178E-01
        1   -1    0    0  501    0  0.00000000000E+00  0.00000000000E+00  0.13199543083E+04  0.13199543083E+04  0.50400001928E-02 0.  1.
       -1   -1    0    0    0  501  0.00000000000E+00  0.00000000000E+00 -0.68327141021E+03  0.68327141023E+03  0.50400001928E-02 0. -1.
    10030    2    1    2    0    0  0.00000000000E+00  0.00000000000E+00  0.63668289806E+03  0.20032257185E+04  0.18993546711E+04 0.  0.
        2    1    3    3  502    0 -0.20878929144E+03 -0.20129890944E+03  0.12721037556E+04  0.13047460228E+04  0.25500000920E-02 0.  1.
       -2    1    3    3    0  502  0.20878929144E+03  0.20129890944E+03 -0.63542085749E+03  0.69847969570E+03  0.25500000920E-02 0. -1.
</event>
<event>
 5   0  0.3211263E-06  0.1900492E+04  0.7818609E-02  0.8654611E-01
       -1   -1    0    0    0  501  0.00000000000E+00  0.00000000000E+00  0.43313057400E+03  0.43313057402E+03  0.50400001928E-02 0. -1.
        1   -1    0    0  501    0  0.00000000000E+00  0.00000000000E+00 -0.20847472083E+04  0.20847472083E+04  0.50400001928E-02 0.  1.
    10030    2    1    2    0    0  0.00000000000E+00  0.00000000000E+00 -0.16516166343E+04  0.25178777823E+04  0.19004923099E+04 0.  0.
        5    1    3    3  502    0  0.95876184071E+02  0.40764329575E+03  0.30427122885E+03  0.51765661394E+03  0.46999998093E+01 0. -1.
       -5    1    3    3    0  502 -0.95876184071E+02 -0.40764329575E+03 -0.19558878632E+04  0.20002211684E+04  0.46999998093E+01 0.  1.
</event>
<event>
 5   0  0.6984466E-06  0.1902700E+04  0.7818609E-02  0.8653514E-01
       -2   -1    0    0    0  501  0.00000000000E+00  0.00000000000E+00  0.15610130422E+04  0.15610130422E+04  0.25500000920E-02 0.  1.
        2   -1    0    0  501    0  0.00000000000E+00  0.00000000000E+00 -0.57979424797E+03  0.57979424798E+03  0.25500000920E-02 0. -1.
    10030    2    1    2    0    0  0.00000000000E+00  0.00000000000E+00  0.98121879419E+03  0.21408072901E+04  0.19026995379E+04 0.  0.
        2    1    3    3  502    0 -0.11486262644E+03 -0.85212347291E+03  0.32525181208E+02  0.86044507289E+03  0.25500000920E-02 0. -1.
       -2    1    3    3    0  502  0.11486262644E+03  0.85212347291E+03  0.94869361299E+03  0.12803622173E+04  0.25500000920E-02 0.  1.
</event>
<event>
 5   0  0.6870370E-06  0.1900208E+04  0.7818609E-02  0.8654753E-01
       -2   -1    0    0    0  501  0.00000000000E+00  0.00000000000E+00  0.62636002911E+03  0.62636002912E+03  0.25500000920E-02 0.  1.
        2   -1    0    0  501    0  0.00000000000E+00  0.00000000000E+00 -0.14411807104E+04  0.14411807104E+04  0.25500000920E-02 0. -1.
    10030    2    1    2    0    0  0.00000000000E+00  0.00000000000E+00 -0.81482068132E+03  0.20675407396E+04  0.19002084009E+04 0.  0.
        1    1    3    3  502    0  0.70020700428E+03  0.48536817505E+03  0.50126167099E+02  0.85345459566E+03  0.50400001928E-02 0.  1.
       -1    1    3    3    0  502 -0.70020700428E+03 -0.48536817505E+03 -0.86494684842E+03  0.12140861439E+04  0.50400001928E-02 0. -1.
</event>
<event>
 5   0  0.6870370E-06  0.1901611E+04  0.7818609E-02  0.8654055E-01
        2   -1    0    0  501    0  0.00000000000E+00  0.00000000000E+00  0.29852525376E+04  0.29852525376E+04  0.25500000920E-02 0.  1.
       -2   -1    0    0    0  501  0.00000000000E+00  0.00000000000E+00 -0.30283224337E+03  0.30283224339E+03  0.25500000920E-02 0. -1.
    10030    2    1    2    0    0  0.00000000000E+00  0.00000000000E+00  0.26824202942E+04  0.32880847810E+04  0.19016106047E+04 0.  0.
        1    1    3    3  502    0 -0.58527295484E+03 -0.59298220783E+03  0.21333184896E+04  0.22902445521E+04  0.50400001928E-02 0.  1.
       -1    1    3    3    0  502  0.58527295484E+03  0.59298220783E+03  0.54910180464E+03  0.99784022887E+03  0.50400001928E-02 0. -1.
</event>
<event>
 5   0  0.6862201E-06  0.1900292E+04  0.7818609E-02  0.8654711E-01
        2   -1    0    0  501    0  0.00000000000E+00  0.00000000000E+00  0.86332963423E+03  0.86332963423E+03  0.25500000920E-02 0. -1.
       -2   -1    0    0    0  501  0.00000000000E+00  0.00000000000E+00 -0.10456921361E+04  0.10456921362E+04  0.25500000920E-02 0.  1.
    10030    2    1    2    0    0  0.00000000000E+00  0.00000000000E+00 -0.18236250192E+03  0.19090217704E+04  0.19002915665E+04 0.  0.
        3    1    3    3  502    0  0.10711256528E+03  0.84567745319E+02 -0.10357947653E+04  0.10447466732E+04  0.10100000352E+00 0.  1.
       -3    1    3    3    0  502 -0.10711256528E+03 -0.84567745319E+02  0.85343226338E+03  0.86427509716E+03  0.10100000352E+00 0. -1.
</event>
<event>
 5   0  0.3379108E-06  0.1899666E+04  0.7818609E-02  0.8655023E-01
        1   -1    0    0  501    0  0.00000000000E+00  0.00000000000E+00  0.12188343271E+04  0.12188343272E+04  0.50400001928E-02 0.  1.
       -1   -1    0    0    0  501  0.00000000000E+00  0.00000000000E+00 -0.74020095766E+03  0.74020095767E+03  0.50400001928E-02 0. -1.
    10030    2    1    2    0    0  0.00000000000E+00  0.00000000000E+00  0.47863336949E+03  0.19590352848E+04  0.18996655876E+04 0.  0.
        4    1    3    3  502    0 -0.25894764940E+03 -0.88668708467E+03  0.11242255816E+02  0.92379428038E+03  0.12699999809E+01 0.  1.
       -4    1    3    3    0  502  0.25894764940E+03  0.88668708467E+03  0.46739111368E+03  0.10352410045E+04  0.12699999809E+01 0. -1.
</event>
<event>
 5   0  0.6862201E-06  0.1898788E+04  0.7818609E-02  0.8655460E-01
       -2   -1    0    0    0  501  0.00000000000E+00  0.00000000000E+00  0.67173794623E+03  0.67173794623E+03  0.25500000920E-02 0.  1.
        2   -1    0    0  501    0  0.00000000000E+00  0.00000000000E+00 -0.13418159842E+04  0.13418159842E+04  0.25500000920E-02 0. -1.
    10030    2    1    2    0    0  0.00000000000E+00  0.00000000000E+00 -0.67007803794E+03  0.20135539304E+04  0.18987877327E+04 0.  0.
        3    1    3    3  502    0 -0.81363089584E+03 -0.19629444603E+03 -0.81025654442E+03  0.11649216378E+04  0.10100000352E+00 0. -1.
       -3    1    3    3    0  502  0.81363089584E+03  0.19629444603E+03  0.14017850648E+03  0.84863229262E+03  0.10100000352E+00 0.  1.
</event>
<event>
 5   0  0.3495279E-06  0.1900652E+04  0.7818609E-02  0.8654532E-01
       -1   -1    0    0    0  501  0.00000000000E+00  0.00000000000E+00  0.80175936762E+03  0.80175936764E+03  0.50400001928E-02 0.  1.
        1   -1    0    0  501    0  0.00000000000E+00  0.00000000000E+00 -0.11264223673E+04  0.11264223674E+04  0.50400001928E-02 0. -1.
    10030    2    1    2    0    0  0.00000000000E+00  0.00000000000E+00 -0.32466299973E+03  0.19281817350E+04  0.19006521880E+04 0.  0.
        2    1    3    3  502    0  0.25475436714E+03 -0.75598413683E+03  0.36158640435E+03  0.87587472308E+03  0.25500000920E-02 0.  1.
       -2    1    3    3    0  502 -0.25475436714E+03  0.75598413683E+03 -0.68624940407E+03  0.10523070119E+04  0.25500000920E-02 0. -1.
</event>
<event>
 5   0  0.2527750E-06  0.1894206E+04  0.7818609E-02  0.8657746E-01
        4   -1    0    0  501    0  0.00000000000E+00  0.00000000000E+00  0.53645731489E+03  0.53645881818E+03  0.12699999809E+01 0. -1.
       -4   -1    0    0    0  501  0.00000000000E+00  0.00000000000E+00 -0.16720844197E+04  0.16720849020E+04  0.12699999809E+01 0.  1.
    10030    2    1    2    0    0  0.00000000000E+00  0.00000000000E+00 -0.11356271048E+04  0.22085437202E+04  0.18942060191E+04 0.  0.
        4    1    3    3  502    0 -0.45474867243E+03  0.16417350939E+03  0.38173782072E+03  0.61601515642E+03  0.12699999809E+01 0. -1.
       -4    1    3    3    0  502  0.45474867243E+03 -0.16417350939E+03 -0.15173649256E+04  0.15925285638E+04  0.12699999809E+01 0.  1.
</event>
<event>
 5   0  0.6862201E-06  0.1900922E+04  0.7818609E-02  0.8654398E-01
        2   -1    0    0  501    0  0.00000000000E+00  0.00000000000E+00  0.14893499139E+04  0.14893499139E+04  0.25500000920E-02 0. -1.
       -2   -1    0    0    0  501  0.00000000000E+00  0.00000000000E+00 -0.60655721070E+03  0.60655721071E+03  0.25500000920E-02 0.  1.
    10030    2    1    2    0    0  0.00000000000E+00  0.00000000000E+00  0.88279270323E+03  0.20959071246E+04  0.19009218075E+04 0.  0.
        3    1    3    3  502    0  0.25493000413E+03 -0.23105853960E+03 -0.53548588381E+03  0.63649233906E+03  0.10100000352E+00 0.  1.
       -3    1    3    3    0  502 -0.25493000413E+03  0.23105853960E+03  0.14182785870E+04  0.14594147856E+04  0.10100000352E+00 0. -1.
</event>
<event>
 5   0  0.3495279E-06  0.1900674E+04  0.7818609E-02  0.8654521E-01
       -1   -1    0    0    0  501  0.00000000000E+00  0.00000000000E+00  0.48677990002E+03  0.48677990005E+03  0.50400001928E-02 0. -1.
        1   -1    0    0  501    0  0.00000000000E+00  0.00000000000E+00 -0.18553364764E+04  0.18553364764E+04  0.50400001928E-02 0.  1.
    10030    2    1    2    0    0  0.00000000000E+00  0.00000000000E+00 -0.13685565764E+04  0.23421163765E+04  0.19006740957E+04 0.  0.
        2    1    3    3  502    0 -0.91830543282E+03  0.52302807623E+02 -0.97878494483E+03  0.13431457180E+04  0.25500000920E-02 0.  1.
       -2    1    3    3    0  502  0.91830543282E+03 -0.52302807623E+02 -0.38977163155E+03  0.99897065843E+03  0.25500000920E-02 0. -1.
</event>
<event>
 5   0  0.3495279E-06  0.1900417E+04  0.7818609E-02  0.8654649E-01
       -1   -1    0    0    0  501  0.00000000000E+00  0.00000000000E+00  0.10028898737E+04  0.10028898737E+04  0.50400001928E-02 0.  1.
        1   -1    0    0  501    0  0.00000000000E+00  0.00000000000E+00 -0.90029447758E+03  0.90029447760E+03  0.50400001928E-02 0. -1.
    10030    2    1    2    0    0  0.00000000000E+00  0.00000000000E+00  0.10259539614E+03  0.19031843513E+04  0.19004170226E+04 0.  0.
        2    1    3    3  502    0  0.84433752765E+03 -0.15019196093E+03  0.46107898731E+03  0.97368234978E+03  0.25500000920E-02 0.  1.
       -2    1    3    3    0  502 -0.84433752765E+03  0.15019196093E+03 -0.35848359117E+03  0.92950200155E+03  0.25500000920E-02 0. -1.
</event>
<event>
 5   0  0.3211263E-06  0.1900126E+04  0.7818609E-02  0.8654794E-01
        1   -1    0    0  501    0  0.00000000000E+00  0.00000000000E+00  0.98781638035E+03  0.98781638036E+03  0.50400001928E-02 0.  1.
       -1   -1    0    0    0  501  0.00000000000E+00  0.00000000000E+00 -0.91375209177E+03  0.91375209178E+03  0.50400001928E-02 0. -1.
    10030    2    1    2    0    0  0.00000000000E+00  0.00000000000E+00  0.74064288579E+02  0.19015684721E+04  0.19001255578E+04 0.  0.
        5    1    3    3  502    0  0.54555007583E+03 -0.47179677928E+03  0.65587062934E+03  0.97488740817E+03  0.46999998093E+01 0.  1.
       -5    1    3    3    0  502 -0.54555007583E+03  0.47179677928E+03 -0.58180634076E+03  0.92668106397E+03  0.46999998093E+01 0. -1.
</event>
<event>
 5   0  0.6984466E-06  0.1899686E+04  0.7818609E-02  0.8655012E-01
        2   -1    0    0  501    0  0.00000000000E+00  0.00000000000E+00  0.72064501656E+03  0.72064501657E+03  0.25500000920E-02 0.  1.
       -2   -1    0    0    0  501  0.00000000000E+00  0.00000000000E+00 -0.12519369097E+04  0.12519369097E+04  0.25500000920E-02 0. -1.
    10030    2    1    2    0    0  0.00000000000E+00  0.00000000000E+00 -0.53129189316E+03  0.19725819263E+04  0.18996863900E+04 0.  0.
        2    1    3    3  502    0  0.72766869723E+02  0.39877775098E+03 -0.11576092832E+04  0.12265308657E+04  0.25500000920E-02 0. -1.
       -2    1    3    3    0  502 -0.72766869723E+02 -0.39877775098E+03  0.62631739000E+03  0.74605106061E+03  0.25500000920E-02 0.  1.
</event>
<event>
 5   0  0.6984466E-06  0.1898260E+04  0.7818609E-02  0.8655723E-01
        2   -1    0    0  501    0  0.00000000000E+00  0.00000000000E+00  0.26124927121E+04  0.26124927121E+04  0.25500000920E-02 0.  1.
       -2   -1    0    0    0  501  0.00000000000E+00  0.00000000000E+00 -0.34482316564E+03  0.34482316565E+03  0.25500000920E-02 0. -1.
    10030    2    1    2    0    0  0.00000000000E+00  0.00000000000E+00  0.22676695465E+04  0.29573158778E+04  0.18982602637E+04 0.  0.
        2    1    3    3  502    0 -0.56209237879E+03 -0.41103827482E+03  0.12907712056E+03  0.70820986206E+03  0.25500000920E-02 0. -1.
       -2    1    3    3    0  502  0.56209237879E+03  0.41103827482E+03  0.21385924260E+04  0.22491060157E+04  0.25500000920E-02 0.  1.
</event>
<event>
 5   0  0.3236653E-06  0.1899872E+04  0.7818609E-02  0.8654920E-01
       -1   -1    0    0    0  501  0.00000000000E+00  0.00000000000E+00  0.14401408216E+04  0.14401408216E+04  0.50400001928E-02 0.  1.
        1   -1    0    0  501    0  0.00000000000E+00  0.00000000000E+00 -0.62659021961E+03  0.62659021963E+03  0.50400001928E-02 0. -1.
    10030    2    1    2    0    0  0.00000000000E+00  0.00000000000E+00  0.81355060201E+03  0.20667310413E+04  0.18998717364E+04 0.  0.
        3    1    3    3  502    0 -0.50756764305E+03 -0.26496701220E+03  0.12313347540E+04  0.13579461390E+04  0.10100000352E+00 0.  1.
       -3    1    3    3    0  502  0.50756764305E+03  0.26496701220E+03 -0.41778415198E+03  0.70878490227E+03  0.10100000352E+00 0. -1.
</event>
<event>
 5   0  0.7207648E-06  0.1899875E+04  0.7818609E-02  0.8654919E-01
       -2   -1    0    0    0  501  0.00000000000E+00  0.00000000000E+00  0.71713193714E+03  0.71713193714E+03  0.25500000920E-02 0.  1.
        2   -1    0    0  501    0  0.00000000000E+00  0.00000000000E+00 -0.12583193725E+04  0.12583193725E+04  0.25500000920E-02 0. -1.
    10030    2    1    2    0    0  0.00000000000E+00  0.00000000000E+00 -0.54118743540E+03  0.19754513097E+04  0.18998747424E+04 0.  0.
        4    1    3    3  502    0 -0.84409820833E+03 -0.41704041903E+03 -0.40193111386E+03  0.10237063688E+04  0.12699999809E+01 0. -1.
       -4    1    3    3    0  502  0.84409820833E+03  0.41704041903E+03 -0.13925632154E+03  0.95174494084E+03  0.12699999809E+01 0.  1.
</event>
<event>
 5   0  0.3398807E-06  0.1901171E+04  0.7818609E-02  0.8654274E-01
       -1   -1    0    0    0  501  0.00000000000E+00  0.00000000000E+00  0.94458774776E+03  0.94458774777E+03  0.50400001928E-02 0.  1.
        1   -1    0    0  501    0  0.00000000000E+00  0.00000000000E+00 -0.95662137484E+03  0.95662137486E+03  0.50400001928E-02 0. -1.
    10030    2    1    2    0    0  0.00000000000E+00  0.00000000000E+00 -0.12033627083E+02  0.19012091226E+04  0.19011710391E+04 0.  0.
        1    1    3    3  502    0  0.83105510757E+03 -0.26178074188E+03  0.37403169352E+03  0.94819905949E+03  0.50400001928E-02 0.  1.
       -1    1    3    3    0  502 -0.83105510757E+03  0.26178074188E+03 -0.38606532060E+03  0.95301006314E+03  0.50400001928E-02 0. -1.
</event>
<event>
 5   0  0.6984466E-06  0.1898079E+04  0.7818609E-02  0.8655813E-01
        2   -1    0    0  501    0  0.00000000000E+00  0.00000000000E+00  0.12540600508E+04  0.12540600508E+04  0.25500000920E-02 0.  1.
       -2   -1    0    0    0  501  0.00000000000E+00  0.00000000000E+00 -0.71820768648E+03  0.71820768648E+03  0.25500000920E-02 0. -1.
    10030    2    1    2    0    0  0.00000000000E+00  0.00000000000E+00  0.53585236432E+03  0.19722677373E+04  0.18980785735E+04 0.  0.
        2    1    3    3  502    0 -0.16510311655E+03 -0.60566696536E+03  0.10074930422E+04  0.11870693923E+04  0.25500000920E-02 0.  1.
       -2    1    3    3    0  502  0.16510311655E+03  0.60566696536E+03 -0.47164067785E+03  0.78519834502E+03  0.25500000920E-02 0. -1.
</event>
<event>
 5   0  0.3236653E-06  0.1905122E+04  0.7818609E-02  0.8652311E-01
        1   -1    0    0  501    0  0.00000000000E+00  0.00000000000E+00  0.10907912969E+04  0.10907912969E+04  0.50400001928E-02 0. -1.
       -1   -1    0    0    0  501  0.00000000000E+00  0.00000000000E+00 -0.83184750950E+03  0.83184750952E+03  0.50400001928E-02 0.  1.
    10030    2    1    2    0    0  0.00000000000E+00  0.00000000000E+00  0.25894378737E+03  0.19226388064E+04  0.19051215433E+04 0.  0.
        3    1    3    3  502    0  0.21666369339E+02  0.94216748664E+03  0.26939379605E+03  0.98016428827E+03  0.10100000352E+00 0.  1.
       -3    1    3    3    0  502 -0.21666369339E+02 -0.94216748664E+03 -0.10450008681E+02  0.94247451813E+03  0.10100000352E+00 0. -1.
</event>
<event>
 5   0  0.6870370E-06  0.1899524E+04  0.7818609E-02  0.8655093E-01
        2   -1    0    0  501    0  0.00000000000E+00  0.00000000000E+00  0.14186647684E+04  0.14186647684E+04  0.25500000920E-02 0.  1.
       -2   -1    0    0    0  501  0.00000000000E+00  0.00000000000E+00 -0.63584306654E+03  0.63584306654E+03  0.25500000920E-02 0. -1.
    10030    2    1    2    0    0  0.00000000000E+00  0.00000000000E+00  0.78282170189E+03  0.20545078350E+04  0.18995243160E+04 0.  0.
        1    1    3    3  502    0 -0.62104204403E+03 -0.40784624857E+01  0.11686060617E+04  0.13233858023E+04  0.50400001928E-02 0.  1.
       -1    1    3    3    0  502  0.62104204403E+03  0.40784624857E+01 -0.38578435982E+03  0.73112203265E+03  0.50400001928E-02 0. -1.
</event>
<event>
 5   0  0.2527750E-06  0.1898731E+04  0.7818609E-02  0.8655488E-01
       -4   -1    0    0    0  501  0.00000000000E+00  0.00000000000E+00  0.51750542385E+03  0.51750698219E+03  0.12699999809E+01 0.  1.
        4   -1    0    0  501    0  0.00000000000E+00  0.00000000000E+00 -0.17416094460E+04  0.17416099091E+04  0.12699999809E+01 0. -1.
    10030    2    1    2    0    0  0.00000000000E+00  0.00000000000E+00 -0.12241040222E+04  0.22591168912E+04  0.18987307527E+04 0.  0.
        4    1    3    3  502    0 -0.20684319996E+02  0.92911900531E+03 -0.84277282965E+03  0.12545746779E+04  0.12699999809E+01 0. -1.
       -4    1    3    3    0  502  0.20684319996E+02 -0.92911900531E+03 -0.38133119251E+03  0.10045422133E+04  0.12699999809E+01 0.  1.
</event>
<event>
 5   0  0.3398807E-06  0.1899664E+04  0.7818609E-02  0.8655024E-01
       -1   -1    0    0    0  501  0.00000000000E+00  0.00000000000E+00  0.64587128266E+03  0.64587128268E+03  0.50400001928E-02 0.  1.
        1   -1    0    0  501    0  0.00000000000E+00  0.00000000000E+00 -0.13968429425E+04  0.13968429425E+04  0.50400001928E-02 0. -1.
    10030    2    1    2    0    0  0.00000000000E+00  0.00000000000E+00 -0.75097165983E+03  0.20427142252E+04  0.18996639102E+04 0.  0.
        1    1    3    3  502    0  0.62679039417E+03 -0.59613010954E+03 -0.79738768094E+03  0.11764626724E+04  0.50400001928E-02 0. -1.
       -1    1    3    3    0  502 -0.62679039417E+03  0.59613010954E+03  0.46416021114E+02  0.86625155282E+03  0.50400001928E-02 0.  1.
</event>
<event>
 5   0  0.3379108E-06  0.1891597E+04  0.7818609E-02  0.8659050E-01
        1   -1    0    0  501    0  0.00000000000E+00  0.00000000000E+00  0.12564108689E+04  0.12564108689E+04  0.50400001928E-02 0.  1.
       -1   -1    0    0    0  501  0.00000000000E+00  0.00000000000E+00 -0.71197650438E+03  0.71197650440E+03  0.50400001928E-02 0. -1.
    10030    2    1    2    0    0  0.00000000000E+00  0.00000000000E+00  0.54443436448E+03  0.19683873733E+04  0.18915972283E+04 0.  0.
        4    1    3    3  502    0 -0.81345214903E+03  0.48233457764E+03  0.28626953804E+03  0.98808041417E+03  0.12699999809E+01 0.  1.
       -4    1    3    3    0  502  0.81345214903E+03 -0.48233457764E+03  0.25816482644E+03  0.98030695910E+03  0.12699999809E+01 0. -1.
</event>
<event>
 5   0  0.3379108E-06  0.1899021E+04  0.7818609E-02  0.8655344E-01
       -1   -1    0    0    0  501  0.00000000000E+00  0.00000000000E+00  0.76183716782E+03  0.76183716783E+03  0.50400001928E-02 0. -1.
        1   -1    0    0  501    0  0.00000000000E+00  0.00000000000E+00 -0.11834158289E+04  0.11834158289E+04  0.50400001928E-02 0.  1.
    10030    2    1    2    0    0  0.00000000000E+00  0.00000000000E+00 -0.42157866110E+03  0.19452529968E+04  0.18990209725E+04 0.  0.
        4    1    3    3  502    0  0.38787730020E+03 -0.13909257757E+02 -0.10984459267E+04  0.11650010018E+04  0.12699999809E+01 0.  1.
       -4    1    3    3    0  502 -0.38787730020E+03  0.13909257757E+02  0.67686726560E+03  0.78025199494E+03  0.12699999809E+01 0. -1.
</event>
<event>
 5   0  0.6984466E-06  0.1899719E+04  0.7818609E-02  0.8654996E-01
       -2   -1    0    0    0  501  0.00000000000E+00  0.00000000000E+00  0.65061271216E+03  0.65061271216E+03  0.25500000920E-02 0. -1.
        2   -1    0    0  501    0  0.00000000000E+00  0.00000000000E+00 -0.13867432859E+04  0.13867432860E+04  0.25500000920E-02 0.  1.
    10030    2    1    2    0    0  0.00000000000E+00  0.00000000000E+00 -0.73613057379E+03  0.20373559981E+04  0.18997187269E+04 0.  0.
        2    1    3    3  502    0  0.17727130153E+03  0.78814283736E+03  0.16777264760E+03  0.82507085011E+03  0.25500000920E-02 0.  1.
       -2    1    3    3    0  502 -0.17727130153E+03 -0.78814283736E+03 -0.90390322139E+03  0.12122851480E+04  0.25500000920E-02 0. -1.
</event>
<event>
 5   0  0.6984466E-06  0.1901585E+04  0.7818609E-02  0.8654068E-01
        2   -1    0    0  501    0  0.00000000000E+00  0.00000000000E+00  0.15959713094E+04  0.15959713094E+04  0.25500000920E-02 0. -1.
       -2   -1    0    0    0  501  0.00000000000E+00  0.00000000000E+00 -0.56643029043E+03  0.56643029043E+03  0.25500000920E-02 0.  1.
    10030    2    1    2    0    0  0.00000000000E+00  0.00000000000E+00  0.10295410190E+04  0.21624015998E+04  0.19015851202E+04 0.  0.
        2    1    3    3  502    0 -0.34181248019E+03  0.55710344094E+03 -0.27045003989E+03  0.70734944660E+03  0.25500000920E-02 0.  1.
       -2    1    3    3    0  502  0.34181248019E+03 -0.55710344094E+03  0.12999910588E+04  0.14550521532E+04  0.25500000920E-02 0. -1.
</event>
<event>
 5   0  0.7207648E-06  0.1899612E+04  0.7818609E-02  0.8655049E-01
       -2   -1    0    0    0  501  0.00000000000E+00  0.00000000000E+00  0.41074877666E+03  0.41074877667E+03  0.25500000920E-02 0. -1.
        2   -1    0    0  501    0  0.00000000000E+00  0.00000000000E+00 -0.21963096652E+04  0.21963096652E+04  0.25500000920E-02 0.  1.
    10030    2    1    2    0    0  0.00000000000E+00  0.00000000000E+00 -0.17855608886E+04  0.26070584419E+04  0.18996120743E+04 0.  0.
        4    1    3    3  502    0  0.34626220654E+03  0.20040670642E+03 -0.20750272400E+04  0.21132439573E+04  0.12699999809E+01 0.  1.
       -4    1    3    3    0  502 -0.34626220654E+03 -0.20040670642E+03  0.28946635142E+03  0.49381448456E+03  0.12699999809E+01 0. -1.
</event>
<event>
 5   0  0.7577180E-06  0.1899872E+04  0.7818609E-02  0.8654920E-01
        2   -1    0    0  501    0  0.00000000000E+00  0.00000000000E+00  0.55884131383E+03  0.55884131383E+03  0.25500000920E-02 0. -1.
       -2   -1    0    0    0  501  0.00000000000E+00  0.00000000000E+00 -0.16147317028E+04  0.16147317028E+04  0.25500000920E-02 0.  1.
    10030    2    1    2    0    0  0.00000000000E+00  0.00000000000E+00 -0.10558903890E+04  0.21735730166E+04  0.18998724023E+04 0.  0.
        5    1    3    3  502    0 -0.73717935046E+03 -0.27184681127E+02 -0.12126495169E+04  0.14194059822E+04  0.46999998093E+01 0.  1.
       -5    1    3    3    0  502  0.73717935046E+03  0.27184681127E+02  0.15675912787E+03  0.75416703442E+03  0.46999998093E+01 0. -1.
</event>
<event>
 5   0  0.6984466E-06  0.1900565E+04  0.7818609E-02  0.8654575E-01
       -2   -1    0    0    0  501  0.00000000000E+00  0.00000000000E+00  0.78365261940E+03  0.78365261940E+03  0.25500000920E-02 0.  1.
        2   -1    0    0  501    0  0.00000000000E+00  0.00000000000E+00 -0.11523431871E+04  0.11523431871E+04  0.25500000920E-02 0. -1.
    10030    2    1    2    0    0  0.00000000000E+00  0.00000000000E+00 -0.36869056773E+03  0.19359958065E+04  0.19005649234E+04 0.  0.
        2    1    3    3  502    0 -0.46053467807E+03 -0.73336987533E+03  0.21424619457E+03  0.89209023963E+03  0.25500000920E-02 0. -1.
       -2    1    3    3    0  502  0.46053467807E+03  0.73336987533E+03 -0.58293676230E+03  0.10439055669E+04  0.25500000920E-02 0.  1.
</event>
<event>
 5   0  0.6870370E-06  0.1901037E+04  0.7818609E-02  0.8654341E-01
       -2   -1    0    0    0  501  0.00000000000E+00  0.00000000000E+00  0.13920296823E+04  0.13920296823E+04  0.25500000920E-02 0. -1.
        2   -1    0    0  501    0  0.00000000000E+00  0.00000000000E+00 -0.64904146468E+03  0.64904146468E+03  0.25500000920E-02 0.  1.
    10030    2    1    2    0    0  0.00000000000E+00  0.00000000000E+00  0.74298821764E+03  0.20410711470E+04  0.19010365424E+04 0.  0.
        1    1    3    3  502    0 -0.26559613295E+03 -0.19663827050E+03 -0.58537754766E+03  0.67221632574E+03  0.50400001928E-02 0.  1.
       -1    1    3    3    0  502  0.26559613295E+03  0.19663827050E+03  0.13283657653E+04  0.13688548213E+04  0.50400001928E-02 0. -1.
</event>
<event>
 5   0  0.7207648E-06  0.1901870E+04  0.7818609E-02  0.8653926E-01
       -2   -1    0    0    0  501  0.00000000000E+00  0.00000000000E+00  0.28720153685E+04  0.28720153685E+04  0.25500000920E-02 0.  1.
        2   -1    0    0  501    0  0.00000000000E+00  0.00000000000E+00 -0.31485820101E+03  0.31485820102E+03  0.25500000920E-02 0. -1.
    10030    2    1    2    0    0  0.00000000000E+00  0.00000000000E+00  0.25571571675E+04  0.31868735695E+04  0.19018702292E+04 0.  0.
        4    1    3    3  502    0  0.56123300650E+03  0.63512979506E+03  0.20010620204E+04  0.21731597195E+04  0.12699999809E+01 0.  1.
       -4    1    3    3    0  502 -0.56123300650E+03 -0.63512979506E+03  0.55609514705E+03  0.10137138500E+04  0.12699999809E+01 0. -1.
</event>
<event>
 5   0  0.7207648E-06  0.1900596E+04  0.7818609E-02  0.8654560E-01
        2   -1    0    0  501    0  0.00000000000E+00  0.00000000000E+00  0.17818254377E+04  0.17818254377E+04  0.25500000920E-02 0.  1.
       -2   -1    0    0    0  501  0.00000000000E+00  0.00000000000E+00 -0.50682059820E+03  0.50682059821E+03  0.25500000920E-02 0. -1.
    10030    2    1    2    0    0  0.00000000000E+00  0.00000000000E+00  0.12750048395E+04  0.22886460359E+04  0.19005955217E+04 0.  0.
        4    1    3    3  502    0 -0.30377234072E+03  0.83375173644E+03  0.22800453737E+03  0.91619172391E+03  0.12699999809E+01 0.  1.
       -4    1    3    3    0  502  0.30377234072E+03 -0.83375173644E+03  0.10470003022E+04  0.13724543120E+04  0.12699999809E+01 0. -1.
</event>
<event>
 5   0  0.7577180E-06  0.1899880E+04  0.7818609E-02  0.8654916E-01
       -2   -1    0    0    0  501  0.00000000000E+00  0.00000000000E+00  0.38985620745E+03  0.38985620746E+03  0.25500000920E-02 0.  1.
        2   -1    0    0  501    0  0.00000000000E+00  0.00000000000E+00 -0.23146639909E+04  0.23146639909E+04  0.25500000920E-02 0. -1.
    10030    2    1    2    0    0  0.00000000000E+00  0.00000000000E+00 -0.19248077834E+04  0.27045201984E+04  0.18998801278E+04 0.  0.
        5    1    3    3  502    0 -0.37572400741E+03  0.86097051065E+03 -0.76146393662E+03  0.12092510768E+04  0.46999998093E+01 0.  1.
       -5    1    3    3    0  502  0.37572400741E+03 -0.86097051065E+03 -0.11633438468E+04  0.14952691216E+04  0.46999998093E+01 0. -1.
</event>
<event>
 5   0  0.3379108E-06  0.1899819E+04  0.7818609E-02  0.8654946E-01
        1   -1    0    0  501    0  0.00000000000E+00  0.00000000000E+00  0.14744085423E+04  0.14744085423E+04  0.50400001928E-02 0.  1.
       -1   -1    0    0    0  501  0.00000000000E+00  0.00000000000E+00 -0.61199329255E+03  0.61199329257E+03  0.50400001928E-02 0. -1.
    10030    2    1    2    0    0  0.00000000000E+00  0.00000000000E+00  0.86241524972E+03  0.20864018348E+04  0.18998190844E+04 0.  0.
        4    1    3    3  502    0  0.87022022675E+03  0.36936694662E+03  0.53311863538E+03  0.10853258850E+04  0.12699999809E+01 0.  1.
       -4    1    3    3    0  502 -0.87022022675E+03 -0.36936694662E+03  0.32929661434E+03  0.10010759499E+04  0.12699999809E+01 0. -1.
</event>
<event>
 5   0  0.7577180E-06  0.1899447E+04  0.7818609E-02  0.8655132E-01
        2   -1    0    0  501    0  0.00000000000E+00  0.00000000000E+00  0.64211590426E+03  0.64211590427E+03  0.25500000920E-02 0. -1.
       -2   -1    0    0    0  501  0.00000000000E+00  0.00000000000E+00 -0.14046910315E+04  0.14046910315E+04  0.25500000920E-02 0.  1.
    10030    2    1    2    0    0  0.00000000000E+00  0.00000000000E+00 -0.76257512724E+03  0.20468069358E+04  0.18994467109E+04 0.  0.
        5    1    3    3  502    0  0.79115771144E+03 -0.38062050555E+03 -0.77152928210E+03  0.11687951132E+04  0.46999998093E+01 0.  1.
       -5    1    3    3    0  502 -0.79115771144E+03  0.38062050555E+03  0.89541548592E+01  0.87801182253E+03  0.46999998093E+01 0. -1.
</event>
<event>
 5   0  0.6862201E-06  0.1899575E+04  0.7818609E-02  0.8655068E-01
        2   -1    0    0  501    0  0.00000000000E+00  0.00000000000E+00  0.88876896093E+03  0.88876896093E+03  0.25500000920E-02 0. -1.
       -2   -1    0    0    0  501  0.00000000000E+00  0.00000000000E+00 -0.10149956753E+04  0.10149956753E+04  0.25500000920E-02 0.  1.
    10030    2    1    2    0    0  0.00000000000E+00  0.00000000000E+00 -0.12622671438E+03  0.19037646363E+04  0.18995753754E+04 0.  0.
        3    1    3    3  502    0  0.36150596435E+03  0.48115457468E+03 -0.79951293435E+03  0.10007083638E+04  0.10100000352E+00 0.  1.
       -3    1    3    3    0  502 -0.36150596435E+03 -0.48115457468E+03  0.67328621997E+03  0.90305627244E+03  0.10100000352E+00 0. -1.
</event>
<event>
 5   0  0.2527750E-06  0.1888921E+04  0.7818609E-02  0.8660391E-01
       -4   -1    0    0    0  501  0.00000000000E+00  0.00000000000E+00  0.15231021381E+04  0.15231026676E+04  0.12699999809E+01 0.  1.
        4   -1    0    0  501    0  0.00000000000E+00  0.00000000000E+00 -0.58564916068E+03  0.58565053770E+03  0.12699999809E+01 0. -1.
    10030    2    1    2    0    0  0.00000000000E+00  0.00000000000E+00  0.93745297745E+03  0.21087532053E+04  0.18889208549E+04 0.  0.
        5    1    3    3  502    0 -0.88414357958E+03  0.24075228387E+03  0.21339043154E+03  0.94086614232E+03  0.46999998093E+01 0. -1.
       -5    1    3    3    0  502  0.88414357958E+03 -0.24075228387E+03  0.72406254590E+03  0.11678870630E+04  0.46999998093E+01 0.  1.
</event>
<event>
 5   0  0.3398807E-06  0.1899903E+04  0.7818609E-02  0.8654904E-01
       -1   -1    0    0    0  501  0.00000000000E+00  0.00000000000E+00  0.82190069985E+03  0.82190069986E+03  0.50400001928E-02 0. -1.
        1   -1    0    0  501    0  0.00000000000E+00  0.00000000000E+00 -0.10979528508E+04  0.10979528508E+04  0.50400001928E-02 0.  1.
    10030    2    1    2    0    0  0.00000000000E+00  0.00000000000E+00 -0.27605215096E+03  0.19198535507E+04  0.18999033833E+04 0.  0.
        1    1    3    3  502    0 -0.24063264625E+03  0.65523349285E+03 -0.78913140352E+03  0.10535479926E+04  0.50400001928E-02 0.  1.
       -1    1    3    3    0  502  0.24063264625E+03 -0.65523349285E+03  0.51307925256E+03  0.86630555811E+03  0.50400001928E-02 0. -1.
</event>
<event>
 5   0  0.3211263E-06  0.1899723E+04  0.7818609E-02  0.8654994E-01
       -1   -1    0    0    0  501  0.00000000000E+00  0.00000000000E+00  0.56695785856E+03  0.56695785858E+03  0.50400001928E-02 0.  1.
        1   -1    0    0  501    0  0.00000000000E+00  0.00000000000E+00 -0.15913645066E+04  0.15913645066E+04  0.50400001928E-02 0. -1.
    10030    2    1    2    0    0  0.00000000000E+00  0.00000000000E+00 -0.10244066480E+04  0.21583223652E+04  0.18997227302E+04 0.  0.
        5    1    3    3  502    0 -0.69859041570E+03  0.58511961712E+03 -0.20772822638E+03  0.93464787021E+03  0.46999998093E+01 0.  1.
       -5    1    3    3    0  502  0.69859041570E+03 -0.58511961712E+03 -0.81667842163E+03  0.12236744950E+04  0.46999998093E+01 0. -1.
</event>
<event>
 5   0  0.3211263E-06  0.1890418E+04  0.7818609E-02  0.8659641E-01
       -1   -1    0    0    0  501  0.00000000000E+00  0.00000000000E+00  0.10192928983E+04  0.10192928983E+04  0.50400001928E-02 0. -1.
        1   -1    0    0  501    0  0.00000000000E+00  0.00000000000E+00 -0.87650963041E+03  0.87650963042E+03  0.50400001928E-02 0.  1.
    10030    2    1    2    0    0  0.00000000000E+00  0.00000000000E+00  0.14278326786E+03  0.18958025287E+04  0.18904179872E+04 0.  0.
        5    1    3    3  502    0 -0.12395866592E+03  0.39034939181E+03  0.92567453884E+03  0.10122419871E+04  0.46999998093E+01 0. -1.
       -5    1    3    3    0  502  0.12395866592E+03 -0.39034939181E+03 -0.78289127098E+03  0.88356054162E+03  0.46999998093E+01 0.  1.
</event>
<event>
 5   0  0.6870370E-06  0.1900167E+04  0.7818609E-02  0.8654773E-01
       -2   -1    0    0    0  501  0.00000000000E+00  0.00000000000E+00  0.46231310144E+03  0.46231310145E+03  0.25500000920E-02 0. -1.
        2   -1    0    0  501    0  0.00000000000E+00  0.00000000000E+00 -0.19524843904E+04  0.19524843904E+04  0.25500000920E-02 0.  1.
    10030    2    1    2    0    0  0.00000000000E+00  0.00000000000E+00 -0.14901712890E+04  0.24147974919E+04  0.19001674811E+04 0.  0.
        1    1    3    3  502    0  0.12420851329E+03  0.50951020957E+03  0.26170906764E+03  0.58610583050E+03  0.50400001928E-02 0. -1.
       -1    1    3    3    0  502 -0.12420851329E+03 -0.50951020957E+03 -0.17518803566E+04  0.18286916614E+04  0.50400001928E-02 0.  1.
</event>
<event>
 5   0  0.6870370E-06  0.1900993E+04  0.7818609E-02  0.8654362E-01
       -2   -1    0    0    0  501  0.00000000000E+00  0.00000000000E+00  0.14009266906E+04  0.14009266906E+04  0.25500000920E-02 0.  1.
        2   -1    0    0  501    0  0.00000000000E+00  0.00000000000E+00 -0.64488978277E+03  0.64488978278E+03  0.25500000920E-02 0. -1.
    10030    2    1    2    0    0  0.00000000000E+00  0.00000000000E+00  0.75603690783E+03  0.20458164734E+04  0.19009926977E+04 0.  0.
        1    1    3    3  502    0  0.47048403430E+02 -0.60790130368E+03 -0.40669976883E+03  0.73291353465E+03  0.50400001928E-02 0. -1.
       -1    1    3    3    0  502 -0.47048403430E+02  0.60790130368E+03  0.11627366767E+04  0.13129029387E+04  0.50400001928E-02 0.  1.
</event>
<event>
 5   0  0.3379108E-06  0.1900287E+04  0.7818609E-02  0.8654714E-01
       -1   -1    0    0    0  501  0.00000000000E+00  0.00000000000E+00  0.91138262565E+03  0.91138262567E+03  0.50400001928E-02 0.  1.
        1   -1    0    0  501    0  0.00000000000E+00  0.00000000000E+00 -0.99055267618E+03  0.99055267619E+03  0.50400001928E-02 0. -1.
    10030    2    1    2    0    0  0.00000000000E+00  0.00000000000E+00 -0.79170050530E+02  0.19019353019E+04  0.19002868193E+04 0.  0.
        4    1    3    3  502    0 -0.93069980459E+02 -0.60145600330E+03  0.69067765086E+03  0.92056970158E+03  0.12699999809E+01 0.  1.
       -4    1    3    3    0  502  0.93069980459E+02  0.60145600330E+03 -0.76984770139E+03  0.98136560028E+03  0.12699999809E+01 0. -1.
</event>
<event>
 5   0  0.6984466E-06  0.1900109E+04  0.7818609E-02  0.8654802E-01
       -2   -1    0    0    0  501  0.00000000000E+00  0.00000000000E+00  0.55347440369E+03  0.55347440369E+03  0.25500000920E-02 0. -1.
        2   -1    0    0  501    0  0.00000000000E+00  0.00000000000E+00 -0.16307962199E+04  0.16307962199E+04  0.25500000920E-02 0.  1.
    10030    2    1    2    0    0  0.00000000000E+00  0.00000000000E+00 -0.10773218163E+04  0.21842706236E+04  0.19001094341E+04 0.  0.
        2    1    3    3  502    0 -0.17526247807E+03  0.87354107761E+03 -0.91786084157E+03  0.12791635841E+04  0.25500000920E-02 0.  1.
       -2    1    3    3    0  502  0.17526247807E+03 -0.87354107761E+03 -0.15946097469E+03  0.90510703950E+03  0.25500000920E-02 0. -1.
</event>
<event>
 5   0  0.2527750E-06  0.1899690E+04  0.7818609E-02  0.8655010E-01
       -3   -1    0    0    0  501  0.00000000000E+00  0.00000000000E+00  0.12220913512E+04  0.12220913553E+04  0.10100000352E+00 0.  1.
        3   -1    0    0  501    0  0.00000000000E+00  0.00000000000E+00 -0.73824752207E+03  0.73824752898E+03  0.10100000352E+00 0. -1.
    10030    2    1    2    0    0  0.00000000000E+00  0.00000000000E+00  0.48384382909E+03  0.19603388843E+04  0.18996904196E+04 0.  0.
        4    1    3    3  502    0 -0.58859769372E+03  0.72866193880E+03  0.79385160496E+02  0.94005270210E+03  0.12699999809E+01 0. -1.
       -4    1    3    3    0  502  0.58859769372E+03 -0.72866193880E+03  0.40445866859E+03  0.10202861822E+04  0.12699999809E+01 0.  1.
</event>
<event>
 5   0  0.7577180E-06  0.1899772E+04  0.7818609E-02  0.8654970E-01
        2   -1    0    0  501    0  0.00000000000E+00  0.00000000000E+00  0.20596126448E+04  0.20596126448E+04  0.25500000920E-02 0. -1.
       -2   -1    0    0    0  501  0.00000000000E+00  0.00000000000E+00 -0.43808405898E+03  0.43808405899E+03  0.25500000920E-02 0.  1.
    10030    2    1    2    0    0  0.00000000000E+00  0.00000000000E+00  0.16215285858E+04  0.24976967038E+04  0.18997720573E+04 0.  0.
        5    1    3    3  502    0 -0.17661427813E+03 -0.12842088175E+03 -0.40462041407E+03  0.45980897728E+03  0.46999998093E+01 0.  1.
       -5    1    3    3    0  502  0.17661427813E+03  0.12842088175E+03  0.20261489999E+04  0.20378877265E+04  0.46999998093E+01 0. -1.
</event>
<event>
 5   0  0.7577180E-06  0.1898814E+04  0.7818609E-02  0.8655447E-01
        2   -1    0    0  501    0  0.00000000000E+00  0.00000000000E+00  0.16068986794E+04  0.16068986794E+04  0.25500000920E-02 0.  1.
       -2   -1    0    0    0  501  0.00000000000E+00  0.00000000000E+00 -0.56093998079E+03  0.56093998080E+03  0.25500000920E-02 0. -1.
    10030    2    1    2    0    0  0.00000000000E+00  0.00000000000E+00  0.10459586986E+04  0.21678386602E+04  0.18988140660E+04 0.  0.
        5    1    3    3  502    0  0.45623467050E+03  0.76059152253E+03  0.90964017513E+03  0.12704789951E+04  0.46999998093E+01 0. -1.
       -5    1    3    3    0  502 -0.45623467050E+03 -0.76059152253E+03  0.13631852343E+03  0.89735966509E+03  0.46999998093E+01 0.  1.
</event>
<event>
 5   0  0.3398807E-06  0.1900621E+04  0.7818609E-02  0.8654547E-01
        1   -1    0    0  501    0  0.00000000000E+00  0.00000000000E+00  0.11969553270E+04  0.11969553270E+04  0.50400001928E-02 0.  1.
       -1   -1    0    0    0  501  0.00000000000E+00  0.00000000000E+00 -0.75448966243E+03  0.75448966245E+03  0.50400001928E-02 0. -1.
    10030    2    1    2    0    0  0.00000000000E+00  0.00000000000E+00  0.44246566460E+03  0.19514449895E+04  0.19006213938E+04 0.  0.
        1    1    3    3  502    0 -0.36651243691E+02 -0.57619205715E+03  0.99623478745E+03  0.11514444633E+04  0.50400001928E-02 0.  1.
       -1    1    3    3    0  502  0.36651243691E+02  0.57619205715E+03 -0.55376912286E+03  0.80000052615E+03  0.50400001928E-02 0. -1.
</event>
<event>
 5   0  0.3379108E-06  0.1899340E+04  0.7818609E-02  0.8655185E-01
       -1   -1    0    0    0  501  0.00000000000E+00  0.00000000000E+00  0.79563847392E+03  0.79563847394E+03  0.50400001928E-02 0. -1.
        1   -1    0    0  501    0  0.00000000000E+00  0.00000000000E+00 -0.11335216185E+04  0.11335216185E+04  0.50400001928E-02 0.  1.
    10030    2    1    2    0    0  0.00000000000E+00  0.00000000000E+00 -0.33788314460E+03  0.19291600925E+04  0.18993403178E+04 0.  0.
        4    1    3    3  502    0  0.90581655242E+03  0.11847433467E+03 -0.43249960060E+03  0.10107409718E+04  0.12699999809E+01 0. -1.
       -4    1    3    3    0  502 -0.90581655242E+03 -0.11847433467E+03  0.94616455998E+02  0.91841912070E+03  0.12699999809E+01 0.  1.
</event>
<event>
 5   0  0.6862201E-06  0.1903235E+04  0.7818609E-02  0.8653248E-01
        2   -1    0    0  501    0  0.00000000000E+00  0.00000000000E+00  0.11040634579E+04  0.11040634579E+04  0.25500000920E-02 0. -1.
       -2   -1    0    0    0  501  0.00000000000E+00  0.00000000000E+00 -0.82022044476E+03  0.82022044477E+03  0.25500000920E-02 0.  1.
    10030    2    1    2    0    0  0.00000000000E+00  0.00000000000E+00  0.28384301311E+03  0.19242839026E+04  0.19032345315E+04 0.  0.
        3    1    3    3  502    0 -0.28316552876E+03 -0.87172407140E+02  0.10562425368E+04  0.10970095952E+04  0.10100000352E+00 0. -1.
       -3    1    3    3    0  502  0.28316552876E+03  0.87172407140E+02 -0.77239952372E+03  0.82727430740E+03  0.10100000352E+00 0.  1.
</event>
<event>
 5   0  0.6870370E-06  0.1898134E+04  0.7818609E-02  0.8655786E-01
       -2   -1    0    0    0  501  0.00000000000E+00  0.00000000000E+00  0.43160833424E+03  0.43160833425E+03  0.25500000920E-02 0. -1.
        2   -1    0    0  501    0  0.00000000000E+00  0.00000000000E+00 -0.20869105627E+04  0.20869105627E+04  0.25500000920E-02 0.  1.
    10030    2    1    2    0    0  0.00000000000E+00  0.00000000000E+00 -0.16553022285E+04  0.25185188970E+04  0.18981338116E+04 0.  0.
        1    1    3    3  502    0  0.30052982929E+03 -0.89103730779E+03 -0.99789206396E+03  0.13711506969E+04  0.50400001928E-02 0. -1.
       -1    1    3    3    0  502 -0.30052982929E+03  0.89103730779E+03 -0.65741016451E+03  0.11473682001E+04  0.50400001928E-02 0.  1.
</event>
<event>
 5   0  0.7577180E-06  0.1899494E+04  0.7818609E-02  0.8655108E-01
        2   -1    0    0  501    0  0.00000000000E+00  0.00000000000E+00  0.92004591731E+03  0.92004591731E+03  0.25500000920E-02 0. -1.
       -2   -1    0    0    0  501  0.00000000000E+00  0.00000000000E+00 -0.98040725933E+03  0.98040725933E+03  0.25500000920E-02 0.  1.
    10030    2    1    2    0    0  0.00000000000E+00  0.00000000000E+00 -0.60361342022E+02  0.19004531766E+04  0.18994943498E+04 0.  0.
        5    1    3    3  502    0 -0.42511120758E+03  0.25927087010E+03 -0.83932661553E+03  0.97592631916E+03  0.46999998093E+01 0.  1.
       -5    1    3    3    0  502  0.42511120758E+03 -0.25927087010E+03  0.77896527350E+03  0.92452685749E+03  0.46999998093E+01 0. -1.
</event>
<event>
 5   0  0.3495279E-06  0.1902108E+04  0.7818609E-02  0.8653808E-01
       -1   -1    0    0    0  501  0.00000000000E+00  0.00000000000E+00  0.43097581827E+03  0.43097581830E+03  0.50400001928E-02 0. -1.
        1   -1    0    0  501    0  0.00000000000E+00  0.00000000000E+00 -0.20987344705E+04  0.20987344705E+04  0.50400001928E-02 0.  1.
    10030    2    1    2    0    0  0.00000000000E+00  0.00000000000E+00 -0.16677586522E+04  0.25297102888E+04  0.19021080998E+04 0.  0.
        2    1    3    3  502    0  0.13601004667E+03  0.76383735715E+03 -0.15654218902E+04  0.17471382130E+04  0.25500000920E-02 0.  1.
       -2    1    3    3    0  502 -0.13601004667E+03 -0.76383735715E+03 -0.10233676202E+03  0.78257207582E+03  0.25500000920E-02 0. -1.
</event>
<event>
 5   0  0.6862201E-06  0.1899719E+04  0.7818609E-02  0.8654996E-01
        2   -1    0    0  501    0  0.00000000000E+00  0.00000000000E+00  0.91329646699E+03  0.91329646700E+03  0.25500000920E-02 0. -1.
       -2   -1    0    0    0  501  0.00000000000E+00  0.00000000000E+00 -0.98788581211E+03  0.98788581212E+03  0.25500000920E-02 0.  1.
    10030    2    1    2    0    0  0.00000000000E+00  0.00000000000E+00 -0.74589345121E+02  0.19011822791E+04  0.18997185286E+04 0.  0.
        3    1    3    3  502    0  0.13089704817E+03  0.38490179330E+03  0.82182422129E+03  0.91688521016E+03  0.10100000352E+00 0. -1.
       -3    1    3    3    0  502 -0.13089704817E+03 -0.38490179330E+03 -0.89641356641E+03  0.98429706895E+03  0.10100000352E+00 0.  1.
</event>
<event>
 5   0  0.7207648E-06  0.1899411E+04  0.7818609E-02  0.8655150E-01
        2   -1    0    0  501    0  0.00000000000E+00  0.00000000000E+00  0.11276105985E+04  0.11276105985E+04  0.25500000920E-02 0.  1.
       -2   -1    0    0    0  501  0.00000000000E+00  0.00000000000E+00 -0.79986867181E+03  0.79986867181E+03  0.25500000920E-02 0. -1.
    10030    2    1    2    0    0  0.00000000000E+00  0.00000000000E+00  0.32774192667E+03  0.19274792703E+04  0.18994108473E+04 0.  0.
        4    1    3    3  502    0 -0.47768406825E+03 -0.57502753301E+03  0.75827423378E+03  0.10648099170E+04  0.12699999809E+01 0.  1.
       -4    1    3    3    0  502  0.47768406825E+03  0.57502753301E+03 -0.43053230712E+03  0.86266935331E+03  0.12699999809E+01 0. -1.
</event>
<event>
 5   0  0.3211263E-06  0.1901302E+04  0.7818609E-02  0.8654208E-01
        1   -1    0    0  501    0  0.00000000000E+00  0.00000000000E+00  0.11918282754E+04  0.11918282754E+04  0.50400001928E-02 0. -1.
       -1   -1    0    0    0  501  0.00000000000E+00  0.00000000000E+00 -0.75827830108E+03  0.75827830110E+03  0.50400001928E-02 0.  1.
    10030    2    1    2    0    0  0.00000000000E+00  0.00000000000E+00  0.43354997432E+03  0.19501065765E+04  0.19013022063E+04 0.  0.
        5    1    3    3  502    0  0.91578911508E+03  0.24775917711E+03  0.15471467103E+03  0.96125596621E+03  0.46999998093E+01 0.  1.
       -5    1    3    3    0  502 -0.91578911508E+03 -0.24775917711E+03  0.27883530329E+03  0.98885061030E+03  0.46999998093E+01 0. -1.
</event>
<event>
 5   0  0.6862201E-06  0.1900167E+04  0.7818609E-02  0.8654773E-01
       -2   -1    0    0    0  501  0.00000000000E+00  0.00000000000E+00  0.51226894806E+03  0.51226894806E+03  0.25500000920E-02 0.  1.
        2   -1    0    0  501    0  0.00000000000E+00  0.00000000000E+00 -0.17620796651E+04  0.17620796651E+04  0.25500000920E-02 0. -1.
    10030    2    1    2    0    0  0.00000000000E+00  0.00000000000E+00 -0.12498107170E+04  0.22743486132E+04  0.19001670415E+04 0.  0.
        3    1    3    3  502    0  0.18158748979E+03  0.88590559364E+03 -0.97356879043E+03  0.13287734710E+04  0.10100000352E+00 0. -1.
       -3    1    3    3    0  502 -0.18158748979E+03 -0.88590559364E+03 -0.27624192661E+03  0.94557514218E+03  0.10100000352E+00 0.  1.
</event>
<event>
 5   0  0.7207648E-06  0.1899322E+04  0.7818609E-02  0.8655194E-01
       -2   -1    0    0    0  501  0.00000000000E+00  0.00000000000E+00  0.90339140684E+03  0.90339140684E+03  0.25500000920E-02 0. -1.
        2   -1    0    0  501    0  0.00000000000E+00  0.00000000000E+00 -0.99830032616E+03  0.99830032617E+03  0.25500000920E-02 0.  1.
    10030    2    1    2    0    0  0.00000000000E+00  0.00000000000E+00 -0.94908919323E+02  0.19016917330E+04  0.18993219170E+04 0.  0.
        4    1    3    3  502    0  0.37723049370E+03  0.84300888115E+03 -0.26883552427E+03  0.96189446983E+03  0.12699999809E+01 0.  1.
       -4    1    3    3    0  502 -0.37723049370E+03 -0.84300888115E+03  0.17392660495E+03  0.93979726318E+03  0.12699999809E+01 0. -1.
</event>
<event>
 5   0  0.6870370E-06  0.1900434E+04  0.7818609E-02  0.8654641E-01
       -2   -1    0    0    0  501  0.00000000000E+00  0.00000000000E+00  0.89539671307E+03  0.89539671307E+03  0.25500000920E-02 0.  1.
        2   -1    0    0  501    0  0.00000000000E+00  0.00000000000E+00 -0.10083932392E+04  0.10083932392E+04  0.25500000920E-02 0. -1.
    10030    2    1    2    0    0  0.00000000000E+00  0.00000000000E+00 -0.11299652614E+03  0.19037899523E+04  0.19004336262E+04 0.  0.
        1    1    3    3  502    0  0.49115900834E+01  0.18525837765E+03  0.87711720202E+03  0.89648166535E+03  0.50400001928E-02 0.  1.
       -1    1    3    3    0  502 -0.49115900834E+01 -0.18525837765E+03 -0.99011372816E+03  0.10073082869E+04  0.50400001928E-02 0. -1.
</event>
<event>
 5   0  0.3379108E-06  0.1899670E+04  0.7818609E-02  0.8655021E-01
        1   -1    0    0  501    0  0.00000000000E+00  0.00000000000E+00  0.15284657370E+04  0.15284657370E+04  0.50400001928E-02 0. -1.
       -1   -1    0    0    0  501  0.00000000000E+00  0.00000000000E+00 -0.59025617924E+03  0.59025617926E+03  0.50400001928E-02 0.  1.
    10030    2    1    2    0    0  0.00000000000E+00  0.00000000000E+00  0.93820955772E+03  0.21187219162E+04  0.18996698092E+04 0.  0.
        4    1    3    3  502    0  0.43920958014E+03 -0.33316626295E+03 -0.39357188749E+03  0.67735164987E+03  0.12699999809E+01 0.  1.
       -4    1    3    3    0  502 -0.43920958014E+03  0.33316626295E+03  0.13317814452E+04  0.14413702664E+04  0.12699999809E+01 0. -1.
</event>
<event>
 5   0  0.6862201E-06  0.1899590E+04  0.7818609E-02  0.8655061E-01
        2   -1    0    0  501    0  0.00000000000E+00  0.00000000000E+00  0.12421066563E+04  0.12421066563E+04  0.25500000920E-02 0.  1.
       -2   -1    0    0    0  501  0.00000000000E+00  0.00000000000E+00 -0.72627424714E+03  0.72627424714E+03  0.25500000920E-02 0. -1.
    10030    2    1    2    0    0  0.00000000000E+00  0.00000000000E+00  0.51583240921E+03  0.19683809035E+04  0.18995895101E+04 0.  0.
        3    1    3    3  502    0 -0.92832025250E+03 -0.45558607149E+02  0.46059069751E+03  0.10373031759E+04  0.10100000352E+00 0.  1.
       -3    1    3    3    0  502  0.92832025250E+03  0.45558607149E+02  0.55241711694E+02  0.93107772759E+03  0.10100000352E+00 0. -1.
</event>
<event>
 5   0  0.7577180E-06  0.1900380E+04  0.7818609E-02  0.8654667E-01
        2   -1    0    0  501    0  0.00000000000E+00  0.00000000000E+00  0.20102986111E+04  0.20102986111E+04  0.25500000920E-02 0.  1.
       -2   -1    0    0    0  501  0.00000000000E+00  0.00000000000E+00 -0.44911804719E+03  0.44911804720E+03  0.25500000920E-02 0. -1.
    10030    2    1    2    0    0  0.00000000000E+00  0.00000000000E+00  0.15611805639E+04  0.24594166583E+04  0.19003803688E+04 0.  0.
        5    1    3    3  502    0  0.15800925374E+03  0.48365680598E+03 -0.25793513854E+03  0.57047651654E+03  0.46999998093E+01 0. -1.
       -5    1    3    3    0  502 -0.15800925374E+03 -0.48365680598E+03  0.18191157024E+04  0.18889401417E+04  0.46999998093E+01 0.  1.
</event>
<event>
 5   0  0.3236653E-06  0.1900109E+04  0.7818609E-02  0.8654802E-01
        1   -1    0    0  501    0  0.00000000000E+00  0.00000000000E+00  0.10076653754E+04  0.10076653754E+04  0.50400001928E-02 0.  1.
       -1   -1    0    0    0  501  0.00000000000E+00  0.00000000000E+00 -0.89573713597E+03  0.89573713598E+03  0.50400001928E-02 0. -1.
    10030    2    1    2    0    0  0.00000000000E+00  0.00000000000E+00  0.11192823945E+03  0.19034025114E+04  0.19001087310E+04 0.  0.
        3    1    3    3  502    0 -0.20633733241E+03  0.25799381867E+02  0.98458919166E+03  0.10063083968E+04  0.10100000352E+00 0.  1.
       -3    1    3    3    0  502  0.20633733241E+03 -0.25799381867E+02 -0.87266095221E+03  0.89709411466E+03  0.10100000352E+00 0. -1.
</event>
<event>
 5   0  0.2527750E-06  0.1900148E+04  0.7818609E-02  0.8654783E-01
       -3   -1    0    0    0  501  0.00000000000E+00  0.00000000000E+00  0.12132487293E+04  0.12132487335E+04  0.10100000352E+00 0. -1.
        3   -1    0    0  501    0  0.00000000000E+00  0.00000000000E+00 -0.74398654845E+03  0.74398655530E+03  0.10100000352E+00 0.  1.
    10030    2    1    2    0    0  0.00000000000E+00  0.00000000000E+00  0.46926218086E+03  0.19572352888E+04  0.19001481472E+04 0.  0.
        5    1    3    3  502    0  0.41556938550E+03  0.33288533362E+03  0.10451045852E+04  0.11729348846E+04  0.46999998093E+01 0.  1.
       -5    1    3    3    0  502 -0.41556938550E+03 -0.33288533362E+03 -0.57584240430E+03  0.78430040425E+03  0.46999998093E+01 0. -1.
</event>
<event>
 5   0  0.3379108E-06  0.1899192E+04  0.7818609E-02  0.8655259E-01
        1   -1    0    0  501    0  0.00000000000E+00  0.00000000000E+00  0.12576399124E+04  0.12576399124E+04  0.50400001928E-02 0.  1.
       -1   -1    0    0    0  501  0.00000000000E+00  0.00000000000E+00 -0.71700342115E+03  0.71700342116E+03  0.50400001928E-02 0. -1.
    10030    2    1    2    0    0  0.00000000000E+00  0.00000000000E+00  0.54063649124E+03  0.19746433336E+04  0.18991915330E+04 0.  0.
        4    1    3    3  502    0 -0.93672545797E+03 -0.14868709047E+03  0.22190582604E+03  0.97406685756E+03  0.12699999809E+01 0.  1.
       -4    1    3    3    0  502  0.93672545797E+03  0.14868709047E+03  0.31873066519E+03  0.10005764760E+04  0.12699999809E+01 0. -1.
</event>
<event>
 5   0  0.7207648E-06  0.1900132E+04  0.7818609E-02  0.8654791E-01
        2   -1    0    0  501    0  0.00000000000E+00  0.00000000000E+00  0.13455505415E+04  0.13455505415E+04  0.25500000920E-02 0. -1.
       -2   -1    0    0    0  501  0.00000000000E+00  0.00000000000E+00 -0.67082211033E+03  0.67082211033E+03  0.25500000920E-02 0.  1.
    10030    2    1    2    0    0  0.00000000000E+00  0.00000000000E+00  0.67472843120E+03  0.20163726519E+04  0.19001316310E+04 0.  0.
        4    1    3    3  502    0 -0.75089378236E+03  0.37487614393E+03 -0.13512678314E+03  0.85007908815E+03  0.12699999809E+01 0.  1.
       -4    1    3    3    0  502  0.75089378236E+03 -0.37487614393E+03  0.80985521433E+03  0.11662935637E+04  0.12699999809E+01 0. -1.
</event>
<event>
 5   0  0.3236653E-06  0.1900267E+04  0.7818609E-02  0.8654723E-01
       -1   -1    0    0    0  501  0.00000000000E+00  0.00000000000E+00  0.86977546204E+03  0.86977546206E+03  0.50400001928E-02 0.  1.
        1   -1    0    0  501    0  0.00000000000E+00  0.00000000000E+00 -0.10379162316E+04  0.10379162316E+04  0.50400001928E-02 0. -1.
    10030    2    1    2    0    0  0.00000000000E+00  0.00000000000E+00 -0.16814076954E+03  0.19076916936E+04  0.19002674232E+04 0.  0.
        3    1    3    3  502    0 -0.12936161208E+03 -0.56752554461E+03  0.66981922022E+03  0.88739927228E+03  0.10100000352E+00 0.  1.
       -3    1    3    3    0  502  0.12936161208E+03  0.56752554461E+03 -0.83795998976E+03  0.10202924214E+04  0.10100000352E+00 0. -1.
</event>
<event>
 5   0  0.7577180E-06  0.1901355E+04  0.7818609E-02  0.8654182E-01
       -2   -1    0    0    0  501  0.00000000000E+00  0.00000000000E+00  0.14801397676E+04  0.14801397676E+04  0.25500000920E-02 0.  1.
        2   -1    0    0  501    0  0.00000000000E+00  0.00000000000E+00 -0.61060993814E+03  0.61060993815E+03  0.25500000920E-02 0. -1.
    10030    2    1    2    0    0  0.00000000000E+00  0.00000000000E+00  0.86952982944E+03  0.20907497057E+04  0.19013553607E+04 0.  0.
        5    1    3    3  502    0  0.78881939863E+03 -0.43484097374E+03  0.76909568105E+03  0.11844209440E+04  0.46999998093E+01 0.  1.
       -5    1    3    3    0  502 -0.78881939863E+03  0.43484097374E+03  0.10043414839E+03  0.90632876168E+03  0.46999998093E+01 0. -1.
</event>
<event>
 5   0  0.6984466E-06  0.1900259E+04  0.7818609E-02  0.8654727E-01
       -2   -1    0    0    0  501  0.00000000000E+00  0.00000000000E+00  0.96961430803E+03  0.96961430803E+03  0.25500000920E-02 0.  1.
        2   -1    0    0  501    0  0.00000000000E+00  0.00000000000E+00 -0.93103639435E+03  0.93103639436E+03  0.25500000920E-02 0. -1.
    10030    2    1    2    0    0  0.00000000000E+00  0.00000000000E+00  0.38577913673E+02  0.19006507024E+04  0.19002591500E+04 0.  0.
        2    1    3    3  502    0 -0.71628018769E+03 -0.61292730193E+03 -0.99095156540E+02  0.94792248353E+03  0.25500000920E-02 0.  1.
       -2    1    3    3    0  502  0.71628018769E+03  0.61292730193E+03  0.13767307021E+03  0.95272821885E+03  0.25500000920E-02 0. -1.
</event>
<event>
 5   0  0.7577180E-06  0.1899036E+04  0.7818609E-02  0.8655336E-01
        2   -1    0    0  501    0  0.00000000000E+00  0.00000000000E+00  0.73809279605E+03  0.73809279606E+03  0.25500000920E-02 0. -1.
       -2   -1    0    0    0  501  0.00000000000E+00  0.00000000000E+00 -0.12215060936E+04  0.12215060936E+04  0.25500000920E-02 0.  1.
    10030    2    1    2    0    0  0.00000000000E+00  0.00000000000E+00 -0.48341329750E+03  0.19595988896E+04  0.18990364378E+04 0.  0.
        5    1    3    3  502    0  0.55005242310E+03  0.26222466081E+02  0.55647130762E+03  0.78289698690E+03  0.46999998093E+01 0. -1.
       -5    1    3    3    0  502 -0.55005242310E+03 -0.26222466081E+02 -0.10398846051E+04  0.11767019027E+04  0.46999998093E+01 0.  1.
</event>
<event>
 5   0  0.3211263E-06  0.1897931E+04  0.7818609E-02  0.8655887E-01
        1   -1    0    0  501    0  0.00000000000E+00  0.00000000000E+00  0.28377067280E+04  0.28377067280E+04  0.50400001928E-02 0. -1.
       -1   -1    0    0    0  501  0.00000000000E+00  0.00000000000E+00 -0.31734612677E+03  0.31734612681E+03  0.50400001928E-02 0.  1.
    10030    2    1    2    0    0  0.00000000000E+00  0.00000000000E+00  0.25203606012E+04  0.31550528548E+04  0.18979307038E+04 0.  0.
        5    1    3    3  502    0  0.65340848085E+03 -0.59113051355E+03  0.67448222048E+03  0.11096514239E+04  0.46999998093E+01 0.  1.
       -5    1    3    3    0  502 -0.65340848085E+03  0.59113051355E+03  0.18458783807E+04  0.20454014309E+04  0.46999998093E+01 0. -1.
</event>
<event>
 5   0  0.3379108E-06  0.1899988E+04  0.7818609E-02  0.8654862E-01
        1   -1    0    0  501    0  0.00000000000E+00  0.00000000000E+00  0.13940103515E+04  0.13940103515E+04  0.50400001928E-02 0.  1.
       -1   -1    0    0    0  501  0.00000000000E+00  0.00000000000E+00 -0.64740458253E+03  0.64740458255E+03  0.50400001928E-02 0. -1.
    10030    2    1    2    0    0  0.00000000000E+00  0.00000000000E+00  0.74660576895E+03  0.20414149340E+04  0.18999880943E+04 0.  0.
        4    1    3    3  502    0  0.58571517889E+03 -0.44356240287E+03  0.10203568981E+04  0.12573542415E+04  0.12699999809E+01 0.  1.
       -4    1    3    3    0  502 -0.58571517889E+03  0.44356240287E+03 -0.27375112919E+03  0.78406069258E+03  0.12699999809E+01 0. -1.
</event>
<event>
 5   0  0.6862201E-06  0.1899110E+04  0.7818609E-02  0.8655299E-01
        2   -1    0    0  501    0  0.00000000000E+00  0.00000000000E+00  0.11385234606E+04  0.11385234606E+04  0.25500000920E-02 0.  1.
       -2   -1    0    0    0  501  0.00000000000E+00  0.00000000000E+00 -0.79195132688E+03  0.79195132688E+03  0.25500000920E-02 0. -1.
    10030    2    1    2    0    0  0.00000000000E+00  0.00000000000E+00  0.34657213369E+03  0.19304747874E+04  0.18991104921E+04 0.  0.
        3    1    3    3  502    0  0.20438396199E+03 -0.85454317025E+03 -0.19271352430E+03  0.89953062560E+03  0.10100000352E+00 0. -1.
       -3    1    3    3    0  502 -0.20438396199E+03  0.85454317025E+03  0.53928565798E+03  0.10309441618E+04  0.10100000352E+00 0.  1.
</event>
<event>
 5   0  0.3495279E-06  0.1900999E+04  0.7818609E-02  0.8654359E-01
        1   -1    0    0  501    0  0.00000000000E+00  0.00000000000E+00  0.61199984514E+03  0.61199984517E+03  0.50400001928E-02 0.  1.
       -1   -1    0    0    0  501  0.00000000000E+00  0.00000000000E+00 -0.14762246778E+04  0.14762246778E+04  0.50400001928E-02 0. -1.
    10030    2    1    2    0    0  0.00000000000E+00  0.00000000000E+00 -0.86422483262E+03  0.20882245229E+04  0.19009989734E+04 0.  0.
        2    1    3    3  502    0  0.41737620416E+03 -0.72414410363E+03  0.65081368056E+02  0.83834549149E+03  0.25500000920E-02 0.  1.
       -2    1    3    3    0  502 -0.41737620416E+03  0.72414410363E+03 -0.92930620067E+03  0.12498790314E+04  0.25500000920E-02 0. -1.
</event>
<event>
 5   0  0.7207648E-06  0.1899112E+04  0.7818609E-02  0.8655299E-01
       -2   -1    0    0    0  501  0.00000000000E+00  0.00000000000E+00  0.99483140486E+03  0.99483140487E+03  0.25500000920E-02 0.  1.
        2   -1    0    0  501    0  0.00000000000E+00  0.00000000000E+00 -0.90634100565E+03  0.90634100566E+03  0.25500000920E-02 0. -1.
    10030    2    1    2    0    0  0.00000000000E+00  0.00000000000E+00  0.88490399210E+02  0.19011724105E+04  0.18991118934E+04 0.  0.
        4    1    3    3  502    0 -0.11757100132E+03 -0.10674060167E+03  0.98144382949E+03  0.99420827785E+03  0.12699999809E+01 0.  1.
       -4    1    3    3    0  502  0.11757100132E+03  0.10674060167E+03 -0.89295343028E+03  0.90696413267E+03  0.12699999809E+01 0. -1.
</event>
<event>
 5   0  0.3379108E-06  0.1909061E+04  0.7818609E-02  0.8650359E-01
       -1   -1    0    0    0  501  0.00000000000E+00  0.00000000000E+00  0.11918119227E+04  0.11918119227E+04  0.50400001928E-02 0. -1.
        1   -1    0    0  501    0  0.00000000000E+00  0.00000000000E+00 -0.76449034459E+03  0.76449034461E+03  0.50400001928E-02 0.  1.
    10030    2    1    2    0    0  0.00000000000E+00  0.00000000000E+00  0.42732157807E+03  0.19563022673E+04  0.19090612431E+04 0.  0.
        4    1    3    3  502    0 -0.25552661033E+03  0.79076263452E+02  0.11526209995E+04  0.11832513196E+04  0.12699999809E+01 0. -1.
       -4    1    3    3    0  502  0.25552661033E+03 -0.79076263452E+02 -0.72529942143E+03  0.77305094765E+03  0.12699999809E+01 0.  1.
</event>
<event>
 5   0  0.3398807E-06  0.1899567E+04  0.7818609E-02  0.8655072E-01
        1   -1    0    0  501    0  0.00000000000E+00  0.00000000000E+00  0.73070255579E+03  0.73070255581E+03  0.50400001928E-02 0. -1.
       -1   -1    0    0    0  501  0.00000000000E+00  0.00000000000E+00 -0.12345492843E+04  0.12345492843E+04  0.50400001928E-02 0.  1.
    10030    2    1    2    0    0  0.00000000000E+00  0.00000000000E+00 -0.50384672853E+03  0.19652518401E+04  0.18995666004E+04 0.  0.
        1    1    3    3  502    0  0.75706045826E+03  0.52891293382E+03 -0.22445218864E+02  0.92379284307E+03  0.50400001928E-02 0. -1.
       -1    1    3    3    0  502 -0.75706045826E+03 -0.52891293382E+03 -0.48140150967E+03  0.10414589971E+04  0.50400001928E-02 0.  1.
</event>
<event>
 5   0  0.3211263E-06  0.1900041E+04  0.7818609E-02  0.8654836E-01
       -1   -1    0    0    0  501  0.00000000000E+00  0.00000000000E+00  0.70919536561E+03  0.70919536562E+03  0.50400001928E-02 0. -1.
        1   -1    0    0  501    0  0.00000000000E+00  0.00000000000E+00 -0.12726235441E+04  0.12726235441E+04  0.50400001928E-02 0.  1.
    10030    2    1    2    0    0  0.00000000000E+00  0.00000000000E+00 -0.56342817850E+03  0.19818189097E+04  0.19000407571E+04 0.  0.
        5    1    3    3  502    0 -0.10973628615E+03  0.23571560436E+03 -0.12347770521E+04  0.12618638426E+04  0.46999998093E+01 0.  1.
       -5    1    3    3    0  502  0.10973628615E+03 -0.23571560436E+03  0.67134887364E+03  0.71995506719E+03  0.46999998093E+01 0. -1.
</event>
<event>
 5   0  0.3236653E-06  0.1900302E+04  0.7818609E-02  0.8654706E-01
        1   -1    0    0  501    0  0.00000000000E+00  0.00000000000E+00  0.14169880162E+04  0.14169880162E+04  0.50400001928E-02 0. -1.
       -1   -1    0    0    0  501  0.00000000000E+00  0.00000000000E+00 -0.63711710939E+03  0.63711710941E+03  0.50400001928E-02 0.  1.
    10030    2    1    2    0    0  0.00000000000E+00  0.00000000000E+00  0.77987090685E+03  0.20541051257E+04  0.19003024064E+04 0.  0.
        3    1    3    3  502    0  0.24733273629E+03  0.25908007499E+03 -0.56134424516E+03  0.66588538013E+03  0.10100000352E+00 0.  1.
       -3    1    3    3    0  502 -0.24733273629E+03 -0.25908007499E+03  0.13412151520E+04  0.13882197455E+04  0.10100000352E+00 0. -1.
</event>
<event>
 5   0  0.6984466E-06  0.1899590E+04  0.7818609E-02  0.8655061E-01
        2   -1    0    0  501    0  0.00000000000E+00  0.00000000000E+00  0.97088768471E+03  0.97088768471E+03  0.25500000920E-02 0.  1.
       -2   -1    0    0    0  501  0.00000000000E+00  0.00000000000E+00 -0.92916014133E+03  0.92916014133E+03  0.25500000920E-02 0. -1.
    10030    2    1    2    0    0  0.00000000000E+00  0.00000000000E+00  0.41727543381E+02  0.19000478260E+04  0.18995895750E+04 0.  0.
        2    1    3    3  502    0 -0.12161234108E+03 -0.94134820714E+03  0.55283259243E+02  0.95077981013E+03  0.25500000920E-02 0. -1.
       -2    1    3    3    0  502  0.12161234108E+03  0.94134820714E+03 -0.13555715863E+02  0.94926801591E+03  0.25500000920E-02 0.  1.
</event>
<event>
 5   0  0.3379108E-06  0.1899851E+04  0.7818609E-02  0.8654930E-01
       -1   -1    0    0    0  501  0.00000000000E+00  0.00000000000E+00  0.99874373509E+03  0.99874373511E+03  0.50400001928E-02 0. -1.
        1   -1    0    0  501    0  0.00000000000E+00  0.00000000000E+00 -0.90349375923E+03  0.90349375925E+03  0.50400001928E-02 0.  1.
    10030    2    1    2    0    0  0.00000000000E+00  0.00000000000E+00  0.95249975859E+02  0.19022374944E+04  0.18998512908E+04 0.  0.
        4    1    3    3  502    0 -0.39725278502E+03 -0.77625639340E+03 -0.32964178100E+03  0.93222801942E+03  0.12699999809E+01 0.  1.
       -4    1    3    3    0  502  0.39725278502E+03  0.77625639340E+03  0.42489175686E+03  0.97000947493E+03  0.12699999809E+01 0. -1.
</event>
<event>
 5   0  0.6862201E-06  0.1900014E+04  0.7818609E-02  0.8654850E-01
        2   -1    0    0  501    0  0.00000000000E+00  0.00000000000E+00  0.15124836419E+04  0.15124836419E+04  0.25500000920E-02 0. -1.
       -2   -1    0    0    0  501  0.00000000000E+00  0.00000000000E+00 -0.59670926873E+03  0.59670926873E+03  0.25500000920E-02 0.  1.
    10030    2    1    2    0    0  0.00000000000E+00  0.00000000000E+00  0.91577437322E+03  0.21091929107E+04  0.19000136925E+04 0.  0.
        3    1    3    3  502    0  0.84667884471E+02  0.89862829365E+03  0.12893304284E+03  0.91177036613E+03  0.10100000352E+00 0. -1.
       -3    1    3    3    0  502 -0.84667884471E+02 -0.89862829365E+03  0.78684133037E+03  0.11974225445E+04  0.10100000352E+00 0.  1.
</event>
<event>
 5   0  0.7207648E-06  0.1903730E+04  0.7818609E-02  0.8653002E-01
       -2   -1    0    0    0  501  0.00000000000E+00  0.00000000000E+00  0.16570781209E+04  0.16570781209E+04  0.25500000920E-02 0. -1.
        2   -1    0    0  501    0  0.00000000000E+00  0.00000000000E+00 -0.54677406385E+03  0.54677406385E+03  0.25500000920E-02 0.  1.
    10030    2    1    2    0    0  0.00000000000E+00  0.00000000000E+00  0.11103040571E+04  0.22038521848E+04  0.19037303783E+04 0.  0.
        4    1    3    3  502    0  0.30766221867E+03 -0.90016077396E+03  0.59355154810E+03  0.11212718283E+04  0.12699999809E+01 0. -1.
       -4    1    3    3    0  502 -0.30766221867E+03  0.90016077396E+03  0.51675250895E+03  0.10825803565E+04  0.12699999809E+01 0.  1.
</event>
<event>
 5   0  0.3398807E-06  0.1899489E+04  0.7818609E-02  0.8655111E-01
        1   -1    0    0  501    0  0.00000000000E+00  0.00000000000E+00  0.95475831877E+03  0.95475831878E+03  0.50400001928E-02 0. -1.
       -1   -1    0    0    0  501  0.00000000000E+00  0.00000000000E+00 -0.94475724062E+03  0.94475724064E+03  0.50400001928E-02 0.  1.
    10030    2    1    2    0    0  0.00000000000E+00  0.00000000000E+00  0.10001078149E+02  0.18995155594E+04  0.18994892311E+04 0.  0.
        1    1    3    3  502    0  0.45636180277E+03 -0.34904749704E+03  0.76126136639E+03  0.95373954422E+03  0.50400001928E-02 0. -1.
       -1    1    3    3    0  502 -0.45636180277E+03  0.34904749704E+03 -0.75126028824E+03  0.94577601520E+03  0.50400001928E-02 0.  1.
</event>
<event>
 5   0  0.7577180E-06  0.1899577E+04  0.7818609E-02  0.8655067E-01
        2   -1    0    0  501    0  0.00000000000E+00  0.00000000000E+00  0.89286874278E+03  0.89286874278E+03  0.25500000920E-02 0.  1.
       -2   -1    0    0    0  501  0.00000000000E+00  0.00000000000E+00 -0.10103371605E+04  0.10103371605E+04  0.25500000920E-02 0. -1.
    10030    2    1    2    0    0  0.00000000000E+00  0.00000000000E+00 -0.11746841771E+03  0.19032059033E+04  0.18995772901E+04 0.  0.
        5    1    3    3  502    0 -0.78109484871E+03 -0.17120481695E+03 -0.57221307831E+03  0.98329555527E+03  0.46999998093E+01 0. -1.
       -5    1    3    3    0  502  0.78109484871E+03  0.17120481695E+03  0.45474466060E+03  0.91991034800E+03  0.46999998093E+01 0.  1.
</event>
<event>
 5   0  0.2527750E-06  0.1900028E+04  0.7818609E-02  0.8654843E-01
       -3   -1    0    0    0  501  0.00000000000E+00  0.00000000000E+00  0.96243154874E+03  0.96243155404E+03  0.10100000352E+00 0. -1.
        3   -1    0    0  501    0  0.00000000000E+00  0.00000000000E+00 -0.93775629340E+03  0.93775629884E+03  0.10100000352E+00 0.  1.
    10030    2    1    2    0    0  0.00000000000E+00  0.00000000000E+00  0.24675255340E+02  0.19001878529E+04  0.19000276335E+04 0.  0.
        5    1    3    3  502    0 -0.28917166396E+03  0.90481974239E+03 -0.12703024625E+01  0.94991721804E+03  0.46999998093E+01 0.  1.
       -5    1    3    3    0  502  0.28917166396E+03 -0.90481974239E+03  0.25945557802E+02  0.95027063484E+03  0.46999998093E+01 0. -1.
</event>
<event>
 5   0  0.6870370E-06  0.1897345E+04  0.7818609E-02  0.8656179E-01
        2   -1    0    0  501    0  0.00000000000E+00  0.00000000000E+00  0.20565855846E+04  0.20565855846E+04  0.25500000920E-02 0. -1.
       -2   -1    0    0    0  501  0.00000000000E+00  0.00000000000E+00 -0.43760875039E+03  0.43760875040E+03  0.25500000920E-02 0.  1.
    10030    2    1    2    0    0  0.00000000000E+00  0.00000000000E+00  0.16189768342E+04  0.24941943350E+04  0.18973453537E+04 0.  0.
        1    1    3    3  502    0 -0.29166284825E+03 -0.24839028842E+03  0.19503773054E+04  0.19876459911E+04  0.50400001928E-02 0. -1.
       -1    1    3    3    0  502  0.29166284825E+03  0.24839028842E+03 -0.33140047116E+03  0.50654834394E+03  0.50400001928E-02 0.  1.
</event>
<event>
 5   0  0.6862201E-06  0.1900597E+04  0.7818609E-02  0.8654559E-01
        2   -1    0    0  501    0  0.00000000000E+00  0.00000000000E+00  0.11036395014E+04  0.11036395014E+04  0.25500000920E-02 0. -1.
       -2   -1    0    0    0  501  0.00000000000E+00  0.00000000000E+00 -0.81826317451E+03  0.81826317452E+03  0.25500000920E-02 0.  1.
    10030    2    1    2    0    0  0.00000000000E+00  0.00000000000E+00  0.28537632686E+03  0.19219026759E+04  0.19005973397E+04 0.  0.
        3    1    3    3  502    0  0.11444235692E+03  0.60495929450E+03  0.87467748000E+03  0.10696417649E+04  0.10100000352E+00 0. -1.
       -3    1    3    3    0  502 -0.11444235692E+03 -0.60495929450E+03 -0.58930115314E+03  0.85226091096E+03  0.10100000352E+00 0.  1.
</event>
<event>
 5   0  0.3398807E-06  0.1900313E+04  0.7818609E-02  0.8654700E-01
        1   -1    0    0  501    0  0.00000000000E+00  0.00000000000E+00  0.14391164877E+04  0.14391164877E+04  0.50400001928E-02 0.  1.
       -1   -1    0    0    0  501  0.00000000000E+00  0.00000000000E+00 -0.62732777247E+03  0.62732777249E+03  0.50400001928E-02 0. -1.
    10030    2    1    2    0    0  0.00000000000E+00  0.00000000000E+00  0.81178871522E+03  0.20664442602E+04  0.19003133853E+04 0.  0.
        1    1    3    3  502    0 -0.11302592802E+03  0.19287714388E+03  0.14101111608E+04  0.14277219403E+04  0.50400001928E-02 0.  1.
       -1    1    3    3    0  502  0.11302592802E+03 -0.19287714388E+03 -0.59832244556E+03  0.63872231988E+03  0.50400001928E-02 0. -1.
</event>
<event>
 5   0  0.3495279E-06  0.1899183E+04  0.7818609E-02  0.8655263E-01
       -1   -1    0    0    0  501  0.00000000000E+00  0.00000000000E+00  0.10843533864E+04  0.10843533864E+04  0.50400001928E-02 0. -1.
        1   -1    0    0  501    0  0.00000000000E+00  0.00000000000E+00 -0.83157736311E+03  0.83157736313E+03  0.50400001928E-02 0.  1.
    10030    2    1    2    0    0  0.00000000000E+00  0.00000000000E+00  0.25277602331E+03  0.19159307496E+04  0.18991826977E+04 0.  0.
        2    1    3    3  502    0  0.65339872888E+02 -0.16978243190E+03  0.10666092651E+04  0.10820123371E+04  0.25500000920E-02 0. -1.
       -2    1    3    3    0  502 -0.65339872888E+02  0.16978243190E+03 -0.81383324181E+03  0.83391841247E+03  0.25500000920E-02 0.  1.
</event>
<event>
 5   0  0.6870370E-06  0.1899794E+04  0.7818609E-02  0.8654959E-01
       -2   -1    0    0    0  501  0.00000000000E+00  0.00000000000E+00  0.45242172053E+03  0.45242172054E+03  0.25500000920E-02 0.  1.
        2   -1    0    0  501    0  0.00000000000E+00  0.00000000000E+00 -0.19943886497E+04  0.19943886497E+04  0.25500000920E-02 0. -1.
    10030    2    1    2    0    0  0.00000000000E+00  0.00000000000E+00 -0.15419669291E+04  0.24468103702E+04  0.18997944566E+04 0.  0.
        1    1    3    3  502    0  0.68172958412E+03 -0.25041997827E+03 -0.15595099516E+04  0.17203303987E+04  0.50400001928E-02 0. -1.
       -1    1    3    3    0  502 -0.68172958412E+03  0.25041997827E+03  0.17543022482E+02  0.72647997154E+03  0.50400001928E-02 0.  1.
</event>
<event>
 5   0  0.6862201E-06  0.1902485E+04  0.7818609E-02  0.8653620E-01
       -2   -1    0    0    0  501  0.00000000000E+00  0.00000000000E+00  0.69029124374E+03  0.69029124374E+03  0.25500000920E-02 0.  1.
        2   -1    0    0  501    0  0.00000000000E+00  0.00000000000E+00 -0.13108416309E+04  0.13108416309E+04  0.25500000920E-02 0. -1.
    10030    2    1    2    0    0  0.00000000000E+00  0.00000000000E+00 -0.62055038719E+03  0.20011328747E+04  0.19024852165E+04 0.  0.
        3    1    3    3  502    0 -0.48099044657E+02 -0.82020779901E+03 -0.81451524429E+03  0.11569310459E+04  0.10100000352E+00 0. -1.
       -3    1    3    3    0  502  0.48099044657E+02  0.82020779901E+03  0.19396485710E+03  0.84420182874E+03  0.10100000352E+00 0.  1.
</event>
<event>
 5   0  0.3211263E-06  0.1899642E+04  0.7818609E-02  0.8655035E-01
        1   -1    0    0  501    0  0.00000000000E+00  0.00000000000E+00  0.15919287529E+04  0.15919287529E+04  0.50400001928E-02 0. -1.
       -1   -1    0    0    0  501  0.00000000000E+00  0.00000000000E+00 -0.56670882473E+03  0.56670882475E+03  0.50400001928E-02 0.  1.
    10030    2    1    2    0    0  0.00000000000E+00  0.00000000000E+00  0.10252199282E+04  0.21586375777E+04  0.18996421480E+04 0.  0.
        5    1    3    3  502    0  0.27350900392E+03 -0.80442480212E+03  0.99502778113E+03  0.13084375464E+04  0.46999998093E+01 0. -1.
       -5    1    3    3    0  502 -0.27350900392E+03  0.80442480212E+03  0.30192147031E+02  0.85020003130E+03  0.46999998093E+01 0.  1.
</event>
<event>
 5   0  0.6862201E-06  0.1899661E+04  0.7818609E-02  0.8655025E-01
       -2   -1    0    0    0  501  0.00000000000E+00  0.00000000000E+00  0.88211421245E+03  0.88211421246E+03  0.25500000920E-02 0. -1.
        2   -1    0    0  501    0  0.00000000000E+00  0.00000000000E+00 -0.10227451011E+04  0.10227451011E+04  0.25500000920E-02 0.  1.
    10030    2    1    2    0    0  0.00000000000E+00  0.00000000000E+00 -0.14063088865E+03  0.19048593136E+04  0.18996610112E+04 0.  0.
        3    1    3    3  502    0  0.32993159746E+03  0.88998534069E+03 -0.34874511767E+02  0.94981314342E+03  0.10100000352E+00 0. -1.
       -3    1    3    3    0  502 -0.32993159746E+03 -0.88998534069E+03 -0.10575637688E+03  0.95504617014E+03  0.10100000352E+00 0.  1.
</event>
<event>
 5   0  0.3379108E-06  0.1901105E+04  0.7818609E-02  0.8654307E-01
        1   -1    0    0  501    0  0.00000000000E+00  0.00000000000E+00  0.85501239523E+03  0.85501239524E+03  0.50400001928E-02 0. -1.
       -1   -1    0    0    0  501  0.00000000000E+00  0.00000000000E+00 -0.10567679923E+04  0.10567679923E+04  0.50400001928E-02 0.  1.
    10030    2    1    2    0    0  0.00000000000E+00  0.00000000000E+00 -0.20175559707E+03  0.19117803875E+04  0.19011046603E+04 0.  0.
        4    1    3    3  502    0  0.58227838081E+03 -0.24974450409E+03  0.61171111436E+03  0.88068866826E+03  0.12699999809E+01 0. -1.
       -4    1    3    3    0  502 -0.58227838081E+03  0.24974450409E+03 -0.81346671143E+03  0.10310917193E+04  0.12699999809E+01 0.  1.
</event>
<event>
 5   0  0.3379108E-06  0.1900114E+04  0.7818609E-02  0.8654799E-01
        1   -1    0    0  501    0  0.00000000000E+00  0.00000000000E+00  0.13853955675E+04  0.13853955675E+04  0.50400001928E-02 0.  1.
       -1   -1    0    0    0  501  0.00000000000E+00  0.00000000000E+00 -0.65151694901E+03  0.65151694903E+03  0.50400001928E-02 0. -1.
    10030    2    1    2    0    0  0.00000000000E+00  0.00000000000E+00  0.73387861849E+03  0.20369125165E+04  0.19001144106E+04 0.  0.
        4    1    3    3  502    0  0.58108450507E+03  0.62413981486E+03 -0.82017087307E+02  0.85670188866E+03  0.12699999809E+01 0. -1.
       -4    1    3    3    0  502 -0.58108450507E+03 -0.62413981486E+03  0.81589570579E+03  0.11802106279E+04  0.12699999809E+01 0.  1.
</event>
<event>
 5   0  0.6862201E-06  0.1900112E+04  0.7818609E-02  0.8654800E-01
        2   -1    0    0  501    0  0.00000000000E+00  0.00000000000E+00  0.21146672189E+04  0.21146672189E+04  0.25500000920E-02 0. -1.
       -2   -1    0    0    0  501  0.00000000000E+00  0.00000000000E+00 -0.42683155512E+03  0.42683155512E+03  0.25500000920E-02 0.  1.
    10030    2    1    2    0    0  0.00000000000E+00  0.00000000000E+00  0.16878356637E+04  0.25414987740E+04  0.19001123099E+04 0.  0.
        3    1    3    3  502    0  0.52688252662E+03  0.74284274499E+03  0.48207075048E+03  0.10304429918E+04  0.10100000352E+00 0.  1.
       -3    1    3    3    0  502 -0.52688252662E+03 -0.74284274499E+03  0.12057649133E+04  0.15110557822E+04  0.10100000352E+00 0. -1.
</event>
<event>
 5   0  0.3236653E-06  0.1900447E+04  0.7818609E-02  0.8654634E-01
       -1   -1    0    0    0  501  0.00000000000E+00  0.00000000000E+00  0.75260433110E+03  0.75260433111E+03  0.50400001928E-02 0.  1.
        1   -1    0    0  501    0  0.00000000000E+00  0.00000000000E+00 -0.11997335106E+04  0.11997335106E+04  0.50400001928E-02 0. -1.
    10030    2    1    2    0    0  0.00000000000E+00  0.00000000000E+00 -0.44712917954E+03  0.19523378418E+04  0.19004469330E+04 0.  0.
        3    1    3    3  502    0 -0.80472238161E+03 -0.40948876256E+03  0.80603396670E+02  0.90650762594E+03  0.10100000352E+00 0.  1.
       -3    1    3    3    0  502  0.80472238161E+03  0.40948876256E+03 -0.52773257621E+03  0.10458302158E+04  0.10100000352E+00 0. -1.
</event>
<event>
 5   0  0.3398807E-06  0.1899161E+04  0.7818609E-02  0.8655274E-01
        1   -1    0    0  501    0  0.00000000000E+00  0.00000000000E+00  0.21885177998E+04  0.21885177998E+04  0.50400001928E-02 0.  1.
       -1   -1    0    0    0  501  0.00000000000E+00  0.00000000000E+00 -0.41201540733E+03  0.41201540736E+03  0.50400001928E-02 0. -1.
    10030    2    1    2    0    0  0.00000000000E+00  0.00000000000E+00  0.17765023924E+04  0.26005332071E+04  0.18991609229E+04 0.  0.
        1    1    3    3  502    0 -0.27502472906E+03 -0.17449292355E+03 -0.33313378494E+03  0.46590181439E+03  0.50400001928E-02 0. -1.
       -1    1    3    3    0  502  0.27502472906E+03  0.17449292355E+03  0.21096361774E+04  0.21346313928E+04  0.50400001928E-02 0.  1.
</event>
<event>
 5   0  0.3379108E-06  0.1894159E+04  0.7818609E-02  0.8657769E-01
        1   -1    0    0  501    0  0.00000000000E+00  0.00000000000E+00  0.14506872204E+04  0.14506872204E+04  0.50400001928E-02 0. -1.
       -1   -1    0    0    0  501  0.00000000000E+00  0.00000000000E+00 -0.61829986069E+03  0.61829986071E+03  0.50400001928E-02 0.  1.
    10030    2    1    2    0    0  0.00000000000E+00  0.00000000000E+00  0.83238735973E+03  0.20689870811E+04  0.18941591341E+04 0.  0.
        4    1    3    3  502    0  0.47388627715E+02 -0.14344821838E+03  0.14374401679E+04  0.14453577144E+04  0.12699999809E+01 0. -1.
       -4    1    3    3    0  502 -0.47388627715E+02  0.14344821838E+03 -0.60505280821E+03  0.62362936670E+03  0.12699999809E+01 0.  1.
</event>
<event>
 5   0  0.6984466E-06  0.1901820E+04  0.7818609E-02  0.8653951E-01
       -2   -1    0    0    0  501  0.00000000000E+00  0.00000000000E+00  0.89086021757E+03  0.89086021757E+03  0.25500000920E-02 0.  1.
        2   -1    0    0  501    0  0.00000000000E+00  0.00000000000E+00 -0.10150079940E+04  0.10150079940E+04  0.25500000920E-02 0. -1.
    10030    2    1    2    0    0  0.00000000000E+00  0.00000000000E+00 -0.12414777647E+03  0.19058682116E+04  0.19018204357E+04 0.  0.
        2    1    3    3  502    0 -0.41081301722E+03  0.38274127421E+03 -0.83115242263E+03  0.10030316883E+04  0.25500000920E-02 0. -1.
       -2    1    3    3    0  502  0.41081301722E+03 -0.38274127421E+03  0.70700464616E+03  0.90283652330E+03  0.25500000920E-02 0.  1.
</event>
<event>
 5   0  0.6984466E-06  0.1900027E+04  0.7818609E-02  0.8654843E-01
        2   -1    0    0  501    0  0.00000000000E+00  0.00000000000E+00  0.18334377821E+04  0.18334377821E+04  0.25500000920E-02 0.  1.
       -2   -1    0    0    0  501  0.00000000000E+00  0.00000000000E+00 -0.49225855388E+03  0.49225855388E+03  0.25500000920E-02 0. -1.
    10030    2    1    2    0    0  0.00000000000E+00  0.00000000000E+00  0.13411792282E+04  0.23256963359E+04  0.19000267695E+04 0.  0.
        2    1    3    3  502    0 -0.53100758244E+03 -0.54132465969E+03 -0.29921206108E+02  0.75887859265E+03  0.25500000920E-02 0. -1.
       -2    1    3    3    0  502  0.53100758244E+03  0.54132465969E+03  0.13711004343E+04  0.15668177433E+04  0.25500000920E-02 0.  1.
</event>
<event>
 5   0  0.6984466E-06  0.1898995E+04  0.7818609E-02  0.8655357E-01
       -2   -1    0    0    0  501  0.00000000000E+00  0.00000000000E+00  0.70590780206E+03  0.70590780207E+03  0.25500000920E-02 0. -1.
        2   -1    0    0  501    0  0.00000000000E+00  0.00000000000E+00 -0.12771435326E+04  0.12771435326E+04  0.25500000920E-02 0.  1.
    10030    2    1    2    0    0  0.00000000000E+00  0.00000000000E+00 -0.57123573054E+03  0.19830513347E+04  0.18989950859E+04 0.  0.
        2    1    3    3  502    0 -0.91903509689E+03  0.14264556838E+03 -0.48532167540E+03  0.10490521418E+04  0.25500000920E-02 0. -1.
       -2    1    3    3    0  502  0.91903509689E+03 -0.14264556838E+03 -0.85914055138E+02  0.93399919292E+03  0.25500000920E-02 0.  1.
</event>
<event>
 5   0  0.3495279E-06  0.1904232E+04  0.7818609E-02  0.8652753E-01
        1   -1    0    0  501    0  0.00000000000E+00  0.00000000000E+00  0.10561503008E+04  0.10561503008E+04  0.50400001928E-02 0. -1.
       -1   -1    0    0    0  501  0.00000000000E+00  0.00000000000E+00 -0.85832956263E+03  0.85832956265E+03  0.50400001928E-02 0.  1.
    10030    2    1    2    0    0  0.00000000000E+00  0.00000000000E+00  0.19782073819E+03  0.19144798635E+04  0.19042321558E+04 0.  0.
        2    1    3    3  502    0 -0.16633231429E+03 -0.88457779542E+03  0.41103351158E+03  0.98949121400E+03  0.25500000920E-02 0. -1.
       -2    1    3    3    0  502  0.16633231429E+03  0.88457779542E+03 -0.21321277340E+03  0.92498864949E+03  0.25500000920E-02 0.  1.
</event>
<event>
 5   0  0.3379108E-06  0.1903549E+04  0.7818609E-02  0.8653092E-01
       -1   -1    0    0    0  501  0.00000000000E+00  0.00000000000E+00  0.91115798753E+03  0.91115798754E+03  0.50400001928E-02 0.  1.
        1   -1    0    0  501    0  0.00000000000E+00  0.00000000000E+00 -0.99420113517E+03  0.99420113518E+03  0.50400001928E-02 0. -1.
    10030    2    1    2    0    0  0.00000000000E+00  0.00000000000E+00 -0.83043147640E+02  0.19053591227E+04  0.19035485868E+04 0.  0.
        4    1    3    3  502    0 -0.10629566101E+03 -0.92537120019E+03  0.15427139472E+03  0.94414612312E+03  0.12699999809E+01 0.  1.
       -4    1    3    3    0  502  0.10629566101E+03  0.92537120019E+03 -0.23731454236E+03  0.96121299960E+03  0.12699999809E+01 0. -1.
</event>
<event>
 5   0  0.3236653E-06  0.1896689E+04  0.7818609E-02  0.8656506E-01
       -1   -1    0    0    0  501  0.00000000000E+00  0.00000000000E+00  0.13581158638E+04  0.13581158638E+04  0.50400001928E-02 0. -1.
        1   -1    0    0  501    0  0.00000000000E+00  0.00000000000E+00 -0.66220983147E+03  0.66220983149E+03  0.50400001928E-02 0.  1.
    10030    2    1    2    0    0  0.00000000000E+00  0.00000000000E+00  0.69590603236E+03  0.20203256953E+04  0.18966894077E+04 0.  0.
        3    1    3    3  502    0 -0.91316314086E+03  0.22187234450E+03  0.21211199179E+03  0.96337208095E+03  0.10100000352E+00 0.  1.
       -3    1    3    3    0  502  0.91316314086E+03 -0.22187234450E+03  0.48379404057E+03  0.10569536144E+04  0.10100000352E+00 0. -1.
</event>
<event>
 5   0  0.7577180E-06  0.1896906E+04  0.7818609E-02  0.8656398E-01
       -2   -1    0    0    0  501  0.00000000000E+00  0.00000000000E+00  0.12122411275E+04  0.12122411275E+04  0.25500000920E-02 0. -1.
        2   -1    0    0  501    0  0.00000000000E+00  0.00000000000E+00 -0.74206650858E+03  0.74206650859E+03  0.25500000920E-02 0.  1.
    10030    2    1    2    0    0  0.00000000000E+00  0.00000000000E+00  0.47017461888E+03  0.19543076361E+04  0.18969064722E+04 0.  0.
        5    1    3    3  502    0  0.56106916966E+03 -0.47910786989E+03  0.84910737566E+03  0.11248770553E+04  0.46999998093E+01 0. -1.
       -5    1    3    3    0  502 -0.56106916966E+03  0.47910786989E+03 -0.37893275678E+03  0.82943058075E+03  0.46999998093E+01 0.  1.
</event>
<event>
 5   0  0.3379108E-06  0.1899661E+04  0.7818609E-02  0.8655025E-01
        1   -1    0    0  501    0  0.00000000000E+00  0.00000000000E+00  0.82999006737E+03  0.82999006739E+03  0.50400001928E-02 0. -1.
       -1   -1    0    0    0  501  0.00000000000E+00  0.00000000000E+00 -0.10869746183E+04  0.10869746183E+04  0.50400001928E-02 0.  1.
    10030    2    1    2    0    0  0.00000000000E+00  0.00000000000E+00 -0.25698455091E+03  0.19169646857E+04  0.18996611663E+04 0.  0.
        4    1    3    3  502    0 -0.76805161767E+03  0.37387975480E+03  0.29060646933E+03  0.90229878165E+03  0.12699999809E+01 0. -1.
       -4    1    3    3    0  502  0.76805161767E+03 -0.37387975480E+03 -0.54759102024E+03  0.10146659040E+04  0.12699999809E+01 0.  1.
</event>
<event>
 5   0  0.7577180E-06  0.1899857E+04  0.7818609E-02  0.8654928E-01
        2   -1    0    0  501    0  0.00000000000E+00  0.00000000000E+00  0.97000239159E+03  0.97000239160E+03  0.25500000920E-02 0.  1.
       -2   -1    0    0    0  501  0.00000000000E+00  0.00000000000E+00 -0.93026960933E+03  0.93026960933E+03  0.25500000920E-02 0. -1.
    10030    2    1    2    0    0  0.00000000000E+00  0.00000000000E+00  0.39732782268E+02  0.19002720009E+04  0.18998565692E+04 0.  0.
        5    1    3    3  502    0  0.34773793483E+03  0.24872403611E+02  0.90368925402E+03  0.96861585038E+03  0.46999998093E+01 0.  1.
       -5    1    3    3    0  502 -0.34773793483E+03 -0.24872403611E+02 -0.86395647175E+03  0.93165615055E+03  0.46999998093E+01 0. -1.
</event>
<event>
 5   0  0.3379108E-06  0.1900231E+04  0.7818609E-02  0.8654742E-01
        1   -1    0    0  501    0  0.00000000000E+00  0.00000000000E+00  0.14830482650E+04  0.14830482650E+04  0.50400001928E-02 0. -1.
       -1   -1    0    0    0  501  0.00000000000E+00  0.00000000000E+00 -0.60869171711E+03  0.60869171713E+03  0.50400001928E-02 0.  1.
    10030    2    1    2    0    0  0.00000000000E+00  0.00000000000E+00  0.87435654787E+03  0.20917399821E+04  0.19002307176E+04 0.  0.
        4    1    3    3  502    0 -0.77475883328E+03 -0.51190333135E+03  0.21586545768E+03  0.95336025673E+03  0.12699999809E+01 0.  1.
       -4    1    3    3    0  502  0.77475883328E+03  0.51190333135E+03  0.65849109019E+03  0.11383797254E+04  0.12699999809E+01 0. -1.
</event>
<event>
 5   0  0.3211263E-06  0.1899429E+04  0.7818609E-02  0.8655141E-01
        1   -1    0    0  501    0  0.00000000000E+00  0.00000000000E+00  0.59125676518E+03  0.59125676520E+03  0.50400001928E-02 0. -1.
       -1   -1    0    0    0  501  0.00000000000E+00  0.00000000000E+00 -0.15254927569E+04  0.15254927569E+04  0.50400001928E-02 0.  1.
    10030    2    1    2    0    0  0.00000000000E+00  0.00000000000E+00 -0.93423599173E+03  0.21167495221E+04  0.18994292962E+04 0.  0.
        5    1    3    3  502    0  0.55347185415E+03  0.35602004026E+03  0.29595373409E+03  0.72158995637E+03  0.46999998093E+01 0. -1.
       -5    1    3    3    0  502 -0.55347185415E+03 -0.35602004026E+03 -0.12301897258E+04  0.13951595658E+04  0.46999998093E+01 0.  1.
</event>
<event>
 5   0  0.3236653E-06  0.1896841E+04  0.7818609E-02  0.8656430E-01
        1   -1    0    0  501    0  0.00000000000E+00  0.00000000000E+00  0.11064052527E+04  0.11064052527E+04  0.50400001928E-02 0. -1.
       -1   -1    0    0    0  501  0.00000000000E+00  0.00000000000E+00 -0.81299443901E+03  0.81299443903E+03  0.50400001928E-02 0.  1.
    10030    2    1    2    0    0  0.00000000000E+00  0.00000000000E+00  0.29341081366E+03  0.19193996917E+04  0.18968408660E+04 0.  0.
        3    1    3    3  502    0  0.53746560593E+03 -0.47176091421E+03  0.77706971043E+03  0.10560610696E+04  0.10100000352E+00 0. -1.
       -3    1    3    3    0  502 -0.53746560593E+03  0.47176091421E+03 -0.48365889677E+03  0.86333862207E+03  0.10100000352E+00 0.  1.
</event>
<event>
 5   0  0.3236653E-06  0.1899843E+04  0.7818609E-02  0.8654935E-01
       -1   -1    0    0    0  501  0.00000000000E+00  0.00000000000E+00  0.73273848842E+03  0.73273848843E+03  0.50400001928E-02 0. -1.
        1   -1    0    0  501    0  0.00000000000E+00  0.00000000000E+00 -0.12314773162E+04  0.12314773162E+04  0.50400001928E-02 0.  1.
    10030    2    1    2    0    0  0.00000000000E+00  0.00000000000E+00 -0.49873882781E+03  0.19642158047E+04  0.18998429695E+04 0.  0.
        3    1    3    3  502    0  0.36051047913E+03 -0.76753982789E+03  0.19323118796E+03  0.86972610353E+03  0.10100000352E+00 0. -1.
       -3    1    3    3    0  502 -0.36051047913E+03  0.76753982789E+03 -0.69197001577E+03  0.10944897011E+04  0.10100000352E+00 0.  1.
</event>
<event>
 5   0  0.7207648E-06  0.1900424E+04  0.7818609E-02  0.8654645E-01
       -2   -1    0    0    0  501  0.00000000000E+00  0.00000000000E+00  0.12231384779E+04  0.12231384779E+04  0.25500000920E-02 0. -1.
        2   -1    0    0  501    0  0.00000000000E+00  0.00000000000E+00 -0.73818536381E+03  0.73818536382E+03  0.25500000920E-02 0.  1.
    10030    2    1    2    0    0  0.00000000000E+00  0.00000000000E+00  0.48495311404E+03  0.19613238417E+04  0.19004240814E+04 0.  0.
        4    1    3    3  502    0  0.32899272497E+03  0.48470619839E+03 -0.52964581142E+03  0.78974844748E+03  0.12699999809E+01 0.  1.
       -4    1    3    3    0  502 -0.32899272497E+03 -0.48470619839E+03  0.10145989255E+04  0.11715753942E+04  0.12699999809E+01 0. -1.
</event>
<event>
 5   0  0.6984466E-06  0.1901135E+04  0.7818609E-02  0.8654291E-01
       -2   -1    0    0    0  501  0.00000000000E+00  0.00000000000E+00  0.80631595576E+03  0.80631595576E+03  0.25500000920E-02 0. -1.
        2   -1    0    0  501    0  0.00000000000E+00  0.00000000000E+00 -0.11206263988E+04  0.11206263988E+04  0.25500000920E-02 0.  1.
    10030    2    1    2    0    0  0.00000000000E+00  0.00000000000E+00 -0.31431044305E+03  0.19269423546E+04  0.19011353932E+04 0.  0.
        2    1    3    3  502    0  0.50945256468E+03  0.79688210133E+03 -0.25339649121E+03  0.97916943419E+03  0.25500000920E-02 0.  1.
       -2    1    3    3    0  502 -0.50945256468E+03 -0.79688210133E+03 -0.60913951840E+02  0.94777292039E+03  0.25500000920E-02 0. -1.
</event>
<event>
 5   0  0.3236653E-06  0.1894311E+04  0.7818609E-02  0.8657693E-01
        1   -1    0    0  501    0  0.00000000000E+00  0.00000000000E+00  0.16988278658E+04  0.16988278658E+04  0.50400001928E-02 0.  1.
       -1   -1    0    0    0  501  0.00000000000E+00  0.00000000000E+00 -0.52807219954E+03  0.52807219957E+03  0.50400001928E-02 0. -1.
    10030    2    1    2    0    0  0.00000000000E+00  0.00000000000E+00  0.11707556662E+04  0.22269000653E+04  0.18943112392E+04 0.  0.
        3    1    3    3  502    0  0.77080809276E+03 -0.25034057843E+03  0.11616340809E+04  0.14164071693E+04  0.10100000352E+00 0.  1.
       -3    1    3    3    0  502 -0.77080809276E+03  0.25034057843E+03  0.91215853379E+01  0.81049289608E+03  0.10100000352E+00 0. -1.
</event>
<event>
 5   0  0.6862201E-06  0.1900148E+04  0.7818609E-02  0.8654783E-01
        2   -1    0    0  501    0  0.00000000000E+00  0.00000000000E+00  0.73916750707E+03  0.73916750707E+03  0.25500000920E-02 0. -1.
       -2   -1    0    0    0  501  0.00000000000E+00  0.00000000000E+00 -0.12211578508E+04  0.12211578508E+04  0.25500000920E-02 0.  1.
    10030    2    1    2    0    0  0.00000000000E+00  0.00000000000E+00 -0.48199034371E+03  0.19603253579E+04  0.19001475777E+04 0.  0.
        3    1    3    3  502    0  0.25839150660E+03 -0.71414996561E+03  0.34792837305E+03  0.83536250038E+03  0.10100000352E+00 0. -1.
       -3    1    3    3    0  502 -0.25839150660E+03  0.71414996561E+03 -0.82991871676E+03  0.11249628575E+04  0.10100000352E+00 0.  1.
</event>
<event>
 5   0  0.3398807E-06  0.1898892E+04  0.7818609E-02  0.8655408E-01
       -1   -1    0    0    0  501  0.00000000000E+00  0.00000000000E+00  0.15129853155E+04  0.15129853155E+04  0.50400001928E-02 0.  1.
        1   -1    0    0  501    0  0.00000000000E+00  0.00000000000E+00 -0.59580714503E+03  0.59580714505E+03  0.50400001928E-02 0. -1.
    10030    2    1    2    0    0  0.00000000000E+00  0.00000000000E+00  0.91717817045E+03  0.21087924605E+04  0.18988917413E+04 0.  0.
        1    1    3    3  502    0 -0.61912601953E+03 -0.47916704093E+03  0.10551140941E+04  0.13138431538E+04  0.50400001928E-02 0.  1.
       -1    1    3    3    0  502  0.61912601953E+03  0.47916704093E+03 -0.13793592369E+03  0.79494930672E+03  0.50400001928E-02 0. -1.
</event>
<event>
 5   0  0.3379108E-06  0.1899327E+04  0.7818609E-02  0.8655191E-01
       -1   -1    0    0    0  501  0.00000000000E+00  0.00000000000E+00  0.61303741333E+03  0.61303741335E+03  0.50400001928E-02 0.  1.
        1   -1    0    0  501    0  0.00000000000E+00  0.00000000000E+00 -0.14711353943E+04  0.14711353944E+04  0.50400001928E-02 0. -1.
    10030    2    1    2    0    0  0.00000000000E+00  0.00000000000E+00 -0.85809798101E+03  0.20841728077E+04  0.18993272881E+04 0.  0.
        4    1    3    3  502    0 -0.15337300820E+02 -0.11243917549E+03  0.60556967468E+03  0.61611203914E+03  0.12699999809E+01 0.  1.
       -4    1    3    3    0  502  0.15337300820E+02  0.11243917549E+03 -0.14636676557E+04  0.14680607686E+04  0.12699999809E+01 0. -1.
</event>
<event>
 5   0  0.3211263E-06  0.1900852E+04  0.7818609E-02  0.8654433E-01
       -1   -1    0    0    0  501  0.00000000000E+00  0.00000000000E+00  0.48288639641E+03  0.48288639644E+03  0.50400001928E-02 0. -1.
        1   -1    0    0  501    0  0.00000000000E+00  0.00000000000E+00 -0.18706455189E+04  0.18706455189E+04  0.50400001928E-02 0.  1.
    10030    2    1    2    0    0  0.00000000000E+00  0.00000000000E+00 -0.13877591225E+04  0.23535319154E+04  0.19008516761E+04 0.  0.
        5    1    3    3  502    0  0.58326918517E+01  0.14699705876E+03 -0.18564485746E+04  0.18622742966E+04  0.46999998093E+01 0.  1.
       -5    1    3    3    0  502 -0.58326918517E+01 -0.14699705876E+03  0.46868945206E+03  0.49125761882E+03  0.46999998093E+01 0. -1.
</event>
<event>
 5   0  0.6862201E-06  0.1900020E+04  0.7818609E-02  0.8654846E-01
        2   -1    0    0  501    0  0.00000000000E+00  0.00000000000E+00  0.29289393713E+04  0.29289393713E+04  0.25500000920E-02 0.  1.
       -2   -1    0    0    0  501  0.00000000000E+00  0.00000000000E+00 -0.30813854640E+03  0.30813854641E+03  0.25500000920E-02 0. -1.
    10030    2    1    2    0    0  0.00000000000E+00  0.00000000000E+00  0.26208008250E+04  0.32370779178E+04  0.19000201266E+04 0.  0.
        3    1    3    3  502    0 -0.25085322145E+03  0.24279426365E+03 -0.19489281589E+03  0.39982447782E+03  0.10100000352E+00 0. -1.
       -3    1    3    3    0  502  0.25085322145E+03 -0.24279426365E+03  0.28156936408E+04  0.28372534399E+04  0.10100000352E+00 0.  1.
</event>
<event>
 5   0  0.3398807E-06  0.1900762E+04  0.7818609E-02  0.8654477E-01
       -1   -1    0    0    0  501  0.00000000000E+00  0.00000000000E+00  0.55196815638E+03  0.55196815640E+03  0.50400001928E-02 0.  1.
        1   -1    0    0  501    0  0.00000000000E+00  0.00000000000E+00 -0.16363702830E+04  0.16363702830E+04  0.50400001928E-02 0. -1.
    10030    2    1    2    0    0  0.00000000000E+00  0.00000000000E+00 -0.10844021266E+04  0.21883384394E+04  0.19007622558E+04 0.  0.
        1    1    3    3  502    0  0.25330347247E+03 -0.91069022148E+03 -0.65561947349E+03  0.11503722105E+04  0.50400001928E-02 0.  1.
       -1    1    3    3    0  502 -0.25330347247E+03  0.91069022148E+03 -0.42878265312E+03  0.10379662289E+04  0.50400001928E-02 0. -1.
</event>
<event>
 5   0  0.6870370E-06  0.1899780E+04  0.7818609E-02  0.8654966E-01
        2   -1    0    0  501    0  0.00000000000E+00  0.00000000000E+00  0.21341548509E+04  0.21341548509E+04  0.25500000920E-02 0. -1.
       -2   -1    0    0    0  501  0.00000000000E+00  0.00000000000E+00 -0.42278596347E+03  0.42278596348E+03  0.25500000920E-02 0.  1.
    10030    2    1    2    0    0  0.00000000000E+00  0.00000000000E+00  0.17113688874E+04  0.25569408144E+04  0.18997796871E+04 0.  0.
        1    1    3    3  502    0  0.44877093386E+03 -0.24787991719E+03  0.19319539625E+04  0.19988211320E+04  0.50400001928E-02 0. -1.
       -1    1    3    3    0  502 -0.44877093386E+03  0.24787991719E+03 -0.22058507512E+03  0.55811968234E+03  0.50400001928E-02 0.  1.
</event>
<event>
 5   0  0.3379108E-06  0.1900614E+04  0.7818609E-02  0.8654551E-01
       -1   -1    0    0    0  501  0.00000000000E+00  0.00000000000E+00  0.74924405193E+03  0.74924405194E+03  0.50400001928E-02 0. -1.
        1   -1    0    0  501    0  0.00000000000E+00  0.00000000000E+00 -0.12053256325E+04  0.12053256326E+04  0.50400001928E-02 0.  1.
    10030    2    1    2    0    0  0.00000000000E+00  0.00000000000E+00 -0.45608158061E+03  0.19545696845E+04  0.19006136492E+04 0.  0.
        4    1    3    3  502    0  0.58193846163E+03  0.70438332885E+03 -0.49674993522E+03  0.10399857490E+04  0.12699999809E+01 0.  1.
       -4    1    3    3    0  502 -0.58193846163E+03 -0.70438332885E+03  0.40668354611E+02  0.91458393549E+03  0.12699999809E+01 0. -1.
</event>
<event>
 5   0  0.3211263E-06  0.1899467E+04  0.7818609E-02  0.8655122E-01
        1   -1    0    0  501    0  0.00000000000E+00  0.00000000000E+00  0.11972220367E+04  0.11972220367E+04  0.50400001928E-02 0. -1.
       -1   -1    0    0    0  501  0.00000000000E+00  0.00000000000E+00 -0.75340545256E+03  0.75340545258E+03  0.50400001928E-02 0.  1.
    10030    2    1    2    0    0  0.00000000000E+00  0.00000000000E+00  0.44381658416E+03  0.19506274893E+04  0.18994668835E+04 0.  0.
        5    1    3    3  502    0 -0.42919596680E+02 -0.83783543104E+03 -0.23523457396E+03  0.87130229890E+03  0.46999998093E+01 0. -1.
       -5    1    3    3    0  502  0.42919596680E+02  0.83783543104E+03  0.67905115813E+03  0.10793251904E+04  0.46999998093E+01 0.  1.
</event>
<event>
 5   0  0.3495279E-06  0.1899460E+04  0.7818609E-02  0.8655125E-01
       -1   -1    0    0    0  501  0.00000000000E+00  0.00000000000E+00  0.13167508899E+04  0.13167508899E+04  0.50400001928E-02 0.  1.
        1   -1    0    0  501    0  0.00000000000E+00  0.00000000000E+00 -0.68500998691E+03  0.68500998693E+03  0.50400001928E-02 0. -1.
    10030    2    1    2    0    0  0.00000000000E+00  0.00000000000E+00  0.63174090299E+03  0.20017608768E+04  0.18994604601E+04 0.  0.
        2    1    3    3  502    0  0.25331776616E+03 -0.83892015637E+03 -0.69948809527E+02  0.87911873793E+03  0.25500000920E-02 0. -1.
       -2    1    3    3    0  502 -0.25331776616E+03  0.83892015637E+03  0.70168971252E+03  0.11226421389E+04  0.25500000920E-02 0.  1.
</event>
<event>
 5   0  0.3379108E-06  0.1899705E+04  0.7818609E-02  0.8655003E-01
       -1   -1    0    0    0  501  0.00000000000E+00  0.00000000000E+00  0.78831721859E+03  0.78831721860E+03  0.50400001928E-02 0.  1.
        1   -1    0    0  501    0  0.00000000000E+00  0.00000000000E+00 -0.11444883794E+04  0.11444883794E+04  0.50400001928E-02 0. -1.
    10030    2    1    2    0    0  0.00000000000E+00  0.00000000000E+00 -0.35617116082E+03  0.19328055980E+04  0.18997051308E+04 0.  0.
        4    1    3    3  502    0  0.66182379814E+03  0.48826749257E+03 -0.66155193381E+03  0.10554944141E+04  0.12699999809E+01 0. -1.
       -4    1    3    3    0  502 -0.66182379814E+03 -0.48826749257E+03  0.30538077299E+03  0.87731118396E+03  0.12699999809E+01 0.  1.
</event>
<event>
 5   0  0.3211263E-06  0.1899593E+04  0.7818609E-02  0.8655059E-01
        1   -1    0    0  501    0  0.00000000000E+00  0.00000000000E+00  0.11849056600E+04  0.11849056600E+04  0.50400001928E-02 0.  1.
       -1   -1    0    0    0  501  0.00000000000E+00  0.00000000000E+00 -0.76133747686E+03  0.76133747687E+03  0.50400001928E-02 0. -1.
    10030    2    1    2    0    0  0.00000000000E+00  0.00000000000E+00  0.42356818316E+03  0.19462431369E+04  0.18995926780E+04 0.  0.
        5    1    3    3  502    0  0.35380322155E+03  0.33387920868E+03  0.10475616700E+04  0.11550149731E+04  0.46999998093E+01 0.  1.
       -5    1    3    3    0  502 -0.35380322155E+03 -0.33387920868E+03 -0.62399348686E+03  0.79122816381E+03  0.46999998093E+01 0. -1.
</event>
<event>
 5   0  0.6984466E-06  0.1899870E+04  0.7818609E-02  0.8654921E-01
       -2   -1    0    0    0  501  0.00000000000E+00  0.00000000000E+00  0.16716712864E+04  0.16716712864E+04  0.25500000920E-02 0.  1.
        2   -1    0    0  501    0  0.00000000000E+00  0.00000000000E+00 -0.53980499696E+03  0.53980499696E+03  0.25500000920E-02 0. -1.
    10030    2    1    2    0    0  0.00000000000E+00  0.00000000000E+00  0.11318662895E+04  0.22114762834E+04  0.18998700100E+04 0.  0.
        2    1    3    3  502    0 -0.68172571273E+03 -0.19305246829E+03 -0.17058301592E+03  0.72877827097E+03  0.25500000920E-02 0. -1.
       -2    1    3    3    0  502  0.68172571273E+03  0.19305246829E+03  0.13024493054E+04  0.14826980124E+04  0.25500000920E-02 0.  1.
</event>
<event>
 5   0  0.3398807E-06  0.1900281E+04  0.7818609E-02  0.8654717E-01
        1   -1    0    0  501    0  0.00000000000E+00  0.00000000000E+00  0.15654082988E+04  0.15654082988E+04  0.50400001928E-02 0.  1.
       -1   -1    0    0    0  501  0.00000000000E+00  0.00000000000E+00 -0.57669745166E+03  0.57669745168E+03  0.50400001928E-02 0. -1.
    10030    2    1    2    0    0  0.00000000000E+00  0.00000000000E+00  0.98871084716E+03  0.21421057505E+04  0.19002810074E+04 0.  0.
        1    1    3    3  502    0 -0.30832583518E+03  0.48754387119E+03 -0.35670755587E+03  0.67823604108E+03  0.50400001928E-02 0. -1.
       -1    1    3    3    0  502  0.30832583518E+03 -0.48754387119E+03  0.13454184030E+04  0.14638697094E+04  0.50400001928E-02 0.  1.
</event>
<event>
 5   0  0.3398807E-06  0.1899993E+04  0.7818609E-02  0.8654860E-01
        1   -1    0    0  501    0  0.00000000000E+00  0.00000000000E+00  0.96675859527E+03  0.96675859529E+03  0.50400001928E-02 0. -1.
       -1   -1    0    0    0  501  0.00000000000E+00  0.00000000000E+00 -0.93352514190E+03  0.93352514191E+03  0.50400001928E-02 0.  1.
    10030    2    1    2    0    0  0.00000000000E+00  0.00000000000E+00  0.33233453375E+02  0.19002837372E+04  0.18999931104E+04 0.  0.
        1    1    3    3  502    0 -0.63747315896E+03  0.26438902187E+02 -0.68735343187E+03  0.93783036007E+03  0.50400001928E-02 0.  1.
       -1    1    3    3    0  502  0.63747315896E+03 -0.26438902187E+02  0.72058688524E+03  0.96245337713E+03  0.50400001928E-02 0. -1.
</event>
<event>
 5   0  0.3398807E-06  0.1898921E+04  0.7818609E-02  0.8655394E-01
       -1   -1    0    0    0  501  0.00000000000E+00  0.00000000000E+00  0.84069092412E+03  0.84069092414E+03  0.50400001928E-02 0.  1.
        1   -1    0    0  501    0  0.00000000000E+00  0.00000000000E+00 -0.10723030452E+04  0.10723030452E+04  0.50400001928E-02 0. -1.
    10030    2    1    2    0    0  0.00000000000E+00  0.00000000000E+00 -0.23161212108E+03  0.19129939693E+04  0.18989212075E+04 0.  0.
        1    1    3    3  502    0  0.53796234740E+03 -0.74992493950E+03 -0.34035824016E+03  0.98368421445E+03  0.50400001928E-02 0. -1.
       -1    1    3    3    0  502 -0.53796234740E+03  0.74992493950E+03  0.10874611908E+03  0.92930975489E+03  0.50400001928E-02 0.  1.
</event>
<event>
 5   0  0.7207648E-06  0.1900726E+04  0.7818609E-02  0.8654495E-01
        2   -1    0    0  501    0  0.00000000000E+00  0.00000000000E+00  0.13242050543E+04  0.13242050543E+04  0.25500000920E-02 0.  1.
       -2   -1    0    0    0  501  0.00000000000E+00  0.00000000000E+00 -0.68206179788E+03  0.68206179788E+03  0.25500000920E-02 0. -1.
    10030    2    1    2    0    0  0.00000000000E+00  0.00000000000E+00  0.64214325638E+03  0.20062668521E+04  0.19007258404E+04 0.  0.
        4    1    3    3  502    0 -0.14546751188E+03  0.89486651566E+03  0.62192671233E+03  0.10994277267E+04  0.12699999809E+01 0.  1.
       -4    1    3    3    0  502  0.14546751188E+03 -0.89486651566E+03  0.20216544049E+02  0.90683912543E+03  0.12699999809E+01 0. -1.
</event>
<event>
 5   0  0.3236653E-06  0.1899829E+04  0.7818609E-02  0.8654942E-01
        1   -1    0    0  501    0  0.00000000000E+00  0.00000000000E+00  0.16146980174E+04  0.16146980174E+04  0.50400001928E-02 0. -1.
       -1   -1    0    0    0  501  0.00000000000E+00  0.00000000000E+00 -0.55882736210E+03  0.55882736212E+03  0.50400001928E-02 0.  1.
    10030    2    1    2    0    0  0.00000000000E+00  0.00000000000E+00  0.10558706553E+04  0.21735253795E+04  0.18998288699E+04 0.  0.
        3    1    3    3  502    0  0.75608925624E+03 -0.40275595240E+03  0.99749525779E+03  0.13148688604E+04  0.10100000352E+00 0. -1.
       -3    1    3    3    0  502 -0.75608925624E+03  0.40275595240E+03  0.58375397529E+02  0.85865651912E+03  0.10100000352E+00 0.  1.
</event>
<event>
 5   0  0.7207648E-06  0.1900201E+04  0.7818609E-02  0.8654756E-01
       -2   -1    0    0    0  501  0.00000000000E+00  0.00000000000E+00  0.93261210247E+03  0.93261210247E+03  0.25500000920E-02 0.  1.
        2   -1    0    0  501    0  0.00000000000E+00  0.00000000000E+00 -0.96791683912E+03  0.96791683913E+03  0.25500000920E-02 0. -1.
    10030    2    1    2    0    0  0.00000000000E+00  0.00000000000E+00 -0.35304736653E+02  0.19005289416E+04  0.19002009982E+04 0.  0.
        4    1    3    3  502    0 -0.46533695402E+03 -0.37327622378E+03 -0.75724988355E+03  0.96400343311E+03  0.12699999809E+01 0. -1.
       -4    1    3    3    0  502  0.46533695402E+03  0.37327622378E+03  0.72194514690E+03  0.93652550849E+03  0.12699999809E+01 0.  1.
</event>
<event>
 5   0  0.6862201E-06  0.1899034E+04  0.7818609E-02  0.8655337E-01
        2   -1    0    0  501    0  0.00000000000E+00  0.00000000000E+00  0.10483601948E+04  0.10483601948E+04  0.25500000920E-02 0.  1.
       -2   -1    0    0    0  501  0.00000000000E+00  0.00000000000E+00 -0.85999314890E+03  0.85999314890E+03  0.25500000920E-02 0. -1.
    10030    2    1    2    0    0  0.00000000000E+00  0.00000000000E+00  0.18836704594E+03  0.19083533437E+04  0.18990340546E+04 0.  0.
        3    1    3    3  502    0  0.17477242209E+03 -0.85420653431E+03 -0.28365146007E+03  0.91688187013E+03  0.10100000352E+00 0.  1.
       -3    1    3    3    0  502 -0.17477242209E+03  0.85420653431E+03  0.47201850601E+03  0.99147147362E+03  0.10100000352E+00 0. -1.
</event>
<event>
 5   0  0.6870370E-06  0.1899641E+04  0.7818609E-02  0.8655035E-01
       -2   -1    0    0    0  501  0.00000000000E+00  0.00000000000E+00  0.70414627162E+03  0.70414627163E+03  0.25500000920E-02 0. -1.
        2   -1    0    0  501    0  0.00000000000E+00  0.00000000000E+00 -0.12812092467E+04  0.12812092467E+04  0.25500000920E-02 0.  1.
    10030    2    1    2    0    0  0.00000000000E+00  0.00000000000E+00 -0.57706297511E+03  0.19853555184E+04  0.18996407179E+04 0.  0.
        1    1    3    3  502    0  0.17510547528E+03  0.22702455982E+03 -0.12349043101E+04  0.12677502646E+04  0.50400001928E-02 0.  1.
       -1    1    3    3    0  502 -0.17510547528E+03 -0.22702455982E+03  0.65784133498E+03  0.71760525379E+03  0.50400001928E-02 0. -1.
</event>
<event>
 5   0  0.7207648E-06  0.1899862E+04  0.7818609E-02  0.8654925E-01
        2   -1    0    0  501    0  0.00000000000E+00  0.00000000000E+00  0.95164672922E+03  0.95164672922E+03  0.25500000920E-02 0.  1.
       -2   -1    0    0    0  501  0.00000000000E+00  0.00000000000E+00 -0.94821847642E+03  0.94821847642E+03  0.25500000920E-02 0. -1.
    10030    2    1    2    0    0  0.00000000000E+00  0.00000000000E+00  0.34282528000E+01  0.18998652056E+04  0.18998621125E+04 0.  0.
        4    1    3    3  502    0  0.59709911640E+03  0.39797109996E+03 -0.62074897224E+03  0.94880938584E+03  0.12699999809E+01 0. -1.
       -4    1    3    3    0  502 -0.59709911640E+03 -0.39797109996E+03  0.62417722504E+03  0.95105581980E+03  0.12699999809E+01 0.  1.
</event>
<event>
 5   0  0.3236653E-06  0.1899652E+04  0.7818609E-02  0.8655030E-01
       -1   -1    0    0    0  501  0.00000000000E+00  0.00000000000E+00  0.14972239853E+04  0.14972239853E+04  0.50400001928E-02 0.  1.
        1   -1    0    0  501    0  0.00000000000E+00  0.00000000000E+00 -0.60256135488E+03  0.60256135490E+03  0.50400001928E-02 0. -1.
    10030    2    1    2    0    0  0.00000000000E+00  0.00000000000E+00  0.89466263038E+03  0.20997853402E+04  0.18996518767E+04 0.  0.
        3    1    3    3  502    0 -0.61279100679E+03  0.22635138764E+03  0.12094810502E+04  0.13746243813E+04  0.10100000352E+00 0.  1.
       -3    1    3    3    0  502  0.61279100679E+03 -0.22635138764E+03 -0.31481841977E+03  0.72516095890E+03  0.10100000352E+00 0. -1.
</event>
<event>
 5   0  0.6862201E-06  0.1900853E+04  0.7818609E-02  0.8654432E-01
        2   -1    0    0  501    0  0.00000000000E+00  0.00000000000E+00  0.24265534988E+04  0.24265534988E+04  0.25500000920E-02 0.  1.
       -2   -1    0    0    0  501  0.00000000000E+00  0.00000000000E+00 -0.37226075557E+03  0.37226075557E+03  0.25500000920E-02 0. -1.
    10030    2    1    2    0    0  0.00000000000E+00  0.00000000000E+00  0.20542927432E+04  0.27988142543E+04  0.19008531126E+04 0.  0.
        3    1    3    3  502    0  0.34484091116E+03  0.25163608401E+03  0.22774504117E+04  0.23171137997E+04  0.10100000352E+00 0.  1.
       -3    1    3    3    0  502 -0.34484091116E+03 -0.25163608401E+03 -0.22315766850E+03  0.48170045464E+03  0.10100000352E+00 0. -1.
</event>
<event>
 5   0  0.3236653E-06  0.1899035E+04  0.7818609E-02  0.8655337E-01
       -1   -1    0    0    0  501  0.00000000000E+00  0.00000000000E+00  0.59183845919E+03  0.59183845921E+03  0.50400001928E-02 0. -1.
        1   -1    0    0  501    0  0.00000000000E+00  0.00000000000E+00 -0.15233605026E+04  0.15233605026E+04  0.50400001928E-02 0.  1.
    10030    2    1    2    0    0  0.00000000000E+00  0.00000000000E+00 -0.93152204338E+03  0.21151989618E+04  0.18990348419E+04 0.  0.
        3    1    3    3  502    0  0.73069152798E+03 -0.50508223844E+03 -0.92063462824E+02  0.89302512173E+03  0.10100000352E+00 0. -1.
       -3    1    3    3    0  502 -0.73069152798E+03  0.50508223844E+03 -0.83945858055E+03  0.12221738401E+04  0.10100000352E+00 0.  1.
</event>
<event>
 5   0  0.7207648E-06  0.1899228E+04  0.7818609E-02  0.8655241E-01
       -2   -1    0    0    0  501  0.00000000000E+00  0.00000000000E+00  0.12716141276E+04  0.12716141276E+04  0.25500000920E-02 0. -1.
        2   -1    0    0  501    0  0.00000000000E+00  0.00000000000E+00 -0.70915132116E+03  0.70915132117E+03  0.25500000920E-02 0.  1.
    10030    2    1    2    0    0  0.00000000000E+00  0.00000000000E+00  0.56246280639E+03  0.19807654487E+04  0.18992280943E+04 0.  0.
        4    1    3    3  502    0  0.81715552899E+03  0.31118428644E+03  0.66751962532E+03  0.11000740347E+04  0.12699999809E+01 0. -1.
       -4    1    3    3    0  502 -0.81715552899E+03 -0.31118428644E+03 -0.10505681892E+03  0.88069141405E+03  0.12699999809E+01 0.  1.
</event>
<event>
 5   0  0.6984466E-06  0.1900517E+04  0.7818609E-02  0.8654599E-01
       -2   -1    0    0    0  501  0.00000000000E+00  0.00000000000E+00  0.73766432685E+03  0.73766432685E+03  0.25500000920E-02 0.  1.
        2   -1    0    0  501    0  0.00000000000E+00  0.00000000000E+00 -0.12241219702E+04  0.12241219703E+04  0.25500000920E-02 0. -1.
    10030    2    1    2    0    0  0.00000000000E+00  0.00000000000E+00 -0.48645764340E+03  0.19617862971E+04  0.19005168867E+04 0.  0.
        2    1    3    3  502    0  0.33085996774E+02  0.85548739902E+03 -0.66887880524E+03  0.10864401636E+04  0.25500000920E-02 0. -1.
       -2    1    3    3    0  502 -0.33085996774E+02 -0.85548739902E+03  0.18242116184E+03  0.87534613346E+03  0.25500000920E-02 0.  1.
</event>
<event>
 5   0  0.6870370E-06  0.1896503E+04  0.7818609E-02  0.8656599E-01
        2   -1    0    0  501    0  0.00000000000E+00  0.00000000000E+00  0.97985272509E+03  0.97985272509E+03  0.25500000920E-02 0.  1.
       -2   -1    0    0    0  501  0.00000000000E+00  0.00000000000E+00 -0.91766907713E+03  0.91766907714E+03  0.25500000920E-02 0. -1.
    10030    2    1    2    0    0  0.00000000000E+00  0.00000000000E+00  0.62183647957E+02  0.18975218022E+04  0.18965026190E+04 0.  0.
        1    1    3    3  502    0 -0.42986015455E+03 -0.71494460564E+03  0.48217221825E+03  0.96354324744E+03  0.50400001928E-02 0. -1.
       -1    1    3    3    0  502  0.42986015455E+03  0.71494460564E+03 -0.41998857029E+03  0.93397855479E+03  0.50400001928E-02 0.  1.
</event>
<event>
 5   0  0.6862201E-06  0.1900095E+04  0.7818609E-02  0.8654809E-01
       -2   -1    0    0    0  501  0.00000000000E+00  0.00000000000E+00  0.86715602635E+03  0.86715602635E+03  0.25500000920E-02 0. -1.
        2   -1    0    0  501    0  0.00000000000E+00  0.00000000000E+00 -0.10408631199E+04  0.10408631199E+04  0.25500000920E-02 0.  1.
    10030    2    1    2    0    0  0.00000000000E+00  0.00000000000E+00 -0.17370709352E+03  0.19080191462E+04  0.19000954997E+04 0.  0.
        3    1    3    3  502    0 -0.58930887328E+03 -0.66789871864E+03  0.24500465866E+03  0.92379702286E+03  0.10100000352E+00 0. -1.
       -3    1    3    3    0  502  0.58930887328E+03  0.66789871864E+03 -0.41871175218E+03  0.98422212336E+03  0.10100000352E+00 0.  1.
</event>
<event>
 5   0  0.6984466E-06  0.1900442E+04  0.7818609E-02  0.8654636E-01
        2   -1    0    0  501    0  0.00000000000E+00  0.00000000000E+00  0.97138078209E+03  0.97138078210E+03  0.25500000920E-02 0. -1.
       -2   -1    0    0    0  501  0.00000000000E+00  0.00000000000E+00 -0.92952225909E+03  0.92952225910E+03  0.25500000920E-02 0.  1.
    10030    2    1    2    0    0  0.00000000000E+00  0.00000000000E+00  0.41858523000E+02  0.19009030412E+04  0.19004421159E+04 0.  0.
        2    1    3    3  502    0 -0.42608238803E+03 -0.56107958686E+02  0.86861681464E+03  0.96911788504E+03  0.25500000920E-02 0. -1.
       -2    1    3    3    0  502  0.42608238803E+03  0.56107958686E+02 -0.82675829164E+03  0.93178515615E+03  0.25500000920E-02 0.  1.
</event>
<event>
 5   0  0.3495279E-06  0.1903966E+04  0.7818609E-02  0.8652885E-01
       -1   -1    0    0    0  501  0.00000000000E+00  0.00000000000E+00  0.61392928405E+03  0.61392928407E+03  0.50400001928E-02 0.  1.
        1   -1    0    0  501    0  0.00000000000E+00  0.00000000000E+00 -0.14761822704E+04  0.14761822704E+04  0.50400001928E-02 0. -1.
    10030    2    1    2    0    0  0.00000000000E+00  0.00000000000E+00 -0.86225298633E+03  0.20901115545E+04  0.19039658867E+04 0.  0.
        2    1    3    3  502    0  0.61608961049E+03 -0.67888156503E+03 -0.71277375218E+03  0.11612463172E+04  0.25500000920E-02 0. -1.
       -2    1    3    3    0  502 -0.61608961049E+03  0.67888156503E+03 -0.14947923415E+03  0.92886523723E+03  0.25500000920E-02 0.  1.
</event>
<event>
 5   0  0.3495279E-06  0.1899545E+04  0.7818609E-02  0.8655083E-01
        1   -1    0    0  501    0  0.00000000000E+00  0.00000000000E+00  0.20274057245E+04  0.20274057245E+04  0.50400001928E-02 0.  1.
       -1   -1    0    0    0  501  0.00000000000E+00  0.00000000000E+00 -0.44493707947E+03  0.44493707950E+03  0.50400001928E-02 0. -1.
    10030    2    1    2    0    0  0.00000000000E+00  0.00000000000E+00  0.15824686450E+04  0.24723428040E+04  0.18995451898E+04 0.  0.
        2    1    3    3  502    0 -0.82411613186E+03 -0.13227445454E+03  0.13811141728E+04  0.16137348879E+04  0.25500000920E-02 0.  1.
       -2    1    3    3    0  502  0.82411613186E+03  0.13227445454E+03  0.20135447225E+03  0.85860791612E+03  0.25500000920E-02 0. -1.
</event>
<event>
 5   0  0.3379108E-06  0.1900148E+04  0.7818609E-02  0.8654783E-01
        1   -1    0    0  501    0  0.00000000000E+00  0.00000000000E+00  0.13321635065E+04  0.13321635065E+04  0.50400001928E-02 0. -1.
       -1   -1    0    0    0  501  0.00000000000E+00  0.00000000000E+00 -0.67757476504E+03  0.67757476506E+03  0.50400001928E-02 0.  1.
    10030    2    1    2    0    0  0.00000000000E+00  0.00000000000E+00  0.65458874147E+03  0.20097382716E+04  0.19001477574E+04 0.  0.
        4    1    3    3  502    0 -0.55227328526E+03  0.11962808281E+03  0.11350990148E+04  0.12679779360E+04  0.12699999809E+01 0. -1.
       -4    1    3    3    0  502  0.55227328526E+03 -0.11962808281E+03 -0.48051027333E+03  0.74176033561E+03  0.12699999809E+01 0.  1.
</event>
<event>
 5   0  0.3211263E-06  0.1905568E+04  0.7818609E-02  0.8652090E-01
       -1   -1    0    0    0  501  0.00000000000E+00  0.00000000000E+00  0.80565583939E+03  0.80565583941E+03  0.50400001928E-02 0.  1.
        1   -1    0    0  501    0  0.00000000000E+00  0.00000000000E+00 -0.11267805896E+04  0.11267805896E+04  0.50400001928E-02 0. -1.
    10030    2    1    2    0    0  0.00000000000E+00  0.00000000000E+00 -0.32112475022E+03  0.19324364290E+04  0.19055680117E+04 0.  0.
        5    1    3    3  502    0  0.83378038688E+03 -0.15042467944E+03  0.28142463304E+03  0.89277053704E+03  0.46999998093E+01 0.  1.
       -5    1    3    3    0  502 -0.83378038688E+03  0.15042467944E+03 -0.60254938326E+03  0.10396658920E+04  0.46999998093E+01 0. -1.
</event>
<event>
 5   0  0.3211263E-06  0.1899438E+04  0.7818609E-02  0.8655136E-01
        1   -1    0    0  501    0  0.00000000000E+00  0.00000000000E+00  0.18450766742E+04  0.18450766742E+04  0.50400001928E-02 0. -1.
       -1   -1    0    0    0  501  0.00000000000E+00  0.00000000000E+00 -0.48884999303E+03  0.48884999305E+03  0.50400001928E-02 0.  1.
    10030    2    1    2    0    0  0.00000000000E+00  0.00000000000E+00  0.13562266812E+04  0.23339266673E+04  0.18994375161E+04 0.  0.
        5    1    3    3  502    0  0.14217648194E+03 -0.77521776536E+03  0.27032158671E+02  0.78862510951E+03  0.46999998093E+01 0.  1.
       -5    1    3    3    0  502 -0.14217648194E+03  0.77521776536E+03  0.13291945225E+04  0.15453015578E+04  0.46999998093E+01 0. -1.
</event>
<event>
 5   0  0.6862201E-06  0.1900186E+04  0.7818609E-02  0.8654764E-01
       -2   -1    0    0    0  501  0.00000000000E+00  0.00000000000E+00  0.89933133677E+03  0.89933133678E+03  0.25500000920E-02 0. -1.
        2   -1    0    0  501    0  0.00000000000E+00  0.00000000000E+00 -0.10037202024E+04  0.10037202024E+04  0.25500000920E-02 0.  1.
    10030    2    1    2    0    0  0.00000000000E+00  0.00000000000E+00 -0.10438886562E+03  0.19030515392E+04  0.19001863397E+04 0.  0.
        3    1    3    3  502    0  0.64028771560E+03  0.67971488834E+03 -0.22766230404E+03  0.96115078061E+03  0.10100000352E+00 0. -1.
       -3    1    3    3    0  502 -0.64028771560E+03 -0.67971488834E+03  0.12327343842E+03  0.94190075857E+03  0.10100000352E+00 0.  1.
</event>
<event>
 5   0  0.6862201E-06  0.1899579E+04  0.7818609E-02  0.8655066E-01
        2   -1    0    0  501    0  0.00000000000E+00  0.00000000000E+00  0.15228471486E+04  0.15228471486E+04  0.25500000920E-02 0. -1.
       -2   -1    0    0    0  501  0.00000000000E+00  0.00000000000E+00 -0.59237702824E+03  0.59237702825E+03  0.25500000920E-02 0.  1.
    10030    2    1    2    0    0  0.00000000000E+00  0.00000000000E+00  0.93047012035E+03  0.21152241768E+04  0.18995785515E+04 0.  0.
        3    1    3    3  502    0  0.94655826894E+02 -0.81379556205E+03  0.10002787082E+04  0.12929734903E+04  0.10100000352E+00 0. -1.
       -3    1    3    3    0  502 -0.94655826894E+02  0.81379556205E+03 -0.69808587839E+02  0.82225068653E+03  0.10100000352E+00 0.  1.
</event>
<event>
 5   0  0.3211263E-06  0.1899853E+04  0.7818609E-02  0.8654929E-01
       -1   -1    0    0    0  501  0.00000000000E+00  0.00000000000E+00  0.88437300592E+03  0.88437300593E+03  0.50400001928E-02 0. -1.
        1   -1    0    0  501    0  0.00000000000E+00  0.00000000000E+00 -0.10203393738E+04  0.10203393738E+04  0.50400001928E-02 0.  1.
    10030    2    1    2    0    0  0.00000000000E+00  0.00000000000E+00 -0.13596636792E+03  0.19047123798E+04  0.18998532566E+04 0.  0.
        5    1    3    3  502    0 -0.27303645021E+03  0.67296524232E+03  0.54587965937E+03  0.90853608240E+03  0.46999998093E+01 0. -1.
       -5    1    3    3    0  502  0.27303645021E+03 -0.67296524232E+03 -0.68184602729E+03  0.99617629737E+03  0.46999998093E+01 0.  1.
</event>
<event>
 5   0  0.6870370E-06  0.1899813E+04  0.7818609E-02  0.8654950E-01
        2   -1    0    0  501    0  0.00000000000E+00  0.00000000000E+00  0.17367783462E+04  0.17367783462E+04  0.25500000920E-02 0.  1.
       -2   -1    0    0    0  501  0.00000000000E+00  0.00000000000E+00 -0.51953776799E+03  0.51953776800E+03  0.25500000920E-02 0. -1.
    10030    2    1    2    0    0  0.00000000000E+00  0.00000000000E+00  0.12172405782E+04  0.22563161142E+04  0.18998125649E+04 0.  0.
        1    1    3    3  502    0 -0.41750149903E+03  0.78333086887E+03  0.10103332607E+04  0.13448747338E+04  0.50400001928E-02 0.  1.
       -1    1    3    3    0  502  0.41750149903E+03 -0.78333086887E+03  0.20690731743E+03  0.91144138037E+03  0.50400001928E-02 0. -1.
</event>
<event>
 5   0  0.3495279E-06  0.1899004E+04  0.7818609E-02  0.8655352E-01
       -1   -1    0    0    0  501  0.00000000000E+00  0.00000000000E+00  0.93672240775E+03  0.93672240776E+03  0.50400001928E-02 0. -1.
        1   -1    0    0  501    0  0.00000000000E+00  0.00000000000E+00 -0.96245629751E+03  0.96245629752E+03  0.50400001928E-02 0.  1.
    10030    2    1    2    0    0  0.00000000000E+00  0.00000000000E+00 -0.25733889756E+02  0.18991787053E+04  0.18990043501E+04 0.  0.
        2    1    3    3  502    0 -0.28270191147E+03  0.51483497818E+03  0.73324374601E+03  0.93947954559E+03  0.25500000920E-02 0.  1.
       -2    1    3    3    0  502  0.28270191147E+03 -0.51483497818E+03 -0.75897763577E+03  0.95969915969E+03  0.25500000920E-02 0. -1.
</event>
<event>
 5   0  0.6862201E-06  0.1900061E+04  0.7818609E-02  0.8654826E-01
       -2   -1    0    0    0  501  0.00000000000E+00  0.00000000000E+00  0.65538257522E+03  0.65538257523E+03  0.25500000920E-02 0.  1.
        2   -1    0    0  501    0  0.00000000000E+00  0.00000000000E+00 -0.13771462865E+04  0.13771462865E+04  0.25500000920E-02 0. -1.
    10030    2    1    2    0    0  0.00000000000E+00  0.00000000000E+00 -0.72176371128E+03  0.20325288617E+04  0.19000607145E+04 0.  0.
        3    1    3    3  502    0 -0.89169882578E+03  0.32601884922E+03 -0.32472312075E+03  0.10034242379E+04  0.10100000352E+00 0. -1.
       -3    1    3    3    0  502  0.89169882578E+03 -0.32601884922E+03 -0.39704059053E+03  0.10291046238E+04  0.10100000352E+00 0.  1.
</event>
<event>
 5   0  0.7207648E-06  0.1891307E+04  0.7818609E-02  0.8659195E-01
       -2   -1    0    0    0  501  0.00000000000E+00  0.00000000000E+00  0.16540322772E+04  0.16540322772E+04  0.25500000920E-02 0.  1.
        2   -1    0    0  501    0  0.00000000000E+00  0.00000000000E+00 -0.54065510047E+03  0.54065510047E+03  0.25500000920E-02 0. -1.
    10030    2    1    2    0    0  0.00000000000E+00  0.00000000000E+00  0.11133771767E+04  0.21946873776E+04  0.18913074705E+04 0.  0.
        4    1    3    3  502    0  0.50680495995E+03 -0.54942401179E+03 -0.11548827441E+03  0.75634460835E+03  0.12699999809E+01 0. -1.
       -4    1    3    3    0  502 -0.50680495995E+03  0.54942401179E+03  0.12288654511E+04  0.14383427693E+04  0.12699999809E+01 0.  1.
</event>
<event>
 5   0  0.7577180E-06  0.1899858E+04  0.7818609E-02  0.8654927E-01
       -2   -1    0    0    0  501  0.00000000000E+00  0.00000000000E+00  0.67534748067E+03  0.67534748068E+03  0.25500000920E-02 0.  1.
        2   -1    0    0  501    0  0.00000000000E+00  0.00000000000E+00 -0.13361495202E+04  0.13361495202E+04  0.25500000920E-02 0. -1.
    10030    2    1    2    0    0  0.00000000000E+00  0.00000000000E+00 -0.66080203949E+03  0.20114970008E+04  0.18998581129E+04 0.  0.
        5    1    3    3  502    0  0.14656613047E+03  0.78276862346E+03 -0.87864616134E+03  0.11858539182E+04  0.46999998093E+01 0. -1.
       -5    1    3    3    0  502 -0.14656613047E+03 -0.78276862346E+03  0.21784412185E+03  0.82564308264E+03  0.46999998093E+01 0.  1.
</event>
<event>
 5   0  0.3398807E-06  0.1899768E+04  0.7818609E-02  0.8654972E-01
        1   -1    0    0  501    0  0.00000000000E+00  0.00000000000E+00  0.60380549933E+03  0.60380549935E+03  0.50400001928E-02 0. -1.
       -1   -1    0    0    0  501  0.00000000000E+00  0.00000000000E+00 -0.14943217409E+04  0.14943217409E+04  0.50400001928E-02 0.  1.
    10030    2    1    2    0    0  0.00000000000E+00  0.00000000000E+00 -0.89051624153E+03  0.20981272402E+04  0.18997680752E+04 0.  0.
        1    1    3    3  502    0 -0.77554484504E+02  0.30328468846E+02  0.59976640915E+03  0.60551982599E+03  0.50400001928E-02 0. -1.
       -1    1    3    3    0  502  0.77554484504E+02 -0.30328468846E+02 -0.14902826507E+04  0.14926074142E+04  0.50400001928E-02 0.  1.
</event>
<event>
 5   0  0.3236653E-06  0.1901045E+04  0.7818609E-02  0.8654336E-01
       -1   -1    0    0    0  501  0.00000000000E+00  0.00000000000E+00  0.11422261558E+04  0.11422261558E+04  0.50400001928E-02 0.  1.
        1   -1    0    0  501    0  0.00000000000E+00  0.00000000000E+00 -0.79099295657E+03  0.79099295658E+03  0.50400001928E-02 0. -1.
    10030    2    1    2    0    0  0.00000000000E+00  0.00000000000E+00  0.35123319920E+03  0.19332191124E+04  0.19010448117E+04 0.  0.
        3    1    3    3  502    0  0.33359298345E+03 -0.88998851819E+03  0.16406688229E+03  0.96451116799E+03  0.10100000352E+00 0.  1.
       -3    1    3    3    0  502 -0.33359298345E+03  0.88998851819E+03  0.18716631692E+03  0.96870794438E+03  0.10100000352E+00 0. -1.
</event>
<event>
 5   0  0.3379108E-06  0.1899314E+04  0.7818609E-02  0.8655198E-01
       -1   -1    0    0    0  501  0.00000000000E+00  0.00000000000E+00  0.13803974237E+04  0.13803974237E+04  0.50400001928E-02 0. -1.
        1   -1    0    0  501    0  0.00000000000E+00  0.00000000000E+00 -0.65332528687E+03  0.65332528689E+03  0.50400001928E-02 0.  1.
    10030    2    1    2    0    0  0.00000000000E+00  0.00000000000E+00  0.72707213685E+03  0.20337227106E+04  0.18993141319E+04 0.  0.
        4    1    3    3  502    0 -0.26565732787E+03  0.44197801171E+03 -0.49034837379E+03  0.71159083698E+03  0.12699999809E+01 0.  1.
       -4    1    3    3    0  502  0.26565732787E+03 -0.44197801171E+03  0.12174205106E+04  0.13221318736E+04  0.12699999809E+01 0. -1.
</event>
<event>
 5   0  0.3211263E-06  0.1899414E+04  0.7818609E-02  0.8655148E-01
        1   -1    0    0  501    0  0.00000000000E+00  0.00000000000E+00  0.14512979133E+04  0.14512979133E+04  0.50400001928E-02 0. -1.
       -1   -1    0    0    0  501  0.00000000000E+00  0.00000000000E+00 -0.62147387957E+03  0.62147387959E+03  0.50400001928E-02 0.  1.
    10030    2    1    2    0    0  0.00000000000E+00  0.00000000000E+00  0.82982403373E+03  0.20727717929E+04  0.18994143778E+04 0.  0.
        5    1    3    3  502    0  0.91439467028E+03 -0.41107591779E+02  0.13859418787E+03  0.92576340716E+03  0.46999998093E+01 0. -1.
       -5    1    3    3    0  502 -0.91439467028E+03  0.41107591779E+02  0.69122984586E+03  0.11470083857E+04  0.46999998093E+01 0.  1.
</event>
<event>
 5   0  0.6862201E-06  0.1892564E+04  0.7818609E-02  0.8658567E-01
       -2   -1    0    0    0  501  0.00000000000E+00  0.00000000000E+00  0.76445723636E+03  0.76445723637E+03  0.25500000920E-02 0.  1.
        2   -1    0    0  501    0  0.00000000000E+00  0.00000000000E+00 -0.11713529178E+04  0.11713529178E+04  0.25500000920E-02 0. -1.
    10030    2    1    2    0    0  0.00000000000E+00  0.00000000000E+00 -0.40689568145E+03  0.19358101542E+04  0.18925635676E+04 0.  0.
        3    1    3    3  502    0 -0.36107745747E+03 -0.82805569025E+02  0.68720533455E+03  0.78069512269E+03  0.10100000352E+00 0.  1.
       -3    1    3    3    0  502  0.36107745747E+03  0.82805569025E+02 -0.10941010160E+04  0.11551150315E+04  0.10100000352E+00 0. -1.
</event>
<event>
 5   0  0.3495279E-06  0.1899846E+04  0.7818609E-02  0.8654933E-01
       -1   -1    0    0    0  501  0.00000000000E+00  0.00000000000E+00  0.74809171645E+03  0.74809171647E+03  0.50400001928E-02 0.  1.
        1   -1    0    0  501    0  0.00000000000E+00  0.00000000000E+00 -0.12062079276E+04  0.12062079276E+04  0.50400001928E-02 0. -1.
    10030    2    1    2    0    0  0.00000000000E+00  0.00000000000E+00 -0.45811621117E+03  0.19542996441E+04  0.18998464770E+04 0.  0.
        2    1    3    3  502    0 -0.89814108244E+03  0.26179854649E+03 -0.39857919884E+03  0.10168880276E+04  0.25500000920E-02 0. -1.
       -2    1    3    3    0  502  0.89814108244E+03 -0.26179854649E+03 -0.59537012326E+02  0.93741161650E+03  0.25500000920E-02 0.  1.
</event>
<event>
 5   0  0.3379108E-06  0.1899576E+04  0.7818609E-02  0.8655067E-01
       -1   -1    0    0    0  501  0.00000000000E+00  0.00000000000E+00  0.77668614628E+03  0.77668614630E+03  0.50400001928E-02 0. -1.
        1   -1    0    0  501    0  0.00000000000E+00  0.00000000000E+00 -0.11614699349E+04  0.11614699349E+04  0.50400001928E-02 0.  1.
    10030    2    1    2    0    0  0.00000000000E+00  0.00000000000E+00 -0.38478378859E+03  0.19381560812E+04  0.18995763820E+04 0.  0.
        4    1    3    3  502    0 -0.23442182795E+03  0.87265485294E+03  0.10615270778E+03  0.90980772477E+03  0.12699999809E+01 0. -1.
       -4    1    3    3    0  502  0.23442182795E+03 -0.87265485294E+03 -0.49093649637E+03  0.10283483564E+04  0.12699999809E+01 0.  1.
</event>
<event>
 5   0  0.3236653E-06  0.1900172E+04  0.7818609E-02  0.8654771E-01
       -1   -1    0    0    0  501  0.00000000000E+00  0.00000000000E+00  0.88137310482E+03  0.88137310483E+03  0.50400001928E-02 0.  1.
        1   -1    0    0  501    0  0.00000000000E+00  0.00000000000E+00 -0.10241559771E+04  0.10241559771E+04  0.50400001928E-02 0. -1.
    10030    2    1    2    0    0  0.00000000000E+00  0.00000000000E+00 -0.14278287225E+03  0.19055290819E+04  0.19001721326E+04 0.  0.
        3    1    3    3  502    0  0.64923071368E+03 -0.68958807627E+03  0.38620338603E+01  0.94712573612E+03  0.10100000352E+00 0.  1.
       -3    1    3    3    0  502 -0.64923071368E+03  0.68958807627E+03 -0.14664490611E+03  0.95840334578E+03  0.10100000352E+00 0. -1.
</event>
<event>
 5   0  0.3379108E-06  0.1911886E+04  0.7818609E-02  0.8648963E-01
        1   -1    0    0  501    0  0.00000000000E+00  0.00000000000E+00  0.21363956717E+04  0.21363956717E+04  0.50400001928E-02 0. -1.
       -1   -1    0    0    0  501  0.00000000000E+00  0.00000000000E+00 -0.42774237230E+03  0.42774237233E+03  0.50400001928E-02 0.  1.
    10030    2    1    2    0    0  0.00000000000E+00  0.00000000000E+00  0.17086532994E+04  0.25641380440E+04  0.19118859305E+04 0.  0.
        4    1    3    3  502    0 -0.17880167111E+03 -0.87263554356E+03  0.13196180692E+04  0.15921232022E+04  0.12699999809E+01 0. -1.
       -4    1    3    3    0  502  0.17880167111E+03  0.87263554356E+03  0.38903523016E+03  0.97201484180E+03  0.12699999809E+01 0.  1.
</event>
<event>
 5   0  0.6984466E-06  0.1897851E+04  0.7818609E-02  0.8655927E-01
       -2   -1    0    0    0  501  0.00000000000E+00  0.00000000000E+00  0.59457772103E+03  0.59457772103E+03  0.25500000920E-02 0.  1.
        2   -1    0    0  501    0  0.00000000000E+00  0.00000000000E+00 -0.15144520616E+04  0.15144520616E+04  0.25500000920E-02 0. -1.
    10030    2    1    2    0    0  0.00000000000E+00  0.00000000000E+00 -0.91987434053E+03  0.21090297826E+04  0.18978508428E+04 0.  0.
        2    1    3    3  502    0 -0.15660342793E+03 -0.89816395410E+03 -0.75234410323E+03  0.11820510868E+04  0.25500000920E-02 0.  1.
       -2    1    3    3    0  502  0.15660342793E+03  0.89816395410E+03 -0.16753023730E+03  0.92697869581E+03  0.25500000920E-02 0. -1.
</event>
<event>
 5   0  0.7577180E-06  0.1899183E+04  0.7818609E-02  0.8655263E-01
        2   -1    0    0  501    0  0.00000000000E+00  0.00000000000E+00  0.15062230426E+04  0.15062230426E+04  0.25500000920E-02 0.  1.
       -2   -1    0    0    0  501  0.00000000000E+00  0.00000000000E+00 -0.59866580394E+03  0.59866580395E+03  0.25500000920E-02 0. -1.
    10030    2    1    2    0    0  0.00000000000E+00  0.00000000000E+00  0.90755723862E+03  0.21048888465E+04  0.18991832231E+04 0.  0.
        5    1    3    3  502    0  0.30497761940E+03 -0.78167065496E+03 -0.38992924372E+02  0.83997791596E+03  0.46999998093E+01 0. -1.
       -5    1    3    3    0  502 -0.30497761940E+03  0.78167065496E+03  0.94655016299E+03  0.12649109305E+04  0.46999998093E+01 0.  1.
</event>
<event>
 5   0  0.6862201E-06  0.1898042E+04  0.7818609E-02  0.8655831E-01
       -2   -1    0    0    0  501  0.00000000000E+00  0.00000000000E+00  0.10132167081E+04  0.10132167081E+04  0.25500000920E-02 0.  1.
        2   -1    0    0  501    0  0.00000000000E+00  0.00000000000E+00 -0.88889297197E+03  0.88889297197E+03  0.25500000920E-02 0. -1.
    10030    2    1    2    0    0  0.00000000000E+00  0.00000000000E+00  0.12432373613E+03  0.19021096801E+04  0.18980423714E+04 0.  0.
        3    1    3    3  502    0  0.50068796496E+03  0.44512529531E+01 -0.74574989172E+03  0.89824894272E+03  0.10100000352E+00 0. -1.
       -3    1    3    3    0  502 -0.50068796496E+03 -0.44512529531E+01  0.87007362784E+03  0.10038607373E+04  0.10100000352E+00 0.  1.
</event>
<event>
 5   0  0.7577180E-06  0.1899307E+04  0.7818609E-02  0.8655201E-01
        2   -1    0    0  501    0  0.00000000000E+00  0.00000000000E+00  0.12086621339E+04  0.12086621339E+04  0.25500000920E-02 0.  1.
       -2   -1    0    0    0  501  0.00000000000E+00  0.00000000000E+00 -0.74614890402E+03  0.74614890402E+03  0.25500000920E-02 0. -1.
    10030    2    1    2    0    0  0.00000000000E+00  0.00000000000E+00  0.46251322989E+03  0.19548110379E+04  0.18993071648E+04 0.  0.
        5    1    3    3  502    0  0.41147274555E+03 -0.97803399979E+02 -0.64385219995E+03  0.77035256263E+03  0.46999998093E+01 0. -1.
       -5    1    3    3    0  502 -0.41147274555E+03  0.97803399979E+02  0.11063654298E+04  0.11844584753E+04  0.46999998093E+01 0.  1.
</event>
<event>
 5   0  0.3379108E-06  0.1902431E+04  0.7818609E-02  0.8653647E-01
       -1   -1    0    0    0  501  0.00000000000E+00  0.00000000000E+00  0.83666806241E+03  0.83666806242E+03  0.50400001928E-02 0.  1.
        1   -1    0    0  501    0  0.00000000000E+00  0.00000000000E+00 -0.10814450602E+04  0.10814450602E+04  0.50400001928E-02 0. -1.
    10030    2    1    2    0    0  0.00000000000E+00  0.00000000000E+00 -0.24477699781E+03  0.19181131226E+04  0.19024305960E+04 0.  0.
        4    1    3    3  502    0  0.74781538413E+03 -0.47096230820E+03 -0.47710622341E+03  0.10043233074E+04  0.12699999809E+01 0. -1.
       -4    1    3    3    0  502 -0.74781538413E+03  0.47096230820E+03  0.23232922560E+03  0.91378981525E+03  0.12699999809E+01 0.  1.
</event>
<event>
 5   0  0.3236653E-06  0.1899462E+04  0.7818609E-02  0.8655124E-01
       -1   -1    0    0    0  501  0.00000000000E+00  0.00000000000E+00  0.99945392610E+03  0.99945392611E+03  0.50400001928E-02 0.  1.
        1   -1    0    0  501    0  0.00000000000E+00  0.00000000000E+00 -0.90248179338E+03  0.90248179339E+03  0.50400001928E-02 0. -1.
    10030    2    1    2    0    0  0.00000000000E+00  0.00000000000E+00  0.96972132727E+02  0.19019357195E+04  0.18994619993E+04 0.  0.
        3    1    3    3  502    0  0.72670699078E+03  0.29726925027E+03  0.58351976691E+03  0.97824709874E+03  0.10100000352E+00 0.  1.
       -3    1    3    3    0  502 -0.72670699078E+03 -0.29726925027E+03 -0.48654763419E+03  0.92368862077E+03  0.10100000352E+00 0. -1.
</event>
<event>
 5   0  0.3236653E-06  0.1898630E+04  0.7818609E-02  0.8655539E-01
       -1   -1    0    0    0  501  0.00000000000E+00  0.00000000000E+00  0.99138970105E+03  0.99138970107E+03  0.50400001928E-02 0. -1.
        1   -1    0    0  501    0  0.00000000000E+00  0.00000000000E+00 -0.90902596291E+03  0.90902596292E+03  0.50400001928E-02 0.  1.
    10030    2    1    2    0    0  0.00000000000E+00  0.00000000000E+00  0.82363738146E+02  0.19004156640E+04  0.18986300089E+04 0.  0.
        3    1    3    3  502    0  0.20998439321E+03 -0.80754909869E+03  0.49434376476E+03  0.96984780257E+03  0.10100000352E+00 0. -1.
       -3    1    3    3    0  502 -0.20998439321E+03  0.80754909869E+03 -0.41198002662E+03  0.93056786142E+03  0.10100000352E+00 0.  1.
</event>
<event>
 5   0  0.3211263E-06  0.1899349E+04  0.7818609E-02  0.8655181E-01
        1   -1    0    0  501    0  0.00000000000E+00  0.00000000000E+00  0.18377195700E+04  0.18377195700E+04  0.50400001928E-02 0. -1.
       -1   -1    0    0    0  501  0.00000000000E+00  0.00000000000E+00 -0.49076109914E+03  0.49076109917E+03  0.50400001928E-02 0.  1.
    10030    2    1    2    0    0  0.00000000000E+00  0.00000000000E+00  0.13469584709E+04  0.23284806692E+04  0.18993486000E+04 0.  0.
        5    1    3    3  502    0  0.59575294404E+03  0.88603597940E+02  0.15735929786E+04  0.16849300045E+04  0.46999998093E+01 0. -1.
       -5    1    3    3    0  502 -0.59575294404E+03 -0.88603597940E+02 -0.22663450771E+03  0.64355066466E+03  0.46999998093E+01 0.  1.
</event>
<event>
 5   0  0.6984466E-06  0.1898551E+04  0.7818609E-02  0.8655578E-01
       -2   -1    0    0    0  501  0.00000000000E+00  0.00000000000E+00  0.51380706315E+03  0.51380706316E+03  0.25500000920E-02 0. -1.
        2   -1    0    0  501    0  0.00000000000E+00  0.00000000000E+00 -0.17538183722E+04  0.17538183722E+04  0.25500000920E-02 0.  1.
    10030    2    1    2    0    0  0.00000000000E+00  0.00000000000E+00 -0.12400113091E+04  0.22676254354E+04  0.18985513079E+04 0.  0.
        2    1    3    3  502    0 -0.87301828494E+03  0.18549366949E+03 -0.23379673634E+03  0.92262112549E+03  0.25500000920E-02 0. -1.
       -2    1    3    3    0  502  0.87301828494E+03 -0.18549366949E+03 -0.10062145727E+04  0.13450043099E+04  0.25500000920E-02 0.  1.
</event>
<event>
 5   0  0.6862201E-06  0.1899439E+04  0.7818609E-02  0.8655136E-01
        2   -1    0    0  501    0  0.00000000000E+00  0.00000000000E+00  0.10291229517E+04  0.10291229517E+04  0.25500000920E-02 0.  1.
       -2   -1    0    0    0  501  0.00000000000E+00  0.00000000000E+00 -0.87644217920E+03  0.87644217920E+03  0.25500000920E-02 0. -1.
    10030    2    1    2    0    0  0.00000000000E+00  0.00000000000E+00  0.15268077250E+03  0.19055651309E+04  0.18994386144E+04 0.  0.
        3    1    3    3  502    0  0.14989919278E+03  0.92957491385E+03  0.20078670575E+03  0.96275365481E+03  0.10100000352E+00 0.  1.
       -3    1    3    3    0  502 -0.14989919278E+03 -0.92957491385E+03 -0.48105933249E+02  0.94281147610E+03  0.10100000352E+00 0. -1.
</event>
<event>
 5   0  0.6862201E-06  0.1898651E+04  0.7818609E-02  0.8655528E-01
        2   -1    0    0  501    0  0.00000000000E+00  0.00000000000E+00  0.86985434083E+03  0.86985434083E+03  0.25500000920E-02 0. -1.
       -2   -1    0    0    0  501  0.00000000000E+00  0.00000000000E+00 -0.10360569514E+04  0.10360569514E+04  0.25500000920E-02 0.  1.
    10030    2    1    2    0    0  0.00000000000E+00  0.00000000000E+00 -0.16620261056E+03  0.19059112922E+04  0.18986507172E+04 0.  0.
        3    1    3    3  502    0  0.28077071615E+03  0.22325188558E+03 -0.96540786092E+03  0.10298960858E+04  0.10100000352E+00 0.  1.
       -3    1    3    3    0  502 -0.28077071615E+03 -0.22325188558E+03  0.79920525036E+03  0.87601520641E+03  0.10100000352E+00 0. -1.
</event>
<event>
 5   0  0.3495279E-06  0.1899431E+04  0.7818609E-02  0.8655140E-01
        1   -1    0    0  501    0  0.00000000000E+00  0.00000000000E+00  0.79303937228E+03  0.79303937229E+03  0.50400001928E-02 0. -1.
       -1   -1    0    0    0  501  0.00000000000E+00  0.00000000000E+00 -0.11373453452E+04  0.11373453452E+04  0.50400001928E-02 0.  1.
    10030    2    1    2    0    0  0.00000000000E+00  0.00000000000E+00 -0.34430597290E+03  0.19303847175E+04  0.18994311134E+04 0.  0.
        2    1    3    3  502    0  0.30103412458E+03 -0.78170184897E+03  0.28266690963E+03  0.88407008017E+03  0.25500000920E-02 0. -1.
       -2    1    3    3    0  502 -0.30103412458E+03  0.78170184897E+03 -0.62697288252E+03  0.10463146373E+04  0.25500000920E-02 0.  1.
</event>
<event>
 5   0  0.7207648E-06  0.1898622E+04  0.7818609E-02  0.8655543E-01
       -2   -1    0    0    0  501  0.00000000000E+00  0.00000000000E+00  0.60947175500E+03  0.60947175501E+03  0.25500000920E-02 0.  1.
        2   -1    0    0  501    0  0.00000000000E+00  0.00000000000E+00 -0.14786429572E+04  0.14786429572E+04  0.25500000920E-02 0. -1.
    10030    2    1    2    0    0  0.00000000000E+00  0.00000000000E+00 -0.86917120216E+03  0.20881147122E+04  0.18986217297E+04 0.  0.
        4    1    3    3  502    0  0.40364200392E+03 -0.61453446990E+03  0.22585658026E+03  0.76915036876E+03  0.12699999809E+01 0.  1.
       -4    1    3    3    0  502 -0.40364200392E+03  0.61453446990E+03 -0.10950277824E+04  0.13189643434E+04  0.12699999809E+01 0. -1.
</event>
<event>
 5   0  0.6862201E-06  0.1899239E+04  0.7818609E-02  0.8655235E-01
       -2   -1    0    0    0  501  0.00000000000E+00  0.00000000000E+00  0.77572990820E+03  0.77572990820E+03  0.25500000920E-02 0.  1.
        2   -1    0    0  501    0  0.00000000000E+00  0.00000000000E+00 -0.11624881619E+04  0.11624881619E+04  0.25500000920E-02 0. -1.
    10030    2    1    2    0    0  0.00000000000E+00  0.00000000000E+00 -0.38675825369E+03  0.19382180701E+04  0.18992386212E+04 0.  0.
        3    1    3    3  502    0  0.23303882430E+03  0.17158699986E+03 -0.11163905847E+04  0.11532897034E+04  0.10100000352E+00 0. -1.
       -3    1    3    3    0  502 -0.23303882430E+03 -0.17158699986E+03  0.72963233102E+03  0.78492836669E+03  0.10100000352E+00 0.  1.
</event>
<event>
 5   0  0.6862201E-06  0.1901339E+04  0.7818609E-02  0.8654190E-01
        2   -1    0    0  501    0  0.00000000000E+00  0.00000000000E+00  0.22345078952E+04  0.22345078952E+04  0.25500000920E-02 0.  1.
       -2   -1    0    0    0  501  0.00000000000E+00  0.00000000000E+00 -0.40446174571E+03  0.40446174571E+03  0.25500000920E-02 0. -1.
    10030    2    1    2    0    0  0.00000000000E+00  0.00000000000E+00  0.18300461495E+04  0.26389696410E+04  0.19013394901E+04 0.  0.
        3    1    3    3  502    0  0.34432399326E+02 -0.92254559705E+03  0.12299904910E+04  0.15379052594E+04  0.10100000352E+00 0.  1.
       -3    1    3    3    0  502 -0.34432399326E+02  0.92254559705E+03  0.60005565851E+03  0.11010643815E+04  0.10100000352E+00 0. -1.
</event>
<event>
 5   0  0.6862201E-06  0.1903079E+04  0.7818609E-02  0.8653325E-01
       -2   -1    0    0    0  501  0.00000000000E+00  0.00000000000E+00  0.68706353359E+03  0.68706353359E+03  0.25500000920E-02 0. -1.
        2   -1    0    0  501    0  0.00000000000E+00  0.00000000000E+00 -0.13178222076E+04  0.13178222076E+04  0.25500000920E-02 0.  1.
    10030    2    1    2    0    0  0.00000000000E+00  0.00000000000E+00 -0.63075867397E+03  0.20048857412E+04  0.19030791708E+04 0.  0.
        3    1    3    3  502    0  0.72005776935E+03 -0.40513194955E+03  0.18190242545E+03  0.84599266565E+03  0.10100000352E+00 0. -1.
       -3    1    3    3    0  502 -0.72005776935E+03  0.40513194955E+03 -0.81266109942E+03  0.11588930755E+04  0.10100000352E+00 0.  1.
</event>
<event>
 5   0  0.7577180E-06  0.1900401E+04  0.7818609E-02  0.8654657E-01
       -2   -1    0    0    0  501  0.00000000000E+00  0.00000000000E+00  0.91104640212E+03  0.91104640213E+03  0.25500000920E-02 0. -1.
        2   -1    0    0  501    0  0.00000000000E+00  0.00000000000E+00 -0.99103781368E+03  0.99103781369E+03  0.25500000920E-02 0.  1.
    10030    2    1    2    0    0  0.00000000000E+00  0.00000000000E+00 -0.79991411561E+02  0.19020842158E+04  0.19004014676E+04 0.  0.
        5    1    3    3  502    0  0.27857401587E+03  0.77090899269E+03  0.44100780356E+03  0.93081369249E+03  0.46999998093E+01 0. -1.
       -5    1    3    3    0  502 -0.27857401587E+03 -0.77090899269E+03 -0.52099921512E+03  0.97127052332E+03  0.46999998093E+01 0.  1.
</event>
<event>
 5   0  0.3236653E-06  0.1899653E+04  0.7818609E-02  0.8655029E-01
       -1   -1    0    0    0  501  0.00000000000E+00  0.00000000000E+00  0.94152313436E+03  0.94152313438E+03  0.50400001928E-02 0. -1.
        1   -1    0    0  501    0  0.00000000000E+00  0.00000000000E+00 -0.95820351199E+03  0.95820351201E+03  0.50400001928E-02 0.  1.
    10030    2    1    2    0    0  0.00000000000E+00  0.00000000000E+00 -0.16680377628E+02  0.18997266464E+04  0.18996534147E+04 0.  0.
        3    1    3    3  502    0  0.80356101961E+03  0.28431877565E+03 -0.42743066376E+03  0.95354310912E+03  0.10100000352E+00 0. -1.
       -3    1    3    3    0  502 -0.80356101961E+03 -0.28431877565E+03  0.41075028614E+03  0.94618353726E+03  0.10100000352E+00 0.  1.
</event>
<event>
 5   0  0.3495279E-06  0.1899949E+04  0.7818609E-02  0.8654882E-01
        1   -1    0    0  501    0  0.00000000000E+00  0.00000000000E+00  0.99540455540E+03  0.99540455541E+03  0.50400001928E-02 0. -1.
       -1   -1    0    0    0  501  0.00000000000E+00  0.00000000000E+00 -0.90661799591E+03  0.90661799592E+03  0.50400001928E-02 0.  1.
    10030    2    1    2    0    0  0.00000000000E+00  0.00000000000E+00  0.88786559486E+02  0.19020225513E+04  0.18999491395E+04 0.  0.
        2    1    3    3  502    0  0.24899095805E+03 -0.91000766082E+03 -0.66819102114E+02  0.94581987310E+03  0.25500000920E-02 0.  1.
       -2    1    3    3    0  502 -0.24899095805E+03  0.91000766082E+03  0.15560566160E+03  0.95620267823E+03  0.25500000920E-02 0. -1.
</event>
<event>
 5   0  0.3379108E-06  0.1895393E+04  0.7818609E-02  0.8657153E-01
       -1   -1    0    0    0  501  0.00000000000E+00  0.00000000000E+00  0.65998038275E+03  0.65998038277E+03  0.50400001928E-02 0. -1.
        1   -1    0    0  501    0  0.00000000000E+00  0.00000000000E+00 -0.13608414431E+04  0.13608414431E+04  0.50400001928E-02 0.  1.
    10030    2    1    2    0    0  0.00000000000E+00  0.00000000000E+00 -0.70086106037E+03  0.20208218259E+04  0.18953930004E+04 0.  0.
        4    1    3    3  502    0  0.91902738989E+03  0.15808487192E+03 -0.17036084093E+03  0.94795917587E+03  0.12699999809E+01 0. -1.
       -4    1    3    3    0  502 -0.91902738989E+03 -0.15808487192E+03 -0.53050021944E+03  0.10728626500E+04  0.12699999809E+01 0.  1.
</event>
<event>
 5   0  0.6862201E-06  0.1900353E+04  0.7818609E-02  0.8654681E-01
       -2   -1    0    0    0  501  0.00000000000E+00  0.00000000000E+00  0.71557777940E+03  0.71557777941E+03  0.25500000920E-02 0. -1.
        2   -1    0    0  501    0  0.00000000000E+00  0.00000000000E+00 -0.12616868518E+04  0.12616868518E+04  0.25500000920E-02 0.  1.
    10030    2    1    2    0    0  0.00000000000E+00  0.00000000000E+00 -0.54610907240E+03  0.19772646312E+04  0.19003526786E+04 0.  0.
        3    1    3    3  502    0 -0.66116671980E+03 -0.60922248129E+03 -0.59297503637E+03  0.10769925102E+04  0.10100000352E+00 0. -1.
       -3    1    3    3    0  502  0.66116671980E+03  0.60922248129E+03  0.46865963970E+02  0.90027212101E+03  0.10100000352E+00 0.  1.
</event>
<event>
 5   0  0.6862201E-06  0.1900104E+04  0.7818609E-02  0.8654804E-01
        2   -1    0    0  501    0  0.00000000000E+00  0.00000000000E+00  0.14277267646E+04  0.14277267647E+04  0.25500000920E-02 0. -1.
       -2   -1    0    0    0  501  0.00000000000E+00  0.00000000000E+00 -0.63219317043E+03  0.63219317044E+03  0.25500000920E-02 0.  1.
    10030    2    1    2    0    0  0.00000000000E+00  0.00000000000E+00  0.79553359422E+03  0.20599199351E+04  0.19001043233E+04 0.  0.
        3    1    3    3  502    0 -0.53277445700E+03  0.75647049238E+03  0.16398387578E+03  0.93967385278E+03  0.10100000352E+00 0.  1.
       -3    1    3    3    0  502  0.53277445700E+03 -0.75647049238E+03  0.63154971843E+03  0.11202460823E+04  0.10100000352E+00 0. -1.
</event>
<event>
 5   0  0.6870370E-06  0.1894616E+04  0.7818609E-02  0.8657541E-01
       -2   -1    0    0    0  501  0.00000000000E+00  0.00000000000E+00  0.64476416283E+03  0.64476416284E+03  0.25500000920E-02 0. -1.
        2   -1    0    0  501    0  0.00000000000E+00  0.00000000000E+00 -0.13918153147E+04  0.13918153147E+04  0.25500000920E-02 0.  1.
    10030    2    1    2    0    0  0.00000000000E+00  0.00000000000E+00 -0.74705115188E+03  0.20365794776E+04  0.18946161999E+04 0.  0.
        1    1    3    3  502    0 -0.19118178986E+03  0.90396937904E+03 -0.59818725155E+03  0.11006993699E+04  0.50400001928E-02 0. -1.
       -1    1    3    3    0  502  0.19118178986E+03 -0.90396937904E+03 -0.14886390033E+03  0.93588010763E+03  0.50400001928E-02 0.  1.
</event>
<event>
 5   0  0.3398807E-06  0.1899725E+04  0.7818609E-02  0.8654993E-01
        1   -1    0    0  501    0  0.00000000000E+00  0.00000000000E+00  0.60342105867E+03  0.60342105869E+03  0.50400001928E-02 0. -1.
       -1   -1    0    0    0  501  0.00000000000E+00  0.00000000000E+00 -0.14952059664E+04  0.14952059664E+04  0.50400001928E-02 0.  1.
    10030    2    1    2    0    0  0.00000000000E+00  0.00000000000E+00 -0.89178490771E+03  0.20986270251E+04  0.18997249982E+04 0.  0.
        1    1    3    3  502    0  0.14760549002E+03 -0.18298739873E+03  0.57077230092E+03  0.61729473374E+03  0.50400001928E-02 0. -1.
       -1    1    3    3    0  502 -0.14760549002E+03  0.18298739873E+03 -0.14625572086E+04  0.14813322913E+04  0.50400001928E-02 0.  1.
</event>
<event>
 5   0  0.6984466E-06  0.1900635E+04  0.7818609E-02  0.8654540E-01
       -2   -1    0    0    0  501  0.00000000000E+00  0.00000000000E+00  0.53641847478E+03  0.53641847478E+03  0.25500000920E-02 0.  1.
        2   -1    0    0  501    0  0.00000000000E+00  0.00000000000E+00 -0.16835806756E+04  0.16835806756E+04  0.25500000920E-02 0. -1.
    10030    2    1    2    0    0  0.00000000000E+00  0.00000000000E+00 -0.11471622009E+04  0.22199991504E+04  0.19006354497E+04 0.  0.
        2    1    3    3  502    0 -0.11674419501E+03  0.94153648268E+03 -0.50978032622E+03  0.10770311678E+04  0.25500000920E-02 0. -1.
       -2    1    3    3    0  502  0.11674419501E+03 -0.94153648268E+03 -0.63738187464E+03  0.11429679827E+04  0.25500000920E-02 0.  1.
</event>
<event>
 5   0  0.6862201E-06  0.1900228E+04  0.7818609E-02  0.8654743E-01
        2   -1    0    0  501    0  0.00000000000E+00  0.00000000000E+00  0.18528035548E+04  0.18528035548E+04  0.25500000920E-02 0.  1.
       -2   -1    0    0    0  501  0.00000000000E+00  0.00000000000E+00 -0.48721656022E+03  0.48721656023E+03  0.25500000920E-02 0. -1.
    10030    2    1    2    0    0  0.00000000000E+00  0.00000000000E+00  0.13655869946E+04  0.23400201150E+04  0.19002279597E+04 0.  0.
        3    1    3    3  502    0 -0.64563445182E+03 -0.65215801749E+03  0.37974210495E+03  0.99315557776E+03  0.10100000352E+00 0. -1.
       -3    1    3    3    0  502  0.64563445182E+03  0.65215801749E+03  0.98584488963E+03  0.13468645373E+04  0.10100000352E+00 0.  1.
</event>
<event>
 5   0  0.3398807E-06  0.1900318E+04  0.7818609E-02  0.8654698E-01
        1   -1    0    0  501    0  0.00000000000E+00  0.00000000000E+00  0.44061237476E+03  0.44061237479E+03  0.50400001928E-02 0. -1.
       -1   -1    0    0    0  501  0.00000000000E+00  0.00000000000E+00 -0.20489702830E+04  0.20489702830E+04  0.50400001928E-02 0.  1.
    10030    2    1    2    0    0  0.00000000000E+00  0.00000000000E+00 -0.16083579083E+04  0.24895826578E+04  0.19003175127E+04 0.  0.
        1    1    3    3  502    0 -0.31953292506E+03 -0.45209656831E+03 -0.18158424630E+04  0.18983615166E+04  0.50400001928E-02 0.  1.
       -1    1    3    3    0  502  0.31953292506E+03  0.45209656831E+03  0.20748455478E+03  0.59122114117E+03  0.50400001928E-02 0. -1.
</event>
<event>
 5   0  0.7207648E-06  0.1900322E+04  0.7818609E-02  0.8654696E-01
        2   -1    0    0  501    0  0.00000000000E+00  0.00000000000E+00  0.13658056592E+04  0.13658056592E+04  0.25500000920E-02 0.  1.
       -2   -1    0    0    0  501  0.00000000000E+00  0.00000000000E+00 -0.66100630725E+03  0.66100630726E+03  0.25500000920E-02 0. -1.
    10030    2    1    2    0    0  0.00000000000E+00  0.00000000000E+00  0.70479935193E+03  0.20268119664E+04  0.19003222413E+04 0.  0.
        4    1    3    3  502    0 -0.11859762918E+03 -0.51109751599E+03 -0.49248895515E+03  0.71960617864E+03  0.12699999809E+01 0. -1.
       -4    1    3    3    0  502  0.11859762918E+03  0.51109751599E+03  0.11972883071E+04  0.13072057878E+04  0.12699999809E+01 0.  1.
</event>
<event>
 5   0  0.3211263E-06  0.1899048E+04  0.7818609E-02  0.8655330E-01
       -1   -1    0    0    0  501  0.00000000000E+00  0.00000000000E+00  0.65423084084E+03  0.65423084086E+03  0.50400001928E-02 0.  1.
        1   -1    0    0  501    0  0.00000000000E+00  0.00000000000E+00 -0.13781003509E+04  0.13781003510E+04  0.50400001928E-02 0. -1.
    10030    2    1    2    0    0  0.00000000000E+00  0.00000000000E+00 -0.72386951010E+03  0.20323311918E+04  0.18990479208E+04 0.  0.
        5    1    3    3  502    0  0.58531107227E+03 -0.10102272329E+02  0.43811838725E+03  0.73120511382E+03  0.46999998093E+01 0.  1.
       -5    1    3    3    0  502 -0.58531107227E+03  0.10102272329E+02 -0.11619878974E+04  0.13011260780E+04  0.46999998093E+01 0. -1.
</event>
<event>
 5   0  0.7577180E-06  0.1902495E+04  0.7818609E-02  0.8653615E-01
        2   -1    0    0  501    0  0.00000000000E+00  0.00000000000E+00  0.10442993379E+04  0.10442993379E+04  0.25500000920E-02 0. -1.
       -2   -1    0    0    0  501  0.00000000000E+00  0.00000000000E+00 -0.86648733859E+03  0.86648733859E+03  0.25500000920E-02 0.  1.
    10030    2    1    2    0    0  0.00000000000E+00  0.00000000000E+00  0.17781199929E+03  0.19107866765E+04  0.19024953655E+04 0.  0.
        5    1    3    3  502    0  0.74678588386E+03 -0.42560661630E+03  0.49813715665E+03  0.99347514564E+03  0.46999998093E+01 0. -1.
       -5    1    3    3    0  502 -0.74678588386E+03  0.42560661630E+03 -0.32032515736E+03  0.91731153083E+03  0.46999998093E+01 0.  1.
</event>
<event>
 5   0  0.7207648E-06  0.1896914E+04  0.7818609E-02  0.8656394E-01
       -2   -1    0    0    0  501  0.00000000000E+00  0.00000000000E+00  0.73960067962E+03  0.73960067962E+03  0.25500000920E-02 0. -1.
        2   -1    0    0  501    0  0.00000000000E+00  0.00000000000E+00 -0.12162922413E+04  0.12162922413E+04  0.25500000920E-02 0.  1.
    10030    2    1    2    0    0  0.00000000000E+00  0.00000000000E+00 -0.47669156165E+03  0.19558929209E+04  0.18969138813E+04 0.  0.
        4    1    3    3  502    0  0.93880989175E+03  0.38273534335E+02 -0.37175204201E+03  0.10104603258E+04  0.12699999809E+01 0.  1.
       -4    1    3    3    0  502 -0.93880989175E+03 -0.38273534335E+02 -0.10493951964E+03  0.94543259514E+03  0.12699999809E+01 0. -1.
</event>
<event>
 5   0  0.6862201E-06  0.1900080E+04  0.7818609E-02  0.8654816E-01
       -2   -1    0    0    0  501  0.00000000000E+00  0.00000000000E+00  0.52069731951E+03  0.52069731951E+03  0.25500000920E-02 0. -1.
        2   -1    0    0  501    0  0.00000000000E+00  0.00000000000E+00 -0.17333991864E+04  0.17333991864E+04  0.25500000920E-02 0.  1.
    10030    2    1    2    0    0  0.00000000000E+00  0.00000000000E+00 -0.12127018668E+04  0.22540965059E+04  0.19000803246E+04 0.  0.
        3    1    3    3  502    0 -0.17810705005E+03 -0.64578750697E+03  0.19281848299E+03  0.69709583489E+03  0.10100000352E+00 0. -1.
       -3    1    3    3    0  502  0.17810705005E+03  0.64578750697E+03 -0.14055203498E+04  0.15570006710E+04  0.10100000352E+00 0.  1.
</event>
<event>
 5   0  0.6862201E-06  0.1899575E+04  0.7818609E-02  0.8655068E-01
       -2   -1    0    0    0  501  0.00000000000E+00  0.00000000000E+00  0.77227922162E+03  0.77227922162E+03  0.25500000920E-02 0. -1.
        2   -1    0    0  501    0  0.00000000000E+00  0.00000000000E+00 -0.11680955467E+04  0.11680955467E+04  0.25500000920E-02 0.  1.
    10030    2    1    2    0    0  0.00000000000E+00  0.00000000000E+00 -0.39581632505E+03  0.19403747683E+04  0.18995746045E+04 0.  0.
        3    1    3    3  502    0 -0.67465232027E+03  0.40024033118E+03 -0.74489809914E+03  0.10817676572E+04  0.10100000352E+00 0.  1.
       -3    1    3    3    0  502  0.67465232027E+03 -0.40024033118E+03  0.34908177409E+03  0.85860711105E+03  0.10100000352E+00 0. -1.
</event>
<event>
 5   0  0.7207648E-06  0.1900236E+04  0.7818609E-02  0.8654739E-01
        2   -1    0    0  501    0  0.00000000000E+00  0.00000000000E+00  0.24658524762E+04  0.24658524762E+04  0.25500000920E-02 0. -1.
       -2   -1    0    0    0  501  0.00000000000E+00  0.00000000000E+00 -0.36608993510E+03  0.36608993511E+03  0.25500000920E-02 0.  1.
    10030    2    1    2    0    0  0.00000000000E+00  0.00000000000E+00  0.20997625411E+04  0.28319424113E+04  0.19002355359E+04 0.  0.
        4    1    3    3  502    0  0.36653542327E+03  0.82662276927E+03  0.14845535899E+04  0.17382618886E+04  0.12699999809E+01 0. -1.
       -4    1    3    3    0  502 -0.36653542327E+03 -0.82662276927E+03  0.61520895118E+03  0.10936805227E+04  0.12699999809E+01 0.  1.
</event>
<event>
 5   0  0.6862201E-06  0.1900052E+04  0.7818609E-02  0.8654830E-01
        2   -1    0    0  501    0  0.00000000000E+00  0.00000000000E+00  0.69312374143E+03  0.69312374144E+03  0.25500000920E-02 0.  1.
       -2   -1    0    0    0  501  0.00000000000E+00  0.00000000000E+00 -0.13021481611E+04  0.13021481611E+04  0.25500000920E-02 0. -1.
    10030    2    1    2    0    0  0.00000000000E+00  0.00000000000E+00 -0.60902441963E+03  0.19952719025E+04  0.19000524259E+04 0.  0.
        3    1    3    3  502    0 -0.25930584403E+03  0.31548273859E+03  0.59625125424E+03  0.72269249856E+03  0.10100000352E+00 0.  1.
       -3    1    3    3    0  502  0.25930584403E+03 -0.31548273859E+03 -0.12052756739E+04  0.12725794039E+04  0.10100000352E+00 0. -1.
</event>
<event>
 5   0  0.3211263E-06  0.1901347E+04  0.7818609E-02  0.8654186E-01
        1   -1    0    0  501    0  0.00000000000E+00  0.00000000000E+00  0.11461552678E+04  0.11461552678E+04  0.50400001928E-02 0. -1.
       -1   -1    0    0    0  501  0.00000000000E+00  0.00000000000E+00 -0.78853225304E+03  0.78853225305E+03  0.50400001928E-02 0.  1.
    10030    2    1    2    0    0  0.00000000000E+00  0.00000000000E+00  0.35762301476E+03  0.19346875209E+04  0.19013473072E+04 0.  0.
        5    1    3    3  502    0  0.23143496619E+03  0.58022349277E+03 -0.55036922969E+03  0.83255619878E+03  0.46999998093E+01 0.  1.
       -5    1    3    3    0  502 -0.23143496619E+03 -0.58022349277E+03  0.90799224445E+03  0.11021313221E+04  0.46999998093E+01 0. -1.
</event>
<event>
 5   0  0.6870370E-06  0.1900408E+04  0.7818609E-02  0.8654653E-01
        2   -1    0    0  501    0  0.00000000000E+00  0.00000000000E+00  0.13432321037E+04  0.13432321037E+04  0.25500000920E-02 0. -1.
       -2   -1    0    0    0  501  0.00000000000E+00  0.00000000000E+00 -0.67217540535E+03  0.67217540535E+03  0.25500000920E-02 0.  1.
    10030    2    1    2    0    0  0.00000000000E+00  0.00000000000E+00  0.67105669834E+03  0.20154075090E+04  0.19004079391E+04 0.  0.
        1    1    3    3  502    0  0.48575315710E+03 -0.49917921654E+03 -0.34992054239E+03  0.77947444209E+03  0.50400001928E-02 0.  1.
       -1    1    3    3    0  502 -0.48575315710E+03  0.49917921654E+03  0.10209772407E+04  0.12359330669E+04  0.50400001928E-02 0. -1.
</event>
<event>
 5   0  0.3236653E-06  0.1899671E+04  0.7818609E-02  0.8655020E-01
       -1   -1    0    0    0  501  0.00000000000E+00  0.00000000000E+00  0.49859623278E+03  0.49859623281E+03  0.50400001928E-02 0.  1.
        1   -1    0    0  501    0  0.00000000000E+00  0.00000000000E+00 -0.18094548810E+04  0.18094548810E+04  0.50400001928E-02 0. -1.
    10030    2    1    2    0    0  0.00000000000E+00  0.00000000000E+00 -0.13108586482E+04  0.23080511138E+04  0.18996709053E+04 0.  0.
        3    1    3    3  502    0  0.31559170893E+03 -0.49542114406E+03 -0.15623138758E+04  0.16690910380E+04  0.10100000352E+00 0. -1.
       -3    1    3    3    0  502 -0.31559170893E+03  0.49542114406E+03  0.25145522756E+03  0.63896007574E+03  0.10100000352E+00 0.  1.
</event>
<event>
 5   0  0.7207648E-06  0.1899716E+04  0.7818609E-02  0.8654998E-01
        2   -1    0    0  501    0  0.00000000000E+00  0.00000000000E+00  0.12126935042E+04  0.12126935042E+04  0.25500000920E-02 0.  1.
       -2   -1    0    0    0  501  0.00000000000E+00  0.00000000000E+00 -0.74398883750E+03  0.74398883751E+03  0.25500000920E-02 0. -1.
    10030    2    1    2    0    0  0.00000000000E+00  0.00000000000E+00  0.46870466667E+03  0.19566823417E+04  0.18997162214E+04 0.  0.
        4    1    3    3  502    0 -0.40329850516E+03 -0.83006199434E+03  0.46598764882E+03  0.10338272102E+04  0.12699999809E+01 0.  1.
       -4    1    3    3    0  502  0.40329850516E+03  0.83006199434E+03  0.27170178477E+01  0.92285513153E+03  0.12699999809E+01 0. -1.
</event>
<event>
 5   0  0.7207648E-06  0.1902673E+04  0.7818609E-02  0.8653527E-01
       -2   -1    0    0    0  501  0.00000000000E+00  0.00000000000E+00  0.55124020875E+03  0.55124020876E+03  0.25500000920E-02 0.  1.
        2   -1    0    0  501    0  0.00000000000E+00  0.00000000000E+00 -0.16418276380E+04  0.16418276380E+04  0.25500000920E-02 0. -1.
    10030    2    1    2    0    0  0.00000000000E+00  0.00000000000E+00 -0.10905874293E+04  0.21930678468E+04  0.19026732877E+04 0.  0.
        4    1    3    3  502    0 -0.84926709277E+03  0.42869265414E+03 -0.54851497402E+03  0.10981358186E+04  0.12699999809E+01 0. -1.
       -4    1    3    3    0  502  0.84926709277E+03 -0.42869265414E+03 -0.54207245524E+03  0.10949320281E+04  0.12699999809E+01 0.  1.
</event>
<event>
 5   0  0.2527750E-06  0.1900267E+04  0.7818609E-02  0.8654723E-01
        3   -1    0    0  501    0  0.00000000000E+00  0.00000000000E+00  0.12921404314E+04  0.12921404353E+04  0.10100000352E+00 0.  1.
       -3   -1    0    0    0  501  0.00000000000E+00  0.00000000000E+00 -0.69865010108E+03  0.69865010838E+03  0.10100000352E+00 0. -1.
    10030    2    1    2    0    0  0.00000000000E+00  0.00000000000E+00  0.59349033032E+03  0.19907905437E+04  0.19002674066E+04 0.  0.
        4    1    3    3  502    0 -0.58360153659E+02  0.19785864901E+03  0.12683959088E+04  0.12850617677E+04  0.12699999809E+01 0.  1.
       -4    1    3    3    0  502  0.58360153659E+02 -0.19785864901E+03 -0.67490557847E+03  0.70572877600E+03  0.12699999809E+01 0. -1.
</event>
<event>
 5   0  0.7207648E-06  0.1899490E+04  0.7818609E-02  0.8655110E-01
        2   -1    0    0  501    0  0.00000000000E+00  0.00000000000E+00  0.14496985685E+04  0.14496985685E+04  0.25500000920E-02 0. -1.
       -2   -1    0    0    0  501  0.00000000000E+00  0.00000000000E+00 -0.62220931187E+03  0.62220931187E+03  0.25500000920E-02 0.  1.
    10030    2    1    2    0    0  0.00000000000E+00  0.00000000000E+00  0.82748925659E+03  0.20719078803E+04  0.18994904040E+04 0.  0.
        4    1    3    3  502    0  0.71295600893E+03  0.23677593287E+03 -0.22007202075E+03  0.78281697751E+03  0.12699999809E+01 0.  1.
       -4    1    3    3    0  502 -0.71295600893E+03 -0.23677593287E+03  0.10475612773E+04  0.12890909028E+04  0.12699999809E+01 0. -1.
</event>
<event>
 5   0  0.6870370E-06  0.1899173E+04  0.7818609E-02  0.8655268E-01
        2   -1    0    0  501    0  0.00000000000E+00  0.00000000000E+00  0.15881943805E+04  0.15881943805E+04  0.25500000920E-02 0.  1.
       -2   -1    0    0    0  501  0.00000000000E+00  0.00000000000E+00 -0.56776097355E+03  0.56776097355E+03  0.25500000920E-02 0. -1.
    10030    2    1    2    0    0  0.00000000000E+00  0.00000000000E+00  0.10204334069E+04  0.21559553540E+04  0.18991732808E+04 0.  0.
        1    1    3    3  502    0  0.34409642420E+03  0.70816003919E+03  0.11128629579E+04  0.13632156665E+04  0.50400001928E-02 0.  1.
       -1    1    3    3    0  502 -0.34409642420E+03 -0.70816003919E+03 -0.92429550994E+02  0.79273968753E+03  0.50400001928E-02 0. -1.
</event>
<event>
 5   0  0.3379108E-06  0.1899401E+04  0.7818609E-02  0.8655155E-01
       -1   -1    0    0    0  501  0.00000000000E+00  0.00000000000E+00  0.16545940405E+04  0.16545940405E+04  0.50400001928E-02 0.  1.
        1   -1    0    0  501    0  0.00000000000E+00  0.00000000000E+00 -0.54510704527E+03  0.54510704529E+03  0.50400001928E-02 0. -1.
    10030    2    1    2    0    0  0.00000000000E+00  0.00000000000E+00  0.11094869952E+04  0.21997010858E+04  0.18994008198E+04 0.  0.
        4    1    3    3  502    0 -0.93131394809E+03  0.10076344080E+03  0.37372974198E+03  0.10085506799E+04  0.12699999809E+01 0. -1.
       -4    1    3    3    0  502  0.93131394809E+03 -0.10076344080E+03  0.73575725322E+03  0.11911504059E+04  0.12699999809E+01 0.  1.
</event>
<event>
 5   0  0.2527750E-06  0.1898489E+04  0.7818609E-02  0.8655609E-01
        3   -1    0    0  501    0  0.00000000000E+00  0.00000000000E+00  0.44957996980E+03  0.44957998114E+03  0.10100000352E+00 0. -1.
       -3   -1    0    0    0  501  0.00000000000E+00  0.00000000000E+00 -0.20042377152E+04  0.20042377177E+04  0.10100000352E+00 0.  1.
    10030    2    1    2    0    0  0.00000000000E+00  0.00000000000E+00 -0.15546577454E+04  0.24538176989E+04  0.18984890292E+04 0.  0.
        3    1    3    3  502    0  0.53220830498E+03 -0.57278121629E+03 -0.14730565529E+04  0.16676988997E+04  0.10100000352E+00 0.  1.
       -3    1    3    3    0  502 -0.53220830498E+03  0.57278121629E+03 -0.81601192440E+02  0.78611879919E+03  0.10100000352E+00 0. -1.
</event>
<event>
 5   0  0.3211263E-06  0.1901383E+04  0.7818609E-02  0.8654168E-01
       -1   -1    0    0    0  501  0.00000000000E+00  0.00000000000E+00  0.10909985566E+04  0.10909985566E+04  0.50400001928E-02 0.  1.
        1   -1    0    0  501    0  0.00000000000E+00  0.00000000000E+00 -0.82842883650E+03  0.82842883651E+03  0.50400001928E-02 0. -1.
    10030    2    1    2    0    0  0.00000000000E+00  0.00000000000E+00  0.26256972007E+03  0.19194273931E+04  0.19013833542E+04 0.  0.
        5    1    3    3  502    0  0.71200513639E+03 -0.47206557685E+03 -0.28980116103E+03  0.90211087235E+03  0.46999998093E+01 0. -1.
       -5    1    3    3    0  502 -0.71200513639E+03  0.47206557685E+03  0.55237088110E+03  0.10173165207E+04  0.46999998093E+01 0.  1.
</event>
<event>
 5   0  0.7207648E-06  0.1898903E+04  0.7818609E-02  0.8655403E-01
        2   -1    0    0  501    0  0.00000000000E+00  0.00000000000E+00  0.95740992482E+03  0.95740992483E+03  0.25500000920E-02 0. -1.
       -2   -1    0    0    0  501  0.00000000000E+00  0.00000000000E+00 -0.94155932502E+03  0.94155932502E+03  0.25500000920E-02 0.  1.
    10030    2    1    2    0    0  0.00000000000E+00  0.00000000000E+00  0.15850599808E+02  0.18989692498E+04  0.18989030966E+04 0.  0.
        4    1    3    3  502    0 -0.62808023779E+03 -0.19849917478E+03 -0.67588936855E+03  0.94377685864E+03  0.12699999809E+01 0.  1.
       -4    1    3    3    0  502  0.62808023779E+03  0.19849917478E+03  0.69173996836E+03  0.95519239121E+03  0.12699999809E+01 0. -1.
</event>
<event>
 5   0  0.6870370E-06  0.1899795E+04  0.7818609E-02  0.8654958E-01
       -2   -1    0    0    0  501  0.00000000000E+00  0.00000000000E+00  0.63199077890E+03  0.63199077891E+03  0.25500000920E-02 0.  1.
        2   -1    0    0  501    0  0.00000000000E+00  0.00000000000E+00 -0.14277197351E+04  0.14277197351E+04  0.25500000920E-02 0. -1.
    10030    2    1    2    0    0  0.00000000000E+00  0.00000000000E+00 -0.79572895623E+03  0.20597105140E+04  0.18997954705E+04 0.  0.
        1    1    3    3  502    0  0.44332201932E+01  0.90035707781E+03 -0.72607267910E+03  0.11566520896E+04  0.50400001928E-02 0. -1.
       -1    1    3    3    0  502 -0.44332201932E+01 -0.90035707781E+03 -0.69656277131E+02  0.90305842445E+03  0.50400001928E-02 0.  1.
</event>
<event>
 5   0  0.6984466E-06  0.1899418E+04  0.7818609E-02  0.8655146E-01
       -2   -1    0    0    0  501  0.00000000000E+00  0.00000000000E+00  0.10155542801E+04  0.10155542801E+04  0.25500000920E-02 0. -1.
        2   -1    0    0  501    0  0.00000000000E+00  0.00000000000E+00 -0.88813247491E+03  0.88813247492E+03  0.25500000920E-02 0.  1.
    10030    2    1    2    0    0  0.00000000000E+00  0.00000000000E+00  0.12742180522E+03  0.19036867550E+04  0.18994175278E+04 0.  0.
        2    1    3    3  502    0  0.94171900907E+03 -0.88807227828E+02 -0.21482036941E+02  0.94614105380E+03  0.25500000920E-02 0. -1.
       -2    1    3    3    0  502 -0.94171900907E+03  0.88807227828E+02  0.14890384216E+03  0.95754570125E+03  0.25500000920E-02 0.  1.
</event>
<event>
 5   0  0.7577180E-06  0.1899957E+04  0.7818609E-02  0.8654878E-01
       -2   -1    0    0    0  501  0.00000000000E+00  0.00000000000E+00  0.43212805017E+03  0.43212805018E+03  0.25500000920E-02 0.  1.
        2   -1    0    0  501    0  0.00000000000E+00  0.00000000000E+00 -0.20884071029E+04  0.20884071029E+04  0.25500000920E-02 0. -1.
    10030    2    1    2    0    0  0.00000000000E+00  0.00000000000E+00 -0.16562790527E+04  0.25205351531E+04  0.18999571462E+04 0.  0.
        5    1    3    3  502    0  0.11343575316E+03  0.73569491882E+03 -0.16110998006E+04  0.17747617703E+04  0.46999998093E+01 0. -1.
       -5    1    3    3    0  502 -0.11343575316E+03 -0.73569491882E+03 -0.45179252101E+02  0.74577338280E+03  0.46999998093E+01 0.  1.
</event>
<event>
 5   0  0.6984466E-06  0.1899202E+04  0.7818609E-02  0.8655254E-01
       -2   -1    0    0    0  501  0.00000000000E+00  0.00000000000E+00  0.51807216044E+03  0.51807216045E+03  0.25500000920E-02 0. -1.
        2   -1    0    0  501    0  0.00000000000E+00  0.00000000000E+00 -0.17405718512E+04  0.17405718512E+04  0.25500000920E-02 0.  1.
    10030    2    1    2    0    0  0.00000000000E+00  0.00000000000E+00 -0.12224996907E+04  0.22586440116E+04  0.18992017474E+04 0.  0.
        2    1    3    3  502    0 -0.35923540416E+03  0.26253746824E+03 -0.16089287078E+04  0.16693194974E+04  0.25500000920E-02 0.  1.
       -2    1    3    3    0  502  0.35923540416E+03 -0.26253746824E+03  0.38642901702E+03  0.58932451420E+03  0.25500000920E-02 0. -1.
</event>
<event>
 5   0  0.3236653E-06  0.1899233E+04  0.7818609E-02  0.8655238E-01
        1   -1    0    0  501    0  0.00000000000E+00  0.00000000000E+00  0.61861710025E+03  0.61861710027E+03  0.50400001928E-02 0.  1.
       -1   -1    0    0    0  501  0.00000000000E+00  0.00000000000E+00 -0.14577218494E+04  0.14577218494E+04  0.50400001928E-02 0. -1.
    10030    2    1    2    0    0  0.00000000000E+00  0.00000000000E+00 -0.83910474916E+03  0.20763389497E+04  0.18992331752E+04 0.  0.
        3    1    3    3  502    0  0.89172838324E+03 -0.29787261333E+03 -0.56567246295E+03  0.10972205561E+04  0.10100000352E+00 0. -1.
       -3    1    3    3    0  502 -0.89172838324E+03  0.29787261333E+03 -0.27343228621E+03  0.97911839355E+03  0.10100000352E+00 0.  1.
</event>
<event>
 5   0  0.6870370E-06  0.1901070E+04  0.7818609E-02  0.8654324E-01
        2   -1    0    0  501    0  0.00000000000E+00  0.00000000000E+00  0.12082497375E+04  0.12082497375E+04  0.25500000920E-02 0. -1.
       -2   -1    0    0    0  501  0.00000000000E+00  0.00000000000E+00 -0.74778939153E+03  0.74778939153E+03  0.25500000920E-02 0.  1.
    10030    2    1    2    0    0  0.00000000000E+00  0.00000000000E+00  0.46046034595E+03  0.19560391290E+04  0.19010695264E+04 0.  0.
        1    1    3    3  502    0 -0.55308737375E+02 -0.83869221760E+03  0.68697188021E+03  0.10855386020E+04  0.50400001928E-02 0. -1.
       -1    1    3    3    0  502  0.55308737375E+02  0.83869221760E+03 -0.22651153426E+03  0.87050052698E+03  0.50400001928E-02 0.  1.
</event>
<event>
 5   0  0.3379108E-06  0.1899420E+04  0.7818609E-02  0.8655145E-01
        1   -1    0    0  501    0  0.00000000000E+00  0.00000000000E+00  0.14278370703E+04  0.14278370703E+04  0.50400001928E-02 0.  1.
       -1   -1    0    0    0  501  0.00000000000E+00  0.00000000000E+00 -0.63168935329E+03  0.63168935331E+03  0.50400001928E-02 0. -1.
    10030    2    1    2    0    0  0.00000000000E+00  0.00000000000E+00  0.79614771700E+03  0.20595264236E+04  0.18994204122E+04 0.  0.
        4    1    3    3  502    0  0.74936304533E+03 -0.22935066636E+03 -0.18361740092E+03  0.80489978549E+03  0.12699999809E+01 0. -1.
       -4    1    3    3    0  502 -0.74936304533E+03  0.22935066636E+03  0.97976511792E+03  0.12546266381E+04  0.12699999809E+01 0.  1.
</event>
<event>
 5   0  0.3379108E-06  0.1897078E+04  0.7818609E-02  0.8656312E-01
        1   -1    0    0  501    0  0.00000000000E+00  0.00000000000E+00  0.14876399567E+04  0.14876399567E+04  0.50400001928E-02 0. -1.
       -1   -1    0    0    0  501  0.00000000000E+00  0.00000000000E+00 -0.60480100093E+03  0.60480100095E+03  0.50400001928E-02 0.  1.
    10030    2    1    2    0    0  0.00000000000E+00  0.00000000000E+00  0.88283895574E+03  0.20924409576E+04  0.18970778949E+04 0.  0.
        4    1    3    3  502    0 -0.60273223742E+03  0.43070521935E+03  0.10948195146E+04  0.13219018566E+04  0.12699999809E+01 0. -1.
       -4    1    3    3    0  502  0.60273223742E+03 -0.43070521935E+03 -0.21198055886E+03  0.77053910104E+03  0.12699999809E+01 0.  1.
</event>
<event>
 5   0  0.6862201E-06  0.1900782E+04  0.7818609E-02  0.8654467E-01
        2   -1    0    0  501    0  0.00000000000E+00  0.00000000000E+00  0.16345605559E+04  0.16345605560E+04  0.25500000920E-02 0. -1.
       -2   -1    0    0    0  501  0.00000000000E+00  0.00000000000E+00 -0.55259054895E+03  0.55259054896E+03  0.25500000920E-02 0.  1.
    10030    2    1    2    0    0  0.00000000000E+00  0.00000000000E+00  0.10819700070E+04  0.21871511049E+04  0.19007816444E+04 0.  0.
        3    1    3    3  502    0 -0.18421037637E+03  0.76865791097E+03  0.11481952431E+04  0.13939586699E+04  0.10100000352E+00 0. -1.
       -3    1    3    3    0  502  0.18421037637E+03 -0.76865791097E+03 -0.66225236118E+02  0.79319243501E+03  0.10100000352E+00 0.  1.
</event>
<event>
 5   0  0.7577180E-06  0.1899607E+04  0.7818609E-02  0.8655052E-01
       -2   -1    0    0    0  501  0.00000000000E+00  0.00000000000E+00  0.55936536123E+03  0.55936536124E+03  0.25500000920E-02 0.  1.
        2   -1    0    0  501    0  0.00000000000E+00  0.00000000000E+00 -0.16127678148E+04  0.16127678148E+04  0.25500000920E-02 0. -1.
    10030    2    1    2    0    0  0.00000000000E+00  0.00000000000E+00 -0.10534024536E+04  0.21721331761E+04  0.18996067502E+04 0.  0.
        5    1    3    3  502    0 -0.74581463144E+03  0.15061090007E+03  0.12334737025E+03  0.77081759933E+03  0.46999998093E+01 0.  1.
       -5    1    3    3    0  502  0.74581463144E+03 -0.15061090007E+03 -0.11767498239E+04  0.14013155767E+04  0.46999998093E+01 0. -1.
</event>
<event>
 5   0  0.2527750E-06  0.1898675E+04  0.7818609E-02  0.8655516E-01
       -3   -1    0    0    0  501  0.00000000000E+00  0.00000000000E+00  0.21366907580E+04  0.21366907604E+04  0.10100000352E+00 0.  1.
        3   -1    0    0  501    0  0.00000000000E+00  0.00000000000E+00 -0.42179317089E+03  0.42179318299E+03  0.10100000352E+00 0. -1.
    10030    2    1    2    0    0  0.00000000000E+00  0.00000000000E+00  0.17148975871E+04  0.25584839434E+04  0.18986748943E+04 0.  0.
        1    1    3    3  502    0  0.26799646167E+03 -0.48142729531E+03  0.18991773000E+04  0.19774905211E+04  0.50400001928E-02 0.  1.
       -1    1    3    3    0  502 -0.26799646167E+03  0.48142729531E+03 -0.18427971289E+03  0.58099342229E+03  0.50400001928E-02 0. -1.
</event>
<event>
 5   0  0.7577180E-06  0.1900152E+04  0.7818609E-02  0.8654781E-01
       -2   -1    0    0    0  501  0.00000000000E+00  0.00000000000E+00  0.49486212441E+03  0.49486212441E+03  0.25500000920E-02 0. -1.
        2   -1    0    0  501    0  0.00000000000E+00  0.00000000000E+00 -0.18240325190E+04  0.18240325190E+04  0.25500000920E-02 0.  1.
    10030    2    1    2    0    0  0.00000000000E+00  0.00000000000E+00 -0.13291703946E+04  0.23188946434E+04  0.19001522122E+04 0.  0.
        5    1    3    3  502    0 -0.36816464555E+03  0.87239751400E+03 -0.57005638050E+03  0.11052642198E+04  0.46999998093E+01 0.  1.
       -5    1    3    3    0  502  0.36816464555E+03 -0.87239751400E+03 -0.75911401406E+03  0.12136304236E+04  0.46999998093E+01 0. -1.
</event>
<event>
 5   0  0.6870370E-06  0.1899924E+04  0.7818609E-02  0.8654894E-01
       -2   -1    0    0    0  501  0.00000000000E+00  0.00000000000E+00  0.58616117546E+03  0.58616117547E+03  0.25500000920E-02 0. -1.
        2   -1    0    0  501    0  0.00000000000E+00  0.00000000000E+00 -0.15395562165E+04  0.15395562165E+04  0.25500000920E-02 0.  1.
    10030    2    1    2    0    0  0.00000000000E+00  0.00000000000E+00 -0.95339504106E+03  0.21257173920E+04  0.18999242949E+04 0.  0.
        1    1    3    3  502    0 -0.35102910316E+03  0.62953995587E+03 -0.11690129751E+04  0.13733656918E+04  0.50400001928E-02 0.  1.
       -1    1    3    3    0  502  0.35102910316E+03 -0.62953995587E+03  0.21561793408E+03  0.75235170022E+03  0.50400001928E-02 0. -1.
</event>
<event>
 5   0  0.3379108E-06  0.1901386E+04  0.7818609E-02  0.8654167E-01
       -1   -1    0    0    0  501  0.00000000000E+00  0.00000000000E+00  0.85915162099E+03  0.85915162101E+03  0.50400001928E-02 0.  1.
        1   -1    0    0  501    0  0.00000000000E+00  0.00000000000E+00 -0.10519875936E+04  0.10519875937E+04  0.50400001928E-02 0. -1.
    10030    2    1    2    0    0  0.00000000000E+00  0.00000000000E+00 -0.19283597265E+03  0.19111392147E+04  0.19013856488E+04 0.  0.
        4    1    3    3  502    0 -0.56563239368E+03  0.75771578244E+03 -0.19562597827E+03  0.96557979888E+03  0.12699999809E+01 0. -1.
       -4    1    3    3    0  502  0.56563239368E+03 -0.75771578244E+03  0.27900056200E+01  0.94555941578E+03  0.12699999809E+01 0.  1.
</event>
<event>
 5   0  0.3211263E-06  0.1900245E+04  0.7818609E-02  0.8654735E-01
        1   -1    0    0  501    0  0.00000000000E+00  0.00000000000E+00  0.13587392241E+04  0.13587392241E+04  0.50400001928E-02 0.  1.
       -1   -1    0    0    0  501  0.00000000000E+00  0.00000000000E+00 -0.66438969249E+03  0.66438969251E+03  0.50400001928E-02 0. -1.
    10030    2    1    2    0    0  0.00000000000E+00  0.00000000000E+00  0.69434953159E+03  0.20231289166E+04  0.19002445477E+04 0.  0.
        5    1    3    3  502    0 -0.74782224724E+03  0.21229310763E+03 -0.23441427461E+03  0.81195973986E+03  0.46999998093E+01 0. -1.
       -5    1    3    3    0  502  0.74782224724E+03 -0.21229310763E+03  0.92876380620E+03  0.12111691768E+04  0.46999998093E+01 0.  1.
</event>
<event>
 5   0  0.7577180E-06  0.1900348E+04  0.7818609E-02  0.8654683E-01
       -2   -1    0    0    0  501  0.00000000000E+00  0.00000000000E+00  0.61647327355E+03  0.61647327356E+03  0.25500000920E-02 0. -1.
        2   -1    0    0  501    0  0.00000000000E+00  0.00000000000E+00 -0.14645087970E+04  0.14645087970E+04  0.25500000920E-02 0.  1.
    10030    2    1    2    0    0  0.00000000000E+00  0.00000000000E+00 -0.84803552349E+03  0.20809820706E+04  0.19003478968E+04 0.  0.
        5    1    3    3  502    0  0.72446713125E+03  0.61401132376E+03 -0.45769687591E+03  0.10542158461E+04  0.46999998093E+01 0. -1.
       -5    1    3    3    0  502 -0.72446713125E+03 -0.61401132376E+03 -0.39033864758E+03  0.10267662245E+04  0.46999998093E+01 0.  1.
</event>
<event>
 5   0  0.6984466E-06  0.1900667E+04  0.7818609E-02  0.8654525E-01
       -2   -1    0    0    0  501  0.00000000000E+00  0.00000000000E+00  0.11517175258E+04  0.11517175258E+04  0.25500000920E-02 0. -1.
        2   -1    0    0  501    0  0.00000000000E+00  0.00000000000E+00 -0.78416227392E+03  0.78416227393E+03  0.25500000920E-02 0.  1.
    10030    2    1    2    0    0  0.00000000000E+00  0.00000000000E+00  0.36755525187E+03  0.19358797997E+04  0.19006666556E+04 0.  0.
        2    1    3    3  502    0 -0.36978382442E+02 -0.37216513247E+03 -0.70605523788E+03  0.79899204348E+03  0.25500000920E-02 0.  1.
       -2    1    3    3    0  502  0.36978382442E+02  0.37216513247E+03  0.10736104898E+04  0.11368877563E+04  0.25500000920E-02 0. -1.
</event>
<event>
 5   0  0.6862201E-06  0.1900534E+04  0.7818609E-02  0.8654590E-01
       -2   -1    0    0    0  501  0.00000000000E+00  0.00000000000E+00  0.54387480366E+03  0.54387480367E+03  0.25500000920E-02 0.  1.
        2   -1    0    0  501    0  0.00000000000E+00  0.00000000000E+00 -0.16603228269E+04  0.16603228269E+04  0.25500000920E-02 0. -1.
    10030    2    1    2    0    0  0.00000000000E+00  0.00000000000E+00 -0.11164480232E+04  0.22041976306E+04  0.19005344001E+04 0.  0.
        3    1    3    3  502    0 -0.81381199443E+03  0.36881992843E+03 -0.93347915051E+03  0.12921692755E+04  0.10100000352E+00 0.  1.
       -3    1    3    3    0  502  0.81381199443E+03 -0.36881992843E+03 -0.18296887274E+03  0.91202835508E+03  0.10100000352E+00 0. -1.
</event>
<event>
 5   0  0.3398807E-06  0.1899751E+04  0.7818609E-02  0.8654980E-01
       -1   -1    0    0    0  501  0.00000000000E+00  0.00000000000E+00  0.73671695234E+03  0.73671695236E+03  0.50400001928E-02 0. -1.
        1   -1    0    0  501    0  0.00000000000E+00  0.00000000000E+00 -0.12247084746E+04  0.12247084746E+04  0.50400001928E-02 0.  1.
    10030    2    1    2    0    0  0.00000000000E+00  0.00000000000E+00 -0.48799152222E+03  0.19614254269E+04  0.18997510310E+04 0.  0.
        1    1    3    3  502    0  0.91975142740E+02  0.70686440520E+03  0.40419689154E+03  0.81944605764E+03  0.50400001928E-02 0. -1.
       -1    1    3    3    0  502 -0.91975142740E+02 -0.70686440520E+03 -0.89218841376E+03  0.11419793693E+04  0.50400001928E-02 0.  1.
</event>
<event>
 5   0  0.6862201E-06  0.1900170E+04  0.7818609E-02  0.8654772E-01
        2   -1    0    0  501    0  0.00000000000E+00  0.00000000000E+00  0.11165604597E+04  0.11165604597E+04  0.25500000920E-02 0. -1.
       -2   -1    0    0    0  501  0.00000000000E+00  0.00000000000E+00 -0.80843052014E+03  0.80843052015E+03  0.25500000920E-02 0.  1.
    10030    2    1    2    0    0  0.00000000000E+00  0.00000000000E+00  0.30812993952E+03  0.19249909798E+04  0.19001700484E+04 0.  0.
        3    1    3    3  502    0 -0.35774685763E+03 -0.52947314283E+03 -0.55821011690E+03  0.84848286248E+03  0.10100000352E+00 0.  1.
       -3    1    3    3    0  502  0.35774685763E+03  0.52947314283E+03  0.86634005642E+03  0.10765081173E+04  0.10100000352E+00 0. -1.
</event>
<event>
 5   0  0.7577180E-06  0.1899609E+04  0.7818609E-02  0.8655051E-01
       -2   -1    0    0    0  501  0.00000000000E+00  0.00000000000E+00  0.97808294533E+03  0.97808294533E+03  0.25500000920E-02 0.  1.
        2   -1    0    0  501    0  0.00000000000E+00  0.00000000000E+00 -0.92234352727E+03  0.92234352728E+03  0.25500000920E-02 0. -1.
    10030    2    1    2    0    0  0.00000000000E+00  0.00000000000E+00  0.55739418054E+02  0.19004264726E+04  0.18996088795E+04 0.  0.
        5    1    3    3  502    0  0.91590761803E+03  0.19901627506E+03 -0.12585885375E+03  0.94570438487E+03  0.46999998093E+01 0. -1.
       -5    1    3    3    0  502 -0.91590761803E+03 -0.19901627506E+03  0.18159827180E+03  0.95472208774E+03  0.46999998093E+01 0.  1.
</event>
<event>
 5   0  0.3398807E-06  0.1901116E+04  0.7818609E-02  0.8654301E-01
        1   -1    0    0  501    0  0.00000000000E+00  0.00000000000E+00  0.21470021754E+04  0.21470021754E+04  0.50400001928E-02 0. -1.
       -1   -1    0    0    0  501  0.00000000000E+00  0.00000000000E+00 -0.42084758623E+03  0.42084758627E+03  0.50400001928E-02 0.  1.
    10030    2    1    2    0    0  0.00000000000E+00  0.00000000000E+00  0.17261545892E+04  0.25678497617E+04  0.19011161808E+04 0.  0.
        1    1    3    3  502    0  0.55561892769E+03  0.57726962764E+03  0.17222290927E+03  0.81952019274E+03  0.50400001928E-02 0.  1.
       -1    1    3    3    0  502 -0.55561892769E+03 -0.57726962764E+03  0.15539316799E+04  0.17483295690E+04  0.50400001928E-02 0. -1.
</event>
<event>
 5   0  0.3495279E-06  0.1898854E+04  0.7818609E-02  0.8655427E-01
       -1   -1    0    0    0  501  0.00000000000E+00  0.00000000000E+00  0.44186742314E+03  0.44186742317E+03  0.50400001928E-02 0. -1.
        1   -1    0    0  501    0  0.00000000000E+00  0.00000000000E+00 -0.20400051023E+04  0.20400051023E+04  0.50400001928E-02 0.  1.
    10030    2    1    2    0    0  0.00000000000E+00  0.00000000000E+00 -0.15981376792E+04  0.24818725255E+04  0.18988541785E+04 0.  0.
        2    1    3    3  502    0  0.31956928439E+02 -0.25021409647E+03 -0.19954064256E+04  0.20112869369E+04  0.25500000920E-02 0.  1.
       -2    1    3    3    0  502 -0.31956928439E+02  0.25021409647E+03  0.39726874637E+03  0.47058558860E+03  0.25500000920E-02 0. -1.
</event>
<event>
 5   0  0.7207648E-06  0.1899107E+04  0.7818609E-02  0.8655301E-01
        2   -1    0    0  501    0  0.00000000000E+00  0.00000000000E+00  0.17134718855E+04  0.17134718855E+04  0.25500000920E-02 0.  1.
       -2   -1    0    0    0  501  0.00000000000E+00  0.00000000000E+00 -0.52621358634E+03  0.52621358635E+03  0.25500000920E-02 0. -1.
    10030    2    1    2    0    0  0.00000000000E+00  0.00000000000E+00  0.11872582992E+04  0.22396854719E+04  0.18991073545E+04 0.  0.
        4    1    3    3  502    0  0.94449940711E+03  0.83211395818E+00  0.70900383181E+03  0.11810029081E+04  0.12699999809E+01 0.  1.
       -4    1    3    3    0  502 -0.94449940711E+03 -0.83211395818E+00  0.47825446739E+03  0.10586825638E+04  0.12699999809E+01 0. -1.
</event>
<event>
 5   0  0.7207648E-06  0.1901513E+04  0.7818609E-02  0.8654104E-01
        2   -1    0    0  501    0  0.00000000000E+00  0.00000000000E+00  0.70698848023E+03  0.70698848024E+03  0.25500000920E-02 0.  1.
       -2   -1    0    0    0  501  0.00000000000E+00  0.00000000000E+00 -0.12785749765E+04  0.12785749765E+04  0.25500000920E-02 0. -1.
    10030    2    1    2    0    0  0.00000000000E+00  0.00000000000E+00 -0.57158649624E+03  0.19855634567E+04  0.19015128498E+04 0.  0.
        4    1    3    3  502    0 -0.27798169399E+03  0.28139691075E+01 -0.12351872954E+04  0.12660849135E+04  0.12699999809E+01 0. -1.
       -4    1    3    3    0  502  0.27798169399E+03 -0.28139691075E+01  0.66360079915E+03  0.71947854321E+03  0.12699999809E+01 0.  1.
</event>
<event>
 5   0  0.6984466E-06  0.1899901E+04  0.7818609E-02  0.8654905E-01
        2   -1    0    0  501    0  0.00000000000E+00  0.00000000000E+00  0.14397723716E+04  0.14397723716E+04  0.25500000920E-02 0. -1.
       -2   -1    0    0    0  501  0.00000000000E+00  0.00000000000E+00 -0.62677014635E+03  0.62677014636E+03  0.25500000920E-02 0.  1.
    10030    2    1    2    0    0  0.00000000000E+00  0.00000000000E+00  0.81300222521E+03  0.20665425179E+04  0.18999014080E+04 0.  0.
        2    1    3    3  502    0 -0.35721747664E+03  0.37387689253E+02 -0.55006840325E+03  0.65694551767E+03  0.25500000920E-02 0.  1.
       -2    1    3    3    0  502  0.35721747664E+03 -0.37387689253E+02  0.13630706285E+04  0.14095970002E+04  0.25500000920E-02 0. -1.
</event>
<event>
 5   0  0.6870370E-06  0.1902102E+04  0.7818609E-02  0.8653811E-01
       -2   -1    0    0    0  501  0.00000000000E+00  0.00000000000E+00  0.10299921585E+04  0.10299921585E+04  0.25500000920E-02 0. -1.
        2   -1    0    0  501    0  0.00000000000E+00  0.00000000000E+00 -0.87816034226E+03  0.87816034226E+03  0.25500000920E-02 0.  1.
    10030    2    1    2    0    0  0.00000000000E+00  0.00000000000E+00  0.15183181625E+03  0.19081525008E+04  0.19021022753E+04 0.  0.
        1    1    3    3  502    0 -0.80494899717E+03 -0.39406923517E+02  0.58249984139E+03  0.99438516628E+03  0.50400001928E-02 0. -1.
       -1    1    3    3    0  502  0.80494899717E+03  0.39406923517E+02 -0.43066802514E+03  0.91376733449E+03  0.50400001928E-02 0.  1.
</event>
<event>
 5   0  0.7207648E-06  0.1899913E+04  0.7818609E-02  0.8654900E-01
       -2   -1    0    0    0  501  0.00000000000E+00  0.00000000000E+00  0.33668938599E+03  0.33668938600E+03  0.25500000920E-02 0. -1.
        2   -1    0    0  501    0  0.00000000000E+00  0.00000000000E+00 -0.26802653788E+04  0.26802653788E+04  0.25500000920E-02 0.  1.
    10030    2    1    2    0    0  0.00000000000E+00  0.00000000000E+00 -0.23435759928E+04  0.30169547648E+04  0.18999125292E+04 0.  0.
        4    1    3    3  502    0 -0.68480198245E+01  0.71844336582E+03 -0.18495069187E+03  0.74190035489E+03  0.12699999809E+01 0. -1.
       -4    1    3    3    0  502  0.68480198245E+01 -0.71844336582E+03 -0.21586253010E+04  0.22750544099E+04  0.12699999809E+01 0.  1.
</event>
<event>
 5   0  0.6862201E-06  0.1899577E+04  0.7818609E-02  0.8655067E-01
        2   -1    0    0  501    0  0.00000000000E+00  0.00000000000E+00  0.66514401194E+03  0.66514401194E+03  0.25500000920E-02 0.  1.
       -2   -1    0    0    0  501  0.00000000000E+00  0.00000000000E+00 -0.13562444540E+04  0.13562444540E+04  0.25500000920E-02 0. -1.
    10030    2    1    2    0    0  0.00000000000E+00  0.00000000000E+00 -0.69110044206E+03  0.20213884659E+04  0.18995766658E+04 0.  0.
        3    1    3    3  502    0  0.35299252554E+03  0.96990686789E+02  0.58705566165E+03  0.69184194473E+03  0.10100000352E+00 0.  1.
       -3    1    3    3    0  502 -0.35299252554E+03 -0.96990686789E+02 -0.12781561037E+04  0.13295465212E+04  0.10100000352E+00 0. -1.
</event>
<event>
 5   0  0.3236653E-06  0.1890977E+04  0.7818609E-02  0.8659361E-01
       -1   -1    0    0    0  501  0.00000000000E+00  0.00000000000E+00  0.86014074829E+03  0.86014074830E+03  0.50400001928E-02 0. -1.
        1   -1    0    0  501    0  0.00000000000E+00  0.00000000000E+00 -0.10393051462E+04  0.10393051462E+04  0.50400001928E-02 0.  1.
    10030    2    1    2    0    0  0.00000000000E+00  0.00000000000E+00 -0.17916439789E+03  0.18994458945E+04  0.18909772142E+04 0.  0.
        3    1    3    3  502    0  0.91542409689E+03 -0.78391100320E+02 -0.31374581913E+03  0.97086708205E+03  0.10100000352E+00 0.  1.
       -3    1    3    3    0  502 -0.91542409689E+03  0.78391100320E+02  0.13458142123E+03  0.92857881245E+03  0.10100000352E+00 0. -1.
</event>
<event>
 5   0  0.3236653E-06  0.1899444E+04  0.7818609E-02  0.8655133E-01
        1   -1    0    0  501    0  0.00000000000E+00  0.00000000000E+00  0.10960941768E+04  0.10960941768E+04  0.50400001928E-02 0.  1.
       -1   -1    0    0    0  501  0.00000000000E+00  0.00000000000E+00 -0.82289669447E+03  0.82289669448E+03  0.50400001928E-02 0. -1.
    10030    2    1    2    0    0  0.00000000000E+00  0.00000000000E+00  0.27319748229E+03  0.19189908713E+04  0.18994444187E+04 0.  0.
        3    1    3    3  502    0 -0.42245521923E+03  0.66556344823E+03  0.67169919086E+03  0.10356751079E+04  0.10100000352E+00 0.  1.
       -3    1    3    3    0  502  0.42245521923E+03 -0.66556344823E+03 -0.39850170857E+03  0.88331576337E+03  0.10100000352E+00 0. -1.
</event>
<event>
 5   0  0.3379108E-06  0.1900215E+04  0.7818609E-02  0.8654749E-01
       -1   -1    0    0    0  501  0.00000000000E+00  0.00000000000E+00  0.44636476614E+03  0.44636476617E+03  0.50400001928E-02 0.  1.
        1   -1    0    0  501    0  0.00000000000E+00  0.00000000000E+00 -0.20223471752E+04  0.20223471752E+04  0.50400001928E-02 0. -1.
    10030    2    1    2    0    0  0.00000000000E+00  0.00000000000E+00 -0.15759824090E+04  0.24687119413E+04  0.19002152762E+04 0.  0.
        4    1    3    3  502    0 -0.92232751695E+02 -0.82602675628E+03 -0.18998137924E+03  0.85259698564E+03  0.12699999809E+01 0.  1.
       -4    1    3    3    0  502  0.92232751695E+02  0.82602675628E+03 -0.13860010298E+04  0.16161149557E+04  0.12699999809E+01 0. -1.
</event>
<event>
 5   0  0.3398807E-06  0.1901251E+04  0.7818609E-02  0.8654234E-01
       -1   -1    0    0    0  501  0.00000000000E+00  0.00000000000E+00  0.94494843635E+03  0.94494843637E+03  0.50400001928E-02 0. -1.
        1   -1    0    0  501    0  0.00000000000E+00  0.00000000000E+00 -0.95633668082E+03  0.95633668084E+03  0.50400001928E-02 0.  1.
    10030    2    1    2    0    0  0.00000000000E+00  0.00000000000E+00 -0.11388244470E+02  0.19012851172E+04  0.19012510105E+04 0.  0.
        1    1    3    3  502    0 -0.62135638250E+03  0.69840924365E+03  0.16702152768E+03  0.94960803304E+03  0.50400001928E-02 0.  1.
       -1    1    3    3    0  502  0.62135638250E+03 -0.69840924365E+03 -0.17840977215E+03  0.95167708416E+03  0.50400001928E-02 0. -1.
</event>
<event>
 5   0  0.6870370E-06  0.1899602E+04  0.7818609E-02  0.8655054E-01
       -2   -1    0    0    0  501  0.00000000000E+00  0.00000000000E+00  0.46094081661E+03  0.46094081661E+03  0.25500000920E-02 0. -1.
        2   -1    0    0  501    0  0.00000000000E+00  0.00000000000E+00 -0.19571326891E+04  0.19571326891E+04  0.25500000920E-02 0.  1.
    10030    2    1    2    0    0  0.00000000000E+00  0.00000000000E+00 -0.14961918725E+04  0.24180735057E+04  0.18996024215E+04 0.  0.
        1    1    3    3  502    0  0.35396979040E+03 -0.83444199341E+03 -0.38685480536E+03  0.98551747490E+03  0.50400001928E-02 0.  1.
       -1    1    3    3    0  502 -0.35396979040E+03  0.83444199341E+03 -0.11093370671E+04  0.14325560308E+04  0.50400001928E-02 0. -1.
</event>
<event>
 5   0  0.7207648E-06  0.1897966E+04  0.7818609E-02  0.8655869E-01
        2   -1    0    0  501    0  0.00000000000E+00  0.00000000000E+00  0.14528345568E+04  0.14528345568E+04  0.25500000920E-02 0. -1.
       -2   -1    0    0    0  501  0.00000000000E+00  0.00000000000E+00 -0.61987030030E+03  0.61987030030E+03  0.25500000920E-02 0.  1.
    10030    2    1    2    0    0  0.00000000000E+00  0.00000000000E+00  0.83296425653E+03  0.20727048571E+04  0.18979662727E+04 0.  0.
        4    1    3    3  502    0 -0.89572435412E+02 -0.56831275831E+03 -0.40769495180E+03  0.70513785820E+03  0.12699999809E+01 0.  1.
       -4    1    3    3    0  502  0.89572435412E+02  0.56831275831E+03  0.12406592083E+04  0.13675669989E+04  0.12699999809E+01 0. -1.
</event>
<event>
 5   0  0.6984466E-06  0.1899633E+04  0.7818609E-02  0.8655039E-01
        2   -1    0    0  501    0  0.00000000000E+00  0.00000000000E+00  0.15651332309E+04  0.15651332309E+04  0.25500000920E-02 0. -1.
       -2   -1    0    0    0  501  0.00000000000E+00  0.00000000000E+00 -0.57640562882E+03  0.57640562883E+03  0.25500000920E-02 0.  1.
    10030    2    1    2    0    0  0.00000000000E+00  0.00000000000E+00  0.98872760203E+03  0.21415388597E+04  0.18996332321E+04 0.  0.
        2    1    3    3  502    0 -0.91728076801E+03 -0.18164955750E+03  0.68216388996E+03  0.11574748990E+04  0.25500000920E-02 0. -1.
       -2    1    3    3    0  502  0.91728076801E+03  0.18164955750E+03  0.30656371208E+03  0.98406396066E+03  0.25500000920E-02 0.  1.
</event>
<event>
 5   0  0.3211263E-06  0.1899981E+04  0.7818609E-02  0.8654866E-01
        1   -1    0    0  501    0  0.00000000000E+00  0.00000000000E+00  0.15485442247E+04  0.15485442247E+04  0.50400001928E-02 0. -1.
       -1   -1    0    0    0  501  0.00000000000E+00  0.00000000000E+00 -0.58279352253E+03  0.58279352255E+03  0.50400001928E-02 0.  1.
    10030    2    1    2    0    0  0.00000000000E+00  0.00000000000E+00  0.96575070217E+03  0.21313377473E+04  0.18999805720E+04 0.  0.
        5    1    3    3  502    0  0.40686226881E+03  0.48032567854E+03 -0.31524500312E+03  0.70402497487E+03  0.46999998093E+01 0.  1.
       -5    1    3    3    0  502 -0.40686226881E+03 -0.48032567854E+03  0.12809957053E+04  0.14273127724E+04  0.46999998093E+01 0. -1.
</event>
<event>
 5   0  0.3236653E-06  0.1899877E+04  0.7818609E-02  0.8654918E-01
        1   -1    0    0  501    0  0.00000000000E+00  0.00000000000E+00  0.20803544206E+04  0.20803544207E+04  0.50400001928E-02 0.  1.
       -1   -1    0    0    0  501  0.00000000000E+00  0.00000000000E+00 -0.43376401559E+03  0.43376401562E+03  0.50400001928E-02 0. -1.
    10030    2    1    2    0    0  0.00000000000E+00  0.00000000000E+00  0.16465904051E+04  0.25141184363E+04  0.18998767196E+04 0.  0.
        3    1    3    3  502    0  0.26516158179E+03  0.75137819060E+03  0.15077183079E+04  0.17053135653E+04  0.10100000352E+00 0.  1.
       -3    1    3    3    0  502 -0.26516158179E+03 -0.75137819060E+03  0.13887209717E+03  0.80880487100E+03  0.10100000352E+00 0. -1.
</event>
<event>
 5   0  0.6870370E-06  0.1899358E+04  0.7818609E-02  0.8655176E-01
       -2   -1    0    0    0  501  0.00000000000E+00  0.00000000000E+00  0.71164489848E+03  0.71164489849E+03  0.25500000920E-02 0.  1.
        2   -1    0    0  501    0  0.00000000000E+00  0.00000000000E+00 -0.12673312983E+04  0.12673312983E+04  0.25500000920E-02 0. -1.
    10030    2    1    2    0    0  0.00000000000E+00  0.00000000000E+00 -0.55568639979E+03  0.19789761968E+04  0.18993576315E+04 0.  0.
        1    1    3    3  502    0  0.71778756497E+03  0.49875135313E+02  0.36796430237E+03  0.80814865302E+03  0.50400001928E-02 0.  1.
       -1    1    3    3    0  502 -0.71778756497E+03 -0.49875135313E+02 -0.92365070216E+03  0.11708275437E+04  0.50400001928E-02 0. -1.
</event>
<event>
 5   0  0.3379108E-06  0.1900038E+04  0.7818609E-02  0.8654838E-01
        1   -1    0    0  501    0  0.00000000000E+00  0.00000000000E+00  0.16362568859E+04  0.16362568859E+04  0.50400001928E-02 0. -1.
       -1   -1    0    0    0  501  0.00000000000E+00  0.00000000000E+00 -0.55158556231E+03  0.55158556234E+03  0.50400001928E-02 0.  1.
    10030    2    1    2    0    0  0.00000000000E+00  0.00000000000E+00  0.10846713236E+04  0.21878424482E+04  0.19000375518E+04 0.  0.
        4    1    3    3  502    0  0.23455679430E+03  0.69138059369E+03  0.12422856093E+04  0.14409369046E+04  0.12699999809E+01 0. -1.
       -4    1    3    3    0  502 -0.23455679430E+03 -0.69138059369E+03 -0.15761428575E+03  0.74690554360E+03  0.12699999809E+01 0.  1.
</event>
<event>
 5   0  0.3236653E-06  0.1899442E+04  0.7818609E-02  0.8655134E-01
        1   -1    0    0  501    0  0.00000000000E+00  0.00000000000E+00  0.84053152874E+03  0.84053152875E+03  0.50400001928E-02 0. -1.
       -1   -1    0    0    0  501  0.00000000000E+00  0.00000000000E+00 -0.10730949292E+04  0.10730949292E+04  0.50400001928E-02 0.  1.
    10030    2    1    2    0    0  0.00000000000E+00  0.00000000000E+00 -0.23256340046E+03  0.19136264580E+04  0.18994421511E+04 0.  0.
        3    1    3    3  502    0 -0.22578697176E+03  0.64692915131E+03 -0.77881942046E+03  0.10373315686E+04  0.10100000352E+00 0.  1.
       -3    1    3    3    0  502  0.22578697176E+03 -0.64692915131E+03  0.54625602000E+03  0.87629488931E+03  0.10100000352E+00 0. -1.
</event>
<event>
 5   0  0.3398807E-06  0.1899855E+04  0.7818609E-02  0.8654929E-01
        1   -1    0    0  501    0  0.00000000000E+00  0.00000000000E+00  0.75650607026E+03  0.75650607027E+03  0.50400001928E-02 0. -1.
       -1   -1    0    0    0  501  0.00000000000E+00  0.00000000000E+00 -0.11928021589E+04  0.11928021589E+04  0.50400001928E-02 0.  1.
    10030    2    1    2    0    0  0.00000000000E+00  0.00000000000E+00 -0.43629608860E+03  0.19493082291E+04  0.18998548090E+04 0.  0.
        1    1    3    3  502    0 -0.23081175823E+03  0.23358531195E+03 -0.11327121141E+04  0.11793527458E+04  0.50400001928E-02 0.  1.
       -1    1    3    3    0  502  0.23081175823E+03 -0.23358531195E+03  0.69641602548E+03  0.76995548330E+03  0.50400001928E-02 0. -1.
</event>
<event>
 5   0  0.3211263E-06  0.1899814E+04  0.7818609E-02  0.8654949E-01
        1   -1    0    0  501    0  0.00000000000E+00  0.00000000000E+00  0.12763966791E+04  0.12763966792E+04  0.50400001928E-02 0. -1.
       -1   -1    0    0    0  501  0.00000000000E+00  0.00000000000E+00 -0.70692983563E+03  0.70692983565E+03  0.50400001928E-02 0.  1.
    10030    2    1    2    0    0  0.00000000000E+00  0.00000000000E+00  0.56946684351E+03  0.19833265148E+04  0.18998135641E+04 0.  0.
        5    1    3    3  502    0 -0.55575549520E+03  0.76940482076E+03  0.32452530676E+03  0.10030885870E+04  0.46999998093E+01 0. -1.
       -5    1    3    3    0  502  0.55575549520E+03 -0.76940482076E+03  0.24494153675E+03  0.98023792779E+03  0.46999998093E+01 0.  1.
</event>
<event>
 5   0  0.3236653E-06  0.1899152E+04  0.7818609E-02  0.8655279E-01
        1   -1    0    0  501    0  0.00000000000E+00  0.00000000000E+00  0.21289169166E+04  0.21289169166E+04  0.50400001928E-02 0.  1.
       -1   -1    0    0    0  501  0.00000000000E+00  0.00000000000E+00 -0.42354601208E+03  0.42354601211E+03  0.50400001928E-02 0. -1.
    10030    2    1    2    0    0  0.00000000000E+00  0.00000000000E+00  0.17053709045E+04  0.25524629287E+04  0.18991516739E+04 0.  0.
        3    1    3    3  502    0 -0.91705441945E+03  0.24151611089E+03  0.91818977849E+03  0.13199967120E+04  0.10100000352E+00 0. -1.
       -3    1    3    3    0  502  0.91705441945E+03 -0.24151611089E+03  0.78718112597E+03  0.12324662167E+04  0.10100000352E+00 0.  1.
</event>
<event>
 5   0  0.7207648E-06  0.1900257E+04  0.7818609E-02  0.8654729E-01
        2   -1    0    0  501    0  0.00000000000E+00  0.00000000000E+00  0.68329951503E+03  0.68329951504E+03  0.25500000920E-02 0.  1.
       -2   -1    0    0    0  501  0.00000000000E+00  0.00000000000E+00 -0.13211537737E+04  0.13211537737E+04  0.25500000920E-02 0. -1.
    10030    2    1    2    0    0  0.00000000000E+00  0.00000000000E+00 -0.63785425864E+03  0.20044532887E+04  0.19002565436E+04 0.  0.
        4    1    3    3  502    0  0.87019536866E+03 -0.18939228356E+03  0.30336823354E+02  0.89108436887E+03  0.12699999809E+01 0.  1.
       -4    1    3    3    0  502 -0.87019536866E+03  0.18939228356E+03 -0.66819108199E+03  0.11133689198E+04  0.12699999809E+01 0. -1.
</event>
<event>
 5   0  0.6870370E-06  0.1901243E+04  0.7818609E-02  0.8654238E-01
        2   -1    0    0  501    0  0.00000000000E+00  0.00000000000E+00  0.19673302120E+04  0.19673302120E+04  0.25500000920E-02 0.  1.
       -2   -1    0    0    0  501  0.00000000000E+00  0.00000000000E+00 -0.45934396477E+03  0.45934396478E+03  0.25500000920E-02 0. -1.
    10030    2    1    2    0    0  0.00000000000E+00  0.00000000000E+00  0.15079862472E+04  0.24266741768E+04  0.19012430246E+04 0.  0.
        1    1    3    3  502    0 -0.15031326929E+03  0.54874625384E+03  0.17260118377E+04  0.18173699111E+04  0.50400001928E-02 0.  1.
       -1    1    3    3    0  502  0.15031326929E+03 -0.54874625384E+03 -0.21802559045E+03  0.60930426566E+03  0.50400001928E-02 0. -1.
</event>
<event>
 5   0  0.3379108E-06  0.1898593E+04  0.7818609E-02  0.8655557E-01
       -1   -1    0    0    0  501  0.00000000000E+00  0.00000000000E+00  0.10143136162E+04  0.10143136162E+04  0.50400001928E-02 0.  1.
        1   -1    0    0  501    0  0.00000000000E+00  0.00000000000E+00 -0.88844716947E+03  0.88844716949E+03  0.50400001928E-02 0. -1.
    10030    2    1    2    0    0  0.00000000000E+00  0.00000000000E+00  0.12586644668E+03  0.19027607857E+04  0.18985932279E+04 0.  0.
        4    1    3    3  502    0  0.47560685274E+02  0.12243479312E+03 -0.87929547032E+03  0.88905254871E+03  0.12699999809E+01 0. -1.
       -4    1    3    3    0  502 -0.47560685274E+02 -0.12243479312E+03  0.10051619170E+04  0.10137082369E+04  0.12699999809E+01 0.  1.
</event>
<event>
 5   0  0.7577180E-06  0.1900542E+04  0.7818609E-02  0.8654586E-01
       -2   -1    0    0    0  501  0.00000000000E+00  0.00000000000E+00  0.10856672926E+04  0.10856672926E+04  0.25500000920E-02 0. -1.
        2   -1    0    0  501    0  0.00000000000E+00  0.00000000000E+00 -0.83176070962E+03  0.83176070963E+03  0.25500000920E-02 0.  1.
    10030    2    1    2    0    0  0.00000000000E+00  0.00000000000E+00  0.25390658296E+03  0.19174280022E+04  0.19005424465E+04 0.  0.
        5    1    3    3  502    0  0.12644892702E+03  0.64989959855E+03  0.81465042405E+03  0.10497791305E+04  0.46999998093E+01 0. -1.
       -5    1    3    3    0  502 -0.12644892702E+03 -0.64989959855E+03 -0.56074384109E+03  0.86764887176E+03  0.46999998093E+01 0.  1.
</event>
<event>
 5   0  0.3379108E-06  0.1911241E+04  0.7818609E-02  0.8649281E-01
       -1   -1    0    0    0  501  0.00000000000E+00  0.00000000000E+00  0.10821597484E+04  0.10821597484E+04  0.50400001928E-02 0. -1.
        1   -1    0    0  501    0  0.00000000000E+00  0.00000000000E+00 -0.84387735526E+03  0.84387735527E+03  0.50400001928E-02 0.  1.
    10030    2    1    2    0    0  0.00000000000E+00  0.00000000000E+00  0.23828239315E+03  0.19260371037E+04  0.19112405463E+04 0.  0.
        4    1    3    3  502    0  0.24375560432E+03  0.45436035420E+03  0.92994976121E+03  0.10633288755E+04  0.12699999809E+01 0. -1.
       -4    1    3    3    0  502 -0.24375560432E+03 -0.45436035420E+03 -0.69166736806E+03  0.86270822823E+03  0.12699999809E+01 0.  1.
</event>
<event>
 5   0  0.3398807E-06  0.1900025E+04  0.7818609E-02  0.8654844E-01
        1   -1    0    0  501    0  0.00000000000E+00  0.00000000000E+00  0.91012657856E+03  0.91012657858E+03  0.50400001928E-02 0. -1.
       -1   -1    0    0    0  501  0.00000000000E+00  0.00000000000E+00 -0.99164601950E+03  0.99164601951E+03  0.50400001928E-02 0.  1.
    10030    2    1    2    0    0  0.00000000000E+00  0.00000000000E+00 -0.81519440937E+02  0.19017725981E+04  0.19000246303E+04 0.  0.
        1    1    3    3  502    0  0.21335698569E+03  0.34357261608E+03  0.81965896963E+03  0.91400447066E+03  0.50400001928E-02 0. -1.
       -1    1    3    3    0  502 -0.21335698569E+03 -0.34357261608E+03 -0.90117841057E+03  0.98776812743E+03  0.50400001928E-02 0.  1.
</event>
<event>
 5   0  0.3398807E-06  0.1900741E+04  0.7818609E-02  0.8654488E-01
        1   -1    0    0  501    0  0.00000000000E+00  0.00000000000E+00  0.94156393754E+03  0.94156393755E+03  0.50400001928E-02 0. -1.
       -1   -1    0    0    0  501  0.00000000000E+00  0.00000000000E+00 -0.95925933325E+03  0.95925933326E+03  0.50400001928E-02 0.  1.
    10030    2    1    2    0    0  0.00000000000E+00  0.00000000000E+00 -0.17695395712E+02  0.19008232708E+04  0.19007409029E+04 0.  0.
        1    1    3    3  502    0  0.24731428141E+03  0.27656542664E+03  0.86614804908E+03  0.94226600913E+03  0.50400001928E-02 0. -1.
       -1    1    3    3    0  502 -0.24731428141E+03 -0.27656542664E+03 -0.88384344479E+03  0.95855726168E+03  0.50400001928E-02 0.  1.
</event>
<event>
 5   0  0.3236653E-06  0.1908248E+04  0.7818609E-02  0.8650762E-01
        1   -1    0    0  501    0  0.00000000000E+00  0.00000000000E+00  0.25936247924E+04  0.25936247924E+04  0.50400001928E-02 0. -1.
       -1   -1    0    0    0  501  0.00000000000E+00  0.00000000000E+00 -0.35099611209E+03  0.35099611212E+03  0.50400001928E-02 0.  1.
    10030    2    1    2    0    0  0.00000000000E+00  0.00000000000E+00  0.22426286803E+04  0.29446209045E+04  0.19082475923E+04 0.  0.
        3    1    3    3  502    0 -0.11375778461E+03 -0.59145120948E+03  0.22632066155E+04  0.23419777030E+04  0.10100000352E+00 0. -1.
       -3    1    3    3    0  502  0.11375778461E+03  0.59145120948E+03 -0.20577935154E+02  0.60264320155E+03  0.10100000352E+00 0.  1.
</event>
<event>
 5   0  0.7577180E-06  0.1896093E+04  0.7818609E-02  0.8656804E-01
        2   -1    0    0  501    0  0.00000000000E+00  0.00000000000E+00  0.24459919580E+04  0.24459919580E+04  0.25500000920E-02 0.  1.
       -2   -1    0    0    0  501  0.00000000000E+00  0.00000000000E+00 -0.36745495106E+03  0.36745495107E+03  0.25500000920E-02 0. -1.
    10030    2    1    2    0    0  0.00000000000E+00  0.00000000000E+00  0.20785370070E+04  0.28134469091E+04  0.18960926720E+04 0.  0.
        5    1    3    3  502    0  0.62564846563E+03  0.62511908898E+03  0.15458551339E+04  0.17809828923E+04  0.46999998093E+01 0.  1.
       -5    1    3    3    0  502 -0.62564846563E+03 -0.62511908898E+03  0.53268187312E+03  0.10324640168E+04  0.46999998093E+01 0. -1.
</event>
<event>
 5   0  0.6870370E-06  0.1900751E+04  0.7818609E-02  0.8654482E-01
        2   -1    0    0  501    0  0.00000000000E+00  0.00000000000E+00  0.83596272993E+03  0.83596272994E+03  0.25500000920E-02 0. -1.
       -2   -1    0    0    0  501  0.00000000000E+00  0.00000000000E+00 -0.10804476228E+04  0.10804476228E+04  0.25500000920E-02 0.  1.
    10030    2    1    2    0    0  0.00000000000E+00  0.00000000000E+00 -0.24448489283E+03  0.19164103527E+04  0.19007513717E+04 0.  0.
        1    1    3    3  502    0  0.54501252397E+03 -0.51404642130E+03 -0.71180894291E+03  0.10334187659E+04  0.50400001928E-02 0.  1.
       -1    1    3    3    0  502 -0.54501252397E+03  0.51404642130E+03  0.46732405007E+03  0.88299158679E+03  0.50400001928E-02 0. -1.
</event>
<event>
 5   0  0.3379108E-06  0.1900008E+04  0.7818609E-02  0.8654852E-01
       -1   -1    0    0    0  501  0.00000000000E+00  0.00000000000E+00  0.58992333168E+03  0.58992333170E+03  0.50400001928E-02 0.  1.
        1   -1    0    0  501    0  0.00000000000E+00  0.00000000000E+00 -0.15298730173E+04  0.15298730173E+04  0.50400001928E-02 0. -1.
    10030    2    1    2    0    0  0.00000000000E+00  0.00000000000E+00 -0.93994968563E+03  0.21197963490E+04  0.19000081973E+04 0.  0.
        4    1    3    3  502    0 -0.16208773042E+03 -0.89754223785E+03 -0.76652618346E+03  0.11913935135E+04  0.12699999809E+01 0. -1.
       -4    1    3    3    0  502  0.16208773042E+03  0.89754223785E+03 -0.17342350218E+03  0.92840283556E+03  0.12699999809E+01 0.  1.
</event>
<event>
 5   0  0.3236653E-06  0.1900061E+04  0.7818609E-02  0.8654826E-01
        1   -1    0    0  501    0  0.00000000000E+00  0.00000000000E+00  0.84041089862E+03  0.84041089864E+03  0.50400001928E-02 0.  1.
       -1   -1    0    0    0  501  0.00000000000E+00  0.00000000000E+00 -0.10739489381E+04  0.10739489381E+04  0.50400001928E-02 0. -1.
    10030    2    1    2    0    0  0.00000000000E+00  0.00000000000E+00 -0.23353803949E+03  0.19143598368E+04  0.19000614645E+04 0.  0.
        3    1    3    3  502    0 -0.48672724626E+03  0.46691185499E+03  0.55733107598E+03  0.87494458741E+03  0.10100000352E+00 0.  1.
       -3    1    3    3    0  502  0.48672724626E+03 -0.46691185499E+03 -0.79086911547E+03  0.10394152493E+04  0.10100000352E+00 0. -1.
</event>
<event>
 5   0  0.7577180E-06  0.1903284E+04  0.7818609E-02  0.8653224E-01
        2   -1    0    0  501    0  0.00000000000E+00  0.00000000000E+00  0.57929734279E+03  0.57929734279E+03  0.25500000920E-02 0.  1.
       -2   -1    0    0    0  501  0.00000000000E+00  0.00000000000E+00 -0.15633113798E+04  0.15633113798E+04  0.25500000920E-02 0. -1.
    10030    2    1    2    0    0  0.00000000000E+00  0.00000000000E+00 -0.98401403706E+03  0.21426087226E+04  0.19032836134E+04 0.  0.
        5    1    3    3  502    0 -0.25093039965E+03 -0.18736935920E+02 -0.15251688465E+04  0.15457940479E+04  0.46999998093E+01 0. -1.
       -5    1    3    3    0  502  0.25093039965E+03  0.18736935920E+02  0.54115480942E+03  0.59681467475E+03  0.46999998093E+01 0.  1.
</event>
<event>
 5   0  0.3236653E-06  0.1899706E+04  0.7818609E-02  0.8655003E-01
        1   -1    0    0  501    0  0.00000000000E+00  0.00000000000E+00  0.16459152267E+04  0.16459152267E+04  0.50400001928E-02 0.  1.
       -1   -1    0    0    0  501  0.00000000000E+00  0.00000000000E+00 -0.54815746187E+03  0.54815746189E+03  0.50400001928E-02 0. -1.
    10030    2    1    2    0    0  0.00000000000E+00  0.00000000000E+00  0.10977577649E+04  0.21940726886E+04  0.18997059911E+04 0.  0.
        3    1    3    3  502    0 -0.86250102594E+03  0.37885155406E+03  0.68930997897E+03  0.11672980669E+04  0.10100000352E+00 0. -1.
       -3    1    3    3    0  502  0.86250102594E+03 -0.37885155406E+03  0.40844778590E+03  0.10267746217E+04  0.10100000352E+00 0.  1.
</event>
<event>
 5   0  0.3236653E-06  0.1902649E+04  0.7818609E-02  0.8653539E-01
        1   -1    0    0  501    0  0.00000000000E+00  0.00000000000E+00  0.48419331744E+03  0.48419331747E+03  0.50400001928E-02 0. -1.
       -1   -1    0    0    0  501  0.00000000000E+00  0.00000000000E+00 -0.18691264916E+04  0.18691264916E+04  0.50400001928E-02 0.  1.
    10030    2    1    2    0    0  0.00000000000E+00  0.00000000000E+00 -0.13849331741E+04  0.23533198090E+04  0.19026492653E+04 0.  0.
        3    1    3    3  502    0 -0.52822890227E+03 -0.42005529975E+03 -0.15217623289E+04  0.16647020226E+04  0.10100000352E+00 0.  1.
       -3    1    3    3    0  502  0.52822890227E+03  0.42005529975E+03  0.13682915479E+03  0.68861778647E+03  0.10100000352E+00 0. -1.
</event>
<event>
 5   0  0.7207648E-06  0.1900385E+04  0.7818609E-02  0.8654665E-01
       -2   -1    0    0    0  501  0.00000000000E+00  0.00000000000E+00  0.11496410465E+04  0.11496410465E+04  0.25500000920E-02 0.  1.
        2   -1    0    0  501    0  0.00000000000E+00  0.00000000000E+00 -0.78534562148E+03  0.78534562148E+03  0.25500000920E-02 0. -1.
    10030    2    1    2    0    0  0.00000000000E+00  0.00000000000E+00  0.36429542503E+03  0.19349866680E+04  0.19003847633E+04 0.  0.
        4    1    3    3  502    0 -0.19226553010E+03 -0.86187744743E+03  0.53934161318E+03  0.10347413962E+04  0.12699999809E+01 0.  1.
       -4    1    3    3    0  502  0.19226553010E+03  0.86187744743E+03 -0.17504618815E+03  0.90024527177E+03  0.12699999809E+01 0. -1.
</event>
<event>
 5   0  0.6984466E-06  0.1900466E+04  0.7818609E-02  0.8654625E-01
        2   -1    0    0  501    0  0.00000000000E+00  0.00000000000E+00  0.12356415528E+04  0.12356415528E+04  0.25500000920E-02 0.  1.
       -2   -1    0    0    0  501  0.00000000000E+00  0.00000000000E+00 -0.73074793756E+03  0.73074793757E+03  0.25500000920E-02 0. -1.
    10030    2    1    2    0    0  0.00000000000E+00  0.00000000000E+00  0.50489361524E+03  0.19663894904E+04  0.19004657495E+04 0.  0.
        2    1    3    3  502    0  0.34873719065E+03  0.18009059055E+03 -0.64295748167E+03  0.75328916904E+03  0.25500000920E-02 0. -1.
       -2    1    3    3    0  502 -0.34873719065E+03 -0.18009059055E+03  0.11478510969E+04  0.12131003213E+04  0.25500000920E-02 0.  1.
</event>
<event>
 5   0  0.3495279E-06  0.1900435E+04  0.7818609E-02  0.8654640E-01
        1   -1    0    0  501    0  0.00000000000E+00  0.00000000000E+00  0.73688653618E+03  0.73688653620E+03  0.50400001928E-02 0.  1.
       -1   -1    0    0    0  501  0.00000000000E+00  0.00000000000E+00 -0.12253088913E+04  0.12253088913E+04  0.50400001928E-02 0. -1.
    10030    2    1    2    0    0  0.00000000000E+00  0.00000000000E+00 -0.48842235508E+03  0.19621954275E+04  0.19004353445E+04 0.  0.
        2    1    3    3  502    0  0.89014541270E+03 -0.12299133288E+03 -0.56316429110E+03  0.10604903312E+04  0.25500000920E-02 0. -1.
       -2    1    3    3    0  502 -0.89014541270E+03  0.12299133288E+03  0.74741936021E+02  0.90170509631E+03  0.25500000920E-02 0.  1.
</event>
<event>
 5   0  0.6984466E-06  0.1900094E+04  0.7818609E-02  0.8654810E-01
        2   -1    0    0  501    0  0.00000000000E+00  0.00000000000E+00  0.98180843014E+03  0.98180843014E+03  0.25500000920E-02 0. -1.
       -2   -1    0    0    0  501  0.00000000000E+00  0.00000000000E+00 -0.91931318961E+03  0.91931318961E+03  0.25500000920E-02 0.  1.
    10030    2    1    2    0    0  0.00000000000E+00  0.00000000000E+00  0.62495240527E+02  0.19011216198E+04  0.19000941445E+04 0.  0.
        2    1    3    3  502    0  0.36913518378E+03 -0.63078729830E+03 -0.57606993336E+03  0.93059656551E+03  0.25500000920E-02 0.  1.
       -2    1    3    3    0  502 -0.36913518378E+03  0.63078729830E+03  0.63856517389E+03  0.97052505425E+03  0.25500000920E-02 0. -1.
</event>
<event>
 5   0  0.3495279E-06  0.1893896E+04  0.7818609E-02  0.8657901E-01
        1   -1    0    0  501    0  0.00000000000E+00  0.00000000000E+00  0.26802557580E+04  0.26802557580E+04  0.50400001928E-02 0. -1.
       -1   -1    0    0    0  501  0.00000000000E+00  0.00000000000E+00 -0.33456166523E+03  0.33456166527E+03  0.50400001928E-02 0.  1.
    10030    2    1    2    0    0  0.00000000000E+00  0.00000000000E+00  0.23456940928E+04  0.30148174233E+04  0.18938963327E+04 0.  0.
        2    1    3    3  502    0 -0.42132087743E+03 -0.49133766229E+02 -0.17487209037E+03  0.45880895451E+03  0.25500000920E-02 0.  1.
       -2    1    3    3    0  502  0.42132087743E+03  0.49133766229E+02  0.25205661832E+04  0.25560084688E+04  0.25500000920E-02 0. -1.
</event>
<event>
 5   0  0.2527750E-06  0.1900279E+04  0.7818609E-02  0.8654717E-01
       -3   -1    0    0    0  501  0.00000000000E+00  0.00000000000E+00  0.90558051539E+03  0.90558052102E+03  0.10100000352E+00 0. -1.
        3   -1    0    0  501    0  0.00000000000E+00  0.00000000000E+00 -0.99689132181E+03  0.99689132693E+03  0.10100000352E+00 0.  1.
    10030    2    1    2    0    0  0.00000000000E+00  0.00000000000E+00 -0.91310806422E+02  0.19024718480E+04  0.19002793134E+04 0.  0.
        4    1    3    3  502    0  0.61529106382E+03 -0.71596484837E+03 -0.15336669687E+03  0.95640562207E+03  0.12699999809E+01 0. -1.
       -4    1    3    3    0  502 -0.61529106382E+03  0.71596484837E+03  0.62055890451E+02  0.94606622588E+03  0.12699999809E+01 0.  1.
</event>
<event>
 5   0  0.3398807E-06  0.1900279E+04  0.7818609E-02  0.8654717E-01
       -1   -1    0    0    0  501  0.00000000000E+00  0.00000000000E+00  0.69953338204E+03  0.69953338206E+03  0.50400001928E-02 0.  1.
        1   -1    0    0  501    0  0.00000000000E+00  0.00000000000E+00 -0.12905248614E+04  0.12905248614E+04  0.50400001928E-02 0. -1.
    10030    2    1    2    0    0  0.00000000000E+00  0.00000000000E+00 -0.59099147933E+03  0.19900582434E+04  0.19002791594E+04 0.  0.
        1    1    3    3  502    0  0.58017082371E+03  0.74816967962E+03 -0.37933533351E+03  0.10199271295E+04  0.50400001928E-02 0. -1.
       -1    1    3    3    0  502 -0.58017082371E+03 -0.74816967962E+03 -0.21165614582E+03  0.97013111396E+03  0.50400001928E-02 0.  1.
</event>
<event>
 5   0  0.6984466E-06  0.1899959E+04  0.7818609E-02  0.8654877E-01
        2   -1    0    0  501    0  0.00000000000E+00  0.00000000000E+00  0.61546620322E+03  0.61546620323E+03  0.25500000920E-02 0. -1.
       -2   -1    0    0    0  501  0.00000000000E+00  0.00000000000E+00 -0.14663050698E+04  0.14663050698E+04  0.25500000920E-02 0.  1.
    10030    2    1    2    0    0  0.00000000000E+00  0.00000000000E+00 -0.85083886658E+03  0.20817712730E+04  0.18999591723E+04 0.  0.
        2    1    3    3  502    0 -0.26044572954E+03 -0.76264685896E+03  0.12570307570E+03  0.81563685103E+03  0.25500000920E-02 0. -1.
       -2    1    3    3    0  502  0.26044572954E+03  0.76264685896E+03 -0.97654194228E+03  0.12661344220E+04  0.25500000920E-02 0.  1.
</event>
<event>
 5   0  0.7207648E-06  0.1901233E+04  0.7818609E-02  0.8654243E-01
       -2   -1    0    0    0  501  0.00000000000E+00  0.00000000000E+00  0.53754384074E+03  0.53754384075E+03  0.25500000920E-02 0. -1.
        2   -1    0    0  501    0  0.00000000000E+00  0.00000000000E+00 -0.16811131638E+04  0.16811131638E+04  0.25500000920E-02 0.  1.
    10030    2    1    2    0    0  0.00000000000E+00  0.00000000000E+00 -0.11435693230E+04  0.22186570045E+04  0.19012333121E+04 0.  0.
        4    1    3    3  502    0 -0.44451042307E+03  0.20171202310E+02 -0.15520797272E+04  0.16146050558E+04  0.12699999809E+01 0.  1.
       -4    1    3    3    0  502  0.44451042307E+03 -0.20171202310E+02  0.40851040415E+03  0.60405194878E+03  0.12699999809E+01 0. -1.
</event>
<event>
 5   0  0.6870370E-06  0.1900178E+04  0.7818609E-02  0.8654768E-01
       -2   -1    0    0    0  501  0.00000000000E+00  0.00000000000E+00  0.10367473893E+04  0.10367473893E+04  0.25500000920E-02 0. -1.
        2   -1    0    0  501    0  0.00000000000E+00  0.00000000000E+00 -0.87067411877E+03  0.87067411877E+03  0.25500000920E-02 0.  1.
    10030    2    1    2    0    0  0.00000000000E+00  0.00000000000E+00  0.16607327057E+03  0.19074215081E+04  0.19001780123E+04 0.  0.
        1    1    3    3  502    0  0.59745222644E+03 -0.23522739489E+03  0.78598320697E+03  0.10149141303E+04  0.50400001928E-02 0. -1.
       -1    1    3    3    0  502 -0.59745222644E+03  0.23522739489E+03 -0.61990993640E+03  0.89250737782E+03  0.50400001928E-02 0.  1.
</event>
<event>
 5   0  0.6870370E-06  0.1900258E+04  0.7818609E-02  0.8654728E-01
       -2   -1    0    0    0  501  0.00000000000E+00  0.00000000000E+00  0.12553204994E+04  0.12553204994E+04  0.25500000920E-02 0.  1.
        2   -1    0    0  501    0  0.00000000000E+00  0.00000000000E+00 -0.71913540780E+03  0.71913540780E+03  0.25500000920E-02 0. -1.
    10030    2    1    2    0    0  0.00000000000E+00  0.00000000000E+00  0.53618509160E+03  0.19744559072E+04  0.19002583185E+04 0.  0.
        1    1    3    3  502    0  0.35576243928E+03  0.83346649156E+03  0.56474358515E+03  0.10677867871E+04  0.50400001928E-02 0.  1.
       -1    1    3    3    0  502 -0.35576243928E+03 -0.83346649156E+03 -0.28558493551E+02  0.90666912009E+03  0.50400001928E-02 0. -1.
</event>
<event>
 5   0  0.3495279E-06  0.1900208E+04  0.7818609E-02  0.8654753E-01
        1   -1    0    0  501    0  0.00000000000E+00  0.00000000000E+00  0.20930341496E+04  0.20930341496E+04  0.50400001928E-02 0.  1.
       -1   -1    0    0    0  501  0.00000000000E+00  0.00000000000E+00 -0.43128679484E+03  0.43128679487E+03  0.50400001928E-02 0. -1.
    10030    2    1    2    0    0  0.00000000000E+00  0.00000000000E+00  0.16617473547E+04  0.25243209445E+04  0.19002083990E+04 0.  0.
        2    1    3    3  502    0  0.72961085401E+03  0.50550536751E+03  0.12810385629E+04  0.15585016761E+04  0.25500000920E-02 0.  1.
       -2    1    3    3    0  502 -0.72961085401E+03 -0.50550536751E+03  0.38070879185E+03  0.96581926833E+03  0.25500000920E-02 0. -1.
</event>
<event>
 5   0  0.3495279E-06  0.1899006E+04  0.7818609E-02  0.8655351E-01
        1   -1    0    0  501    0  0.00000000000E+00  0.00000000000E+00  0.86330465507E+03  0.86330465509E+03  0.50400001928E-02 0. -1.
       -1   -1    0    0    0  501  0.00000000000E+00  0.00000000000E+00 -0.10443076371E+04  0.10443076371E+04  0.50400001928E-02 0.  1.
    10030    2    1    2    0    0  0.00000000000E+00  0.00000000000E+00 -0.18100298198E+03  0.19076122922E+04  0.18990056813E+04 0.  0.
        2    1    3    3  502    0 -0.69313154631E+03  0.96470359014E+02 -0.73514021658E+03  0.10149724177E+04  0.25500000920E-02 0.  1.
       -2    1    3    3    0  502  0.69313154631E+03 -0.96470359014E+02  0.55413723460E+03  0.89263987444E+03  0.25500000920E-02 0. -1.
</event>
<event>
 5   0  0.6870370E-06  0.1899251E+04  0.7818609E-02  0.8655229E-01
        2   -1    0    0  501    0  0.00000000000E+00  0.00000000000E+00  0.23274845897E+04  0.23274845897E+04  0.25500000920E-02 0.  1.
       -2   -1    0    0    0  501  0.00000000000E+00  0.00000000000E+00 -0.38745206059E+03  0.38745206060E+03  0.25500000920E-02 0. -1.
    10030    2    1    2    0    0  0.00000000000E+00  0.00000000000E+00  0.19400325291E+04  0.27149366503E+04  0.18992511159E+04 0.  0.
        1    1    3    3  502    0 -0.36242233773E+03 -0.87054125098E+03  0.80957896125E+03  0.12428234449E+04  0.50400001928E-02 0. -1.
       -1    1    3    3    0  502  0.36242233773E+03  0.87054125098E+03  0.11304535678E+04  0.14721132054E+04  0.50400001928E-02 0.  1.
</event>
<event>
 5   0  0.7577180E-06  0.1898417E+04  0.7818609E-02  0.8655645E-01
       -2   -1    0    0    0  501  0.00000000000E+00  0.00000000000E+00  0.10731789927E+04  0.10731789927E+04  0.25500000920E-02 0. -1.
        2   -1    0    0  501    0  0.00000000000E+00  0.00000000000E+00 -0.83955899026E+03  0.83955899026E+03  0.25500000920E-02 0.  1.
    10030    2    1    2    0    0  0.00000000000E+00  0.00000000000E+00  0.23362000241E+03  0.19127379829E+04  0.18984173108E+04 0.  0.
        5    1    3    3  502    0 -0.43644183005E+03  0.82385776684E+03  0.29634477987E+03  0.97829719899E+03  0.46999998093E+01 0. -1.
       -5    1    3    3    0  502  0.43644183005E+03 -0.82385776684E+03 -0.62724777460E+02  0.93444078395E+03  0.46999998093E+01 0.  1.
</event>
<event>
 5   0  0.7207648E-06  0.1899938E+04  0.7818609E-02  0.8654887E-01
        2   -1    0    0  501    0  0.00000000000E+00  0.00000000000E+00  0.48675829971E+03  0.48675829971E+03  0.25500000920E-02 0.  1.
       -2   -1    0    0    0  501  0.00000000000E+00  0.00000000000E+00 -0.18539824612E+04  0.18539824612E+04  0.25500000920E-02 0. -1.
    10030    2    1    2    0    0  0.00000000000E+00  0.00000000000E+00 -0.13672241615E+04  0.23407407609E+04  0.18999382627E+04 0.  0.
        4    1    3    3  502    0 -0.92137229643E+03  0.18621249177E+02 -0.39953830668E+03  0.10044431945E+04  0.12699999809E+01 0. -1.
       -4    1    3    3    0  502  0.92137229643E+03 -0.18621249177E+02 -0.96768585484E+03  0.13362975665E+04  0.12699999809E+01 0.  1.
</event>
<event>
 5   0  0.3398807E-06  0.1900510E+04  0.7818609E-02  0.8654603E-01
       -1   -1    0    0    0  501  0.00000000000E+00  0.00000000000E+00  0.75689819623E+03  0.75689819624E+03  0.50400001928E-02 0. -1.
        1   -1    0    0  501    0  0.00000000000E+00  0.00000000000E+00 -0.11930063247E+04  0.11930063248E+04  0.50400001928E-02 0.  1.
    10030    2    1    2    0    0  0.00000000000E+00  0.00000000000E+00 -0.43610812852E+03  0.19499045210E+04  0.19005097583E+04 0.  0.
        1    1    3    3  502    0  0.52699794051E+03 -0.76492880874E+03 -0.12493582254E+02  0.92897739551E+03  0.50400001928E-02 0. -1.
       -1    1    3    3    0  502 -0.52699794051E+03  0.76492880874E+03 -0.42361454626E+03  0.10209271255E+04  0.50400001928E-02 0.  1.
</event>
<event>
 5   0  0.6862201E-06  0.1899260E+04  0.7818609E-02  0.8655225E-01
        2   -1    0    0  501    0  0.00000000000E+00  0.00000000000E+00  0.46980058856E+03  0.46980058857E+03  0.25500000920E-02 0.  1.
       -2   -1    0    0    0  501  0.00000000000E+00  0.00000000000E+00 -0.19195312973E+04  0.19195312973E+04  0.25500000920E-02 0. -1.
    10030    2    1    2    0    0  0.00000000000E+00  0.00000000000E+00 -0.14497307087E+04  0.23893318859E+04  0.18992597855E+04 0.  0.
        3    1    3    3  502    0  0.48759301286E+02 -0.81926327486E+03 -0.12386358554E+03  0.83000721745E+03  0.10100000352E+00 0.  1.
       -3    1    3    3    0  502 -0.48759301286E+02  0.81926327486E+03 -0.13258671232E+04  0.15593246684E+04  0.10100000352E+00 0. -1.
</event>
<event>
 5   0  0.6870370E-06  0.1899779E+04  0.7818609E-02  0.8654966E-01
        2   -1    0    0  501    0  0.00000000000E+00  0.00000000000E+00  0.14584750982E+04  0.14584750982E+04  0.25500000920E-02 0. -1.
       -2   -1    0    0    0  501  0.00000000000E+00  0.00000000000E+00 -0.61865328840E+03  0.61865328841E+03  0.25500000920E-02 0.  1.
    10030    2    1    2    0    0  0.00000000000E+00  0.00000000000E+00  0.83982180982E+03  0.20771283866E+04  0.18997793720E+04 0.  0.
        1    1    3    3  502    0 -0.22899628874E+03 -0.84262396063E+03  0.82876620560E+03  0.12038720293E+04  0.50400001928E-02 0. -1.
       -1    1    3    3    0  502  0.22899628874E+03  0.84262396063E+03  0.11055604227E+02  0.87325635737E+03  0.50400001928E-02 0.  1.
</event>
<event>
 5   0  0.3379108E-06  0.1891187E+04  0.7818609E-02  0.8659255E-01
       -1   -1    0    0    0  501  0.00000000000E+00  0.00000000000E+00  0.10415874204E+04  0.10415874204E+04  0.50400001928E-02 0.  1.
        1   -1    0    0  501    0  0.00000000000E+00  0.00000000000E+00 -0.85844681765E+03  0.85844681767E+03  0.50400001928E-02 0. -1.
    10030    2    1    2    0    0  0.00000000000E+00  0.00000000000E+00  0.18314060278E+03  0.19000342381E+04  0.18911873587E+04 0.  0.
        4    1    3    3  502    0 -0.17955449052E+02 -0.53939676282E+03 -0.68851184424E+03  0.87482651906E+03  0.12699999809E+01 0. -1.
       -4    1    3    3    0  502  0.17955449052E+02  0.53939676282E+03  0.87165244702E+03  0.10252077190E+04  0.12699999809E+01 0.  1.
</event>
<event>
 5   0  0.6862201E-06  0.1898249E+04  0.7818609E-02  0.8655729E-01
       -2   -1    0    0    0  501  0.00000000000E+00  0.00000000000E+00  0.48106457152E+03  0.48106457152E+03  0.25500000920E-02 0.  1.
        2   -1    0    0  501    0  0.00000000000E+00  0.00000000000E+00 -0.18725904761E+04  0.18725904761E+04  0.25500000920E-02 0. -1.
    10030    2    1    2    0    0  0.00000000000E+00  0.00000000000E+00 -0.13915259046E+04  0.23536550476E+04  0.18982485981E+04 0.  0.
        3    1    3    3  502    0  0.64560881247E+03  0.69117783174E+03 -0.59735300296E+03  0.11186456786E+04  0.10100000352E+00 0.  1.
       -3    1    3    3    0  502 -0.64560881247E+03 -0.69117783174E+03 -0.79417290163E+03  0.12350093691E+04  0.10100000352E+00 0. -1.
</event>
<event>
 5   0  0.6870370E-06  0.1897151E+04  0.7818609E-02  0.8656276E-01
       -2   -1    0    0    0  501  0.00000000000E+00  0.00000000000E+00  0.45766921398E+03  0.45766921399E+03  0.25500000920E-02 0.  1.
        2   -1    0    0  501    0  0.00000000000E+00  0.00000000000E+00 -0.19660396931E+04  0.19660396931E+04  0.25500000920E-02 0. -1.
    10030    2    1    2    0    0  0.00000000000E+00  0.00000000000E+00 -0.15083704792E+04  0.24237089071E+04  0.18971513814E+04 0.  0.
        1    1    3    3  502    0  0.41705616171E+03  0.16477985153E+03 -0.18220744681E+04  0.18764444060E+04  0.50400001928E-02 0. -1.
       -1    1    3    3    0  502 -0.41705616171E+03 -0.16477985153E+03  0.31370398894E+03  0.54726450113E+03  0.50400001928E-02 0.  1.
</event>
<event>
 5   0  0.3495279E-06  0.1901696E+04  0.7818609E-02  0.8654013E-01
        1   -1    0    0  501    0  0.00000000000E+00  0.00000000000E+00  0.11153889944E+04  0.11153889945E+04  0.50400001928E-02 0.  1.
       -1   -1    0    0    0  501  0.00000000000E+00  0.00000000000E+00 -0.81057957613E+03  0.81057957615E+03  0.50400001928E-02 0. -1.
    10030    2    1    2    0    0  0.00000000000E+00  0.00000000000E+00  0.30480941831E+03  0.19259685706E+04  0.19016955996E+04 0.  0.
        2    1    3    3  502    0  0.38111889307E+03  0.42994637219E+03  0.91970688033E+03  0.10844197708E+04  0.25500000920E-02 0.  1.
       -2    1    3    3    0  502 -0.38111889307E+03 -0.42994637219E+03 -0.61489746202E+03  0.84154879978E+03  0.25500000920E-02 0. -1.
</event>
<event>
 5   0  0.7577180E-06  0.1897466E+04  0.7818609E-02  0.8656119E-01
       -2   -1    0    0    0  501  0.00000000000E+00  0.00000000000E+00  0.12425030939E+04  0.12425030939E+04  0.25500000920E-02 0. -1.
        2   -1    0    0  501    0  0.00000000000E+00  0.00000000000E+00 -0.72442049297E+03  0.72442049298E+03  0.25500000920E-02 0.  1.
    10030    2    1    2    0    0  0.00000000000E+00  0.00000000000E+00  0.51808260095E+03  0.19669235869E+04  0.18974664201E+04 0.  0.
        5    1    3    3  502    0 -0.62030734517E+03 -0.70187564681E+03  0.41509080353E+03  0.10245648302E+04  0.46999998093E+01 0.  1.
       -5    1    3    3    0  502  0.62030734517E+03  0.70187564681E+03  0.10299179742E+03  0.94235875673E+03  0.46999998093E+01 0. -1.
</event>
<event>
 5   0  0.3398807E-06  0.1899734E+04  0.7818609E-02  0.8654989E-01
        1   -1    0    0  501    0  0.00000000000E+00  0.00000000000E+00  0.73433782605E+03  0.73433782607E+03  0.50400001928E-02 0. -1.
       -1   -1    0    0    0  501  0.00000000000E+00  0.00000000000E+00 -0.12286539459E+04  0.12286539459E+04  0.50400001928E-02 0.  1.
    10030    2    1    2    0    0  0.00000000000E+00  0.00000000000E+00 -0.49431611981E+03  0.19629917719E+04  0.18997337367E+04 0.  0.
        1    1    3    3  502    0  0.75646255539E+03  0.40017804224E+03  0.17871759517E+03  0.87425284789E+03  0.50400001928E-02 0. -1.
       -1    1    3    3    0  502 -0.75646255539E+03 -0.40017804224E+03 -0.67303371499E+03  0.10887389240E+04  0.50400001928E-02 0.  1.
</event>
<event>
 5   0  0.6870370E-06  0.1899561E+04  0.7818609E-02  0.8655075E-01
        2   -1    0    0  501    0  0.00000000000E+00  0.00000000000E+00  0.51209411962E+03  0.51209411962E+03  0.25500000920E-02 0. -1.
       -2   -1    0    0    0  501  0.00000000000E+00  0.00000000000E+00 -0.17615570503E+04  0.17615570503E+04  0.25500000920E-02 0.  1.
    10030    2    1    2    0    0  0.00000000000E+00  0.00000000000E+00 -0.12494629307E+04  0.22736511700E+04  0.18995610091E+04 0.  0.
        1    1    3    3  502    0  0.36348367888E+03  0.28269216187E+03  0.36955187929E+03  0.59042682418E+03  0.50400001928E-02 0. -1.
       -1    1    3    3    0  502 -0.36348367888E+03 -0.28269216187E+03 -0.16190148100E+04  0.16832243458E+04  0.50400001928E-02 0.  1.
</event>
<event>
 5   0  0.6984466E-06  0.1899269E+04  0.7818609E-02  0.8655220E-01
       -2   -1    0    0    0  501  0.00000000000E+00  0.00000000000E+00  0.52040519101E+03  0.52040519101E+03  0.25500000920E-02 0. -1.
        2   -1    0    0  501    0  0.00000000000E+00  0.00000000000E+00 -0.17328913352E+04  0.17328913352E+04  0.25500000920E-02 0.  1.
    10030    2    1    2    0    0  0.00000000000E+00  0.00000000000E+00 -0.12124861442E+04  0.22532965262E+04  0.18992689607E+04 0.  0.
        2    1    3    3  502    0 -0.60851632465E+03 -0.65519068881E+03 -0.22689357295E+03  0.92252243849E+03  0.25500000920E-02 0. -1.
       -2    1    3    3    0  502  0.60851632465E+03  0.65519068881E+03 -0.98559257123E+03  0.13307740877E+04  0.25500000920E-02 0.  1.
</event>
<event>
 5   0  0.3211263E-06  0.1898413E+04  0.7818609E-02  0.8655647E-01
       -1   -1    0    0    0  501  0.00000000000E+00  0.00000000000E+00  0.58308103646E+03  0.58308103648E+03  0.50400001928E-02 0. -1.
        1   -1    0    0  501    0  0.00000000000E+00  0.00000000000E+00 -0.15452273018E+04  0.15452273018E+04  0.50400001928E-02 0.  1.
    10030    2    1    2    0    0  0.00000000000E+00  0.00000000000E+00 -0.96214626531E+03  0.21283083383E+04  0.18984127441E+04 0.  0.
        5    1    3    3  502    0  0.10897080452E+03  0.51474507876E+03  0.40461873638E+03  0.66375864904E+03  0.46999998093E+01 0. -1.
       -5    1    3    3    0  502 -0.10897080452E+03 -0.51474507876E+03 -0.13667650017E+04  0.14645496892E+04  0.46999998093E+01 0.  1.
</event>
<event>
 5   0  0.3236653E-06  0.1899954E+04  0.7818609E-02  0.8654879E-01
       -1   -1    0    0    0  501  0.00000000000E+00  0.00000000000E+00  0.89240549639E+03  0.89240549641E+03  0.50400001928E-02 0.  1.
        1   -1    0    0  501    0  0.00000000000E+00  0.00000000000E+00 -0.10112622388E+04  0.10112622388E+04  0.50400001928E-02 0. -1.
    10030    2    1    2    0    0  0.00000000000E+00  0.00000000000E+00 -0.11885674236E+03  0.19036677352E+04  0.18999536628E+04 0.  0.
        3    1    3    3  502    0 -0.82896352756E+02 -0.51262208777E+03  0.73761567544E+03  0.90206990030E+03  0.10100000352E+00 0.  1.
       -3    1    3    3    0  502  0.82896352756E+02  0.51262208777E+03 -0.85647241781E+03  0.10015978349E+04  0.10100000352E+00 0. -1.
</event>
<event>
 5   0  0.6862201E-06  0.1899913E+04  0.7818609E-02  0.8654900E-01
        2   -1    0    0  501    0  0.00000000000E+00  0.00000000000E+00  0.10919685911E+04  0.10919685911E+04  0.25500000920E-02 0.  1.
       -2   -1    0    0    0  501  0.00000000000E+00  0.00000000000E+00 -0.82641341266E+03  0.82641341266E+03  0.25500000920E-02 0. -1.
    10030    2    1    2    0    0  0.00000000000E+00  0.00000000000E+00  0.26555517848E+03  0.19183820038E+04  0.18999131453E+04 0.  0.
        3    1    3    3  502    0 -0.50647053847E+03  0.73510486876E+03  0.46078290902E+03  0.10045956768E+04  0.10100000352E+00 0.  1.
       -3    1    3    3    0  502  0.50647053847E+03 -0.73510486876E+03 -0.19522773054E+03  0.91378632699E+03  0.10100000352E+00 0. -1.
</event>
<event>
 5   0  0.7577180E-06  0.1903690E+04  0.7818609E-02  0.8653022E-01
       -2   -1    0    0    0  501  0.00000000000E+00  0.00000000000E+00  0.69565565833E+03  0.69565565834E+03  0.25500000920E-02 0. -1.
        2   -1    0    0  501    0  0.00000000000E+00  0.00000000000E+00 -0.13023815991E+04  0.13023815991E+04  0.25500000920E-02 0.  1.
    10030    2    1    2    0    0  0.00000000000E+00  0.00000000000E+00 -0.60672594078E+03  0.19980372574E+04  0.19036902361E+04 0.  0.
        5    1    3    3  502    0 -0.70554234168E+03 -0.22570097576E+03  0.32396858542E+03  0.80852251712E+03  0.46999998093E+01 0. -1.
       -5    1    3    3    0  502  0.70554234168E+03  0.22570097576E+03 -0.93069452620E+03  0.11895147403E+04  0.46999998093E+01 0.  1.
</event>
<event>
 5   0  0.3211263E-06  0.1898983E+04  0.7818609E-02  0.8655363E-01
        1   -1    0    0  501    0  0.00000000000E+00  0.00000000000E+00  0.25752605558E+04  0.25752605558E+04  0.50400001928E-02 0. -1.
       -1   -1    0    0    0  501  0.00000000000E+00  0.00000000000E+00 -0.35007497232E+03  0.35007497236E+03  0.50400001928E-02 0.  1.
    10030    2    1    2    0    0  0.00000000000E+00  0.00000000000E+00  0.22251855834E+04  0.29253355281E+04  0.18989831677E+04 0.  0.
        5    1    3    3  502    0 -0.20126423396E+03  0.82046397743E+01 -0.31676318015E+03  0.37541391860E+03  0.46999998093E+01 0.  1.
       -5    1    3    3    0  502  0.20126423396E+03 -0.82046397743E+01  0.25419487636E+04  0.25499216095E+04  0.46999998093E+01 0. -1.
</event>
<event>
 5   0  0.6870370E-06  0.1900063E+04  0.7818609E-02  0.8654825E-01
        2   -1    0    0  501    0  0.00000000000E+00  0.00000000000E+00  0.99534321681E+03  0.99534321681E+03  0.25500000920E-02 0. -1.
       -2   -1    0    0    0  501  0.00000000000E+00  0.00000000000E+00 -0.90678219746E+03  0.90678219746E+03  0.25500000920E-02 0.  1.
    10030    2    1    2    0    0  0.00000000000E+00  0.00000000000E+00  0.88561019344E+02  0.19021254143E+04  0.19000626404E+04 0.  0.
        1    1    3    3  502    0 -0.17675438168E+03  0.87621787233E+03 -0.27787568850E+03  0.93606344311E+03  0.50400001928E-02 0.  1.
       -1    1    3    3    0  502  0.17675438168E+03 -0.87621787233E+03  0.36643670785E+03  0.96606197116E+03  0.50400001928E-02 0. -1.
</event>
<event>
 5   0  0.3398807E-06  0.1899088E+04  0.7818609E-02  0.8655310E-01
       -1   -1    0    0    0  501  0.00000000000E+00  0.00000000000E+00  0.59387396123E+03  0.59387396125E+03  0.50400001928E-02 0.  1.
        1   -1    0    0  501    0  0.00000000000E+00  0.00000000000E+00 -0.15182248221E+04  0.15182248221E+04  0.50400001928E-02 0. -1.
    10030    2    1    2    0    0  0.00000000000E+00  0.00000000000E+00 -0.92435086085E+03  0.21120987833E+04  0.18990884015E+04 0.  0.
        1    1    3    3  502    0  0.29718330876E+03  0.22057991084E+03 -0.14347064241E+04  0.14816733579E+04  0.50400001928E-02 0. -1.
       -1    1    3    3    0  502 -0.29718330876E+03 -0.22057991084E+03  0.51035556326E+03  0.63042542545E+03  0.50400001928E-02 0.  1.
</event>
<event>
 5   0  0.6862201E-06  0.1901466E+04  0.7818609E-02  0.8654127E-01
       -2   -1    0    0    0  501  0.00000000000E+00  0.00000000000E+00  0.12493351530E+04  0.12493351530E+04  0.25500000920E-02 0.  1.
        2   -1    0    0  501    0  0.00000000000E+00  0.00000000000E+00 -0.72349974535E+03  0.72349974536E+03  0.25500000920E-02 0. -1.
    10030    2    1    2    0    0  0.00000000000E+00  0.00000000000E+00  0.52583540763E+03  0.19728348983E+04  0.19014664499E+04 0.  0.
        3    1    3    3  502    0 -0.47519225329E+03  0.80225679600E+03  0.45554719735E+03  0.10377605232E+04  0.10100000352E+00 0.  1.
       -3    1    3    3    0  502  0.47519225329E+03 -0.80225679600E+03  0.70288210278E+02  0.93507437513E+03  0.10100000352E+00 0. -1.
</event>
<event>
 5   0  0.7207648E-06  0.1899932E+04  0.7818609E-02  0.8654890E-01
        2   -1    0    0  501    0  0.00000000000E+00  0.00000000000E+00  0.11417407447E+04  0.11417407447E+04  0.25500000920E-02 0.  1.
       -2   -1    0    0    0  501  0.00000000000E+00  0.00000000000E+00 -0.79040347984E+03  0.79040347984E+03  0.25500000920E-02 0. -1.
    10030    2    1    2    0    0  0.00000000000E+00  0.00000000000E+00  0.35133726481E+03  0.19321442245E+04  0.18999324805E+04 0.  0.
        4    1    3    3  502    0  0.65314699238E+03  0.56479345081E+03  0.57841535807E+03  0.10393067762E+04  0.12699999809E+01 0.  1.
       -4    1    3    3    0  502 -0.65314699238E+03 -0.56479345081E+03 -0.22707809325E+03  0.89283744829E+03  0.12699999809E+01 0. -1.
</event>
<event>
 5   0  0.6984466E-06  0.1899898E+04  0.7818609E-02  0.8654907E-01
       -2   -1    0    0    0  501  0.00000000000E+00  0.00000000000E+00  0.93782886692E+03  0.93782886692E+03  0.25500000920E-02 0. -1.
        2   -1    0    0  501    0  0.00000000000E+00  0.00000000000E+00 -0.96222606848E+03  0.96222606848E+03  0.25500000920E-02 0.  1.
    10030    2    1    2    0    0  0.00000000000E+00  0.00000000000E+00 -0.24397201562E+02  0.19000549354E+04  0.18998982957E+04 0.  0.
        2    1    3    3  502    0 -0.20309247610E+03 -0.46352441927E+03  0.79179674577E+03  0.93970395749E+03  0.25500000920E-02 0. -1.
       -2    1    3    3    0  502  0.20309247610E+03  0.46352441927E+03 -0.81619394733E+03  0.96035097791E+03  0.25500000920E-02 0.  1.
</event>
<event>
 5   0  0.6984466E-06  0.1898971E+04  0.7818609E-02  0.8655369E-01
       -2   -1    0    0    0  501  0.00000000000E+00  0.00000000000E+00  0.71611101451E+03  0.71611101451E+03  0.25500000920E-02 0.  1.
        2   -1    0    0  501    0  0.00000000000E+00  0.00000000000E+00 -0.12589145640E+04  0.12589145640E+04  0.25500000920E-02 0. -1.
    10030    2    1    2    0    0  0.00000000000E+00  0.00000000000E+00 -0.54280354949E+03  0.19750255785E+04  0.18989708640E+04 0.  0.
        2    1    3    3  502    0 -0.74791185588E+03  0.54977882856E+03 -0.47913524635E+03  0.10446049439E+04  0.25500000920E-02 0.  1.
       -2    1    3    3    0  502  0.74791185588E+03 -0.54977882856E+03 -0.63668303138E+02  0.93042063462E+03  0.25500000920E-02 0. -1.
</event>
<event>
 5   0  0.6870370E-06  0.1899076E+04  0.7818609E-02  0.8655316E-01
       -2   -1    0    0    0  501  0.00000000000E+00  0.00000000000E+00  0.40768122459E+03  0.40768122460E+03  0.25500000920E-02 0. -1.
        2   -1    0    0  501    0  0.00000000000E+00  0.00000000000E+00 -0.22115874648E+04  0.22115874648E+04  0.25500000920E-02 0.  1.
    10030    2    1    2    0    0  0.00000000000E+00  0.00000000000E+00 -0.18039062402E+04  0.26192686894E+04  0.18990762870E+04 0.  0.
        1    1    3    3  502    0  0.93900980075E+03 -0.43196522141E+02 -0.10870857555E+04  0.14371363141E+04  0.50400001928E-02 0. -1.
       -1    1    3    3    0  502 -0.93900980075E+03  0.43196522141E+02 -0.71682048469E+03  0.11821323753E+04  0.50400001928E-02 0.  1.
</event>
<event>
 5   0  0.3211263E-06  0.1899714E+04  0.7818609E-02  0.8654999E-01
        1   -1    0    0  501    0  0.00000000000E+00  0.00000000000E+00  0.11283435564E+04  0.11283435564E+04  0.50400001928E-02 0.  1.
       -1   -1    0    0    0  501  0.00000000000E+00  0.00000000000E+00 -0.79960398542E+03  0.79960398543E+03  0.50400001928E-02 0. -1.
    10030    2    1    2    0    0  0.00000000000E+00  0.00000000000E+00  0.32873957102E+03  0.19279475419E+04  0.18997136676E+04 0.  0.
        5    1    3    3  502    0 -0.20955461400E+02 -0.94826963773E+03  0.11310691348E+03  0.95523279942E+03  0.46999998093E+01 0.  1.
       -5    1    3    3    0  502  0.20955461400E+02  0.94826963773E+03  0.21563265754E+03  0.97271474246E+03  0.46999998093E+01 0. -1.
</event>
<event>
 5   0  0.3398807E-06  0.1898990E+04  0.7818609E-02  0.8655359E-01
        1   -1    0    0  501    0  0.00000000000E+00  0.00000000000E+00  0.60482874294E+03  0.60482874296E+03  0.50400001928E-02 0.  1.
       -1   -1    0    0    0  501  0.00000000000E+00  0.00000000000E+00 -0.14905718736E+04  0.14905718736E+04  0.50400001928E-02 0. -1.
    10030    2    1    2    0    0  0.00000000000E+00  0.00000000000E+00 -0.88574313068E+03  0.20954006166E+04  0.18989899553E+04 0.  0.
        1    1    3    3  502    0  0.82632679417E+03  0.45938849520E+03 -0.34612813266E+03  0.10068060610E+04  0.50400001928E-02 0. -1.
       -1    1    3    3    0  502 -0.82632679417E+03 -0.45938849520E+03 -0.53961499802E+03  0.10885945556E+04  0.50400001928E-02 0.  1.
</event>
<event>
 5   0  0.6870370E-06  0.1898225E+04  0.7818609E-02  0.8655740E-01
        2   -1    0    0  501    0  0.00000000000E+00  0.00000000000E+00  0.10685171857E+04  0.10685171857E+04  0.25500000920E-02 0.  1.
       -2   -1    0    0    0  501  0.00000000000E+00  0.00000000000E+00 -0.84305111409E+03  0.84305111409E+03  0.25500000920E-02 0. -1.
    10030    2    1    2    0    0  0.00000000000E+00  0.00000000000E+00  0.22546607157E+03  0.19115682998E+04  0.18982250697E+04 0.  0.
        1    1    3    3  502    0 -0.18919561733E+03  0.46922853979E+03 -0.69593357891E+03  0.86040336497E+03  0.50400001928E-02 0. -1.
       -1    1    3    3    0  502  0.18919561733E+03 -0.46922853979E+03  0.92139965049E+03  0.10511649348E+04  0.50400001928E-02 0.  1.
</event>
<event>
 5   0  0.3495279E-06  0.1900614E+04  0.7818609E-02  0.8654551E-01
        1   -1    0    0  501    0  0.00000000000E+00  0.00000000000E+00  0.61872517979E+03  0.61872517981E+03  0.50400001928E-02 0. -1.
       -1   -1    0    0    0  501  0.00000000000E+00  0.00000000000E+00 -0.14595879870E+04  0.14595879870E+04  0.50400001928E-02 0.  1.
    10030    2    1    2    0    0  0.00000000000E+00  0.00000000000E+00 -0.84086280725E+03  0.20783131669E+04  0.19006144688E+04 0.  0.
        2    1    3    3  502    0  0.65253251189E+02 -0.40394574440E+03 -0.13583252067E+04  0.14186181721E+04  0.25500000920E-02 0.  1.
       -2    1    3    3    0  502 -0.65253251189E+02  0.40394574440E+03  0.51746239944E+03  0.65969499471E+03  0.25500000920E-02 0. -1.
</event>
<event>
 5   0  0.3236653E-06  0.1900561E+04  0.7818609E-02  0.8654577E-01
        1   -1    0    0  501    0  0.00000000000E+00  0.00000000000E+00  0.83820168908E+03  0.83820168910E+03  0.50400001928E-02 0.  1.
       -1   -1    0    0    0  501  0.00000000000E+00  0.00000000000E+00 -0.10773452283E+04  0.10773452283E+04  0.50400001928E-02 0. -1.
    10030    2    1    2    0    0  0.00000000000E+00  0.00000000000E+00 -0.23914353924E+03  0.19155469174E+04  0.19005605385E+04 0.  0.
        3    1    3    3  502    0  0.42364343866E+03 -0.15413826290E+03  0.72356517753E+03  0.85251330990E+03  0.10100000352E+00 0.  1.
       -3    1    3    3    0  502 -0.42364343866E+03  0.15413826290E+03 -0.96270871677E+03  0.10630336075E+04  0.10100000352E+00 0. -1.
</event>
<event>
 5   0  0.3379108E-06  0.1899793E+04  0.7818609E-02  0.8654959E-01
       -1   -1    0    0    0  501  0.00000000000E+00  0.00000000000E+00  0.76306275810E+03  0.76306275812E+03  0.50400001928E-02 0.  1.
        1   -1    0    0  501    0  0.00000000000E+00  0.00000000000E+00 -0.11824763813E+04  0.11824763813E+04  0.50400001928E-02 0. -1.
    10030    2    1    2    0    0  0.00000000000E+00  0.00000000000E+00 -0.41941362315E+03  0.19455391394E+04  0.18997933455E+04 0.  0.
        4    1    3    3  502    0  0.97270820997E+02  0.26494401942E+02 -0.11769813440E+04  0.11812917772E+04  0.12699999809E+01 0. -1.
       -4    1    3    3    0  502 -0.97270820997E+02 -0.26494401942E+02  0.75756772085E+03  0.76424736214E+03  0.12699999809E+01 0.  1.
</event>
<event>
 5   0  0.6870370E-06  0.1900158E+04  0.7818609E-02  0.8654778E-01
        2   -1    0    0  501    0  0.00000000000E+00  0.00000000000E+00  0.19756132360E+04  0.19756132360E+04  0.25500000920E-02 0. -1.
       -2   -1    0    0    0  501  0.00000000000E+00  0.00000000000E+00 -0.45689614835E+03  0.45689614836E+03  0.25500000920E-02 0.  1.
    10030    2    1    2    0    0  0.00000000000E+00  0.00000000000E+00  0.15187170876E+04  0.24325093843E+04  0.19001579704E+04 0.  0.
        1    1    3    3  502    0 -0.35807908373E+03 -0.85064327398E+03  0.47072404983E+03  0.10360481364E+04  0.50400001928E-02 0. -1.
       -1    1    3    3    0  502  0.35807908373E+03  0.85064327398E+03  0.10479930378E+04  0.13964612480E+04  0.50400001928E-02 0.  1.
</event>
<event>
 5   0  0.3495279E-06  0.1899859E+04  0.7818609E-02  0.8654927E-01
       -1   -1    0    0    0  501  0.00000000000E+00  0.00000000000E+00  0.48081505018E+03  0.48081505021E+03  0.50400001928E-02 0. -1.
        1   -1    0    0  501    0  0.00000000000E+00  0.00000000000E+00 -0.18767415744E+04  0.18767415744E+04  0.50400001928E-02 0.  1.
    10030    2    1    2    0    0  0.00000000000E+00  0.00000000000E+00 -0.13959265242E+04  0.23575566246E+04  0.18998585150E+04 0.  0.
        2    1    3    3  502    0  0.47121791520E+03  0.15655608544E+03  0.30695262530E+03  0.58376026387E+03  0.25500000920E-02 0. -1.
       -2    1    3    3    0  502 -0.47121791520E+03 -0.15655608544E+03 -0.17028791495E+04  0.17737963607E+04  0.25500000920E-02 0.  1.
</event>
<event>
 5   0  0.3211263E-06  0.1899977E+04  0.7818609E-02  0.8654868E-01
       -1   -1    0    0    0  501  0.00000000000E+00  0.00000000000E+00  0.44824639231E+03  0.44824639233E+03  0.50400001928E-02 0.  1.
        1   -1    0    0  501    0  0.00000000000E+00  0.00000000000E+00 -0.20133526830E+04  0.20133526830E+04  0.50400001928E-02 0. -1.
    10030    2    1    2    0    0  0.00000000000E+00  0.00000000000E+00 -0.15651062907E+04  0.24615990753E+04  0.18999769226E+04 0.  0.
        5    1    3    3  502    0  0.46973467501E+03  0.44498372366E+03  0.11860205964E+03  0.65783715141E+03  0.46999998093E+01 0.  1.
       -5    1    3    3    0  502 -0.46973467501E+03 -0.44498372366E+03 -0.16837083503E+04  0.18037619239E+04  0.46999998093E+01 0. -1.
</event>
<event>
 5   0  0.3211263E-06  0.1900322E+04  0.7818609E-02  0.8654696E-01
       -1   -1    0    0    0  501  0.00000000000E+00  0.00000000000E+00  0.56067688119E+03  0.56067688122E+03  0.50400001928E-02 0.  1.
        1   -1    0    0  501    0  0.00000000000E+00  0.00000000000E+00 -0.16102071180E+04  0.16102071181E+04  0.50400001928E-02 0. -1.
    10030    2    1    2    0    0  0.00000000000E+00  0.00000000000E+00 -0.10495302368E+04  0.21708839993E+04  0.19003219780E+04 0.  0.
        5    1    3    3  502    0 -0.41562467187E+03 -0.65338550149E+03  0.10419336046E+03  0.78136728098E+03  0.46999998093E+01 0.  1.
       -5    1    3    3    0  502  0.41562467187E+03  0.65338550149E+03 -0.11537235973E+04  0.13895167183E+04  0.46999998093E+01 0. -1.
</event>
<event>
 5   0  0.6870370E-06  0.1900048E+04  0.7818609E-02  0.8654832E-01
       -2   -1    0    0    0  501  0.00000000000E+00  0.00000000000E+00  0.70089631809E+03  0.70089631810E+03  0.25500000920E-02 0.  1.
        2   -1    0    0  501    0  0.00000000000E+00  0.00000000000E+00 -0.12877026190E+04  0.12877026190E+04  0.25500000920E-02 0. -1.
    10030    2    1    2    0    0  0.00000000000E+00  0.00000000000E+00 -0.58680630092E+03  0.19885989371E+04  0.19000484462E+04 0.  0.
        1    1    3    3  502    0  0.35491730569E+03  0.20618621787E+03  0.60330345976E+03  0.72969453534E+03  0.50400001928E-02 0.  1.
       -1    1    3    3    0  502 -0.35491730569E+03 -0.20618621787E+03 -0.11901097607E+04  0.12589044018E+04  0.50400001928E-02 0. -1.
</event>
<event>
 5   0  0.2527750E-06  0.1901139E+04  0.7818609E-02  0.8654289E-01
       -3   -1    0    0    0  501  0.00000000000E+00  0.00000000000E+00  0.99139430296E+03  0.99139430810E+03  0.10100000352E+00 0.  1.
        3   -1    0    0  501    0  0.00000000000E+00  0.00000000000E+00 -0.91142628598E+03  0.91142629158E+03  0.10100000352E+00 0. -1.
    10030    2    1    2    0    0  0.00000000000E+00  0.00000000000E+00  0.79968016978E+02  0.19028205997E+04  0.19011394875E+04 0.  0.
        5    1    3    3  502    0 -0.62253145013E+03  0.61238556652E+03  0.41581472976E+03  0.96720497723E+03  0.46999998093E+01 0. -1.
       -5    1    3    3    0  502  0.62253145013E+03 -0.61238556652E+03 -0.33584671279E+03  0.93561562245E+03  0.46999998093E+01 0.  1.
</event>
<event>
 5   0  0.3211263E-06  0.1899666E+04  0.7818609E-02  0.8655023E-01
        1   -1    0    0  501    0  0.00000000000E+00  0.00000000000E+00  0.87751288060E+03  0.87751288061E+03  0.50400001928E-02 0.  1.
       -1   -1    0    0    0  501  0.00000000000E+00  0.00000000000E+00 -0.10281135594E+04  0.10281135595E+04  0.50400001928E-02 0. -1.
    10030    2    1    2    0    0  0.00000000000E+00  0.00000000000E+00 -0.15060067884E+03  0.19056264401E+04  0.18996661719E+04 0.  0.
        5    1    3    3  502    0 -0.24818508002E+03 -0.84668602136E+03 -0.42809647773E+03  0.98069451765E+03  0.46999998093E+01 0. -1.
       -5    1    3    3    0  502  0.24818508002E+03  0.84668602136E+03  0.27749579889E+03  0.92493192242E+03  0.46999998093E+01 0.  1.
</event>
<event>
 5   0  0.6984466E-06  0.1901874E+04  0.7818609E-02  0.8653924E-01
       -2   -1    0    0    0  501  0.00000000000E+00  0.00000000000E+00  0.43662276631E+03  0.43662276632E+03  0.25500000920E-02 0.  1.
        2   -1    0    0  501    0  0.00000000000E+00  0.00000000000E+00 -0.20710810584E+04  0.20710810584E+04  0.25500000920E-02 0. -1.
    10030    2    1    2    0    0  0.00000000000E+00  0.00000000000E+00 -0.16344582921E+04  0.25077038247E+04  0.19018739611E+04 0.  0.
        2    1    3    3  502    0  0.84169506012E+03 -0.29313669616E+03 -0.12543446488E+04  0.15387528050E+04  0.25500000920E-02 0. -1.
       -2    1    3    3    0  502 -0.84169506012E+03  0.29313669616E+03 -0.38011364332E+03  0.96895101977E+03  0.25500000920E-02 0.  1.
</event>
<event>
 5   0  0.3495279E-06  0.1899902E+04  0.7818609E-02  0.8654905E-01
        1   -1    0    0  501    0  0.00000000000E+00  0.00000000000E+00  0.13424439303E+04  0.13424439303E+04  0.50400001928E-02 0. -1.
       -1   -1    0    0    0  501  0.00000000000E+00  0.00000000000E+00 -0.67221198576E+03  0.67221198578E+03  0.50400001928E-02 0.  1.
    10030    2    1    2    0    0  0.00000000000E+00  0.00000000000E+00  0.67023194455E+03  0.20146559161E+04  0.18999019977E+04 0.  0.
        2    1    3    3  502    0 -0.29821724928E+03 -0.11714704342E+03  0.12834182483E+04  0.13228073773E+04  0.25500000920E-02 0. -1.
       -2    1    3    3    0  502  0.29821724928E+03  0.11714704342E+03 -0.61318630371E+03  0.69184853878E+03  0.25500000920E-02 0.  1.
</event>
<event>
 5   0  0.7577180E-06  0.1899892E+04  0.7818609E-02  0.8654910E-01
       -2   -1    0    0    0  501  0.00000000000E+00  0.00000000000E+00  0.91937943455E+03  0.91937943455E+03  0.25500000920E-02 0. -1.
        2   -1    0    0  501    0  0.00000000000E+00  0.00000000000E+00 -0.98152872469E+03  0.98152872469E+03  0.25500000920E-02 0.  1.
    10030    2    1    2    0    0  0.00000000000E+00  0.00000000000E+00 -0.62149290139E+02  0.19009081592E+04  0.18998919168E+04 0.  0.
        5    1    3    3  502    0 -0.64714245317E+03 -0.52282084395E+03 -0.48983952750E+03  0.96545317974E+03  0.46999998093E+01 0.  1.
       -5    1    3    3    0  502  0.64714245317E+03  0.52282084395E+03  0.42769023736E+03  0.93545497951E+03  0.46999998093E+01 0. -1.
</event>
<event>
 5   0  0.7207648E-06  0.1900412E+04  0.7818609E-02  0.8654651E-01
        2   -1    0    0  501    0  0.00000000000E+00  0.00000000000E+00  0.19524259778E+04  0.19524259778E+04  0.25500000920E-02 0.  1.
       -2   -1    0    0    0  501  0.00000000000E+00  0.00000000000E+00 -0.46244606195E+03  0.46244606196E+03  0.25500000920E-02 0. -1.
    10030    2    1    2    0    0  0.00000000000E+00  0.00000000000E+00  0.14899799159E+04  0.24148720398E+04  0.19004122760E+04 0.  0.
        4    1    3    3  502    0 -0.19958085758E+03  0.90659905548E+03  0.48726535590E+03  0.10484195277E+04  0.12699999809E+01 0.  1.
       -4    1    3    3    0  502  0.19958085758E+03 -0.90659905548E+03  0.10027145600E+04  0.13664525121E+04  0.12699999809E+01 0. -1.
</event>
<event>
 5   0  0.7207648E-06  0.1900362E+04  0.7818609E-02  0.8654676E-01
       -2   -1    0    0    0  501  0.00000000000E+00  0.00000000000E+00  0.80364105719E+03  0.80364105720E+03  0.25500000920E-02 0. -1.
        2   -1    0    0  501    0  0.00000000000E+00  0.00000000000E+00 -0.11234415621E+04  0.11234415621E+04  0.25500000920E-02 0.  1.
    10030    2    1    2    0    0  0.00000000000E+00  0.00000000000E+00 -0.31980050492E+03  0.19270826193E+04  0.19003618231E+04 0.  0.
        4    1    3    3  502    0 -0.29061951247E+03  0.73076198921E+03  0.38086084660E+03  0.87380168418E+03  0.12699999809E+01 0. -1.
       -4    1    3    3    0  502  0.29061951247E+03 -0.73076198921E+03 -0.70066135152E+03  0.10532809351E+04  0.12699999809E+01 0.  1.
</event>
<event>
 5   0  0.3211263E-06  0.1900305E+04  0.7818609E-02  0.8654705E-01
       -1   -1    0    0    0  501  0.00000000000E+00  0.00000000000E+00  0.11481964119E+04  0.11481964119E+04  0.50400001928E-02 0.  1.
        1   -1    0    0  501    0  0.00000000000E+00  0.00000000000E+00 -0.78626777227E+03  0.78626777229E+03  0.50400001928E-02 0. -1.
    10030    2    1    2    0    0  0.00000000000E+00  0.00000000000E+00  0.36192863961E+03  0.19344641842E+04  0.19003050649E+04 0.  0.
        5    1    3    3  502    0  0.53657663794E+02 -0.81576592473E+03 -0.31190258323E+03  0.87501914280E+03  0.46999998093E+01 0. -1.
       -5    1    3    3    0  502 -0.53657663794E+02  0.81576592473E+03  0.67383122284E+03  0.10594450414E+04  0.46999998093E+01 0.  1.
</event>
<event>
 5   0  0.3211263E-06  0.1899962E+04  0.7818609E-02  0.8654876E-01
        1   -1    0    0  501    0  0.00000000000E+00  0.00000000000E+00  0.25283926930E+04  0.25283926930E+04  0.50400001928E-02 0.  1.
       -1   -1    0    0    0  501  0.00000000000E+00  0.00000000000E+00 -0.35693167144E+03  0.35693167148E+03  0.50400001928E-02 0. -1.
    10030    2    1    2    0    0  0.00000000000E+00  0.00000000000E+00  0.21714610216E+04  0.28853243645E+04  0.18999615049E+04 0.  0.
        5    1    3    3  502    0 -0.10589179671E+03 -0.15346357911E+03  0.25003151356E+04  0.25072618551E+04  0.46999998093E+01 0.  1.
       -5    1    3    3    0  502  0.10589179671E+03  0.15346357911E+03 -0.32885411401E+03  0.37806250942E+03  0.46999998093E+01 0. -1.
</event>
<event>
 5   0  0.3211263E-06  0.1900149E+04  0.7818609E-02  0.8654782E-01
        1   -1    0    0  501    0  0.00000000000E+00  0.00000000000E+00  0.58808876122E+03  0.58808876125E+03  0.50400001928E-02 0. -1.
       -1   -1    0    0    0  501  0.00000000000E+00  0.00000000000E+00 -0.15348728611E+04  0.15348728611E+04  0.50400001928E-02 0.  1.
    10030    2    1    2    0    0  0.00000000000E+00  0.00000000000E+00 -0.94678409986E+03  0.21229616223E+04  0.19001489200E+04 0.  0.
        5    1    3    3  502    0  0.26204224479E+03  0.52200504541E+02 -0.14920178687E+04  0.15157606808E+04  0.46999998093E+01 0.  1.
       -5    1    3    3    0  502 -0.26204224479E+03 -0.52200504541E+02  0.54523376887E+03  0.60720094157E+03  0.46999998093E+01 0. -1.
</event>
<event>
 5   0  0.6870370E-06  0.1899423E+04  0.7818609E-02  0.8655144E-01
       -2   -1    0    0    0  501  0.00000000000E+00  0.00000000000E+00  0.69315983920E+03  0.69315983920E+03  0.25500000920E-02 0. -1.
        2   -1    0    0  501    0  0.00000000000E+00  0.00000000000E+00 -0.13012179356E+04  0.13012179356E+04  0.25500000920E-02 0.  1.
    10030    2    1    2    0    0  0.00000000000E+00  0.00000000000E+00 -0.60805809641E+03  0.19943777748E+04  0.18994230861E+04 0.  0.
        1    1    3    3  502    0 -0.25901513851E+03  0.90513738106E+03 -0.17292933886E+03  0.95721840603E+03  0.50400001928E-02 0.  1.
       -1    1    3    3    0  502  0.25901513851E+03 -0.90513738106E+03 -0.43512875755E+03  0.10371593688E+04  0.50400001928E-02 0. -1.
</event>
<event>
 5   0  0.7577180E-06  0.1899867E+04  0.7818609E-02  0.8654922E-01
       -2   -1    0    0    0  501  0.00000000000E+00  0.00000000000E+00  0.77960270698E+03  0.77960270698E+03  0.25500000920E-02 0. -1.
        2   -1    0    0  501    0  0.00000000000E+00  0.00000000000E+00 -0.11574793438E+04  0.11574793438E+04  0.25500000920E-02 0.  1.
    10030    2    1    2    0    0  0.00000000000E+00  0.00000000000E+00 -0.37787663686E+03  0.19370820508E+04  0.18998673951E+04 0.  0.
        5    1    3    3  502    0 -0.16466710176E+03 -0.75353440533E+03  0.37637941964E+03  0.85826156382E+03  0.46999998093E+01 0. -1.
       -5    1    3    3    0  502  0.16466710176E+03  0.75353440533E+03 -0.75425605650E+03  0.10788204870E+04  0.46999998093E+01 0.  1.
</event>
<event>
 5   0  0.3236653E-06  0.1899626E+04  0.7818609E-02  0.8655042E-01
       -1   -1    0    0    0  501  0.00000000000E+00  0.00000000000E+00  0.57325315748E+03  0.57325315750E+03  0.50400001928E-02 0.  1.
        1   -1    0    0  501    0  0.00000000000E+00  0.00000000000E+00 -0.15737289749E+04  0.15737289749E+04  0.50400001928E-02 0. -1.
    10030    2    1    2    0    0  0.00000000000E+00  0.00000000000E+00 -0.10004758174E+04  0.21469821324E+04  0.18996263884E+04 0.  0.
        3    1    3    3  502    0  0.41729023107E+03 -0.72177824228E+03 -0.10145159552E+04  0.13131403586E+04  0.10100000352E+00 0. -1.
       -3    1    3    3    0  502 -0.41729023107E+03  0.72177824228E+03  0.14040137766E+02  0.83384177375E+03  0.10100000352E+00 0.  1.
</event>
<event>
 5   0  0.7207648E-06  0.1900351E+04  0.7818609E-02  0.8654682E-01
       -2   -1    0    0    0  501  0.00000000000E+00  0.00000000000E+00  0.98591734051E+03  0.98591734051E+03  0.25500000920E-02 0.  1.
        2   -1    0    0  501    0  0.00000000000E+00  0.00000000000E+00 -0.91572961389E+03  0.91572961389E+03  0.25500000920E-02 0. -1.
    10030    2    1    2    0    0  0.00000000000E+00  0.00000000000E+00  0.70187726620E+02  0.19016469544E+04  0.19003512365E+04 0.  0.
        4    1    3    3  502    0 -0.69219570103E+03  0.64772945632E+03  0.99509763266E+02  0.95320099821E+03  0.12699999809E+01 0. -1.
       -4    1    3    3    0  502  0.69219570103E+03 -0.64772945632E+03 -0.29322036646E+02  0.94844595620E+03  0.12699999809E+01 0.  1.
</event>
<event>
 5   0  0.6870370E-06  0.1904219E+04  0.7818609E-02  0.8652759E-01
        2   -1    0    0  501    0  0.00000000000E+00  0.00000000000E+00  0.13173607935E+04  0.13173607935E+04  0.25500000920E-02 0. -1.
       -2   -1    0    0    0  501  0.00000000000E+00  0.00000000000E+00 -0.68812752957E+03  0.68812752957E+03  0.25500000920E-02 0.  1.
    10030    2    1    2    0    0  0.00000000000E+00  0.00000000000E+00  0.62923326389E+03  0.20054883230E+04  0.19042187147E+04 0.  0.
        1    1    3    3  502    0 -0.21943660293E+03 -0.83193756377E+03 -0.11479190677E+03  0.86801481243E+03  0.50400001928E-02 0.  1.
       -1    1    3    3    0  502  0.21943660293E+03  0.83193756377E+03  0.74402517067E+03  0.11374735106E+04  0.50400001928E-02 0. -1.
</event>
<event>
 5   0  0.3236653E-06  0.1903651E+04  0.7818609E-02  0.8653041E-01
       -1   -1    0    0    0  501  0.00000000000E+00  0.00000000000E+00  0.66888166316E+03  0.66888166318E+03  0.50400001928E-02 0. -1.
        1   -1    0    0  501    0  0.00000000000E+00  0.00000000000E+00 -0.13544571413E+04  0.13544571413E+04  0.50400001928E-02 0.  1.
    10030    2    1    2    0    0  0.00000000000E+00  0.00000000000E+00 -0.68557547809E+03  0.20233388044E+04  0.19036507509E+04 0.  0.
        3    1    3    3  502    0 -0.13843118630E+03 -0.51109706847E+03 -0.11834578088E+04  0.12965167959E+04  0.10100000352E+00 0.  1.
       -3    1    3    3    0  502  0.13843118630E+03  0.51109706847E+03  0.49788233066E+03  0.72682200855E+03  0.10100000352E+00 0. -1.
</event>
<event>
 5   0  0.6862201E-06  0.1900339E+04  0.7818609E-02  0.8654688E-01
        2   -1    0    0  501    0  0.00000000000E+00  0.00000000000E+00  0.84241784316E+03  0.84241784317E+03  0.25500000920E-02 0. -1.
       -2   -1    0    0    0  501  0.00000000000E+00  0.00000000000E+00 -0.10717033169E+04  0.10717033169E+04  0.25500000920E-02 0.  1.
    10030    2    1    2    0    0  0.00000000000E+00  0.00000000000E+00 -0.22928547378E+03  0.19141211601E+04  0.19003389137E+04 0.  0.
        3    1    3    3  502    0  0.98721824114E+02  0.91419152084E+03 -0.35581578375E+03  0.98594980476E+03  0.10100000352E+00 0.  1.
       -3    1    3    3    0  502 -0.98721824114E+02 -0.91419152084E+03  0.12653030998E+03  0.92817135535E+03  0.10100000352E+00 0. -1.
</event>
<event>
 5   0  0.3236653E-06  0.1900898E+04  0.7818609E-02  0.8654409E-01
        1   -1    0    0  501    0  0.00000000000E+00  0.00000000000E+00  0.65351860955E+03  0.65351860957E+03  0.50400001928E-02 0. -1.
       -1   -1    0    0    0  501  0.00000000000E+00  0.00000000000E+00 -0.13822917462E+04  0.13822917463E+04  0.50400001928E-02 0.  1.
    10030    2    1    2    0    0  0.00000000000E+00  0.00000000000E+00 -0.72877313670E+03  0.20358103558E+04  0.19008980825E+04 0.  0.
        3    1    3    3  502    0  0.95783261271E+02  0.92937900170E+03 -0.55122026511E+03  0.10847873307E+04  0.10100000352E+00 0.  1.
       -3    1    3    3    0  502 -0.95783261271E+02 -0.92937900170E+03 -0.17755287159E+03  0.95102302514E+03  0.10100000352E+00 0. -1.
</event>
<event>
 5   0  0.3211263E-06  0.1902041E+04  0.7818609E-02  0.8653841E-01
       -1   -1    0    0    0  501  0.00000000000E+00  0.00000000000E+00  0.85404191881E+03  0.85404191882E+03  0.50400001928E-02 0.  1.
        1   -1    0    0  501    0  0.00000000000E+00  0.00000000000E+00 -0.10590111299E+04  0.10590111299E+04  0.50400001928E-02 0. -1.
    10030    2    1    2    0    0  0.00000000000E+00  0.00000000000E+00 -0.20496921113E+03  0.19130530488E+04  0.19020409012E+04 0.  0.
        5    1    3    3  502    0  0.25182277315E+03  0.90999296031E+03  0.11821565255E+02  0.94427947997E+03  0.46999998093E+01 0.  1.
       -5    1    3    3    0  502 -0.25182277315E+03 -0.90999296031E+03 -0.21679077638E+03  0.96877356880E+03  0.46999998093E+01 0. -1.
</event>
<event>
 5   0  0.3398807E-06  0.1899746E+04  0.7818609E-02  0.8654983E-01
        1   -1    0    0  501    0  0.00000000000E+00  0.00000000000E+00  0.16352154695E+04  0.16352154695E+04  0.50400001928E-02 0. -1.
       -1   -1    0    0    0  501  0.00000000000E+00  0.00000000000E+00 -0.55176729084E+03  0.55176729086E+03  0.50400001928E-02 0.  1.
    10030    2    1    2    0    0  0.00000000000E+00  0.00000000000E+00  0.10834481787E+04  0.21869827604E+04  0.18997456773E+04 0.  0.
        1    1    3    3  502    0 -0.14167515208E+03  0.79395686190E+03 -0.35965040675E+02  0.80729971600E+03  0.50400001928E-02 0.  1.
       -1    1    3    3    0  502  0.14167515208E+03 -0.79395686190E+03  0.11194132193E+04  0.13796830444E+04  0.50400001928E-02 0. -1.
</event>
<event>
 5   0  0.3398807E-06  0.1902317E+04  0.7818609E-02  0.8653704E-01
        1   -1    0    0  501    0  0.00000000000E+00  0.00000000000E+00  0.16664229577E+04  0.16664229577E+04  0.50400001928E-02 0. -1.
       -1   -1    0    0    0  501  0.00000000000E+00  0.00000000000E+00 -0.54290093873E+03  0.54290093875E+03  0.50400001928E-02 0.  1.
    10030    2    1    2    0    0  0.00000000000E+00  0.00000000000E+00  0.11235220189E+04  0.22093238964E+04  0.19023171009E+04 0.  0.
        1    1    3    3  502    0 -0.16914630508E+03 -0.55461279926E+03  0.14374310156E+04  0.15499721786E+04  0.50400001928E-02 0. -1.
       -1    1    3    3    0  502  0.16914630508E+03  0.55461279926E+03 -0.31390899669E+03  0.65935171786E+03  0.50400001928E-02 0.  1.
</event>
<event>
 5   0  0.6862201E-06  0.1899448E+04  0.7818609E-02  0.8655131E-01
       -2   -1    0    0    0  501  0.00000000000E+00  0.00000000000E+00  0.51088534589E+03  0.51088534590E+03  0.25500000920E-02 0.  1.
        2   -1    0    0  501    0  0.00000000000E+00  0.00000000000E+00 -0.17655147072E+04  0.17655147072E+04  0.25500000920E-02 0. -1.
    10030    2    1    2    0    0  0.00000000000E+00  0.00000000000E+00 -0.12546293613E+04  0.22764000531E+04  0.18994479112E+04 0.  0.
        3    1    3    3  502    0  0.25274887156E+03 -0.85941858470E+03 -0.24929180127E+03  0.92985413275E+03  0.10100000352E+00 0. -1.
       -3    1    3    3    0  502 -0.25274887156E+03  0.85941858470E+03 -0.10053375601E+04  0.13465459204E+04  0.10100000352E+00 0.  1.
</event>
<event>
 5   0  0.3398807E-06  0.1899912E+04  0.7818609E-02  0.8654900E-01
       -1   -1    0    0    0  501  0.00000000000E+00  0.00000000000E+00  0.69835766102E+03  0.69835766104E+03  0.50400001928E-02 0.  1.
        1   -1    0    0  501    0  0.00000000000E+00  0.00000000000E+00 -0.12921982327E+04  0.12921982327E+04  0.50400001928E-02 0. -1.
    10030    2    1    2    0    0  0.00000000000E+00  0.00000000000E+00 -0.59384057170E+03  0.19905558938E+04  0.18999121405E+04 0.  0.
        1    1    3    3  502    0 -0.22316619098E+03  0.37860746521E+03  0.58544128493E+03  0.73204389188E+03  0.50400001928E-02 0.  1.
       -1    1    3    3    0  502  0.22316619098E+03 -0.37860746521E+03 -0.11792818566E+04  0.12585120019E+04  0.50400001928E-02 0. -1.
</event>
<event>
 5   0  0.3495279E-06  0.1899685E+04  0.7818609E-02  0.8655013E-01
        1   -1    0    0  501    0  0.00000000000E+00  0.00000000000E+00  0.17070048486E+04  0.17070048486E+04  0.50400001928E-02 0.  1.
       -1   -1    0    0    0  501  0.00000000000E+00  0.00000000000E+00 -0.52852828750E+03  0.52852828753E+03  0.50400001928E-02 0. -1.
    10030    2    1    2    0    0  0.00000000000E+00  0.00000000000E+00  0.11784765611E+04  0.22355331361E+04  0.18996845521E+04 0.  0.
        2    1    3    3  502    0 -0.19315464998E+01 -0.46249274064E+03  0.15655479375E+04  0.16324348718E+04  0.25500000920E-02 0.  1.
       -2    1    3    3    0  502  0.19315464998E+01  0.46249274064E+03 -0.38707137640E+03  0.60309826434E+03  0.25500000920E-02 0. -1.
</event>
<event>
 5   0  0.3211263E-06  0.1900323E+04  0.7818609E-02  0.8654695E-01
        1   -1    0    0  501    0  0.00000000000E+00  0.00000000000E+00  0.79377045840E+03  0.79377045842E+03  0.50400001928E-02 0. -1.
       -1   -1    0    0    0  501  0.00000000000E+00  0.00000000000E+00 -0.11373657580E+04  0.11373657581E+04  0.50400001928E-02 0.  1.
    10030    2    1    2    0    0  0.00000000000E+00  0.00000000000E+00 -0.34359529964E+03  0.19311362165E+04  0.19003234874E+04 0.  0.
        5    1    3    3  502    0  0.53578114187E+03 -0.21816217620E+03  0.59416727544E+03  0.82928463648E+03  0.46999998093E+01 0. -1.
       -5    1    3    3    0  502 -0.53578114187E+03  0.21816217620E+03 -0.93776257508E+03  0.11018515800E+04  0.46999998093E+01 0.  1.
</event>
<event>
 5   0  0.6870370E-06  0.1899902E+04  0.7818609E-02  0.8654905E-01
       -2   -1    0    0    0  501  0.00000000000E+00  0.00000000000E+00  0.59442091244E+03  0.59442091244E+03  0.25500000920E-02 0.  1.
        2   -1    0    0  501    0  0.00000000000E+00  0.00000000000E+00 -0.15181276599E+04  0.15181276599E+04  0.25500000920E-02 0. -1.
    10030    2    1    2    0    0  0.00000000000E+00  0.00000000000E+00 -0.92370674744E+03  0.21125485723E+04  0.18999019225E+04 0.  0.
        1    1    3    3  502    0 -0.51058198869E+03 -0.42823498045E+03  0.29091879871E+03  0.72712647670E+03  0.50400001928E-02 0. -1.
       -1    1    3    3    0  502  0.51058198869E+03  0.42823498045E+03 -0.12146255461E+04  0.13854220956E+04  0.50400001928E-02 0.  1.
</event>
<event>
 5   0  0.6862201E-06  0.1899798E+04  0.7818609E-02  0.8654957E-01
       -2   -1    0    0    0  501  0.00000000000E+00  0.00000000000E+00  0.11197616118E+04  0.11197616118E+04  0.25500000920E-02 0.  1.
        2   -1    0    0  501    0  0.00000000000E+00  0.00000000000E+00 -0.80580362731E+03  0.80580362731E+03  0.25500000920E-02 0. -1.
    10030    2    1    2    0    0  0.00000000000E+00  0.00000000000E+00  0.31395798449E+03  0.19255652391E+04  0.18997978508E+04 0.  0.
        3    1    3    3  502    0 -0.86795246875E+03  0.36777195647E+03  0.27565793381E+03  0.98213288645E+03  0.10100000352E+00 0.  1.
       -3    1    3    3    0  502  0.86795246875E+03 -0.36777195647E+03  0.38300050679E+02  0.94343235267E+03  0.10100000352E+00 0. -1.
</event>
<event>
 5   0  0.3398807E-06  0.1904777E+04  0.7818609E-02  0.8652482E-01
       -1   -1    0    0    0  501  0.00000000000E+00  0.00000000000E+00  0.51649827517E+03  0.51649827519E+03  0.50400001928E-02 0. -1.
        1   -1    0    0  501    0  0.00000000000E+00  0.00000000000E+00 -0.17561408040E+04  0.17561408040E+04  0.50400001928E-02 0.  1.
    10030    2    1    2    0    0  0.00000000000E+00  0.00000000000E+00 -0.12396425288E+04  0.22726390792E+04  0.19047768334E+04 0.  0.
        1    1    3    3  502    0 -0.13750159190E+03 -0.24634845693E+03  0.46549698280E+03  0.54431763799E+03  0.50400001928E-02 0. -1.
       -1    1    3    3    0  502  0.13750159190E+03  0.24634845693E+03 -0.17051395116E+04  0.17283214412E+04  0.50400001928E-02 0.  1.
</event>
<event>
 5   0  0.3495279E-06  0.1900371E+04  0.7818609E-02  0.8654672E-01
        1   -1    0    0  501    0  0.00000000000E+00  0.00000000000E+00  0.77625653234E+03  0.77625653236E+03  0.50400001928E-02 0. -1.
       -1   -1    0    0    0  501  0.00000000000E+00  0.00000000000E+00 -0.11630846461E+04  0.11630846461E+04  0.50400001928E-02 0.  1.
    10030    2    1    2    0    0  0.00000000000E+00  0.00000000000E+00 -0.38682811378E+03  0.19393411785E+04  0.19003705473E+04 0.  0.
        2    1    3    3  502    0  0.93098751963E+03  0.11195886457E+03 -0.35011920763E+03  0.10009275741E+04  0.25500000920E-02 0. -1.
       -2    1    3    3    0  502 -0.93098751963E+03 -0.11195886457E+03 -0.36708906147E+02  0.93841360437E+03  0.25500000920E-02 0.  1.
</event>
<event>
 5   0  0.3379108E-06  0.1899592E+04  0.7818609E-02  0.8655060E-01
        1   -1    0    0  501    0  0.00000000000E+00  0.00000000000E+00  0.93189775519E+03  0.93189775521E+03  0.50400001928E-02 0. -1.
       -1   -1    0    0    0  501  0.00000000000E+00  0.00000000000E+00 -0.96803775812E+03  0.96803775813E+03  0.50400001928E-02 0.  1.
    10030    2    1    2    0    0  0.00000000000E+00  0.00000000000E+00 -0.36140002926E+02  0.18999355133E+04  0.18995917601E+04 0.  0.
        4    1    3    3  502    0  0.80010647924E+03 -0.11338661031E+03  0.48110317159E+03  0.94047263444E+03  0.12699999809E+01 0. -1.
       -4    1    3    3    0  502 -0.80010647924E+03  0.11338661031E+03 -0.51724317451E+03  0.95946287890E+03  0.12699999809E+01 0.  1.
</event>
<event>
 5   0  0.3236653E-06  0.1899300E+04  0.7818609E-02  0.8655205E-01
        1   -1    0    0  501    0  0.00000000000E+00  0.00000000000E+00  0.12703856460E+04  0.12703856460E+04  0.50400001928E-02 0.  1.
       -1   -1    0    0    0  501  0.00000000000E+00  0.00000000000E+00 -0.70989077735E+03  0.70989077737E+03  0.50400001928E-02 0. -1.
    10030    2    1    2    0    0  0.00000000000E+00  0.00000000000E+00  0.56049486863E+03  0.19802764234E+04  0.18992999276E+04 0.  0.
        3    1    3    3  502    0  0.62861811625E+03 -0.57804250491E+03 -0.15284304289E+03  0.86755684513E+03  0.10100000352E+00 0. -1.
       -3    1    3    3    0  502 -0.62861811625E+03  0.57804250491E+03  0.71333791152E+03  0.11127195782E+04  0.10100000352E+00 0.  1.
</event>
<event>
 5   0  0.2527750E-06  0.1899500E+04  0.7818609E-02  0.8655105E-01
        3   -1    0    0  501    0  0.00000000000E+00  0.00000000000E+00  0.10338290683E+04  0.10338290732E+04  0.10100000352E+00 0. -1.
       -3   -1    0    0    0  501  0.00000000000E+00  0.00000000000E+00 -0.87250908042E+03  0.87250908627E+03  0.10100000352E+00 0.  1.
    10030    2    1    2    0    0  0.00000000000E+00  0.00000000000E+00  0.16131998784E+03  0.19063381595E+04  0.18995002079E+04 0.  0.
        4    1    3    3  502    0 -0.73505370559E+01  0.50483932413E+02 -0.87113212625E+03  0.87262560822E+03  0.12699999809E+01 0.  1.
       -4    1    3    3    0  502  0.73505370559E+01 -0.50483932413E+02  0.10324521141E+04  0.10337125513E+04  0.12699999809E+01 0. -1.
</event>
<event>
 5   0  0.3398807E-06  0.1899416E+04  0.7818609E-02  0.8655147E-01
        1   -1    0    0  501    0  0.00000000000E+00  0.00000000000E+00  0.63750737624E+03  0.63750737626E+03  0.50400001928E-02 0. -1.
       -1   -1    0    0    0  501  0.00000000000E+00  0.00000000000E+00 -0.14147995493E+04  0.14147995493E+04  0.50400001928E-02 0.  1.
    10030    2    1    2    0    0  0.00000000000E+00  0.00000000000E+00 -0.77729217305E+03  0.20523069256E+04  0.18994158561E+04 0.  0.
        1    1    3    3  502    0  0.94680447171E+03  0.69548519825E+02 -0.36068980023E+03  0.10155652792E+04  0.50400001928E-02 0. -1.
       -1    1    3    3    0  502 -0.94680447171E+03 -0.69548519825E+02 -0.41660237281E+03  0.10367416464E+04  0.50400001928E-02 0.  1.
</event>
<event>
 5   0  0.7207648E-06  0.1900236E+04  0.7818609E-02  0.8654739E-01
        2   -1    0    0  501    0  0.00000000000E+00  0.00000000000E+00  0.11156810499E+04  0.11156810499E+04  0.25500000920E-02 0.  1.
       -2   -1    0    0    0  501  0.00000000000E+00  0.00000000000E+00 -0.80912372869E+03  0.80912372870E+03  0.25500000920E-02 0. -1.
    10030    2    1    2    0    0  0.00000000000E+00  0.00000000000E+00  0.30655732122E+03  0.19248047786E+04  0.19002357866E+04 0.  0.
        4    1    3    3  502    0  0.89641731918E+03 -0.31057671635E+03  0.20591680765E+03  0.97078589372E+03  0.12699999809E+01 0.  1.
       -4    1    3    3    0  502 -0.89641731918E+03  0.31057671635E+03  0.10064051357E+03  0.95401888490E+03  0.12699999809E+01 0. -1.
</event>
<event>
 5   0  0.7207648E-06  0.1901014E+04  0.7818609E-02  0.8654352E-01
       -2   -1    0    0    0  501  0.00000000000E+00  0.00000000000E+00  0.45925228222E+03  0.45925228222E+03  0.25500000920E-02 0. -1.
        2   -1    0    0  501    0  0.00000000000E+00  0.00000000000E+00 -0.19672488006E+04  0.19672488006E+04  0.25500000920E-02 0.  1.
    10030    2    1    2    0    0  0.00000000000E+00  0.00000000000E+00 -0.15079965184E+04  0.24265010829E+04  0.19010139414E+04 0.  0.
        4    1    3    3  502    0 -0.77371664340E+03  0.19022207303E+03 -0.92421054479E+02  0.80210045852E+03  0.12699999809E+01 0. -1.
       -4    1    3    3    0  502  0.77371664340E+03 -0.19022207303E+03 -0.14155754639E+04  0.16244006243E+04  0.12699999809E+01 0.  1.
</event>
<event>
 5   0  0.3398807E-06  0.1900188E+04  0.7818609E-02  0.8654763E-01
       -1   -1    0    0    0  501  0.00000000000E+00  0.00000000000E+00  0.43621043192E+03  0.43621043195E+03  0.50400001928E-02 0.  1.
        1   -1    0    0  501    0  0.00000000000E+00  0.00000000000E+00 -0.20693643944E+04  0.20693643944E+04  0.50400001928E-02 0. -1.
    10030    2    1    2    0    0  0.00000000000E+00  0.00000000000E+00 -0.16331539625E+04  0.25055748264E+04  0.19001877132E+04 0.  0.
        1    1    3    3  502    0  0.76226699802E+03  0.43737539882E+03 -0.12926058266E+04  0.15630668696E+04  0.50400001928E-02 0. -1.
       -1    1    3    3    0  502 -0.76226699802E+03 -0.43737539882E+03 -0.34054813591E+03  0.94250795681E+03  0.50400001928E-02 0.  1.
</event>
<event>
 5   0  0.3379108E-06  0.1900267E+04  0.7818609E-02  0.8654723E-01
       -1   -1    0    0    0  501  0.00000000000E+00  0.00000000000E+00  0.69355152332E+03  0.69355152334E+03  0.50400001928E-02 0.  1.
        1   -1    0    0  501    0  0.00000000000E+00  0.00000000000E+00 -0.13016396028E+04  0.13016396028E+04  0.50400001928E-02 0. -1.
    10030    2    1    2    0    0  0.00000000000E+00  0.00000000000E+00 -0.60808807951E+03  0.19951911262E+04  0.19002674858E+04 0.  0.
        4    1    3    3  502    0  0.26674208272E+03  0.55876414900E+03  0.45263894512E+03  0.76697610161E+03  0.12699999809E+01 0.  1.
       -4    1    3    3    0  502 -0.26674208272E+03 -0.55876414900E+03 -0.10607270246E+04  0.12282150246E+04  0.12699999809E+01 0. -1.
</event>
<event>
 5   0  0.7207648E-06  0.1896651E+04  0.7818609E-02  0.8656525E-01
        2   -1    0    0  501    0  0.00000000000E+00  0.00000000000E+00  0.11317302852E+04  0.11317302852E+04  0.25500000920E-02 0.  1.
       -2   -1    0    0    0  501  0.00000000000E+00  0.00000000000E+00 -0.79464292165E+03  0.79464292165E+03  0.25500000920E-02 0. -1.
    10030    2    1    2    0    0  0.00000000000E+00  0.00000000000E+00  0.33708736354E+03  0.19263732068E+04  0.18966512176E+04 0.  0.
        4    1    3    3  502    0 -0.67279148065E+03 -0.33988003864E+03  0.75302054191E+03  0.10654615744E+04  0.12699999809E+01 0.  1.
       -4    1    3    3    0  502  0.67279148065E+03  0.33988003864E+03 -0.41593317837E+03  0.86091163244E+03  0.12699999809E+01 0. -1.
</event>
<event>
 5   0  0.7207648E-06  0.1901989E+04  0.7818609E-02  0.8653867E-01
       -2   -1    0    0    0  501  0.00000000000E+00  0.00000000000E+00  0.58697738641E+03  0.58697738642E+03  0.25500000920E-02 0.  1.
        2   -1    0    0  501    0  0.00000000000E+00  0.00000000000E+00 -0.15407583796E+04  0.15407583796E+04  0.25500000920E-02 0. -1.
    10030    2    1    2    0    0  0.00000000000E+00  0.00000000000E+00 -0.95378099317E+03  0.21277357660E+04  0.19019887768E+04 0.  0.
        4    1    3    3  502    0 -0.36133296881E+03  0.86836008986E+03 -0.31956452463E+03  0.99334478320E+03  0.12699999809E+01 0.  1.
       -4    1    3    3    0  502  0.36133296881E+03 -0.86836008986E+03 -0.63421646853E+03  0.11343909828E+04  0.12699999809E+01 0. -1.
</event>
<event>
 5   0  0.7577180E-06  0.1897520E+04  0.7818609E-02  0.8656092E-01
       -2   -1    0    0    0  501  0.00000000000E+00  0.00000000000E+00  0.40916964190E+03  0.40916964191E+03  0.25500000920E-02 0. -1.
        2   -1    0    0  501    0  0.00000000000E+00  0.00000000000E+00 -0.21999322283E+04  0.21999322283E+04  0.25500000920E-02 0.  1.
    10030    2    1    2    0    0  0.00000000000E+00  0.00000000000E+00 -0.17907625864E+04  0.26091018702E+04  0.18975199415E+04 0.  0.
        5    1    3    3  502    0 -0.65228292536E+03 -0.68399263864E+03 -0.78195829428E+03  0.12267028199E+04  0.46999998093E+01 0.  1.
       -5    1    3    3    0  502  0.65228292536E+03  0.68399263864E+03 -0.10088042921E+04  0.13823990503E+04  0.46999998093E+01 0. -1.
</event>
<event>
 5   0  0.6870370E-06  0.1903235E+04  0.7818609E-02  0.8653248E-01
       -2   -1    0    0    0  501  0.00000000000E+00  0.00000000000E+00  0.67969432533E+03  0.67969432534E+03  0.25500000920E-02 0. -1.
        2   -1    0    0  501    0  0.00000000000E+00  0.00000000000E+00 -0.13323277806E+04  0.13323277806E+04  0.25500000920E-02 0.  1.
    10030    2    1    2    0    0  0.00000000000E+00  0.00000000000E+00 -0.65263345523E+03  0.20120221059E+04  0.19032347537E+04 0.  0.
        1    1    3    3  502    0 -0.15782235190E+03 -0.82712143936E+03 -0.79498278550E+03  0.11580308284E+04  0.50400001928E-02 0. -1.
       -1    1    3    3    0  502  0.15782235190E+03  0.82712143936E+03  0.14234933027E+03  0.85399127751E+03  0.50400001928E-02 0.  1.
</event>
<event>
 5   0  0.3211263E-06  0.1898542E+04  0.7818609E-02  0.8655582E-01
       -1   -1    0    0    0  501  0.00000000000E+00  0.00000000000E+00  0.12069966732E+04  0.12069966732E+04  0.50400001928E-02 0.  1.
        1   -1    0    0  501    0  0.00000000000E+00  0.00000000000E+00 -0.74657657119E+03  0.74657657121E+03  0.50400001928E-02 0. -1.
    10030    2    1    2    0    0  0.00000000000E+00  0.00000000000E+00  0.46042010204E+03  0.19535732445E+04  0.18985420067E+04 0.  0.
        5    1    3    3  502    0 -0.85060828349E+03 -0.89710644425E+02 -0.19344100947E+03  0.87694011529E+03  0.46999998093E+01 0. -1.
       -5    1    3    3    0  502  0.85060828349E+03  0.89710644425E+02  0.65386111152E+03  0.10766331292E+04  0.46999998093E+01 0.  1.
</event>
<event>
 5   0  0.7577180E-06  0.1900301E+04  0.7818609E-02  0.8654707E-01
        2   -1    0    0  501    0  0.00000000000E+00  0.00000000000E+00  0.11141019470E+04  0.11141019470E+04  0.25500000920E-02 0.  1.
       -2   -1    0    0    0  501  0.00000000000E+00  0.00000000000E+00 -0.81032604550E+03  0.81032604550E+03  0.25500000920E-02 0. -1.
    10030    2    1    2    0    0  0.00000000000E+00  0.00000000000E+00  0.30377590153E+03  0.19244279925E+04  0.19003008446E+04 0.  0.
        5    1    3    3  502    0  0.23838929263E+03 -0.15294027330E+03  0.10703447964E+04  0.11071947684E+04  0.46999998093E+01 0.  1.
       -5    1    3    3    0  502 -0.23838929263E+03  0.15294027330E+03 -0.76656889486E+03  0.81723322412E+03  0.46999998093E+01 0. -1.
</event>
<event>
 5   0  0.3495279E-06  0.1899832E+04  0.7818609E-02  0.8654940E-01
       -1   -1    0    0    0  501  0.00000000000E+00  0.00000000000E+00  0.84169337418E+03  0.84169337420E+03  0.50400001928E-02 0. -1.
        1   -1    0    0  501    0  0.00000000000E+00  0.00000000000E+00 -0.10720531923E+04  0.10720531923E+04  0.50400001928E-02 0.  1.
    10030    2    1    2    0    0  0.00000000000E+00  0.00000000000E+00 -0.23035981814E+03  0.19137465665E+04  0.18998316439E+04 0.  0.
        2    1    3    3  502    0  0.92347358503E+03  0.11127184308E+03  0.78988696846E+02  0.93350099065E+03  0.25500000920E-02 0. -1.
       -2    1    3    3    0  502 -0.92347358503E+03 -0.11127184308E+03 -0.30934851499E+03  0.98024557588E+03  0.25500000920E-02 0.  1.
</event>
<event>
 5   0  0.7577180E-06  0.1902576E+04  0.7818609E-02  0.8653575E-01
        2   -1    0    0  501    0  0.00000000000E+00  0.00000000000E+00  0.21284491215E+04  0.21284491215E+04  0.25500000920E-02 0. -1.
       -2   -1    0    0    0  501  0.00000000000E+00  0.00000000000E+00 -0.42516806131E+03  0.42516806132E+03  0.25500000920E-02 0.  1.
    10030    2    1    2    0    0  0.00000000000E+00  0.00000000000E+00  0.17032810602E+04  0.25536171828E+04  0.19025757137E+04 0.  0.
        5    1    3    3  502    0  0.13930766863E+03  0.34789600190E+03  0.20251841816E+04  0.20595706625E+04  0.46999998093E+01 0. -1.
       -5    1    3    3    0  502 -0.13930766863E+03 -0.34789600190E+03 -0.32190312137E+03  0.49404652030E+03  0.46999998093E+01 0.  1.
</event>
<event>
 5   0  0.3236653E-06  0.1899959E+04  0.7818609E-02  0.8654877E-01
        1   -1    0    0  501    0  0.00000000000E+00  0.00000000000E+00  0.17311968119E+04  0.17311968119E+04  0.50400001928E-02 0. -1.
       -1   -1    0    0    0  501  0.00000000000E+00  0.00000000000E+00 -0.52129339669E+03  0.52129339672E+03  0.50400001928E-02 0.  1.
    10030    2    1    2    0    0  0.00000000000E+00  0.00000000000E+00  0.12099034152E+04  0.22524902086E+04  0.18999594379E+04 0.  0.
        3    1    3    3  502    0  0.73042182788E+03  0.54328355449E+02  0.13221767917E+04  0.15114956485E+04  0.10100000352E+00 0. -1.
       -3    1    3    3    0  502 -0.73042182788E+03 -0.54328355449E+02 -0.11227337646E+03  0.74099456011E+03  0.10100000352E+00 0.  1.
</event>
<event>
 5   0  0.3379108E-06  0.1900272E+04  0.7818609E-02  0.8654721E-01
       -1   -1    0    0    0  501  0.00000000000E+00  0.00000000000E+00  0.86666156459E+03  0.86666156461E+03  0.50400001928E-02 0.  1.
        1   -1    0    0  501    0  0.00000000000E+00  0.00000000000E+00 -0.10416507463E+04  0.10416507463E+04  0.50400001928E-02 0. -1.
    10030    2    1    2    0    0  0.00000000000E+00  0.00000000000E+00 -0.17498918170E+03  0.19083123109E+04  0.19002722600E+04 0.  0.
        4    1    3    3  502    0  0.92681767699E+01 -0.48159511847E+03 -0.90994524638E+03  0.10295735630E+04  0.12699999809E+01 0. -1.
       -4    1    3    3    0  502 -0.92681767699E+01  0.48159511847E+03  0.73495606468E+03  0.87873874795E+03  0.12699999809E+01 0.  1.
</event>
<event>
 5   0  0.3236653E-06  0.1899744E+04  0.7818609E-02  0.8654984E-01
        1   -1    0    0  501    0  0.00000000000E+00  0.00000000000E+00  0.27098763072E+04  0.27098763073E+04  0.50400001928E-02 0. -1.
       -1   -1    0    0    0  501  0.00000000000E+00  0.00000000000E+00 -0.33295143721E+03  0.33295143725E+03  0.50400001928E-02 0.  1.
    10030    2    1    2    0    0  0.00000000000E+00  0.00000000000E+00  0.23769248700E+04  0.30428277445E+04  0.18997444157E+04 0.  0.
        3    1    3    3  502    0 -0.31838485144E+03  0.42174849566E+03 -0.75784656304E+02  0.53383895657E+03  0.10100000352E+00 0.  1.
       -3    1    3    3    0  502  0.31838485144E+03 -0.42174849566E+03  0.24527095263E+04  0.25089887879E+04  0.10100000352E+00 0. -1.
</event>
<event>
 5   0  0.3236653E-06  0.1900107E+04  0.7818609E-02  0.8654803E-01
       -1   -1    0    0    0  501  0.00000000000E+00  0.00000000000E+00  0.52139928776E+03  0.52139928778E+03  0.50400001928E-02 0.  1.
        1   -1    0    0  501    0  0.00000000000E+00  0.00000000000E+00 -0.17311133954E+04  0.17311133954E+04  0.50400001928E-02 0. -1.
    10030    2    1    2    0    0  0.00000000000E+00  0.00000000000E+00 -0.12097141076E+04  0.22525126832E+04  0.19001066195E+04 0.  0.
        3    1    3    3  502    0  0.46199511915E+03 -0.45418572968E+03  0.21891600676E+03  0.68384822540E+03  0.10100000352E+00 0.  1.
       -3    1    3    3    0  502 -0.46199511915E+03  0.45418572968E+03 -0.14286301144E+04  0.15686644578E+04  0.10100000352E+00 0. -1.
</event>
<event>
 5   0  0.6984466E-06  0.1900513E+04  0.7818609E-02  0.8654601E-01
       -2   -1    0    0    0  501  0.00000000000E+00  0.00000000000E+00  0.11672481448E+04  0.11672481448E+04  0.25500000920E-02 0.  1.
        2   -1    0    0  501    0  0.00000000000E+00  0.00000000000E+00 -0.77360356026E+03  0.77360356027E+03  0.25500000920E-02 0. -1.
    10030    2    1    2    0    0  0.00000000000E+00  0.00000000000E+00  0.39364458452E+03  0.19408517051E+04  0.19005128997E+04 0.  0.
        2    1    3    3  502    0  0.24981134373E+03 -0.55928423744E+03 -0.54508412831E+03  0.81995199411E+03  0.25500000920E-02 0. -1.
       -2    1    3    3    0  502 -0.24981134373E+03  0.55928423744E+03  0.93872871283E+03  0.11208997109E+04  0.25500000920E-02 0.  1.
</event>
<event>
 5   0  0.3211263E-06  0.1899050E+04  0.7818609E-02  0.8655329E-01
       -1   -1    0    0    0  501  0.00000000000E+00  0.00000000000E+00  0.64011169060E+03  0.64011169062E+03  0.50400001928E-02 0. -1.
        1   -1    0    0  501    0  0.00000000000E+00  0.00000000000E+00 -0.14085004754E+04  0.14085004754E+04  0.50400001928E-02 0.  1.
    10030    2    1    2    0    0  0.00000000000E+00  0.00000000000E+00 -0.76838878477E+03  0.20486121660E+04  0.18990498893E+04 0.  0.
        5    1    3    3  502    0 -0.87479285594E+02  0.67777716753E+03 -0.10953076268E+04  0.12910288151E+04  0.46999998093E+01 0.  1.
       -5    1    3    3    0  502  0.87479285594E+02 -0.67777716753E+03  0.32691884202E+03  0.75758335086E+03  0.46999998093E+01 0. -1.
</event>
<event>
 5   0  0.3495279E-06  0.1900873E+04  0.7818609E-02  0.8654422E-01
       -1   -1    0    0    0  501  0.00000000000E+00  0.00000000000E+00  0.35108511788E+03  0.35108511792E+03  0.50400001928E-02 0. -1.
        1   -1    0    0  501    0  0.00000000000E+00  0.00000000000E+00 -0.25729637755E+04  0.25729637755E+04  0.50400001928E-02 0.  1.
    10030    2    1    2    0    0  0.00000000000E+00  0.00000000000E+00 -0.22218786577E+04  0.29240488935E+04  0.19008727369E+04 0.  0.
        2    1    3    3  502    0 -0.63942300727E+01  0.29248565583E+03 -0.25019784821E+04  0.25190246267E+04  0.25500000920E-02 0.  1.
       -2    1    3    3    0  502  0.63942300727E+01 -0.29248565583E+03  0.28009982441E+03  0.40502426679E+03  0.25500000920E-02 0. -1.
</event>
<event>
 5   0  0.3236653E-06  0.1899697E+04  0.7818609E-02  0.8655007E-01
       -1   -1    0    0    0  501  0.00000000000E+00  0.00000000000E+00  0.53232319496E+03  0.53232319499E+03  0.50400001928E-02 0. -1.
        1   -1    0    0  501    0  0.00000000000E+00  0.00000000000E+00 -0.16948581347E+04  0.16948581347E+04  0.50400001928E-02 0.  1.
    10030    2    1    2    0    0  0.00000000000E+00  0.00000000000E+00 -0.11625349398E+04  0.22271813297E+04  0.18996971309E+04 0.  0.
        3    1    3    3  502    0 -0.94083535020E+03 -0.12317698026E+03 -0.53058882178E+03  0.10871376328E+04  0.10100000352E+00 0. -1.
       -3    1    3    3    0  502  0.94083535020E+03  0.12317698026E+03 -0.63194611800E+03  0.11400436969E+04  0.10100000352E+00 0.  1.
</event>
<event>
 5   0  0.6870370E-06  0.1900395E+04  0.7818609E-02  0.8654660E-01
       -2   -1    0    0    0  501  0.00000000000E+00  0.00000000000E+00  0.48692375329E+03  0.48692375330E+03  0.25500000920E-02 0.  1.
        2   -1    0    0  501    0  0.00000000000E+00  0.00000000000E+00 -0.18542431913E+04  0.18542431913E+04  0.25500000920E-02 0. -1.
    10030    2    1    2    0    0  0.00000000000E+00  0.00000000000E+00 -0.13673194380E+04  0.23411669446E+04  0.19003947529E+04 0.  0.
        1    1    3    3  502    0 -0.94275080977E+03  0.40097854007E+02 -0.82132905385E+03  0.12509869472E+04  0.50400001928E-02 0.  1.
       -1    1    3    3    0  502  0.94275080977E+03 -0.40097854007E+02 -0.54599038418E+03  0.10901799975E+04  0.50400001928E-02 0. -1.
</event>
<event>
 5   0  0.6984466E-06  0.1899840E+04  0.7818609E-02  0.8654936E-01
       -2   -1    0    0    0  501  0.00000000000E+00  0.00000000000E+00  0.72391753664E+03  0.72391753665E+03  0.25500000920E-02 0.  1.
        2   -1    0    0  501    0  0.00000000000E+00  0.00000000000E+00 -0.12464794006E+04  0.12464794006E+04  0.25500000920E-02 0. -1.
    10030    2    1    2    0    0  0.00000000000E+00  0.00000000000E+00 -0.52256186396E+03  0.19703969373E+04  0.18998403061E+04 0.  0.
        2    1    3    3  502    0 -0.59133958167E+03 -0.28831727192E+01  0.50973731138E+03  0.78071950158E+03  0.25500000920E-02 0.  1.
       -2    1    3    3    0  502  0.59133958167E+03  0.28831727192E+01 -0.10322991753E+04  0.11896774357E+04  0.25500000920E-02 0. -1.
</event>
<event>
 5   0  0.3236653E-06  0.1900960E+04  0.7818609E-02  0.8654379E-01
        1   -1    0    0  501    0  0.00000000000E+00  0.00000000000E+00  0.13925743166E+04  0.13925743166E+04  0.50400001928E-02 0.  1.
       -1   -1    0    0    0  501  0.00000000000E+00  0.00000000000E+00 -0.64873520155E+03  0.64873520157E+03  0.50400001928E-02 0. -1.
    10030    2    1    2    0    0  0.00000000000E+00  0.00000000000E+00  0.74383911508E+03  0.20413095182E+04  0.19009597366E+04 0.  0.
        3    1    3    3  502    0  0.75772088373E+03  0.81574956247E+02 -0.23800942331E+03  0.79840084351E+03  0.10100000352E+00 0. -1.
       -3    1    3    3    0  502 -0.75772088373E+03 -0.81574956247E+02  0.98184853839E+03  0.12429086747E+04  0.10100000352E+00 0.  1.
</event>
<event>
 5   0  0.6870370E-06  0.1898379E+04  0.7818609E-02  0.8655664E-01
       -2   -1    0    0    0  501  0.00000000000E+00  0.00000000000E+00  0.88704960794E+03  0.88704960794E+03  0.25500000920E-02 0.  1.
        2   -1    0    0  501    0  0.00000000000E+00  0.00000000000E+00 -0.10156827914E+04  0.10156827914E+04  0.25500000920E-02 0. -1.
    10030    2    1    2    0    0  0.00000000000E+00  0.00000000000E+00 -0.12863318343E+03  0.19027323993E+04  0.18983793318E+04 0.  0.
        1    1    3    3  502    0 -0.91647604807E+03  0.24685034376E+03 -0.54415531458E+02  0.95069684389E+03  0.50400001928E-02 0. -1.
       -1    1    3    3    0  502  0.91647604807E+03 -0.24685034376E+03 -0.74217651970E+02  0.95203555542E+03  0.50400001928E-02 0.  1.
</event>
<event>
 5   0  0.3398807E-06  0.1899960E+04  0.7818609E-02  0.8654876E-01
        1   -1    0    0  501    0  0.00000000000E+00  0.00000000000E+00  0.10247135543E+04  0.10247135543E+04  0.50400001928E-02 0. -1.
       -1   -1    0    0    0  501  0.00000000000E+00  0.00000000000E+00 -0.88069675960E+03  0.88069675962E+03  0.50400001928E-02 0.  1.
    10030    2    1    2    0    0  0.00000000000E+00  0.00000000000E+00  0.14401679469E+03  0.19054103139E+04  0.18999599015E+04 0.  0.
        1    1    3    3  502    0  0.21570118445E+03  0.75507095395E+03 -0.46413046181E+03  0.91218212660E+03  0.50400001928E-02 0.  1.
       -1    1    3    3    0  502 -0.21570118445E+03 -0.75507095395E+03  0.60814725650E+03  0.99322818732E+03  0.50400001928E-02 0. -1.
</event>
<event>
 5   0  0.3236653E-06  0.1908534E+04  0.7818609E-02  0.8650620E-01
        1   -1    0    0  501    0  0.00000000000E+00  0.00000000000E+00  0.11375549243E+04  0.11375549243E+04  0.50400001928E-02 0.  1.
       -1   -1    0    0    0  501  0.00000000000E+00  0.00000000000E+00 -0.80051147209E+03  0.80051147210E+03  0.50400001928E-02 0. -1.
    10030    2    1    2    0    0  0.00000000000E+00  0.00000000000E+00  0.33704345218E+03  0.19380663964E+04  0.19085342722E+04 0.  0.
        3    1    3    3  502    0 -0.21168723311E+03 -0.13364969370E+03 -0.76657025107E+03  0.80641409047E+03  0.10100000352E+00 0. -1.
       -3    1    3    3    0  502  0.21168723311E+03  0.13364969370E+03  0.11036137032E+04  0.11316523059E+04  0.10100000352E+00 0.  1.
</event>
<event>
 5   0  0.7207648E-06  0.1901458E+04  0.7818609E-02  0.8654131E-01
        2   -1    0    0  501    0  0.00000000000E+00  0.00000000000E+00  0.17940988552E+04  0.17940988552E+04  0.25500000920E-02 0.  1.
       -2   -1    0    0    0  501  0.00000000000E+00  0.00000000000E+00 -0.50381042267E+03  0.50381042268E+03  0.25500000920E-02 0. -1.
    10030    2    1    2    0    0  0.00000000000E+00  0.00000000000E+00  0.12902884325E+04  0.22979092779E+04  0.19014580748E+04 0.  0.
        4    1    3    3  502    0  0.80881345232E+03  0.25414654881E+03  0.11650998051E+04  0.14409125018E+04  0.12699999809E+01 0.  1.
       -4    1    3    3    0  502 -0.80881345232E+03 -0.25414654881E+03  0.12518862739E+03  0.85699677610E+03  0.12699999809E+01 0. -1.
</event>
<event>
 5   0  0.2527750E-06  0.1900104E+04  0.7818609E-02  0.8654804E-01
       -4   -1    0    0    0  501  0.00000000000E+00  0.00000000000E+00  0.91851669292E+03  0.91851757091E+03  0.12699999809E+01 0. -1.
        4   -1    0    0  501    0  0.00000000000E+00  0.00000000000E+00 -0.98266860261E+03  0.98266942328E+03  0.12699999809E+01 0.  1.
    10030    2    1    2    0    0  0.00000000000E+00  0.00000000000E+00 -0.64151909694E+02  0.19011869942E+04  0.19001043443E+04 0.  0.
        1    1    3    3  502    0 -0.71222412364E+03  0.48507418340E+03  0.36820068884E+03  0.93708692926E+03  0.50400001928E-02 0. -1.
       -1    1    3    3    0  502  0.71222412364E+03 -0.48507418340E+03 -0.43235259854E+03  0.96410006493E+03  0.50400001928E-02 0.  1.
</event>
<event>
 5   0  0.2527750E-06  0.1900431E+04  0.7818609E-02  0.8654642E-01
       -3   -1    0    0    0  501  0.00000000000E+00  0.00000000000E+00  0.14911909142E+04  0.14911909176E+04  0.10100000352E+00 0.  1.
        3   -1    0    0  501    0  0.00000000000E+00  0.00000000000E+00 -0.60549556288E+03  0.60549557131E+03  0.10100000352E+00 0. -1.
    10030    2    1    2    0    0  0.00000000000E+00  0.00000000000E+00  0.88569535128E+03  0.20966864889E+04  0.19004309978E+04 0.  0.
        3    1    3    3  502    0  0.61001547611E+03 -0.62410514394E+03  0.85754087892E+03  0.12235205274E+04  0.10100000352E+00 0.  1.
       -3    1    3    3    0  502 -0.61001547611E+03  0.62410514394E+03  0.28154472361E+02  0.87316596148E+03  0.10100000352E+00 0. -1.
</event>
<event>
 5   0  0.6870370E-06  0.1901393E+04  0.7818609E-02  0.8654163E-01
        2   -1    0    0  501    0  0.00000000000E+00  0.00000000000E+00  0.88173499401E+03  0.88173499401E+03  0.25500000920E-02 0.  1.
       -2   -1    0    0    0  501  0.00000000000E+00  0.00000000000E+00 -0.10250515745E+04  0.10250515745E+04  0.25500000920E-02 0. -1.
    10030    2    1    2    0    0  0.00000000000E+00  0.00000000000E+00 -0.14331658053E+03  0.19067865685E+04  0.19013930093E+04 0.  0.
        1    1    3    3  502    0  0.21118846724E+03  0.91814593937E+03  0.56105258746E+02  0.94379040828E+03  0.50400001928E-02 0. -1.
       -1    1    3    3    0  502 -0.21118846724E+03 -0.91814593937E+03 -0.19942183927E+03  0.96299616026E+03  0.50400001928E-02 0.  1.
</event>
<event>
 5   0  0.7577180E-06  0.1898742E+04  0.7818609E-02  0.8655483E-01
       -2   -1    0    0    0  501  0.00000000000E+00  0.00000000000E+00  0.77473662770E+03  0.77473662770E+03  0.25500000920E-02 0.  1.
        2   -1    0    0  501    0  0.00000000000E+00  0.00000000000E+00 -0.11633703299E+04  0.11633703299E+04  0.25500000920E-02 0. -1.
    10030    2    1    2    0    0  0.00000000000E+00  0.00000000000E+00 -0.38863370224E+03  0.19381069576E+04  0.18987423271E+04 0.  0.
        5    1    3    3  502    0  0.76422911345E+03  0.39061463002E+03 -0.60850968905E+03  0.10521083873E+04  0.46999998093E+01 0. -1.
       -5    1    3    3    0  502 -0.76422911345E+03 -0.39061463002E+03  0.21987598681E+03  0.88599857031E+03  0.46999998093E+01 0.  1.
</event>
<event>
 5   0  0.7207648E-06  0.1899569E+04  0.7818609E-02  0.8655071E-01
        2   -1    0    0  501    0  0.00000000000E+00  0.00000000000E+00  0.10357290029E+04  0.10357290029E+04  0.25500000920E-02 0. -1.
       -2   -1    0    0    0  501  0.00000000000E+00  0.00000000000E+00 -0.87097121093E+03  0.87097121094E+03  0.25500000920E-02 0.  1.
    10030    2    1    2    0    0  0.00000000000E+00  0.00000000000E+00  0.16475779192E+03  0.19067002138E+04  0.18995685235E+04 0.  0.
        4    1    3    3  502    0 -0.63651275738E+03  0.70406907444E+03  0.11753579997E+03  0.95638801177E+03  0.12699999809E+01 0.  1.
       -4    1    3    3    0  502  0.63651275738E+03 -0.70406907444E+03  0.47221991950E+02  0.95031220202E+03  0.12699999809E+01 0. -1.
</event>
<event>
 5   0  0.3236653E-06  0.1903182E+04  0.7818609E-02  0.8653274E-01
        1   -1    0    0  501    0  0.00000000000E+00  0.00000000000E+00  0.90999803493E+03  0.90999803494E+03  0.50400001928E-02 0. -1.
       -1   -1    0    0    0  501  0.00000000000E+00  0.00000000000E+00 -0.99508480842E+03  0.99508480843E+03  0.50400001928E-02 0.  1.
    10030    2    1    2    0    0  0.00000000000E+00  0.00000000000E+00 -0.85086773488E+02  0.19050828434E+04  0.19031817783E+04 0.  0.
        3    1    3    3  502    0 -0.62311145962E+03  0.59910035087E+03 -0.44085553383E+03  0.97033124933E+03  0.10100000352E+00 0.  1.
       -3    1    3    3    0  502  0.62311145962E+03 -0.59910035087E+03  0.35576876034E+03  0.93475159404E+03  0.10100000352E+00 0. -1.
</event>
<event>
 5   0  0.3236653E-06  0.1899833E+04  0.7818609E-02  0.8654939E-01
        1   -1    0    0  501    0  0.00000000000E+00  0.00000000000E+00  0.11453839423E+04  0.11453839423E+04  0.50400001928E-02 0.  1.
       -1   -1    0    0    0  501  0.00000000000E+00  0.00000000000E+00 -0.78780694303E+03  0.78780694305E+03  0.50400001928E-02 0. -1.
    10030    2    1    2    0    0  0.00000000000E+00  0.00000000000E+00  0.35757699923E+03  0.19331908853E+04  0.18998330686E+04 0.  0.
        3    1    3    3  502    0 -0.22151474805E+03 -0.87170049667E+03  0.48978679620E+03  0.10241199419E+04  0.10100000352E+00 0.  1.
       -3    1    3    3    0  502  0.22151474805E+03  0.87170049667E+03 -0.13220979698E+03  0.90907094339E+03  0.10100000352E+00 0. -1.
</event>
<event>
 5   0  0.6862201E-06  0.1900077E+04  0.7818609E-02  0.8654818E-01
       -2   -1    0    0    0  501  0.00000000000E+00  0.00000000000E+00  0.13526761568E+04  0.13526761568E+04  0.25500000920E-02 0. -1.
        2   -1    0    0  501    0  0.00000000000E+00  0.00000000000E+00 -0.66724972774E+03  0.66724972775E+03  0.25500000920E-02 0.  1.
    10030    2    1    2    0    0  0.00000000000E+00  0.00000000000E+00  0.68542642903E+03  0.20199258845E+04  0.19000766272E+04 0.  0.
        3    1    3    3  502    0 -0.80164743383E+03 -0.18023993714E+03  0.84970991805E+03  0.11820033833E+04  0.10100000352E+00 0. -1.
       -3    1    3    3    0  502  0.80164743383E+03  0.18023993714E+03 -0.16428348901E+03  0.83792250123E+03  0.10100000352E+00 0.  1.
</event>
<event>
 5   0  0.7207648E-06  0.1900171E+04  0.7818609E-02  0.8654771E-01
       -2   -1    0    0    0  501  0.00000000000E+00  0.00000000000E+00  0.99074871856E+03  0.99074871856E+03  0.25500000920E-02 0.  1.
        2   -1    0    0  501    0  0.00000000000E+00  0.00000000000E+00 -0.91109087422E+03  0.91109087422E+03  0.25500000920E-02 0. -1.
    10030    2    1    2    0    0  0.00000000000E+00  0.00000000000E+00  0.79657844344E+02  0.19018395928E+04  0.19001706409E+04 0.  0.
        4    1    3    3  502    0 -0.47641219021E+03  0.11349974206E+02 -0.78281945011E+03  0.91646347514E+03  0.12699999809E+01 0. -1.
       -4    1    3    3    0  502  0.47641219021E+03 -0.11349974206E+02  0.86247729445E+03  0.98537611765E+03  0.12699999809E+01 0.  1.
</event>
<event>
 5   0  0.3495279E-06  0.1901688E+04  0.7818609E-02  0.8654017E-01
        1   -1    0    0  501    0  0.00000000000E+00  0.00000000000E+00  0.61448638652E+03  0.61448638654E+03  0.50400001928E-02 0. -1.
       -1   -1    0    0    0  501  0.00000000000E+00  0.00000000000E+00 -0.14713165968E+04  0.14713165968E+04  0.50400001928E-02 0.  1.
    10030    2    1    2    0    0  0.00000000000E+00  0.00000000000E+00 -0.85683021024E+03  0.20858029833E+04  0.19016876915E+04 0.  0.
        2    1    3    3  502    0 -0.18585403239E+03  0.93166455289E+03 -0.47178389161E+03  0.10607170220E+04  0.25500000920E-02 0. -1.
       -2    1    3    3    0  502  0.18585403239E+03 -0.93166455289E+03 -0.38504631863E+03  0.10250859613E+04  0.25500000920E-02 0.  1.
</event>
<event>
 5   0  0.3398807E-06  0.1900739E+04  0.7818609E-02  0.8654489E-01
       -1   -1    0    0    0  501  0.00000000000E+00  0.00000000000E+00  0.10084358140E+04  0.10084358140E+04  0.50400001928E-02 0.  1.
        1   -1    0    0  501    0  0.00000000000E+00  0.00000000000E+00 -0.89564636310E+03  0.89564636312E+03  0.50400001928E-02 0. -1.
    10030    2    1    2    0    0  0.00000000000E+00  0.00000000000E+00  0.11278945090E+03  0.19040821771E+04  0.19007386662E+04 0.  0.
        1    1    3    3  502    0 -0.53544445501E+03 -0.29858039358E+03  0.78386140333E+03  0.99513301397E+03  0.50400001928E-02 0.  1.
       -1    1    3    3    0  502  0.53544445501E+03  0.29858039358E+03 -0.67107195244E+03  0.90894916316E+03  0.50400001928E-02 0. -1.
</event>
<event>
 5   0  0.3495279E-06  0.1899901E+04  0.7818609E-02  0.8654906E-01
        1   -1    0    0  501    0  0.00000000000E+00  0.00000000000E+00  0.14529642756E+04  0.14529642756E+04  0.50400001928E-02 0.  1.
       -1   -1    0    0    0  501  0.00000000000E+00  0.00000000000E+00 -0.62107912903E+03  0.62107912905E+03  0.50400001928E-02 0. -1.
    10030    2    1    2    0    0  0.00000000000E+00  0.00000000000E+00  0.83188514655E+03  0.20740434046E+04  0.18999008256E+04 0.  0.
        2    1    3    3  502    0 -0.67407356900E+03  0.31708018187E+03  0.10594573817E+04  0.12951312527E+04  0.25500000920E-02 0.  1.
       -2    1    3    3    0  502  0.67407356900E+03 -0.31708018187E+03 -0.22757223515E+03  0.77891215190E+03  0.25500000920E-02 0. -1.
</event>
<event>
 5   0  0.7207648E-06  0.1900071E+04  0.7818609E-02  0.8654821E-01
       -2   -1    0    0    0  501  0.00000000000E+00  0.00000000000E+00  0.60987405448E+03  0.60987405448E+03  0.25500000920E-02 0.  1.
        2   -1    0    0  501    0  0.00000000000E+00  0.00000000000E+00 -0.14799241180E+04  0.14799241180E+04  0.25500000920E-02 0. -1.
    10030    2    1    2    0    0  0.00000000000E+00  0.00000000000E+00 -0.87005006351E+03  0.20897981725E+04  0.19000708641E+04 0.  0.
        4    1    3    3  502    0  0.23515907463E+03  0.84219360751E+01 -0.14473646559E+04  0.14663685687E+04  0.12699999809E+01 0. -1.
       -4    1    3    3    0  502 -0.23515907463E+03 -0.84219360751E+01  0.57731459235E+03  0.62342960375E+03  0.12699999809E+01 0.  1.
</event>
<event>
 5   0  0.7207648E-06  0.1900343E+04  0.7818609E-02  0.8654686E-01
       -2   -1    0    0    0  501  0.00000000000E+00  0.00000000000E+00  0.44652922451E+03  0.44652922452E+03  0.25500000920E-02 0. -1.
        2   -1    0    0  501    0  0.00000000000E+00  0.00000000000E+00 -0.20218745928E+04  0.20218745928E+04  0.25500000920E-02 0.  1.
    10030    2    1    2    0    0  0.00000000000E+00  0.00000000000E+00 -0.15753453683E+04  0.24684038173E+04  0.19003432258E+04 0.  0.
        4    1    3    3  502    0 -0.83226449582E+03  0.44829309802E+03 -0.66312757168E+03  0.11547167107E+04  0.12699999809E+01 0. -1.
       -4    1    3    3    0  502  0.83226449582E+03 -0.44829309802E+03 -0.91221779658E+03  0.13136871066E+04  0.12699999809E+01 0.  1.
</event>
<event>
 5   0  0.7577180E-06  0.1898689E+04  0.7818609E-02  0.8655509E-01
        2   -1    0    0  501    0  0.00000000000E+00  0.00000000000E+00  0.12417137950E+04  0.12417137950E+04  0.25500000920E-02 0.  1.
       -2   -1    0    0    0  501  0.00000000000E+00  0.00000000000E+00 -0.72581516489E+03  0.72581516489E+03  0.25500000920E-02 0. -1.
    10030    2    1    2    0    0  0.00000000000E+00  0.00000000000E+00  0.51589863007E+03  0.19675289599E+04  0.18986887084E+04 0.  0.
        5    1    3    3  502    0 -0.84684243437E+03  0.13968638922E+03  0.67834044309E+03  0.10939937124E+04  0.46999998093E+01 0.  1.
       -5    1    3    3    0  502  0.84684243437E+03 -0.13968638922E+03 -0.16244181301E+03  0.87353524748E+03  0.46999998093E+01 0. -1.
</event>
<event>
 5   0  0.3236653E-06  0.1901270E+04  0.7818609E-02  0.8654225E-01
        1   -1    0    0  501    0  0.00000000000E+00  0.00000000000E+00  0.16888216930E+04  0.16888216930E+04  0.50400001928E-02 0.  1.
       -1   -1    0    0    0  501  0.00000000000E+00  0.00000000000E+00 -0.53511084765E+03  0.53511084768E+03  0.50400001928E-02 0. -1.
    10030    2    1    2    0    0  0.00000000000E+00  0.00000000000E+00  0.11537108454E+04  0.22239325407E+04  0.19012698995E+04 0.  0.
        3    1    3    3  502    0  0.37175969175E+03  0.24900068992E+03 -0.40423705317E+03  0.60300432615E+03  0.10100000352E+00 0. -1.
       -3    1    3    3    0  502 -0.37175969175E+03 -0.24900068992E+03  0.15579478985E+04  0.16209282145E+04  0.10100000352E+00 0.  1.
</event>
<event>
 5   0  0.3495279E-06  0.1900561E+04  0.7818609E-02  0.8654577E-01
        1   -1    0    0  501    0  0.00000000000E+00  0.00000000000E+00  0.53890344427E+03  0.53890344429E+03  0.50400001928E-02 0. -1.
       -1   -1    0    0    0  501  0.00000000000E+00  0.00000000000E+00 -0.16756863654E+04  0.16756863654E+04  0.50400001928E-02 0.  1.
    10030    2    1    2    0    0  0.00000000000E+00  0.00000000000E+00 -0.11367829211E+04  0.22145898097E+04  0.19005611317E+04 0.  0.
        2    1    3    3  502    0  0.53532385023E+03  0.30565912015E+03  0.27431520216E+03  0.67472064775E+03  0.25500000920E-02 0. -1.
       -2    1    3    3    0  502 -0.53532385023E+03 -0.30565912015E+03 -0.14110981233E+04  0.15398691619E+04  0.25500000920E-02 0.  1.
</event>
<event>
 5   0  0.6870370E-06  0.1899864E+04  0.7818609E-02  0.8654924E-01
        2   -1    0    0  501    0  0.00000000000E+00  0.00000000000E+00  0.82365566258E+03  0.82365566258E+03  0.25500000920E-02 0. -1.
       -2   -1    0    0    0  501  0.00000000000E+00  0.00000000000E+00 -0.10955676157E+04  0.10955676157E+04  0.25500000920E-02 0.  1.
    10030    2    1    2    0    0  0.00000000000E+00  0.00000000000E+00 -0.27191195310E+03  0.19192232783E+04  0.18998636482E+04 0.  0.
        1    1    3    3  502    0 -0.83181506787E+03  0.10703687972E+03  0.31468079647E+03  0.89576626664E+03  0.50400001928E-02 0. -1.
       -1    1    3    3    0  502  0.83181506787E+03 -0.10703687972E+03 -0.58659274957E+03  0.10234570116E+04  0.50400001928E-02 0.  1.
</event>
<event>
 5   0  0.3379108E-06  0.1897338E+04  0.7818609E-02  0.8656182E-01
       -1   -1    0    0    0  501  0.00000000000E+00  0.00000000000E+00  0.46663884909E+03  0.46663884912E+03  0.50400001928E-02 0. -1.
        1   -1    0    0  501    0  0.00000000000E+00  0.00000000000E+00 -0.19286286821E+04  0.19286286821E+04  0.50400001928E-02 0.  1.
    10030    2    1    2    0    0  0.00000000000E+00  0.00000000000E+00 -0.14619898330E+04  0.23952675313E+04  0.18973382077E+04 0.  0.
        4    1    3    3  502    0  0.42187810776E+03 -0.23534919929E+03 -0.17617186567E+04  0.18267524795E+04  0.12699999809E+01 0.  1.
       -4    1    3    3    0  502 -0.42187810776E+03  0.23534919929E+03  0.29972882362E+03  0.56851505171E+03  0.12699999809E+01 0. -1.
</event>
<event>
 5   0  0.6870370E-06  0.1898762E+04  0.7818609E-02  0.8655473E-01
        2   -1    0    0  501    0  0.00000000000E+00  0.00000000000E+00  0.13552729797E+04  0.13552729797E+04  0.25500000920E-02 0. -1.
       -2   -1    0    0    0  501  0.00000000000E+00  0.00000000000E+00 -0.66504994138E+03  0.66504994138E+03  0.25500000920E-02 0.  1.
    10030    2    1    2    0    0  0.00000000000E+00  0.00000000000E+00  0.69022303833E+03  0.20203229211E+04  0.18987619290E+04 0.  0.
        1    1    3    3  502    0  0.19689193136E+03 -0.44680631934E+03  0.12114377368E+04  0.13061331133E+04  0.50400001928E-02 0. -1.
       -1    1    3    3    0  502 -0.19689193136E+03  0.44680631934E+03 -0.52121469843E+03  0.71418980777E+03  0.50400001928E-02 0.  1.
</event>
<event>
 5   0  0.2527750E-06  0.1899049E+04  0.7818609E-02  0.8655330E-01
        3   -1    0    0  501    0  0.00000000000E+00  0.00000000000E+00  0.10963061816E+04  0.10963061862E+04  0.10100000352E+00 0. -1.
       -3   -1    0    0    0  501  0.00000000000E+00  0.00000000000E+00 -0.82239528249E+03  0.82239528869E+03  0.10100000352E+00 0.  1.
    10030    2    1    2    0    0  0.00000000000E+00  0.00000000000E+00  0.27391089909E+03  0.19187014749E+04  0.18990492804E+04 0.  0.
        1    1    3    3  502    0 -0.93179072637E+03 -0.15220920685E+03  0.34938061247E+02  0.94478689055E+03  0.50400001928E-02 0.  1.
       -1    1    3    3    0  502  0.93179072637E+03  0.15220920685E+03  0.23897283785E+03  0.97391458437E+03  0.50400001928E-02 0. -1.
</event>
<event>
 5   0  0.6984466E-06  0.1900598E+04  0.7818609E-02  0.8654559E-01
        2   -1    0    0  501    0  0.00000000000E+00  0.00000000000E+00  0.73388347860E+03  0.73388347860E+03  0.25500000920E-02 0. -1.
       -2   -1    0    0    0  501  0.00000000000E+00  0.00000000000E+00 -0.12305329183E+04  0.12305329183E+04  0.25500000920E-02 0.  1.
    10030    2    1    2    0    0  0.00000000000E+00  0.00000000000E+00 -0.49664943970E+03  0.19644163969E+04  0.19005975677E+04 0.  0.
        2    1    3    3  502    0  0.64222833754E+03 -0.66562053843E+03 -0.22919705406E+02  0.92522065024E+03  0.25500000920E-02 0. -1.
       -2    1    3    3    0  502 -0.64222833754E+03  0.66562053843E+03 -0.47372973430E+03  0.10391957467E+04  0.25500000920E-02 0.  1.
</event>
<event>
 5   0  0.3379108E-06  0.1898574E+04  0.7818609E-02  0.8655566E-01
       -1   -1    0    0    0  501  0.00000000000E+00  0.00000000000E+00  0.49058541445E+03  0.49058541447E+03  0.50400001928E-02 0. -1.
        1   -1    0    0  501    0  0.00000000000E+00  0.00000000000E+00 -0.18368794225E+04  0.18368794225E+04  0.50400001928E-02 0.  1.
    10030    2    1    2    0    0  0.00000000000E+00  0.00000000000E+00 -0.13462940080E+04  0.23274648370E+04  0.18985744682E+04 0.  0.
        4    1    3    3  502    0 -0.38598849307E+03  0.57084067735E+03 -0.14735567463E+04  0.16267197955E+04  0.12699999809E+01 0.  1.
       -4    1    3    3    0  502  0.38598849307E+03 -0.57084067735E+03  0.12726273824E+03  0.70074504146E+03  0.12699999809E+01 0. -1.
</event>
<event>
 5   0  0.7207648E-06  0.1899773E+04  0.7818609E-02  0.8654969E-01
        2   -1    0    0  501    0  0.00000000000E+00  0.00000000000E+00  0.11659223858E+04  0.11659223859E+04  0.25500000920E-02 0. -1.
       -2   -1    0    0    0  501  0.00000000000E+00  0.00000000000E+00 -0.77388026938E+03  0.77388026938E+03  0.25500000920E-02 0.  1.
    10030    2    1    2    0    0  0.00000000000E+00  0.00000000000E+00  0.39204211647E+03  0.19398026552E+04  0.18997729654E+04 0.  0.
        4    1    3    3  502    0  0.48470005389E+03  0.77454422581E+03  0.46116507867E+03  0.10234880276E+04  0.12699999809E+01 0.  1.
       -4    1    3    3    0  502 -0.48470005389E+03 -0.77454422581E+03 -0.69122962199E+02  0.91631462762E+03  0.12699999809E+01 0. -1.
</event>
<event>
 5   0  0.3236653E-06  0.1900376E+04  0.7818609E-02  0.8654669E-01
       -1   -1    0    0    0  501  0.00000000000E+00  0.00000000000E+00  0.78479687996E+03  0.78479687998E+03  0.50400001928E-02 0. -1.
        1   -1    0    0  501    0  0.00000000000E+00  0.00000000000E+00 -0.11504337650E+04  0.11504337651E+04  0.50400001928E-02 0.  1.
    10030    2    1    2    0    0  0.00000000000E+00  0.00000000000E+00 -0.36563688508E+03  0.19352306450E+04  0.19003755728E+04 0.  0.
        3    1    3    3  502    0 -0.35625600352E+03 -0.52755999933E+02  0.71260128275E+03  0.79843730746E+03  0.10100000352E+00 0. -1.
       -3    1    3    3    0  502  0.35625600352E+03  0.52755999933E+02 -0.10782381678E+04  0.11367933376E+04  0.10100000352E+00 0.  1.
</event>
<event>
 5   0  0.7577180E-06  0.1899923E+04  0.7818609E-02  0.8654895E-01
       -2   -1    0    0    0  501  0.00000000000E+00  0.00000000000E+00  0.82249082258E+03  0.82249082258E+03  0.25500000920E-02 0.  1.
        2   -1    0    0  501    0  0.00000000000E+00  0.00000000000E+00 -0.10971875585E+04  0.10971875585E+04  0.25500000920E-02 0. -1.
    10030    2    1    2    0    0  0.00000000000E+00  0.00000000000E+00 -0.27469673592E+03  0.19196783811E+04  0.18999228379E+04 0.  0.
        5    1    3    3  502    0 -0.70470633694E+03 -0.62189991147E+03 -0.27674700513E+03  0.97978646452E+03  0.46999998093E+01 0. -1.
       -5    1    3    3    0  502  0.70470633694E+03  0.62189991147E+03  0.20502692152E+01  0.93989191656E+03  0.46999998093E+01 0.  1.
</event>
<event>
 5   0  0.7577180E-06  0.1901129E+04  0.7818609E-02  0.8654294E-01
       -2   -1    0    0    0  501  0.00000000000E+00  0.00000000000E+00  0.88108436602E+03  0.88108436602E+03  0.25500000920E-02 0.  1.
        2   -1    0    0  501    0  0.00000000000E+00  0.00000000000E+00 -0.10255241005E+04  0.10255241005E+04  0.25500000920E-02 0. -1.
    10030    2    1    2    0    0  0.00000000000E+00  0.00000000000E+00 -0.14443973452E+03  0.19066084666E+04  0.19011294032E+04 0.  0.
        5    1    3    3  502    0 -0.10520155813E+03 -0.49670193649E+03 -0.87813461077E+03  0.10143582534E+04  0.46999998093E+01 0. -1.
       -5    1    3    3    0  502  0.10520155813E+03  0.49670193649E+03  0.73369487624E+03  0.89225021321E+03  0.46999998093E+01 0.  1.
</event>
<event>
 5   0  0.6870370E-06  0.1900390E+04  0.7818609E-02  0.8654662E-01
        2   -1    0    0  501    0  0.00000000000E+00  0.00000000000E+00  0.11531832121E+04  0.11531832121E+04  0.25500000920E-02 0.  1.
       -2   -1    0    0    0  501  0.00000000000E+00  0.00000000000E+00 -0.78293752787E+03  0.78293752787E+03  0.25500000920E-02 0. -1.
    10030    2    1    2    0    0  0.00000000000E+00  0.00000000000E+00  0.37024568426E+03  0.19361207400E+04  0.19003898687E+04 0.  0.
        1    1    3    3  502    0  0.33269113031E+03 -0.14482976032E+03  0.10798207904E+04  0.11391540664E+04  0.50400001928E-02 0.  1.
       -1    1    3    3    0  502 -0.33269113031E+03  0.14482976032E+03 -0.70957510609E+03  0.79696667362E+03  0.50400001928E-02 0. -1.
</event>
<event>
 5   0  0.3379108E-06  0.1899486E+04  0.7818609E-02  0.8655112E-01
       -1   -1    0    0    0  501  0.00000000000E+00  0.00000000000E+00  0.37101819353E+03  0.37101819357E+03  0.50400001928E-02 0.  1.
        1   -1    0    0  501    0  0.00000000000E+00  0.00000000000E+00 -0.24311785726E+04  0.24311785726E+04  0.50400001928E-02 0. -1.
    10030    2    1    2    0    0  0.00000000000E+00  0.00000000000E+00 -0.20601603791E+04  0.28021967662E+04  0.18994857011E+04 0.  0.
        4    1    3    3  502    0 -0.55564236652E+02 -0.71093538160E+02  0.36467935167E+03  0.37567847689E+03  0.12699999809E+01 0.  1.
       -4    1    3    3    0  502  0.55564236652E+02  0.71093538160E+02 -0.24248397307E+04  0.24265182893E+04  0.12699999809E+01 0. -1.
</event>
<event>
 5   0  0.3236653E-06  0.1903336E+04  0.7818609E-02  0.8653198E-01
        1   -1    0    0  501    0  0.00000000000E+00  0.00000000000E+00  0.18412085115E+04  0.18412085116E+04  0.50400001928E-02 0. -1.
       -1   -1    0    0    0  501  0.00000000000E+00  0.00000000000E+00 -0.49188995495E+03  0.49188995498E+03  0.50400001928E-02 0.  1.
    10030    2    1    2    0    0  0.00000000000E+00  0.00000000000E+00  0.13493185566E+04  0.23330984665E+04  0.19033359891E+04 0.  0.
        3    1    3    3  502    0 -0.63195016309E+03 -0.60559157348E+03  0.11326042929E+04  0.14313960518E+04  0.10100000352E+00 0. -1.
       -3    1    3    3    0  502  0.63195016309E+03  0.60559157348E+03  0.21671426367E+03  0.90170241476E+03  0.10100000352E+00 0.  1.
</event>
<event>
 5   0  0.3236653E-06  0.1899578E+04  0.7818609E-02  0.8655067E-01
        1   -1    0    0  501    0  0.00000000000E+00  0.00000000000E+00  0.11292004232E+04  0.11292004232E+04  0.50400001928E-02 0.  1.
       -1   -1    0    0    0  501  0.00000000000E+00  0.00000000000E+00 -0.79888291365E+03  0.79888291367E+03  0.50400001928E-02 0. -1.
    10030    2    1    2    0    0  0.00000000000E+00  0.00000000000E+00  0.33031750950E+03  0.19280833368E+04  0.18995777680E+04 0.  0.
        3    1    3    3  502    0 -0.29095618355E+03  0.66662021542E+02  0.10803542757E+04  0.11208321450E+04  0.10100000352E+00 0.  1.
       -3    1    3    3    0  502  0.29095618355E+03 -0.66662021542E+02 -0.75003676624E+03  0.80725119187E+03  0.10100000352E+00 0. -1.
</event>
<event>
 5   0  0.7207648E-06  0.1900611E+04  0.7818609E-02  0.8654552E-01
       -2   -1    0    0    0  501  0.00000000000E+00  0.00000000000E+00  0.74743396424E+03  0.74743396424E+03  0.25500000920E-02 0.  1.
        2   -1    0    0  501    0  0.00000000000E+00  0.00000000000E+00 -0.12082415108E+04  0.12082415108E+04  0.25500000920E-02 0. -1.
    10030    2    1    2    0    0  0.00000000000E+00  0.00000000000E+00 -0.46080754655E+03  0.19556754750E+04  0.19006112092E+04 0.  0.
        4    1    3    3  502    0 -0.15445818908E+03 -0.31342729298E+03  0.67893327504E+03  0.76357449212E+03  0.12699999809E+01 0.  1.
       -4    1    3    3    0  502  0.15445818908E+03  0.31342729298E+03 -0.11397408216E+04  0.11921009829E+04  0.12699999809E+01 0. -1.
</event>
<event>
 5   0  0.3211263E-06  0.1899789E+04  0.7818609E-02  0.8654961E-01
        1   -1    0    0  501    0  0.00000000000E+00  0.00000000000E+00  0.11334101554E+04  0.11334101554E+04  0.50400001928E-02 0.  1.
       -1   -1    0    0    0  501  0.00000000000E+00  0.00000000000E+00 -0.79609310419E+03  0.79609310421E+03  0.50400001928E-02 0. -1.
    10030    2    1    2    0    0  0.00000000000E+00  0.00000000000E+00  0.33731705120E+03  0.19295032596E+04  0.18997894714E+04 0.  0.
        5    1    3    3  502    0 -0.61418233810E+03  0.66676987840E+03  0.45677823723E+03  0.10151209106E+04  0.46999998093E+01 0.  1.
       -5    1    3    3    0  502  0.61418233810E+03 -0.66676987840E+03 -0.11946118603E+03  0.91438234899E+03  0.46999998093E+01 0. -1.
</event>
<event>
 5   0  0.3379108E-06  0.1900437E+04  0.7818609E-02  0.8654639E-01
        1   -1    0    0  501    0  0.00000000000E+00  0.00000000000E+00  0.12081348970E+04  0.12081348970E+04  0.50400001928E-02 0. -1.
       -1   -1    0    0    0  501  0.00000000000E+00  0.00000000000E+00 -0.74736299642E+03  0.74736299644E+03  0.50400001928E-02 0.  1.
    10030    2    1    2    0    0  0.00000000000E+00  0.00000000000E+00  0.46077190058E+03  0.19554978935E+04  0.19004371252E+04 0.  0.
        4    1    3    3  502    0  0.47723796278E+03 -0.77897846410E+03  0.49939921065E+03  0.10411362568E+04  0.12699999809E+01 0.  1.
       -4    1    3    3    0  502 -0.47723796278E+03  0.77897846410E+03 -0.38627310069E+02  0.91436163668E+03  0.12699999809E+01 0. -1.
</event>
<event>
 5   0  0.3495279E-06  0.1899582E+04  0.7818609E-02  0.8655064E-01
        1   -1    0    0  501    0  0.00000000000E+00  0.00000000000E+00  0.68089743664E+03  0.68089743666E+03  0.50400001928E-02 0.  1.
       -1   -1    0    0    0  501  0.00000000000E+00  0.00000000000E+00 -0.13248737382E+04  0.13248737382E+04  0.50400001928E-02 0. -1.
    10030    2    1    2    0    0  0.00000000000E+00  0.00000000000E+00 -0.64397630154E+03  0.20057711749E+04  0.18995821985E+04 0.  0.
        2    1    3    3  502    0  0.11709696320E+02  0.36529942233E+03  0.60367195098E+03  0.70569158231E+03  0.25500000920E-02 0.  1.
       -2    1    3    3    0  502 -0.11709696320E+02 -0.36529942233E+03 -0.12476482525E+04  0.13000795925E+04  0.25500000920E-02 0. -1.
</event>
<event>
 5   0  0.6862201E-06  0.1899860E+04  0.7818609E-02  0.8654926E-01
       -2   -1    0    0    0  501  0.00000000000E+00  0.00000000000E+00  0.13535656524E+04  0.13535656524E+04  0.25500000920E-02 0. -1.
        2   -1    0    0  501    0  0.00000000000E+00  0.00000000000E+00 -0.66665927027E+03  0.66665927028E+03  0.25500000920E-02 0.  1.
    10030    2    1    2    0    0  0.00000000000E+00  0.00000000000E+00  0.68690638217E+03  0.20202249227E+04  0.18998600897E+04 0.  0.
        3    1    3    3  502    0  0.51782134959E+03  0.77634052995E+03  0.53225032566E+03  0.10743062822E+04  0.10100000352E+00 0.  1.
       -3    1    3    3    0  502 -0.51782134959E+03 -0.77634052995E+03  0.15465605651E+03  0.94591864055E+03  0.10100000352E+00 0. -1.
</event>
<event>
 5   0  0.7207648E-06  0.1901364E+04  0.7818609E-02  0.8654178E-01
       -2   -1    0    0    0  501  0.00000000000E+00  0.00000000000E+00  0.16886123349E+04  0.16886123349E+04  0.25500000920E-02 0. -1.
        2   -1    0    0  501    0  0.00000000000E+00  0.00000000000E+00 -0.53523026868E+03  0.53523026869E+03  0.25500000920E-02 0.  1.
    10030    2    1    2    0    0  0.00000000000E+00  0.00000000000E+00  0.11533820662E+04  0.22238426035E+04  0.19013641773E+04 0.  0.
        4    1    3    3  502    0 -0.41813854150E+03 -0.53041777968E+03 -0.20581839660E+03  0.70607767715E+03  0.12699999809E+01 0.  1.
       -4    1    3    3    0  502  0.41813854150E+03  0.53041777968E+03  0.13592004628E+04  0.15177649264E+04  0.12699999809E+01 0. -1.
</event>
<event>
 5   0  0.6870370E-06  0.1902432E+04  0.7818609E-02  0.8653647E-01
       -2   -1    0    0    0  501  0.00000000000E+00  0.00000000000E+00  0.64664133113E+03  0.64664133114E+03  0.25500000920E-02 0. -1.
        2   -1    0    0  501    0  0.00000000000E+00  0.00000000000E+00 -0.13992484523E+04  0.13992484523E+04  0.25500000920E-02 0.  1.
    10030    2    1    2    0    0  0.00000000000E+00  0.00000000000E+00 -0.75260712121E+03  0.20458897835E+04  0.19024320033E+04 0.  0.
        1    1    3    3  502    0 -0.48637410865E+03 -0.16658485487E+03  0.48435956824E+03  0.70633878473E+03  0.50400001928E-02 0. -1.
       -1    1    3    3    0  502  0.48637410865E+03  0.16658485487E+03 -0.12369666894E+04  0.13395509988E+04  0.50400001928E-02 0.  1.
</event>
<event>
 5   0  0.6862201E-06  0.1899659E+04  0.7818609E-02  0.8655026E-01
       -2   -1    0    0    0  501  0.00000000000E+00  0.00000000000E+00  0.90924071946E+03  0.90924071946E+03  0.25500000920E-02 0. -1.
        2   -1    0    0  501    0  0.00000000000E+00  0.00000000000E+00 -0.99222980060E+03  0.99222980061E+03  0.25500000920E-02 0.  1.
    10030    2    1    2    0    0  0.00000000000E+00  0.00000000000E+00 -0.82989081148E+02  0.19014705201E+04  0.18996586407E+04 0.  0.
        3    1    3    3  502    0  0.13117298871E+03  0.59629548354E+03 -0.76978804572E+03  0.98252140037E+03  0.10100000352E+00 0.  1.
       -3    1    3    3    0  502 -0.13117298871E+03 -0.59629548354E+03  0.68679896457E+03  0.91894911970E+03  0.10100000352E+00 0. -1.
</event>
<event>
 5   0  0.3211263E-06  0.1900758E+04  0.7818609E-02  0.8654479E-01
        1   -1    0    0  501    0  0.00000000000E+00  0.00000000000E+00  0.90655841002E+03  0.90655841004E+03  0.50400001928E-02 0.  1.
       -1   -1    0    0    0  501  0.00000000000E+00  0.00000000000E+00 -0.99631815137E+03  0.99631815139E+03  0.50400001928E-02 0. -1.
    10030    2    1    2    0    0  0.00000000000E+00  0.00000000000E+00 -0.89759741351E+02  0.19028765614E+04  0.19007583741E+04 0.  0.
        5    1    3    3  502    0 -0.63505500206E+03  0.51392563170E+03  0.44123729899E+03  0.92850786457E+03  0.46999998093E+01 0.  1.
       -5    1    3    3    0  502  0.63505500206E+03 -0.51392563170E+03 -0.53099704034E+03  0.97436869685E+03  0.46999998093E+01 0. -1.
</event>
<event>
 5   0  0.3379108E-06  0.1901452E+04  0.7818609E-02  0.8654134E-01
       -1   -1    0    0    0  501  0.00000000000E+00  0.00000000000E+00  0.12286304059E+04  0.12286304059E+04  0.50400001928E-02 0.  1.
        1   -1    0    0  501    0  0.00000000000E+00  0.00000000000E+00 -0.73568060898E+03  0.73568060900E+03  0.50400001928E-02 0. -1.
    10030    2    1    2    0    0  0.00000000000E+00  0.00000000000E+00  0.49294979690E+03  0.19643110149E+04  0.19014516194E+04 0.  0.
        4    1    3    3  502    0  0.83752521648E+03  0.29587177523E+03 -0.10368376116E+03  0.89428213157E+03  0.12699999809E+01 0. -1.
       -4    1    3    3    0  502 -0.83752521648E+03 -0.29587177523E+03  0.59663355805E+03  0.10700288833E+04  0.12699999809E+01 0.  1.
</event>
<event>
 5   0  0.3211263E-06  0.1904055E+04  0.7818609E-02  0.8652841E-01
        1   -1    0    0  501    0  0.00000000000E+00  0.00000000000E+00  0.10906371694E+04  0.10906371694E+04  0.50400001928E-02 0.  1.
       -1   -1    0    0    0  501  0.00000000000E+00  0.00000000000E+00 -0.83103337616E+03  0.83103337618E+03  0.50400001928E-02 0. -1.
    10030    2    1    2    0    0  0.00000000000E+00  0.00000000000E+00  0.25960379323E+03  0.19216705456E+04  0.19040545046E+04 0.  0.
        5    1    3    3  502    0 -0.30675400927E+03 -0.30702485288E+03 -0.72536949737E+03  0.84530780205E+03  0.46999998093E+01 0. -1.
       -5    1    3    3    0  502  0.30675400927E+03  0.30702485288E+03  0.98497329059E+03  0.10763627435E+04  0.46999998093E+01 0.  1.
</event>
<event>
 5   0  0.3398807E-06  0.1900131E+04  0.7818609E-02  0.8654791E-01
        1   -1    0    0  501    0  0.00000000000E+00  0.00000000000E+00  0.69307727643E+03  0.69307727645E+03  0.50400001928E-02 0. -1.
       -1   -1    0    0    0  501  0.00000000000E+00  0.00000000000E+00 -0.13023431145E+04  0.13023431146E+04  0.50400001928E-02 0.  1.
    10030    2    1    2    0    0  0.00000000000E+00  0.00000000000E+00 -0.60926583811E+03  0.19954203910E+04  0.19001309627E+04 0.  0.
        1    1    3    3  502    0 -0.69950364859E+03 -0.63911726455E+03 -0.23151218654E+03  0.97538409090E+03  0.50400001928E-02 0. -1.
       -1    1    3    3    0  502  0.69950364859E+03  0.63911726455E+03 -0.37775365158E+03  0.10200363001E+04  0.50400001928E-02 0.  1.
</event>
<event>
 5   0  0.7207648E-06  0.1900225E+04  0.7818609E-02  0.8654744E-01
        2   -1    0    0  501    0  0.00000000000E+00  0.00000000000E+00  0.15043505692E+04  0.15043505692E+04  0.25500000920E-02 0.  1.
       -2   -1    0    0    0  501  0.00000000000E+00  0.00000000000E+00 -0.60006896162E+03  0.60006896162E+03  0.25500000920E-02 0. -1.
    10030    2    1    2    0    0  0.00000000000E+00  0.00000000000E+00  0.90428160757E+03  0.21044195308E+04  0.19002253382E+04 0.  0.
        4    1    3    3  502    0  0.62059111929E+03  0.70846160122E+03  0.59073371924E+03  0.11117639667E+04  0.12699999809E+01 0.  1.
       -4    1    3    3    0  502 -0.62059111929E+03 -0.70846160122E+03  0.31354788833E+03  0.99265556409E+03  0.12699999809E+01 0. -1.
</event>
<event>
 5   0  0.6870370E-06  0.1899915E+04  0.7818609E-02  0.8654898E-01
       -2   -1    0    0    0  501  0.00000000000E+00  0.00000000000E+00  0.11044297483E+04  0.11044297483E+04  0.25500000920E-02 0.  1.
        2   -1    0    0  501    0  0.00000000000E+00  0.00000000000E+00 -0.81709106313E+03  0.81709106313E+03  0.25500000920E-02 0. -1.
    10030    2    1    2    0    0  0.00000000000E+00  0.00000000000E+00  0.28733868514E+03  0.19215208114E+04  0.18999154478E+04 0.  0.
        1    1    3    3  502    0 -0.46093658773E+02  0.46976784264E+03 -0.69009195098E+03  0.83608214440E+03  0.50400001928E-02 0. -1.
       -1    1    3    3    0  502  0.46093658773E+02 -0.46976784264E+03  0.97743063612E+03  0.10854386670E+04  0.50400001928E-02 0.  1.
</event>
<event>
 5   0  0.6984466E-06  0.1887527E+04  0.7818609E-02  0.8661090E-01
        2   -1    0    0  501    0  0.00000000000E+00  0.00000000000E+00  0.20789020278E+04  0.20789020278E+04  0.25500000920E-02 0.  1.
       -2   -1    0    0    0  501  0.00000000000E+00  0.00000000000E+00 -0.42844207733E+03  0.42844207734E+03  0.25500000920E-02 0. -1.
    10030    2    1    2    0    0  0.00000000000E+00  0.00000000000E+00  0.16504599505E+04  0.25073441051E+04  0.18875265332E+04 0.  0.
        2    1    3    3  502    0  0.53237370656E+03  0.70286525396E+03  0.12722589911E+04  0.15479290259E+04  0.25500000920E-02 0.  1.
       -2    1    3    3    0  502 -0.53237370656E+03 -0.70286525396E+03  0.37820095935E+03  0.95941507926E+03  0.25500000920E-02 0. -1.
</event>
<event>
 5   0  0.3236653E-06  0.1899988E+04  0.7818609E-02  0.8654863E-01
        1   -1    0    0  501    0  0.00000000000E+00  0.00000000000E+00  0.10409102137E+04  0.10409102137E+04  0.50400001928E-02 0.  1.
       -1   -1    0    0    0  501  0.00000000000E+00  0.00000000000E+00 -0.86701840396E+03  0.86701840398E+03  0.50400001928E-02 0. -1.
    10030    2    1    2    0    0  0.00000000000E+00  0.00000000000E+00  0.17389180970E+03  0.19079286177E+04  0.18999876970E+04 0.  0.
        3    1    3    3  502    0  0.87923151658E+02 -0.70231195212E+03 -0.54935511988E+03  0.89597076773E+03  0.10100000352E+00 0. -1.
       -3    1    3    3    0  502 -0.87923151658E+02  0.70231195212E+03  0.72324692958E+03  0.10119578499E+04  0.10100000352E+00 0.  1.
</event>
<event>
 5   0  0.6862201E-06  0.1899844E+04  0.7818609E-02  0.8654934E-01
       -2   -1    0    0    0  501  0.00000000000E+00  0.00000000000E+00  0.69723022439E+03  0.69723022439E+03  0.25500000920E-02 0. -1.
        2   -1    0    0  501    0  0.00000000000E+00  0.00000000000E+00 -0.12941952964E+04  0.12941952964E+04  0.25500000920E-02 0.  1.
    10030    2    1    2    0    0  0.00000000000E+00  0.00000000000E+00 -0.59696507199E+03  0.19914255208E+04  0.18998442851E+04 0.  0.
        3    1    3    3  502    0 -0.15544231125E+03 -0.30610332490E+03 -0.12268927474E+04  0.12740201653E+04  0.10100000352E+00 0.  1.
       -3    1    3    3    0  502  0.15544231125E+03  0.30610332490E+03  0.62992767543E+03  0.71740535551E+03  0.10100000352E+00 0. -1.
</event>
<event>
 5   0  0.7577180E-06  0.1899602E+04  0.7818609E-02  0.8655054E-01
       -2   -1    0    0    0  501  0.00000000000E+00  0.00000000000E+00  0.61439716757E+03  0.61439716758E+03  0.25500000920E-02 0.  1.
        2   -1    0    0  501    0  0.00000000000E+00  0.00000000000E+00 -0.14683046183E+04  0.14683046183E+04  0.25500000920E-02 0. -1.
    10030    2    1    2    0    0  0.00000000000E+00  0.00000000000E+00 -0.85390745071E+03  0.20827017859E+04  0.18996022727E+04 0.  0.
        5    1    3    3  502    0 -0.58517616185E+02  0.18679381816E+03 -0.14459367593E+04  0.14591337991E+04  0.46999998093E+01 0. -1.
       -5    1    3    3    0  502  0.58517616185E+02 -0.18679381816E+03  0.59202930856E+03  0.62356798675E+03  0.46999998093E+01 0.  1.
</event>
<event>
 5   0  0.6870370E-06  0.1900223E+04  0.7818609E-02  0.8654745E-01
        2   -1    0    0  501    0  0.00000000000E+00  0.00000000000E+00  0.12117618833E+04  0.12117618833E+04  0.25500000920E-02 0.  1.
       -2   -1    0    0    0  501  0.00000000000E+00  0.00000000000E+00 -0.74495797068E+03  0.74495797069E+03  0.25500000920E-02 0. -1.
    10030    2    1    2    0    0  0.00000000000E+00  0.00000000000E+00  0.46680391261E+03  0.19567198540E+04  0.19002228012E+04 0.  0.
        1    1    3    3  502    0  0.54543082029E+03  0.52017356361E+03  0.82907876040E+03  0.11204672717E+04  0.50400001928E-02 0. -1.
       -1    1    3    3    0  502 -0.54543082029E+03 -0.52017356361E+03 -0.36227484779E+03  0.83625258228E+03  0.50400001928E-02 0.  1.
</event>
<event>
 5   0  0.3236653E-06  0.1899846E+04  0.7818609E-02  0.8654933E-01
       -1   -1    0    0    0  501  0.00000000000E+00  0.00000000000E+00  0.34594211485E+03  0.34594211489E+03  0.50400001928E-02 0. -1.
        1   -1    0    0  501    0  0.00000000000E+00  0.00000000000E+00 -0.26083945950E+04  0.26083945950E+04  0.50400001928E-02 0.  1.
    10030    2    1    2    0    0  0.00000000000E+00  0.00000000000E+00 -0.22624524802E+04  0.29543367099E+04  0.18998458281E+04 0.  0.
        3    1    3    3  502    0  0.66161081918E+03  0.29858034501E+03 -0.20840922099E+04  0.22068800258E+04  0.10100000352E+00 0.  1.
       -3    1    3    3    0  502 -0.66161081918E+03 -0.29858034501E+03 -0.17836027025E+03  0.74745668415E+03  0.10100000352E+00 0. -1.
</event>
<event>
 5   0  0.3379108E-06  0.1899728E+04  0.7818609E-02  0.8654992E-01
        1   -1    0    0  501    0  0.00000000000E+00  0.00000000000E+00  0.60790934969E+03  0.60790934971E+03  0.50400001928E-02 0.  1.
       -1   -1    0    0    0  501  0.00000000000E+00  0.00000000000E+00 -0.14841714537E+04  0.14841714537E+04  0.50400001928E-02 0. -1.
    10030    2    1    2    0    0  0.00000000000E+00  0.00000000000E+00 -0.87626210399E+03  0.20920808034E+04  0.18997280892E+04 0.  0.
        4    1    3    3  502    0 -0.20863129355E+03 -0.27931240822E+03  0.53490391407E+03  0.63848746912E+03  0.12699999809E+01 0.  1.
       -4    1    3    3    0  502  0.20863129355E+03  0.27931240822E+03 -0.14111660181E+04  0.14535933343E+04  0.12699999809E+01 0. -1.
</event>
<event>
 5   0  0.3236653E-06  0.1899945E+04  0.7818609E-02  0.8654884E-01
        1   -1    0    0  501    0  0.00000000000E+00  0.00000000000E+00  0.15459726008E+04  0.15459726008E+04  0.50400001928E-02 0. -1.
       -1   -1    0    0    0  501  0.00000000000E+00  0.00000000000E+00 -0.58374109137E+03  0.58374109139E+03  0.50400001928E-02 0.  1.
    10030    2    1    2    0    0  0.00000000000E+00  0.00000000000E+00  0.96223150941E+03  0.21297136922E+04  0.18999449816E+04 0.  0.
        3    1    3    3  502    0  0.79042362778E+02  0.18424397039E+03  0.15219890208E+04  0.15351365168E+04  0.10100000352E+00 0. -1.
       -3    1    3    3    0  502 -0.79042362778E+02 -0.18424397039E+03 -0.55975751135E+03  0.59457717536E+03  0.10100000352E+00 0.  1.
</event>
<event>
 5   0  0.7207648E-06  0.1901319E+04  0.7818609E-02  0.8654200E-01
        2   -1    0    0  501    0  0.00000000000E+00  0.00000000000E+00  0.21498661589E+04  0.21498661589E+04  0.25500000920E-02 0. -1.
       -2   -1    0    0    0  501  0.00000000000E+00  0.00000000000E+00 -0.42037683406E+03  0.42037683407E+03  0.25500000920E-02 0.  1.
    10030    2    1    2    0    0  0.00000000000E+00  0.00000000000E+00  0.17294893248E+04  0.25702429929E+04  0.19013194677E+04 0.  0.
        4    1    3    3  502    0 -0.32406350732E+03 -0.87461880991E+03  0.61629966826E+03  0.11179454877E+04  0.12699999809E+01 0.  1.
       -4    1    3    3    0  502  0.32406350732E+03  0.87461880991E+03  0.11131896565E+04  0.14522975052E+04  0.12699999809E+01 0. -1.
</event>
<event>
 5   0  0.7577180E-06  0.1899836E+04  0.7818609E-02  0.8654938E-01
        2   -1    0    0  501    0  0.00000000000E+00  0.00000000000E+00  0.11021904756E+04  0.11021904756E+04  0.25500000920E-02 0. -1.
       -2   -1    0    0    0  501  0.00000000000E+00  0.00000000000E+00 -0.81868288665E+03  0.81868288666E+03  0.25500000920E-02 0.  1.
    10030    2    1    2    0    0  0.00000000000E+00  0.00000000000E+00  0.28350758897E+03  0.19208733623E+04  0.18998362879E+04 0.  0.
        5    1    3    3  502    0 -0.35583347147E+03 -0.41991624731E+03 -0.64101223091E+03  0.84490584348E+03  0.46999998093E+01 0.  1.
       -5    1    3    3    0  502  0.35583347147E+03  0.41991624731E+03  0.92451981988E+03  0.10759675188E+04  0.46999998093E+01 0. -1.
</event>
<event>
 5   0  0.6984466E-06  0.1901581E+04  0.7818609E-02  0.8654070E-01
        2   -1    0    0  501    0  0.00000000000E+00  0.00000000000E+00  0.11588612626E+04  0.11588612626E+04  0.25500000920E-02 0. -1.
       -2   -1    0    0    0  501  0.00000000000E+00  0.00000000000E+00 -0.78007828471E+03  0.78007828472E+03  0.25500000920E-02 0.  1.
    10030    2    1    2    0    0  0.00000000000E+00  0.00000000000E+00  0.37878297790E+03  0.19389395473E+04  0.19015809275E+04 0.  0.
        2    1    3    3  502    0 -0.31440325294E+03  0.88411223581E+03  0.33087177251E+02  0.93893482856E+03  0.25500000920E-02 0.  1.
       -2    1    3    3    0  502  0.31440325294E+03 -0.88411223581E+03  0.34569580064E+03  0.10000047188E+04  0.25500000920E-02 0. -1.
</event>
<event>
 5   0  0.6862201E-06  0.1900034E+04  0.7818609E-02  0.8654840E-01
       -2   -1    0    0    0  501  0.00000000000E+00  0.00000000000E+00  0.11562021916E+04  0.11562021916E+04  0.25500000920E-02 0. -1.
        2   -1    0    0  501    0  0.00000000000E+00  0.00000000000E+00 -0.78060047342E+03  0.78060047342E+03  0.25500000920E-02 0.  1.
    10030    2    1    2    0    0  0.00000000000E+00  0.00000000000E+00  0.37560171814E+03  0.19368026650E+04  0.19000336609E+04 0.  0.
        3    1    3    3  502    0  0.16708413537E+03 -0.35836261630E+03 -0.69273918281E+03  0.79763930361E+03  0.10100000352E+00 0.  1.
       -3    1    3    3    0  502 -0.16708413537E+03  0.35836261630E+03  0.10683409010E+04  0.11391633614E+04  0.10100000352E+00 0. -1.
</event>
<event>
 5   0  0.6984466E-06  0.1901641E+04  0.7818609E-02  0.8654040E-01
       -2   -1    0    0    0  501  0.00000000000E+00  0.00000000000E+00  0.49275929668E+03  0.49275929669E+03  0.25500000920E-02 0.  1.
        2   -1    0    0  501    0  0.00000000000E+00  0.00000000000E+00 -0.18346879758E+04  0.18346879758E+04  0.25500000920E-02 0. -1.
    10030    2    1    2    0    0  0.00000000000E+00  0.00000000000E+00 -0.13419286791E+04  0.23274472725E+04  0.19016409299E+04 0.  0.
        2    1    3    3  502    0 -0.75510747318E+03  0.31131507063E+03 -0.12667423158E+04  0.15072293999E+04  0.25500000920E-02 0.  1.
       -2    1    3    3    0  502  0.75510747318E+03 -0.31131507063E+03 -0.75186363302E+02  0.82021787257E+03  0.25500000920E-02 0. -1.
</event>
<event>
 5   0  0.6862201E-06  0.1900033E+04  0.7818609E-02  0.8654840E-01
        2   -1    0    0  501    0  0.00000000000E+00  0.00000000000E+00  0.13427034809E+04  0.13427034809E+04  0.25500000920E-02 0. -1.
       -2   -1    0    0    0  501  0.00000000000E+00  0.00000000000E+00 -0.67217438693E+03  0.67217438694E+03  0.25500000920E-02 0.  1.
    10030    2    1    2    0    0  0.00000000000E+00  0.00000000000E+00  0.67052909399E+03  0.20148778679E+04  0.19000325146E+04 0.  0.
        3    1    3    3  502    0  0.82186258279E+03  0.46310324034E+03  0.45433762938E+03  0.10470651402E+04  0.10100000352E+00 0.  1.
       -3    1    3    3    0  502 -0.82186258279E+03 -0.46310324034E+03  0.21619146461E+03  0.96781272764E+03  0.10100000352E+00 0. -1.
</event>
<event>
 5   0  0.6862201E-06  0.1899811E+04  0.7818609E-02  0.8654951E-01
        2   -1    0    0  501    0  0.00000000000E+00  0.00000000000E+00  0.74059591188E+03  0.74059591188E+03  0.25500000920E-02 0. -1.
       -2   -1    0    0    0  501  0.00000000000E+00  0.00000000000E+00 -0.12183702824E+04  0.12183702824E+04  0.25500000920E-02 0.  1.
    10030    2    1    2    0    0  0.00000000000E+00  0.00000000000E+00 -0.47777437051E+03  0.19589661943E+04  0.18998105698E+04 0.  0.
        3    1    3    3  502    0 -0.76599934962E+02  0.92118281257E+03 -0.13271262427E+02  0.92445738724E+03  0.10100000352E+00 0. -1.
       -3    1    3    3    0  502  0.76599934962E+02 -0.92118281257E+03 -0.46450310808E+03  0.10345088070E+04  0.10100000352E+00 0.  1.
</event>
<event>
 5   0  0.7207648E-06  0.1895479E+04  0.7818609E-02  0.8657110E-01
        2   -1    0    0  501    0  0.00000000000E+00  0.00000000000E+00  0.85128302570E+03  0.85128302570E+03  0.25500000920E-02 0. -1.
       -2   -1    0    0    0  501  0.00000000000E+00  0.00000000000E+00 -0.10551247459E+04  0.10551247459E+04  0.25500000920E-02 0.  1.
    10030    2    1    2    0    0  0.00000000000E+00  0.00000000000E+00 -0.20384172019E+03  0.19064077716E+04  0.18954786057E+04 0.  0.
        4    1    3    3  502    0  0.12986666243E+03  0.93466527239E+03 -0.13415449205E+02  0.94374048795E+03  0.12699999809E+01 0. -1.
       -4    1    3    3    0  502 -0.12986666243E+03 -0.93466527239E+03 -0.19042627099E+03  0.96266728364E+03  0.12699999809E+01 0.  1.
</event>
<event>
 5   0  0.3211263E-06  0.1900733E+04  0.7818609E-02  0.8654491E-01
       -1   -1    0    0    0  501  0.00000000000E+00  0.00000000000E+00  0.65011783297E+03  0.65011783299E+03  0.50400001928E-02 0.  1.
        1   -1    0    0  501    0  0.00000000000E+00  0.00000000000E+00 -0.13892818987E+04  0.13892818987E+04  0.50400001928E-02 0. -1.
    10030    2    1    2    0    0  0.00000000000E+00  0.00000000000E+00 -0.73916406572E+03  0.20393997317E+04  0.19007334767E+04 0.  0.
        5    1    3    3  502    0  0.72304414441E+03  0.45068222162E+03  0.82165461547E+02  0.85596761196E+03  0.46999998093E+01 0.  1.
       -5    1    3    3    0  502 -0.72304414441E+03 -0.45068222162E+03 -0.82132952727E+03  0.11834321197E+04  0.46999998093E+01 0. -1.
</event>
<event>
 5   0  0.3495279E-06  0.1900266E+04  0.7818609E-02  0.8654724E-01
       -1   -1    0    0    0  501  0.00000000000E+00  0.00000000000E+00  0.73150149828E+03  0.73150149830E+03  0.50400001928E-02 0.  1.
        1   -1    0    0  501    0  0.00000000000E+00  0.00000000000E+00 -0.12341086841E+04  0.12341086842E+04  0.50400001928E-02 0. -1.
    10030    2    1    2    0    0  0.00000000000E+00  0.00000000000E+00 -0.50260718586E+03  0.19656101825E+04  0.19002656146E+04 0.  0.
        2    1    3    3  502    0 -0.22644535007E+03  0.56483437542E+03  0.50347085725E+03  0.78980901003E+03  0.25500000920E-02 0.  1.
       -2    1    3    3    0  502  0.22644535007E+03 -0.56483437542E+03 -0.10060780431E+04  0.11758011724E+04  0.25500000920E-02 0. -1.
</event>
<event>
 5   0  0.3495279E-06  0.1899746E+04  0.7818609E-02  0.8654983E-01
        1   -1    0    0  501    0  0.00000000000E+00  0.00000000000E+00  0.10425510388E+04  0.10425510388E+04  0.50400001928E-02 0. -1.
       -1   -1    0    0    0  501  0.00000000000E+00  0.00000000000E+00 -0.86543343379E+03  0.86543343380E+03  0.50400001928E-02 0.  1.
    10030    2    1    2    0    0  0.00000000000E+00  0.00000000000E+00  0.17711760501E+03  0.19079844726E+04  0.18997457992E+04 0.  0.
        2    1    3    3  502    0 -0.62298165881E+02  0.92730488758E+03  0.28558066537E+03  0.97228171454E+03  0.25500000920E-02 0. -1.
       -2    1    3    3    0  502  0.62298165881E+02 -0.92730488758E+03 -0.10846306036E+03  0.93570275807E+03  0.25500000920E-02 0.  1.
</event>
<event>
 5   0  0.3236653E-06  0.1899825E+04  0.7818609E-02  0.8654943E-01
        1   -1    0    0  501    0  0.00000000000E+00  0.00000000000E+00  0.29666269996E+04  0.29666269996E+04  0.50400001928E-02 0. -1.
       -1   -1    0    0    0  501  0.00000000000E+00  0.00000000000E+00 -0.30416158213E+03  0.30416158217E+03  0.50400001928E-02 0.  1.
    10030    2    1    2    0    0  0.00000000000E+00  0.00000000000E+00  0.26624654175E+04  0.32707885818E+04  0.18998252150E+04 0.  0.
        3    1    3    3  502    0 -0.49204160516E+03  0.50274304088E+03  0.24302161423E+04  0.25299814258E+04  0.10100000352E+00 0. -1.
       -3    1    3    3    0  502  0.49204160516E+03 -0.50274304088E+03  0.23224927520E+03  0.74080715601E+03  0.10100000352E+00 0.  1.
</event>
<event>
 5   0  0.6870370E-06  0.1900363E+04  0.7818609E-02  0.8654676E-01
       -2   -1    0    0    0  501  0.00000000000E+00  0.00000000000E+00  0.45393231672E+03  0.45393231673E+03  0.25500000920E-02 0. -1.
        2   -1    0    0  501    0  0.00000000000E+00  0.00000000000E+00 -0.19889411762E+04  0.19889411762E+04  0.25500000920E-02 0.  1.
    10030    2    1    2    0    0  0.00000000000E+00  0.00000000000E+00 -0.15350088595E+04  0.24428734929E+04  0.19003627821E+04 0.  0.
        1    1    3    3  502    0  0.56862519262E+02  0.36376390958E+03  0.35850861725E+03  0.51389294282E+03  0.50400001928E-02 0. -1.
       -1    1    3    3    0  502 -0.56862519262E+02 -0.36376390958E+03 -0.18935174767E+04  0.19289805501E+04  0.50400001928E-02 0.  1.
</event>
<event>
 5   0  0.3236653E-06  0.1900113E+04  0.7818609E-02  0.8654800E-01
        1   -1    0    0  501    0  0.00000000000E+00  0.00000000000E+00  0.10767040972E+04  0.10767040973E+04  0.50400001928E-02 0.  1.
       -1   -1    0    0    0  501  0.00000000000E+00  0.00000000000E+00 -0.83830573706E+03  0.83830573707E+03  0.50400001928E-02 0. -1.
    10030    2    1    2    0    0  0.00000000000E+00  0.00000000000E+00  0.23839836019E+03  0.19150098343E+04  0.19001128618E+04 0.  0.
        3    1    3    3  502    0 -0.41884237415E+03 -0.71390422880E+03  0.58924504800E+03  0.10160206293E+04  0.10100000352E+00 0.  1.
       -3    1    3    3    0  502  0.41884237415E+03  0.71390422880E+03 -0.35084668781E+03  0.89898920507E+03  0.10100000352E+00 0. -1.
</event>
<event>
 5   0  0.6862201E-06  0.1899603E+04  0.7818609E-02  0.8655054E-01
       -2   -1    0    0    0  501  0.00000000000E+00  0.00000000000E+00  0.51093012168E+03  0.51093012168E+03  0.25500000920E-02 0. -1.
        2   -1    0    0  501    0  0.00000000000E+00  0.00000000000E+00 -0.17656489188E+04  0.17656489188E+04  0.25500000920E-02 0.  1.
    10030    2    1    2    0    0  0.00000000000E+00  0.00000000000E+00 -0.12547187971E+04  0.22765790404E+04  0.18996033448E+04 0.  0.
        3    1    3    3  502    0 -0.48806539716E+02  0.37620136558E+03 -0.16709150395E+04  0.17134370795E+04  0.10100000352E+00 0.  1.
       -3    1    3    3    0  502  0.48806539716E+02 -0.37620136558E+03  0.41619624245E+03  0.56314196098E+03  0.10100000352E+00 0. -1.
</event>
<event>
 5   0  0.3398807E-06  0.1899884E+04  0.7818609E-02  0.8654914E-01
        1   -1    0    0  501    0  0.00000000000E+00  0.00000000000E+00  0.60288294362E+03  0.60288294365E+03  0.50400001928E-02 0.  1.
       -1   -1    0    0    0  501  0.00000000000E+00  0.00000000000E+00 -0.14967910961E+04  0.14967910961E+04  0.50400001928E-02 0. -1.
    10030    2    1    2    0    0  0.00000000000E+00  0.00000000000E+00 -0.89390815247E+03  0.20996740397E+04  0.18998840197E+04 0.  0.
        1    1    3    3  502    0 -0.19108273472E+03  0.26715038583E+03 -0.14320395021E+04  0.14692239706E+04  0.50400001928E-02 0. -1.
       -1    1    3    3    0  502  0.19108273472E+03 -0.26715038583E+03  0.53813134966E+03  0.63045006913E+03  0.50400001928E-02 0.  1.
</event>
<event>
 5   0  0.7207648E-06  0.1900177E+04  0.7818609E-02  0.8654768E-01
       -2   -1    0    0    0  501  0.00000000000E+00  0.00000000000E+00  0.35426296314E+03  0.35426296315E+03  0.25500000920E-02 0. -1.
        2   -1    0    0  501    0  0.00000000000E+00  0.00000000000E+00 -0.25480173832E+04  0.25480173832E+04  0.25500000920E-02 0.  1.
    10030    2    1    2    0    0  0.00000000000E+00  0.00000000000E+00 -0.21937544201E+04  0.29022803464E+04  0.19001770321E+04 0.  0.
        4    1    3    3  502    0 -0.70086414721E+03 -0.63521882073E+03 -0.96066602742E+03  0.13481818617E+04  0.12699999809E+01 0.  1.
       -4    1    3    3    0  502  0.70086414721E+03  0.63521882073E+03 -0.12330883926E+04  0.15540984847E+04  0.12699999809E+01 0. -1.
</event>
<event>
 5   0  0.7207648E-06  0.1906577E+04  0.7818609E-02  0.8651589E-01
       -2   -1    0    0    0  501  0.00000000000E+00  0.00000000000E+00  0.75226196138E+03  0.75226196139E+03  0.25500000920E-02 0. -1.
        2   -1    0    0  501    0  0.00000000000E+00  0.00000000000E+00 -0.12080356989E+04  0.12080356989E+04  0.25500000920E-02 0.  1.
    10030    2    1    2    0    0  0.00000000000E+00  0.00000000000E+00 -0.45577373753E+03  0.19602976603E+04  0.19065773567E+04 0.  0.
        4    1    3    3  502    0 -0.87938877720E+03 -0.66950403051E+02 -0.59995418799E+03  0.10666553420E+04  0.12699999809E+01 0.  1.
       -4    1    3    3    0  502  0.87938877720E+03  0.66950403051E+02  0.14418045046E+03  0.89364231834E+03  0.12699999809E+01 0. -1.
</event>
<event>
 5   0  0.3211263E-06  0.1900072E+04  0.7818609E-02  0.8654821E-01
        1   -1    0    0  501    0  0.00000000000E+00  0.00000000000E+00  0.73248614337E+03  0.73248614339E+03  0.50400001928E-02 0. -1.
       -1   -1    0    0    0  501  0.00000000000E+00  0.00000000000E+00 -0.12321981125E+04  0.12321981125E+04  0.50400001928E-02 0.  1.
    10030    2    1    2    0    0  0.00000000000E+00  0.00000000000E+00 -0.49971196911E+03  0.19646842559E+04  0.19000716232E+04 0.  0.
        5    1    3    3  502    0 -0.75975599763E+03  0.53609300238E+03 -0.45121129385E+03  0.10335562901E+04  0.46999998093E+01 0.  1.
       -5    1    3    3    0  502  0.75975599763E+03 -0.53609300238E+03 -0.48500675258E+02  0.93112796576E+03  0.46999998093E+01 0. -1.
</event>
<event>
 5   0  0.3236653E-06  0.1901536E+04  0.7818609E-02  0.8654092E-01
        1   -1    0    0  501    0  0.00000000000E+00  0.00000000000E+00  0.16215411204E+04  0.16215411204E+04  0.50400001928E-02 0.  1.
       -1   -1    0    0    0  501  0.00000000000E+00  0.00000000000E+00 -0.55746925880E+03  0.55746925882E+03  0.50400001928E-02 0. -1.
    10030    2    1    2    0    0  0.00000000000E+00  0.00000000000E+00  0.10640718616E+04  0.21790103792E+04  0.19015355127E+04 0.  0.
        3    1    3    3  502    0  0.31566372058E+03  0.47576419491E+03  0.14032107491E+04  0.15149242787E+04  0.10100000352E+00 0.  1.
       -3    1    3    3    0  502 -0.31566372058E+03 -0.47576419491E+03 -0.33913888752E+03  0.66408610050E+03  0.10100000352E+00 0. -1.
</event>
<event>
 5   0  0.3495279E-06  0.1900220E+04  0.7818609E-02  0.8654747E-01
        1   -1    0    0  501    0  0.00000000000E+00  0.00000000000E+00  0.14489723463E+04  0.14489723463E+04  0.50400001928E-02 0.  1.
       -1   -1    0    0    0  501  0.00000000000E+00  0.00000000000E+00 -0.62299969238E+03  0.62299969240E+03  0.50400001928E-02 0. -1.
    10030    2    1    2    0    0  0.00000000000E+00  0.00000000000E+00  0.82597265391E+03  0.20719720387E+04  0.19002203304E+04 0.  0.
        2    1    3    3  502    0  0.68805194855E+03  0.65103066178E+03  0.49350460432E+03  0.10680838923E+04  0.25500000920E-02 0. -1.
       -2    1    3    3    0  502 -0.68805194855E+03 -0.65103066178E+03  0.33246804959E+03  0.10038881464E+04  0.25500000920E-02 0.  1.
</event>
<event>
 5   0  0.7207648E-06  0.1900318E+04  0.7818609E-02  0.8654698E-01
        2   -1    0    0  501    0  0.00000000000E+00  0.00000000000E+00  0.79046610568E+03  0.79046610569E+03  0.25500000920E-02 0.  1.
       -2   -1    0    0    0  501  0.00000000000E+00  0.00000000000E+00 -0.11421135912E+04  0.11421135912E+04  0.25500000920E-02 0. -1.
    10030    2    1    2    0    0  0.00000000000E+00  0.00000000000E+00 -0.35164748554E+03  0.19325796969E+04  0.19003179552E+04 0.  0.
        4    1    3    3  502    0 -0.68277728334E+03  0.21591842806E+02 -0.84745175625E+03  0.10884976428E+04  0.12699999809E+01 0. -1.
       -4    1    3    3    0  502  0.68277728334E+03 -0.21591842806E+02  0.49580427071E+03  0.84408205411E+03  0.12699999809E+01 0.  1.
</event>
<event>
 5   0  0.3236653E-06  0.1897043E+04  0.7818609E-02  0.8656330E-01
        1   -1    0    0  501    0  0.00000000000E+00  0.00000000000E+00  0.12658739799E+04  0.12658739799E+04  0.50400001928E-02 0.  1.
       -1   -1    0    0    0  501  0.00000000000E+00  0.00000000000E+00 -0.71072871883E+03  0.71072871885E+03  0.50400001928E-02 0. -1.
    10030    2    1    2    0    0  0.00000000000E+00  0.00000000000E+00  0.55514526109E+03  0.19766026988E+04  0.18970429536E+04 0.  0.
        3    1    3    3  502    0  0.84573337487E+02  0.69236820988E+03  0.94731044362E+03  0.11764027687E+04  0.10100000352E+00 0.  1.
       -3    1    3    3    0  502 -0.84573337487E+02 -0.69236820988E+03 -0.39216518253E+03  0.80019993005E+03  0.10100000352E+00 0. -1.
</event>
<event>
 5   0  0.6984466E-06  0.1898941E+04  0.7818609E-02  0.8655384E-01
       -2   -1    0    0    0  501  0.00000000000E+00  0.00000000000E+00  0.63866009686E+03  0.63866009686E+03  0.25500000920E-02 0. -1.
        2   -1    0    0  501    0  0.00000000000E+00  0.00000000000E+00 -0.14115404652E+04  0.14115404652E+04  0.25500000920E-02 0.  1.
    10030    2    1    2    0    0  0.00000000000E+00  0.00000000000E+00 -0.77288036838E+03  0.20502005621E+04  0.18989413580E+04 0.  0.
        2    1    3    3  502    0  0.17893042676E+03  0.74505496758E+03  0.21890964680E+03  0.79689675354E+03  0.25500000920E-02 0. -1.
       -2    1    3    3    0  502 -0.17893042676E+03 -0.74505496758E+03 -0.99179001518E+03  0.12533038086E+04  0.25500000920E-02 0.  1.
</event>
<event>
 5   0  0.7207648E-06  0.1899345E+04  0.7818609E-02  0.8655182E-01
        2   -1    0    0  501    0  0.00000000000E+00  0.00000000000E+00  0.12462898561E+04  0.12462898561E+04  0.25500000920E-02 0.  1.
       -2   -1    0    0    0  501  0.00000000000E+00  0.00000000000E+00 -0.72365029083E+03  0.72365029084E+03  0.25500000920E-02 0. -1.
    10030    2    1    2    0    0  0.00000000000E+00  0.00000000000E+00  0.52263956530E+03  0.19699401470E+04  0.18993451681E+04 0.  0.
        4    1    3    3  502    0  0.44413776909E+03  0.77985422480E+03 -0.60779658224E+02  0.89951473007E+03  0.12699999809E+01 0.  1.
       -4    1    3    3    0  502 -0.44413776909E+03 -0.77985422480E+03  0.58341922352E+03  0.10704254169E+04  0.12699999809E+01 0. -1.
</event>
<event>
 5   0  0.3211263E-06  0.1899975E+04  0.7818609E-02  0.8654869E-01
       -1   -1    0    0    0  501  0.00000000000E+00  0.00000000000E+00  0.74740283321E+03  0.74740283322E+03  0.50400001928E-02 0. -1.
        1   -1    0    0  501    0  0.00000000000E+00  0.00000000000E+00 -0.12074827535E+04  0.12074827535E+04  0.50400001928E-02 0.  1.
    10030    2    1    2    0    0  0.00000000000E+00  0.00000000000E+00 -0.46007992027E+03  0.19548855867E+04  0.18999747693E+04 0.  0.
        5    1    3    3  502    0  0.78346962836E+03 -0.52660875187E+03 -0.33947411823E+03  0.10031979880E+04  0.46999998093E+01 0. -1.
       -5    1    3    3    0  502 -0.78346962836E+03  0.52660875187E+03 -0.12060580204E+03  0.95168759874E+03  0.46999998093E+01 0.  1.
</event>
<event>
 5   0  0.3495279E-06  0.1900093E+04  0.7818609E-02  0.8654810E-01
        1   -1    0    0  501    0  0.00000000000E+00  0.00000000000E+00  0.95710739991E+03  0.95710739992E+03  0.50400001928E-02 0. -1.
       -1   -1    0    0    0  501  0.00000000000E+00  0.00000000000E+00 -0.94303816092E+03  0.94303816093E+03  0.50400001928E-02 0.  1.
    10030    2    1    2    0    0  0.00000000000E+00  0.00000000000E+00  0.14069238989E+02  0.19001455609E+04  0.19000934737E+04 0.  0.
        2    1    3    3  502    0 -0.36928088133E+03 -0.76331405004E+03  0.43549950552E+03  0.95324526100E+03  0.25500000920E-02 0. -1.
       -2    1    3    3    0  502  0.36928088133E+03  0.76331405004E+03 -0.42143026653E+03  0.94690029985E+03  0.25500000920E-02 0.  1.
</event>
<event>
 5   0  0.6984466E-06  0.1900049E+04  0.7818609E-02  0.8654832E-01
       -2   -1    0    0    0  501  0.00000000000E+00  0.00000000000E+00  0.43800192522E+03  0.43800192522E+03  0.25500000920E-02 0. -1.
        2   -1    0    0  501    0  0.00000000000E+00  0.00000000000E+00 -0.20605990300E+04  0.20605990300E+04  0.25500000920E-02 0.  1.
    10030    2    1    2    0    0  0.00000000000E+00  0.00000000000E+00 -0.16225971048E+04  0.24986009553E+04  0.19000487807E+04 0.  0.
        2    1    3    3  502    0  0.45858993486E+03 -0.41185776461E+03 -0.17619536934E+04  0.18666580738E+04  0.25500000920E-02 0.  1.
       -2    1    3    3    0  502 -0.45858993486E+03  0.41185776461E+03  0.13935658863E+03  0.63194288146E+03  0.25500000920E-02 0. -1.
</event>
<event>
 5   0  0.6862201E-06  0.1900257E+04  0.7818609E-02  0.8654729E-01
       -2   -1    0    0    0  501  0.00000000000E+00  0.00000000000E+00  0.81997970192E+03  0.81997970192E+03  0.25500000920E-02 0.  1.
        2   -1    0    0  501    0  0.00000000000E+00  0.00000000000E+00 -0.11009343266E+04  0.11009343266E+04  0.25500000920E-02 0. -1.
    10030    2    1    2    0    0  0.00000000000E+00  0.00000000000E+00 -0.28095462470E+03  0.19209140286E+04  0.19002566153E+04 0.  0.
        3    1    3    3  502    0  0.35130905482E+03  0.62063236232E+03 -0.77510877310E+03  0.10532787862E+04  0.10100000352E+00 0. -1.
       -3    1    3    3    0  502 -0.35130905482E+03 -0.62063236232E+03  0.49415414840E+03  0.86763524233E+03  0.10100000352E+00 0.  1.
</event>
<event>
 5   0  0.7577180E-06  0.1899730E+04  0.7818609E-02  0.8654991E-01
       -2   -1    0    0    0  501  0.00000000000E+00  0.00000000000E+00  0.46167540750E+03  0.46167540751E+03  0.25500000920E-02 0.  1.
        2   -1    0    0  501    0  0.00000000000E+00  0.00000000000E+00 -0.19542813505E+04  0.19542813505E+04  0.25500000920E-02 0. -1.
    10030    2    1    2    0    0  0.00000000000E+00  0.00000000000E+00 -0.14926059430E+04  0.24159567580E+04  0.18997301270E+04 0.  0.
        5    1    3    3  502    0 -0.34329883521E+03 -0.36606176196E+03 -0.17718987937E+04  0.18416033039E+04  0.46999998093E+01 0. -1.
       -5    1    3    3    0  502  0.34329883521E+03  0.36606176196E+03  0.27929285068E+03  0.57435345412E+03  0.46999998093E+01 0.  1.
</event>
<event>
 5   0  0.3495279E-06  0.1900080E+04  0.7818609E-02  0.8654816E-01
        1   -1    0    0  501    0  0.00000000000E+00  0.00000000000E+00  0.96194303383E+03  0.96194303384E+03  0.50400001928E-02 0.  1.
       -1   -1    0    0    0  501  0.00000000000E+00  0.00000000000E+00 -0.93828472867E+03  0.93828472869E+03  0.50400001928E-02 0. -1.
    10030    2    1    2    0    0  0.00000000000E+00  0.00000000000E+00  0.23658305155E+02  0.19002277625E+04  0.19000804809E+04 0.  0.
        2    1    3    3  502    0 -0.86419361431E+03 -0.83132105232E+02  0.39765033248E+03  0.95491745028E+03  0.25500000920E-02 0.  1.
       -2    1    3    3    0  502  0.86419361431E+03  0.83132105232E+02 -0.37399202732E+03  0.94531031225E+03  0.25500000920E-02 0. -1.
</event>
<event>
 5   0  0.6984466E-06  0.1898949E+04  0.7818609E-02  0.8655380E-01
       -2   -1    0    0    0  501  0.00000000000E+00  0.00000000000E+00  0.48639249269E+03  0.48639249270E+03  0.25500000920E-02 0. -1.
        2   -1    0    0  501    0  0.00000000000E+00  0.00000000000E+00 -0.18534442590E+04  0.18534442590E+04  0.25500000920E-02 0.  1.
    10030    2    1    2    0    0  0.00000000000E+00  0.00000000000E+00 -0.13670517663E+04  0.23398367517E+04  0.18989485229E+04 0.  0.
        2    1    3    3  502    0  0.25240317805E+03  0.91180019181E+03 -0.58484090869E+03  0.11122615891E+04  0.25500000920E-02 0. -1.
       -2    1    3    3    0  502 -0.25240317805E+03 -0.91180019181E+03 -0.78221085758E+03  0.12275751626E+04  0.25500000920E-02 0.  1.
</event>
<event>
 5   0  0.3495279E-06  0.1899653E+04  0.7818609E-02  0.8655029E-01
       -1   -1    0    0    0  501  0.00000000000E+00  0.00000000000E+00  0.87416804500E+03  0.87416804501E+03  0.50400001928E-02 0.  1.
        1   -1    0    0  501    0  0.00000000000E+00  0.00000000000E+00 -0.10320334940E+04  0.10320334940E+04  0.50400001928E-02 0. -1.
    10030    2    1    2    0    0  0.00000000000E+00  0.00000000000E+00 -0.15786544898E+03  0.19062015390E+04  0.18996533387E+04 0.  0.
        2    1    3    3  502    0 -0.86949029324E+03  0.27279476875E+03 -0.34769987928E+03  0.97535919638E+03  0.25500000920E-02 0. -1.
       -2    1    3    3    0  502  0.86949029324E+03 -0.27279476875E+03  0.18983443030E+03  0.93084234263E+03  0.25500000920E-02 0.  1.
</event>
<event>
 5   0  0.7577180E-06  0.1900955E+04  0.7818609E-02  0.8654381E-01
        2   -1    0    0  501    0  0.00000000000E+00  0.00000000000E+00  0.12508696152E+04  0.12508696152E+04  0.25500000920E-02 0. -1.
       -2   -1    0    0    0  501  0.00000000000E+00  0.00000000000E+00 -0.72222358366E+03  0.72222358366E+03  0.25500000920E-02 0.  1.
    10030    2    1    2    0    0  0.00000000000E+00  0.00000000000E+00  0.52864603151E+03  0.19730931988E+04  0.19009550612E+04 0.  0.
        5    1    3    3  502    0  0.16406213959E+03  0.46304794363E+03  0.11088684172E+04  0.12128235818E+04  0.46999998093E+01 0. -1.
       -5    1    3    3    0  502 -0.16406213959E+03 -0.46304794363E+03 -0.58022238572E+03  0.76026961707E+03  0.46999998093E+01 0.  1.
</event>
<event>
 5   0  0.3398807E-06  0.1896290E+04  0.7818609E-02  0.8656705E-01
       -1   -1    0    0    0  501  0.00000000000E+00  0.00000000000E+00  0.50168650260E+03  0.50168650263E+03  0.50400001928E-02 0.  1.
        1   -1    0    0  501    0  0.00000000000E+00  0.00000000000E+00 -0.17919134992E+04  0.17919134992E+04  0.50400001928E-02 0. -1.
    10030    2    1    2    0    0  0.00000000000E+00  0.00000000000E+00 -0.12902269966E+04  0.22936000018E+04  0.18962898686E+04 0.  0.
        1    1    3    3  502    0 -0.66549531411E+03  0.66419176274E+03 -0.49725444567E+03  0.10636243202E+04  0.50400001928E-02 0.  1.
       -1    1    3    3    0  502  0.66549531411E+03 -0.66419176274E+03 -0.79297255090E+03  0.12299756816E+04  0.50400001928E-02 0. -1.
</event>
<event>
 5   0  0.3379108E-06  0.1900542E+04  0.7818609E-02  0.8654587E-01
       -1   -1    0    0    0  501  0.00000000000E+00  0.00000000000E+00  0.13696197945E+04  0.13696197945E+04  0.50400001928E-02 0. -1.
        1   -1    0    0  501    0  0.00000000000E+00  0.00000000000E+00 -0.65931810303E+03  0.65931810305E+03  0.50400001928E-02 0.  1.
    10030    2    1    2    0    0  0.00000000000E+00  0.00000000000E+00  0.71030169146E+03  0.20289378976E+04  0.19005421593E+04 0.  0.
        4    1    3    3  502    0 -0.80000186006E+03 -0.39723789471E+03  0.88726836251E+01  0.89324199326E+03  0.12699999809E+01 0.  1.
       -4    1    3    3    0  502  0.80000186006E+03  0.39723789471E+03  0.70142900784E+03  0.11356959043E+04  0.12699999809E+01 0. -1.
</event>
<event>
 5   0  0.3398807E-06  0.1899899E+04  0.7818609E-02  0.8654907E-01
        1   -1    0    0  501    0  0.00000000000E+00  0.00000000000E+00  0.15427073153E+04  0.15427073153E+04  0.50400001928E-02 0.  1.
       -1   -1    0    0    0  501  0.00000000000E+00  0.00000000000E+00 -0.58494834262E+03  0.58494834264E+03  0.50400001928E-02 0. -1.
    10030    2    1    2    0    0  0.00000000000E+00  0.00000000000E+00  0.95775897270E+03  0.21276556580E+04  0.18998990365E+04 0.  0.
        1    1    3    3  502    0 -0.30091207548E+03 -0.53477419145E+03  0.12909824230E+04  0.14293939728E+04  0.50400001928E-02 0.  1.
       -1    1    3    3    0  502  0.30091207548E+03  0.53477419145E+03 -0.33322345034E+03  0.69826168511E+03  0.50400001928E-02 0. -1.
</event>
<event>
 5   0  0.7577180E-06  0.1900406E+04  0.7818609E-02  0.8654654E-01
       -2   -1    0    0    0  501  0.00000000000E+00  0.00000000000E+00  0.66569279802E+03  0.66569279803E+03  0.25500000920E-02 0.  1.
        2   -1    0    0  501    0  0.00000000000E+00  0.00000000000E+00 -0.13563102052E+04  0.13563102052E+04  0.25500000920E-02 0. -1.
    10030    2    1    2    0    0  0.00000000000E+00  0.00000000000E+00 -0.69061740721E+03  0.20220030033E+04  0.19004062045E+04 0.  0.
        5    1    3    3  502    0  0.48598793175E+03 -0.71248063417E+03 -0.76963842450E+03  0.11559317966E+04  0.46999998093E+01 0. -1.
       -5    1    3    3    0  502 -0.48598793175E+03  0.71248063417E+03  0.79021017291E+02  0.86607120668E+03  0.46999998093E+01 0.  1.
</event>
<event>
 5   0  0.3211263E-06  0.1897415E+04  0.7818609E-02  0.8656144E-01
        1   -1    0    0  501    0  0.00000000000E+00  0.00000000000E+00  0.62935925675E+03  0.62935925677E+03  0.50400001928E-02 0. -1.
       -1   -1    0    0    0  501  0.00000000000E+00  0.00000000000E+00 -0.14300992082E+04  0.14300992082E+04  0.50400001928E-02 0.  1.
    10030    2    1    2    0    0  0.00000000000E+00  0.00000000000E+00 -0.80073995143E+03  0.20594584650E+04  0.18974152680E+04 0.  0.
        5    1    3    3  502    0 -0.22743565994E+02 -0.86250731466E+03  0.27762943366E+02  0.86326647605E+03  0.46999998093E+01 0. -1.
       -5    1    3    3    0  502  0.22743565994E+02  0.86250731466E+03 -0.82850289480E+03  0.11961919889E+04  0.46999998093E+01 0.  1.
</event>
<event>
 5   0  0.3236653E-06  0.1899668E+04  0.7818609E-02  0.8655022E-01
       -1   -1    0    0    0  501  0.00000000000E+00  0.00000000000E+00  0.69772654822E+03  0.69772654823E+03  0.50400001928E-02 0.  1.
        1   -1    0    0  501    0  0.00000000000E+00  0.00000000000E+00 -0.12930342186E+04  0.12930342186E+04  0.50400001928E-02 0. -1.
    10030    2    1    2    0    0  0.00000000000E+00  0.00000000000E+00 -0.59530767034E+03  0.19907607668E+04  0.18996676573E+04 0.  0.
        3    1    3    3  502    0  0.16705626414E+03 -0.42627164481E+03  0.57445957145E+03  0.73458772110E+03  0.10100000352E+00 0.  1.
       -3    1    3    3    0  502 -0.16705626414E+03  0.42627164481E+03 -0.11697672418E+04  0.12561730457E+04  0.10100000352E+00 0. -1.
</event>
<event>
 5   0  0.6870370E-06  0.1900840E+04  0.7818609E-02  0.8654438E-01
        2   -1    0    0  501    0  0.00000000000E+00  0.00000000000E+00  0.14069098873E+04  0.14069098873E+04  0.25500000920E-02 0.  1.
       -2   -1    0    0    0  501  0.00000000000E+00  0.00000000000E+00 -0.64204442435E+03  0.64204442436E+03  0.25500000920E-02 0. -1.
    10030    2    1    2    0    0  0.00000000000E+00  0.00000000000E+00  0.76486546294E+03  0.20489543116E+04  0.19008404969E+04 0.  0.
        1    1    3    3  502    0 -0.76382077400E+03  0.87198149274E+02  0.98478948802E+03  0.12493342338E+04  0.50400001928E-02 0.  1.
       -1    1    3    3    0  502  0.76382077400E+03 -0.87198149274E+02 -0.21992402509E+03  0.79962007783E+03  0.50400001928E-02 0. -1.
</event>
<event>
 5   0  0.3236653E-06  0.1899356E+04  0.7818609E-02  0.8655177E-01
        1   -1    0    0  501    0  0.00000000000E+00  0.00000000000E+00  0.10068493783E+04  0.10068493783E+04  0.50400001928E-02 0. -1.
       -1   -1    0    0    0  501  0.00000000000E+00  0.00000000000E+00 -0.89575339108E+03  0.89575339110E+03  0.50400001928E-02 0.  1.
    10030    2    1    2    0    0  0.00000000000E+00  0.00000000000E+00  0.11109598721E+03  0.19026027694E+04  0.18993564646E+04 0.  0.
        3    1    3    3  502    0 -0.28876280082E+03 -0.64786406893E+03 -0.57701918871E+03  0.91436478568E+03  0.10100000352E+00 0.  1.
       -3    1    3    3    0  502  0.28876280082E+03  0.64786406893E+03  0.68811517591E+03  0.98823798372E+03  0.10100000352E+00 0. -1.
</event>
<event>
 5   0  0.6862201E-06  0.1899667E+04  0.7818609E-02  0.8655022E-01
       -2   -1    0    0    0  501  0.00000000000E+00  0.00000000000E+00  0.82861650793E+03  0.82861650794E+03  0.25500000920E-02 0.  1.
        2   -1    0    0  501    0  0.00000000000E+00  0.00000000000E+00 -0.10887825898E+04  0.10887825898E+04  0.25500000920E-02 0. -1.
    10030    2    1    2    0    0  0.00000000000E+00  0.00000000000E+00 -0.26016608182E+03  0.19173990977E+04  0.18996665259E+04 0.  0.
        3    1    3    3  502    0 -0.86781839525E+03  0.36365055922E+03  0.86901151012E+00  0.94093106110E+03  0.10100000352E+00 0. -1.
       -3    1    3    3    0  502  0.86781839525E+03 -0.36365055922E+03 -0.26103509333E+03  0.97646803660E+03  0.10100000352E+00 0.  1.
</event>
<event>
 5   0  0.3398807E-06  0.1902458E+04  0.7818609E-02  0.8653634E-01
        1   -1    0    0  501    0  0.00000000000E+00  0.00000000000E+00  0.13812348832E+04  0.13812348832E+04  0.50400001928E-02 0.  1.
       -1   -1    0    0    0  501  0.00000000000E+00  0.00000000000E+00 -0.65509269833E+03  0.65509269835E+03  0.50400001928E-02 0. -1.
    10030    2    1    2    0    0  0.00000000000E+00  0.00000000000E+00  0.72614218488E+03  0.20363275816E+04  0.19024582904E+04 0.  0.
        1    1    3    3  502    0 -0.55284498871E+03 -0.35122614360E+03 -0.37527970021E+03  0.75487233285E+03  0.50400001928E-02 0. -1.
       -1    1    3    3    0  502  0.55284498871E+03  0.35122614360E+03  0.11014218851E+04  0.12814552487E+04  0.50400001928E-02 0.  1.
</event>
<event>
 5   0  0.3398807E-06  0.1902735E+04  0.7818609E-02  0.8653496E-01
       -1   -1    0    0    0  501  0.00000000000E+00  0.00000000000E+00  0.67626465154E+03  0.67626465156E+03  0.50400001928E-02 0.  1.
        1   -1    0    0  501    0  0.00000000000E+00  0.00000000000E+00 -0.13383815660E+04  0.13383815660E+04  0.50400001928E-02 0. -1.
    10030    2    1    2    0    0  0.00000000000E+00  0.00000000000E+00 -0.66211691449E+03  0.20146462176E+04  0.19027350245E+04 0.  0.
        1    1    3    3  502    0  0.76195603071E+03  0.49785561851E+03 -0.37892729770E+02  0.91097369260E+03  0.50400001928E-02 0. -1.
       -1    1    3    3    0  502 -0.76195603071E+03 -0.49785561851E+03 -0.62422418472E+03  0.11036725250E+04  0.50400001928E-02 0.  1.
</event>
<event>
 5   0  0.6870370E-06  0.1899800E+04  0.7818609E-02  0.8654956E-01
       -2   -1    0    0    0  501  0.00000000000E+00  0.00000000000E+00  0.12085550039E+04  0.12085550039E+04  0.25500000920E-02 0.  1.
        2   -1    0    0  501    0  0.00000000000E+00  0.00000000000E+00 -0.74660211224E+03  0.74660211225E+03  0.25500000920E-02 0. -1.
    10030    2    1    2    0    0  0.00000000000E+00  0.00000000000E+00  0.46195289164E+03  0.19551571161E+04  0.18997996933E+04 0.  0.
        1    1    3    3  502    0 -0.16579349005E+03  0.25078509493E+03  0.11583034273E+04  0.11966818603E+04  0.50400001928E-02 0.  1.
       -1    1    3    3    0  502  0.16579349005E+03 -0.25078509493E+03 -0.69635053563E+03  0.75847525581E+03  0.50400001928E-02 0. -1.
</event>
<event>
 5   0  0.3236653E-06  0.1900269E+04  0.7818609E-02  0.8654722E-01
       -1   -1    0    0    0  501  0.00000000000E+00  0.00000000000E+00  0.76626089520E+03  0.76626089522E+03  0.50400001928E-02 0.  1.
        1   -1    0    0  501    0  0.00000000000E+00  0.00000000000E+00 -0.11781313615E+04  0.11781313615E+04  0.50400001928E-02 0. -1.
    10030    2    1    2    0    0  0.00000000000E+00  0.00000000000E+00 -0.41187046627E+03  0.19443922567E+04  0.19002694459E+04 0.  0.
        3    1    3    3  502    0  0.88526715639E+03  0.25487132356E+03 -0.44392699188E+03  0.10226086808E+04  0.10100000352E+00 0. -1.
       -3    1    3    3    0  502 -0.88526715639E+03 -0.25487132356E+03  0.32056525608E+02  0.92178357589E+03  0.10100000352E+00 0.  1.
</event>
<event>
 5   0  0.3398807E-06  0.1895582E+04  0.7818609E-02  0.8657059E-01
       -1   -1    0    0    0  501  0.00000000000E+00  0.00000000000E+00  0.81365867711E+03  0.81365867712E+03  0.50400001928E-02 0. -1.
        1   -1    0    0  501    0  0.00000000000E+00  0.00000000000E+00 -0.11040348332E+04  0.11040348333E+04  0.50400001928E-02 0.  1.
    10030    2    1    2    0    0  0.00000000000E+00  0.00000000000E+00 -0.29037615613E+03  0.19176935104E+04  0.18955817280E+04 0.  0.
        1    1    3    3  502    0 -0.26992520536E+03 -0.75958184670E+03  0.35910767231E+03  0.88248655437E+03  0.50400001928E-02 0. -1.
       -1    1    3    3    0  502  0.26992520536E+03  0.75958184670E+03 -0.64948382844E+03  0.10352069560E+04  0.50400001928E-02 0.  1.
</event>
<event>
 5   0  0.6862201E-06  0.1900530E+04  0.7818609E-02  0.8654593E-01
        2   -1    0    0  501    0  0.00000000000E+00  0.00000000000E+00  0.14792082604E+04  0.14792082604E+04  0.25500000920E-02 0.  1.
       -2   -1    0    0    0  501  0.00000000000E+00  0.00000000000E+00 -0.61046404604E+03  0.61046404605E+03  0.25500000920E-02 0. -1.
    10030    2    1    2    0    0  0.00000000000E+00  0.00000000000E+00  0.86874421432E+03  0.20896723064E+04  0.19005298835E+04 0.  0.
        3    1    3    3  502    0 -0.67676352584E+03 -0.50950880784E+03 -0.39054767956E+02  0.84801732309E+03  0.10100000352E+00 0. -1.
       -3    1    3    3    0  502  0.67676352584E+03  0.50950880784E+03  0.90779898228E+03  0.12416549833E+04  0.10100000352E+00 0.  1.
</event>
<event>
 5   0  0.7577180E-06  0.1888599E+04  0.7818609E-02  0.8660552E-01
       -2   -1    0    0    0  501  0.00000000000E+00  0.00000000000E+00  0.58086199548E+03  0.58086199548E+03  0.25500000920E-02 0.  1.
        2   -1    0    0  501    0  0.00000000000E+00  0.00000000000E+00 -0.15351349887E+04  0.15351349887E+04  0.25500000920E-02 0. -1.
    10030    2    1    2    0    0  0.00000000000E+00  0.00000000000E+00 -0.95427299321E+03  0.21159969842E+04  0.18885990288E+04 0.  0.
        5    1    3    3  502    0 -0.39409183920E+03  0.48358394600E+03 -0.12713750274E+04  0.14161844374E+04  0.46999998093E+01 0. -1.
       -5    1    3    3    0  502  0.39409183920E+03 -0.48358394600E+03  0.31710203415E+03  0.69981254677E+03  0.46999998093E+01 0.  1.
</event>
<event>
 5   0  0.6984466E-06  0.1899828E+04  0.7818609E-02  0.8654942E-01
       -2   -1    0    0    0  501  0.00000000000E+00  0.00000000000E+00  0.64280115231E+03  0.64280115231E+03  0.25500000920E-02 0. -1.
        2   -1    0    0  501    0  0.00000000000E+00  0.00000000000E+00 -0.14037563604E+04  0.14037563604E+04  0.25500000920E-02 0.  1.
    10030    2    1    2    0    0  0.00000000000E+00  0.00000000000E+00 -0.76095520811E+03  0.20465575127E+04  0.18998275775E+04 0.  0.
        2    1    3    3  502    0 -0.52430710588E+03  0.59671831292E+03  0.18068290244E+03  0.81462690693E+03  0.25500000920E-02 0. -1.
       -2    1    3    3    0  502  0.52430710588E+03 -0.59671831292E+03 -0.94163811055E+03  0.12319306058E+04  0.25500000920E-02 0.  1.
</event>
<event>
 5   0  0.6984466E-06  0.1899575E+04  0.7818609E-02  0.8655068E-01
       -2   -1    0    0    0  501  0.00000000000E+00  0.00000000000E+00  0.11207722850E+04  0.11207722850E+04  0.25500000920E-02 0. -1.
        2   -1    0    0  501    0  0.00000000000E+00  0.00000000000E+00 -0.80488786857E+03  0.80488786857E+03  0.25500000920E-02 0.  1.
    10030    2    1    2    0    0  0.00000000000E+00  0.00000000000E+00  0.31588441647E+03  0.19256601536E+04  0.18995747057E+04 0.  0.
        2    1    3    3  502    0 -0.39855925119E+03  0.59577270312E+02  0.10298091688E+04  0.11058507368E+04  0.25500000920E-02 0. -1.
       -2    1    3    3    0  502  0.39855925119E+03 -0.59577270312E+02 -0.71392475237E+03  0.81980941682E+03  0.25500000920E-02 0.  1.
</event>
<event>
 5   0  0.6862201E-06  0.1899570E+04  0.7818609E-02  0.8655070E-01
       -2   -1    0    0    0  501  0.00000000000E+00  0.00000000000E+00  0.12062247094E+04  0.12062247094E+04  0.25500000920E-02 0.  1.
        2   -1    0    0  501    0  0.00000000000E+00  0.00000000000E+00 -0.74786390474E+03  0.74786390474E+03  0.25500000920E-02 0. -1.
    10030    2    1    2    0    0  0.00000000000E+00  0.00000000000E+00  0.45836080467E+03  0.19540886142E+04  0.18995703948E+04 0.  0.
        3    1    3    3  502    0 -0.99127315126E+02 -0.29519858053E+03 -0.69385872109E+03  0.76053163089E+03  0.10100000352E+00 0. -1.
       -3    1    3    3    0  502  0.99127315126E+02  0.29519858053E+03  0.11522195258E+04  0.11935569833E+04  0.10100000352E+00 0.  1.
</event>
<event>
 5   0  0.3495279E-06  0.1900440E+04  0.7818609E-02  0.8654637E-01
        1   -1    0    0  501    0  0.00000000000E+00  0.00000000000E+00  0.98458201585E+03  0.98458201586E+03  0.50400001928E-02 0. -1.
       -1   -1    0    0    0  501  0.00000000000E+00  0.00000000000E+00 -0.91705770362E+03  0.91705770363E+03  0.50400001928E-02 0.  1.
    10030    2    1    2    0    0  0.00000000000E+00  0.00000000000E+00  0.67524312235E+02  0.19016397195E+04  0.19004404989E+04 0.  0.
        2    1    3    3  502    0  0.61623525334E+03 -0.46564577886E+03  0.58759732008E+03  0.97048569768E+03  0.25500000920E-02 0. -1.
       -2    1    3    3    0  502 -0.61623525334E+03  0.46564577886E+03 -0.52007300785E+03  0.93115402181E+03  0.25500000920E-02 0.  1.
</event>
<event>
 5   0  0.6870370E-06  0.1901786E+04  0.7818609E-02  0.8653968E-01
        2   -1    0    0  501    0  0.00000000000E+00  0.00000000000E+00  0.15037155367E+04  0.15037155367E+04  0.25500000920E-02 0.  1.
       -2   -1    0    0    0  501  0.00000000000E+00  0.00000000000E+00 -0.60130887628E+03  0.60130887628E+03  0.25500000920E-02 0. -1.
    10030    2    1    2    0    0  0.00000000000E+00  0.00000000000E+00  0.90240666041E+03  0.21050244130E+04  0.19017860023E+04 0.  0.
        1    1    3    3  502    0  0.85937670272E+03  0.76049184105E+02  0.86146448171E+01  0.86277807559E+03  0.50400001928E-02 0. -1.
       -1    1    3    3    0  502 -0.85937670272E+03 -0.76049184105E+02  0.89379201560E+03  0.12422463374E+04  0.50400001928E-02 0.  1.
</event>
<event>
 5   0  0.3236653E-06  0.1898297E+04  0.7818609E-02  0.8655705E-01
        1   -1    0    0  501    0  0.00000000000E+00  0.00000000000E+00  0.81274437882E+03  0.81274437883E+03  0.50400001928E-02 0. -1.
       -1   -1    0    0    0  501  0.00000000000E+00  0.00000000000E+00 -0.11084450877E+04  0.11084450877E+04  0.50400001928E-02 0.  1.
    10030    2    1    2    0    0  0.00000000000E+00  0.00000000000E+00 -0.29570070889E+03  0.19211894666E+04  0.18982966199E+04 0.  0.
        3    1    3    3  502    0 -0.73452627352E+03  0.17756023117E+02 -0.75596128402E+03  0.10541923904E+04  0.10100000352E+00 0.  1.
       -3    1    3    3    0  502  0.73452627352E+03 -0.17756023117E+02  0.46026057513E+03  0.86699707615E+03  0.10100000352E+00 0. -1.
</event>
<event>
 5   0  0.3236653E-06  0.1895975E+04  0.7818609E-02  0.8656863E-01
       -1   -1    0    0    0  501  0.00000000000E+00  0.00000000000E+00  0.64401902693E+03  0.64401902695E+03  0.50400001928E-02 0.  1.
        1   -1    0    0  501    0  0.00000000000E+00  0.00000000000E+00 -0.13954248024E+04  0.13954248024E+04  0.50400001928E-02 0. -1.
    10030    2    1    2    0    0  0.00000000000E+00  0.00000000000E+00 -0.75140577546E+03  0.20394438294E+04  0.18959748136E+04 0.  0.
        3    1    3    3  502    0 -0.16905388960E+03 -0.77176420915E+03 -0.93925651577E+03  0.12273557042E+04  0.10100000352E+00 0. -1.
       -3    1    3    3    0  502  0.16905388960E+03  0.77176420915E+03  0.18785074031E+03  0.81208812511E+03  0.10100000352E+00 0.  1.
</event>
<event>
 5   0  0.3379108E-06  0.1900081E+04  0.7818609E-02  0.8654816E-01
       -1   -1    0    0    0  501  0.00000000000E+00  0.00000000000E+00  0.37964926177E+03  0.37964926180E+03  0.50400001928E-02 0.  1.
        1   -1    0    0  501    0  0.00000000000E+00  0.00000000000E+00 -0.23773959100E+04  0.23773959100E+04  0.50400001928E-02 0. -1.
    10030    2    1    2    0    0  0.00000000000E+00  0.00000000000E+00 -0.19977466483E+04  0.27570451718E+04  0.19000806322E+04 0.  0.
        4    1    3    3  502    0 -0.52929322285E+02 -0.92451171206E+03 -0.69089027254E+03  0.11553589920E+04  0.12699999809E+01 0.  1.
       -4    1    3    3    0  502  0.52929322285E+02  0.92451171206E+03 -0.13068563757E+04  0.16016861798E+04  0.12699999809E+01 0. -1.
</event>
<event>
 5   0  0.7207648E-06  0.1900028E+04  0.7818609E-02  0.8654842E-01
        2   -1    0    0  501    0  0.00000000000E+00  0.00000000000E+00  0.18838029605E+04  0.18838029605E+04  0.25500000920E-02 0. -1.
       -2   -1    0    0    0  501  0.00000000000E+00  0.00000000000E+00 -0.47909820474E+03  0.47909820475E+03  0.25500000920E-02 0.  1.
    10030    2    1    2    0    0  0.00000000000E+00  0.00000000000E+00  0.14047047558E+04  0.23629011653E+04  0.19000280171E+04 0.  0.
        4    1    3    3  502    0  0.79204060572E+03  0.35969275324E+03  0.11772399792E+04  0.14637632252E+04  0.12699999809E+01 0. -1.
       -4    1    3    3    0  502 -0.79204060572E+03 -0.35969275324E+03  0.22746477659E+03  0.89913794010E+03  0.12699999809E+01 0.  1.
</event>
<event>
 5   0  0.3236653E-06  0.1902187E+04  0.7818609E-02  0.8653768E-01
       -1   -1    0    0    0  501  0.00000000000E+00  0.00000000000E+00  0.47582047520E+03  0.47582047522E+03  0.50400001928E-02 0. -1.
        1   -1    0    0  501    0  0.00000000000E+00  0.00000000000E+00 -0.19010929401E+04  0.19010929401E+04  0.50400001928E-02 0.  1.
    10030    2    1    2    0    0  0.00000000000E+00  0.00000000000E+00 -0.14252724649E+04  0.23769134153E+04  0.19021871056E+04 0.  0.
        3    1    3    3  502    0 -0.55862060645E+02 -0.31488251073E+03  0.40662257212E+03  0.51731372662E+03  0.10100000352E+00 0. -1.
       -3    1    3    3    0  502  0.55862060645E+02  0.31488251073E+03 -0.18318950370E+04  0.18595996887E+04  0.10100000352E+00 0.  1.
</event>
<event>
 5   0  0.7577180E-06  0.1899952E+04  0.7818609E-02  0.8654880E-01
        2   -1    0    0  501    0  0.00000000000E+00  0.00000000000E+00  0.13902995184E+04  0.13902995184E+04  0.25500000920E-02 0.  1.
       -2   -1    0    0    0  501  0.00000000000E+00  0.00000000000E+00 -0.64910798495E+03  0.64910798495E+03  0.25500000920E-02 0. -1.
    10030    2    1    2    0    0  0.00000000000E+00  0.00000000000E+00  0.74119153344E+03  0.20394075034E+04  0.18999521245E+04 0.  0.
        5    1    3    3  502    0  0.66313043825E+03 -0.22653678319E+03  0.10590553896E+04  0.12699138950E+04  0.46999998093E+01 0.  1.
       -5    1    3    3    0  502 -0.66313043825E+03  0.22653678319E+03 -0.31786385621E+03  0.76949360839E+03  0.46999998093E+01 0. -1.
</event>
<event>
 5   0  0.3236653E-06  0.1900122E+04  0.7818609E-02  0.8654796E-01
        1   -1    0    0  501    0  0.00000000000E+00  0.00000000000E+00  0.63142722235E+03  0.63142722237E+03  0.50400001928E-02 0.  1.
       -1   -1    0    0    0  501  0.00000000000E+00  0.00000000000E+00 -0.14294847746E+04  0.14294847747E+04  0.50400001928E-02 0. -1.
    10030    2    1    2    0    0  0.00000000000E+00  0.00000000000E+00 -0.79805755230E+03  0.20609119970E+04  0.19001216810E+04 0.  0.
        3    1    3    3  502    0  0.24058407555E+03 -0.88788241964E+03 -0.65661132627E+03  0.11302010142E+04  0.10100000352E+00 0. -1.
       -3    1    3    3    0  502 -0.24058407555E+03  0.88788241964E+03 -0.14144622603E+03  0.93071098283E+03  0.10100000352E+00 0.  1.
</event>
<event>
 5   0  0.6870370E-06  0.1899373E+04  0.7818609E-02  0.8655169E-01
        2   -1    0    0  501    0  0.00000000000E+00  0.00000000000E+00  0.14877525442E+04  0.14877525442E+04  0.25500000920E-02 0.  1.
       -2   -1    0    0    0  501  0.00000000000E+00  0.00000000000E+00 -0.60621910121E+03  0.60621910121E+03  0.25500000920E-02 0. -1.
    10030    2    1    2    0    0  0.00000000000E+00  0.00000000000E+00  0.88153344295E+03  0.20939716454E+04  0.18993725387E+04 0.  0.
        1    1    3    3  502    0 -0.93578185515E+03  0.77216417099E+02  0.28386938960E+03  0.98093419039E+03  0.50400001928E-02 0. -1.
       -1    1    3    3    0  502  0.93578185515E+03 -0.77216417099E+02  0.59766405335E+03  0.11130374550E+04  0.50400001928E-02 0.  1.
</event>
<event>
 5   0  0.3236653E-06  0.1901153E+04  0.7818609E-02  0.8654283E-01
       -1   -1    0    0    0  501  0.00000000000E+00  0.00000000000E+00  0.46729011803E+03  0.46729011805E+03  0.50400001928E-02 0. -1.
        1   -1    0    0  501    0  0.00000000000E+00  0.00000000000E+00 -0.19336936924E+04  0.19336936924E+04  0.50400001928E-02 0.  1.
    10030    2    1    2    0    0  0.00000000000E+00  0.00000000000E+00 -0.14664035743E+04  0.24009838104E+04  0.19011532855E+04 0.  0.
        3    1    3    3  502    0 -0.49264268241E+03  0.77330870379E+03 -0.41648397254E+03  0.10070561422E+04  0.10100000352E+00 0. -1.
       -3    1    3    3    0  502  0.49264268241E+03 -0.77330870379E+03 -0.10499196018E+04  0.13939276682E+04  0.10100000352E+00 0.  1.
</event>
<event>
 5   0  0.7577180E-06  0.1900175E+04  0.7818609E-02  0.8654769E-01
       -2   -1    0    0    0  501  0.00000000000E+00  0.00000000000E+00  0.76016617228E+03  0.76016617228E+03  0.25500000920E-02 0.  1.
        2   -1    0    0  501    0  0.00000000000E+00  0.00000000000E+00 -0.11874596428E+04  0.11874596428E+04  0.25500000920E-02 0. -1.
    10030    2    1    2    0    0  0.00000000000E+00  0.00000000000E+00 -0.42729347052E+03  0.19476258151E+04  0.19001754144E+04 0.  0.
        5    1    3    3  502    0  0.28856805864E+03 -0.66397401124E+03  0.41694953164E+03  0.83546514829E+03  0.46999998093E+01 0.  1.
       -5    1    3    3    0  502 -0.28856805864E+03  0.66397401124E+03 -0.84424300216E+03  0.11121606668E+04  0.46999998093E+01 0. -1.
</event>
<event>
 5   0  0.6862201E-06  0.1899891E+04  0.7818609E-02  0.8654911E-01
        2   -1    0    0  501    0  0.00000000000E+00  0.00000000000E+00  0.12784561696E+04  0.12784561696E+04  0.25500000920E-02 0.  1.
       -2   -1    0    0    0  501  0.00000000000E+00  0.00000000000E+00 -0.70584844793E+03  0.70584844794E+03  0.25500000920E-02 0. -1.
    10030    2    1    2    0    0  0.00000000000E+00  0.00000000000E+00  0.57260772164E+03  0.19843046175E+04  0.18998908422E+04 0.  0.
        3    1    3    3  502    0 -0.26100630343E+03 -0.85330912667E+03 -0.53955517288E+02  0.89396418505E+03  0.10100000352E+00 0. -1.
       -3    1    3    3    0  502  0.26100630343E+03  0.85330912667E+03  0.62656323893E+03  0.10903404325E+04  0.10100000352E+00 0.  1.
</event>
<event>
 5   0  0.6862201E-06  0.1896623E+04  0.7818609E-02  0.8656539E-01
        2   -1    0    0  501    0  0.00000000000E+00  0.00000000000E+00  0.71084574651E+03  0.71084574652E+03  0.25500000920E-02 0. -1.
       -2   -1    0    0    0  501  0.00000000000E+00  0.00000000000E+00 -0.12651046202E+04  0.12651046202E+04  0.25500000920E-02 0.  1.
    10030    2    1    2    0    0  0.00000000000E+00  0.00000000000E+00 -0.55425887372E+03  0.19759503668E+04  0.18966225119E+04 0.  0.
        3    1    3    3  502    0  0.27094049772E+03  0.77238202895E+03 -0.77602314326E+03  0.11279160789E+04  0.10100000352E+00 0.  1.
       -3    1    3    3    0  502 -0.27094049772E+03 -0.77238202895E+03  0.22176426953E+03  0.84803428786E+03  0.10100000352E+00 0. -1.
</event>
<event>
 5   0  0.3398807E-06  0.1900066E+04  0.7818609E-02  0.8654824E-01
        1   -1    0    0  501    0  0.00000000000E+00  0.00000000000E+00  0.87138484758E+03  0.87138484760E+03  0.50400001928E-02 0. -1.
       -1   -1    0    0    0  501  0.00000000000E+00  0.00000000000E+00 -0.10357792205E+04  0.10357792205E+04  0.50400001928E-02 0.  1.
    10030    2    1    2    0    0  0.00000000000E+00  0.00000000000E+00 -0.16439437293E+03  0.19071640681E+04  0.19000655970E+04 0.  0.
        1    1    3    3  502    0 -0.56279477278E+03 -0.76223742408E+03 -0.12522648397E+02  0.94757620468E+03  0.50400001928E-02 0. -1.
       -1    1    3    3    0  502  0.56279477278E+03  0.76223742408E+03 -0.15187172454E+03  0.95958786345E+03  0.50400001928E-02 0.  1.
</event>
<event>
 5   0  0.3379108E-06  0.1899816E+04  0.7818609E-02  0.8654948E-01
       -1   -1    0    0    0  501  0.00000000000E+00  0.00000000000E+00  0.63519944872E+03  0.63519944874E+03  0.50400001928E-02 0. -1.
        1   -1    0    0  501    0  0.00000000000E+00  0.00000000000E+00 -0.14205385732E+04  0.14205385732E+04  0.50400001928E-02 0.  1.
    10030    2    1    2    0    0  0.00000000000E+00  0.00000000000E+00 -0.78533912443E+03  0.20557380219E+04  0.18998161159E+04 0.  0.
        4    1    3    3  502    0 -0.60363712147E+01  0.48830892154E+03  0.48896468976E+03  0.69106448423E+03  0.12699999809E+01 0. -1.
       -4    1    3    3    0  502  0.60363712147E+01 -0.48830892154E+03 -0.12743038142E+04  0.13646735377E+04  0.12699999809E+01 0.  1.
</event>
<event>
 5   0  0.3398807E-06  0.1899762E+04  0.7818609E-02  0.8654975E-01
       -1   -1    0    0    0  501  0.00000000000E+00  0.00000000000E+00  0.77397744721E+03  0.77397744722E+03  0.50400001928E-02 0. -1.
        1   -1    0    0  501    0  0.00000000000E+00  0.00000000000E+00 -0.11657627209E+04  0.11657627209E+04  0.50400001928E-02 0.  1.
    10030    2    1    2    0    0  0.00000000000E+00  0.00000000000E+00 -0.39178527367E+03  0.19397401681E+04  0.18997621480E+04 0.  0.
        1    1    3    3  502    0  0.50330240139E+03 -0.49082657258E+03 -0.84812302975E+03  0.11016064203E+04  0.50400001928E-02 0.  1.
       -1    1    3    3    0  502 -0.50330240139E+03  0.49082657258E+03  0.45633775608E+03  0.83813374783E+03  0.50400001928E-02 0. -1.
</event>
<event>
 5   0  0.3211263E-06  0.1900180E+04  0.7818609E-02  0.8654767E-01
       -1   -1    0    0    0  501  0.00000000000E+00  0.00000000000E+00  0.44157698938E+03  0.44157698941E+03  0.50400001928E-02 0.  1.
        1   -1    0    0  501    0  0.00000000000E+00  0.00000000000E+00 -0.20441978309E+04  0.20441978309E+04  0.50400001928E-02 0. -1.
    10030    2    1    2    0    0  0.00000000000E+00  0.00000000000E+00 -0.16026208415E+04  0.24857748203E+04  0.19001797009E+04 0.  0.
        5    1    3    3  502    0 -0.22075702938E+03 -0.52911351977E+03  0.18976247101E+03  0.60392604533E+03  0.46999998093E+01 0.  1.
       -5    1    3    3    0  502  0.22075702938E+03  0.52911351977E+03 -0.17923833125E+04  0.18818487749E+04  0.46999998093E+01 0. -1.
</event>
<event>
 5   0  0.3236653E-06  0.1901184E+04  0.7818609E-02  0.8654267E-01
        1   -1    0    0  501    0  0.00000000000E+00  0.00000000000E+00  0.12124368085E+04  0.12124368085E+04  0.50400001928E-02 0.  1.
       -1   -1    0    0    0  501  0.00000000000E+00  0.00000000000E+00 -0.74529635680E+03  0.74529635682E+03  0.50400001928E-02 0. -1.
    10030    2    1    2    0    0  0.00000000000E+00  0.00000000000E+00  0.46714045168E+03  0.19577331653E+04  0.19011835642E+04 0.  0.
        3    1    3    3  502    0  0.10734323869E+03  0.94864082511E+02  0.12012576953E+04  0.12097693275E+04  0.10100000352E+00 0.  1.
       -3    1    3    3    0  502 -0.10734323869E+03 -0.94864082511E+02 -0.73411724363E+03  0.74796383779E+03  0.10100000352E+00 0. -1.
</event>
<event>
 5   0  0.3379108E-06  0.1900111E+04  0.7818609E-02  0.8654801E-01
       -1   -1    0    0    0  501  0.00000000000E+00  0.00000000000E+00  0.37022111247E+03  0.37022111251E+03  0.50400001928E-02 0. -1.
        1   -1    0    0  501    0  0.00000000000E+00  0.00000000000E+00 -0.24380182876E+04  0.24380182876E+04  0.50400001928E-02 0.  1.
    10030    2    1    2    0    0  0.00000000000E+00  0.00000000000E+00 -0.20677971752E+04  0.28082394002E+04  0.19001114101E+04 0.  0.
        4    1    3    3  502    0 -0.65310284587E+03  0.64177917600E+03 -0.65948099683E+03  0.11284239612E+04  0.12699999809E+01 0.  1.
       -4    1    3    3    0  502  0.65310284587E+03 -0.64177917600E+03 -0.14083161783E+04  0.16798154390E+04  0.12699999809E+01 0. -1.
</event>
<event>
 5   0  0.3495279E-06  0.1900349E+04  0.7818609E-02  0.8654683E-01
        1   -1    0    0  501    0  0.00000000000E+00  0.00000000000E+00  0.12866229365E+04  0.12866229365E+04  0.50400001928E-02 0.  1.
       -1   -1    0    0    0  501  0.00000000000E+00  0.00000000000E+00 -0.70170615141E+03  0.70170615142E+03  0.50400001928E-02 0. -1.
    10030    2    1    2    0    0  0.00000000000E+00  0.00000000000E+00  0.58491678512E+03  0.19883290880E+04  0.19003486303E+04 0.  0.
        2    1    3    3  502    0 -0.33346775128E+03  0.16348335147E+01  0.12233851356E+04  0.12680199540E+04  0.25500000920E-02 0.  1.
       -2    1    3    3    0  502  0.33346775128E+03 -0.16348335147E+01 -0.63846835049E+03  0.72030913392E+03  0.25500000920E-02 0. -1.
</event>
<event>
 5   0  0.6984466E-06  0.1900237E+04  0.7818609E-02  0.8654739E-01
        2   -1    0    0  501    0  0.00000000000E+00  0.00000000000E+00  0.25607854277E+04  0.25607854277E+04  0.25500000920E-02 0. -1.
       -2   -1    0    0    0  501  0.00000000000E+00  0.00000000000E+00 -0.35251878802E+03  0.35251878803E+03  0.25500000920E-02 0.  1.
    10030    2    1    2    0    0  0.00000000000E+00  0.00000000000E+00  0.22082666397E+04  0.29133042158E+04  0.19002368014E+04 0.  0.
        2    1    3    3  502    0  0.31303417841E+03  0.33581781023E+03 -0.17118592734E+03  0.48996797880E+03  0.25500000920E-02 0.  1.
       -2    1    3    3    0  502 -0.31303417841E+03 -0.33581781023E+03  0.23794525671E+04  0.24233362370E+04  0.25500000920E-02 0. -1.
</event>
<event>
 5   0  0.3211263E-06  0.1901262E+04  0.7818609E-02  0.8654229E-01
        1   -1    0    0  501    0  0.00000000000E+00  0.00000000000E+00  0.20689547238E+04  0.20689547238E+04  0.50400001928E-02 0. -1.
       -1   -1    0    0    0  501  0.00000000000E+00  0.00000000000E+00 -0.43679006779E+03  0.43679006782E+03  0.50400001928E-02 0.  1.
    10030    2    1    2    0    0  0.00000000000E+00  0.00000000000E+00  0.16321646560E+04  0.25057447916E+04  0.19012615539E+04 0.  0.
        5    1    3    3  502    0 -0.85235889701E+02  0.84502185441E+03  0.13788737742E+04  0.16194573370E+04  0.46999998093E+01 0. -1.
       -5    1    3    3    0  502  0.85235889701E+02 -0.84502185441E+03  0.25329088181E+03  0.88628745457E+03  0.46999998093E+01 0.  1.
</event>
<event>
 5   0  0.3236653E-06  0.1900266E+04  0.7818609E-02  0.8654724E-01
       -1   -1    0    0    0  501  0.00000000000E+00  0.00000000000E+00  0.10255164179E+04  0.10255164179E+04  0.50400001928E-02 0. -1.
        1   -1    0    0  501    0  0.00000000000E+00  0.00000000000E+00 -0.88029084802E+03  0.88029084803E+03  0.50400001928E-02 0.  1.
    10030    2    1    2    0    0  0.00000000000E+00  0.00000000000E+00  0.14522556984E+03  0.19058072659E+04  0.19002659994E+04 0.  0.
        3    1    3    3  502    0 -0.49181128316E+02  0.40823938486E+02 -0.87813223087E+03  0.88045533812E+03  0.10100000352E+00 0.  1.
       -3    1    3    3    0  502  0.49181128316E+02 -0.40823938486E+02  0.10233578007E+04  0.10253519278E+04  0.10100000352E+00 0. -1.
</event>
<event>
 5   0  0.6984466E-06  0.1900815E+04  0.7818609E-02  0.8654451E-01
       -2   -1    0    0    0  501  0.00000000000E+00  0.00000000000E+00  0.50936697724E+03  0.50936697725E+03  0.25500000920E-02 0.  1.
        2   -1    0    0  501    0  0.00000000000E+00  0.00000000000E+00 -0.17733275523E+04  0.17733275523E+04  0.25500000920E-02 0. -1.
    10030    2    1    2    0    0  0.00000000000E+00  0.00000000000E+00 -0.12639605751E+04  0.22826945296E+04  0.19008150831E+04 0.  0.
        2    1    3    3  502    0  0.22691348834E+03  0.67189528834E+03 -0.13918221673E+04  0.15620825699E+04  0.25500000920E-02 0. -1.
       -2    1    3    3    0  502 -0.22691348834E+03 -0.67189528834E+03  0.12786159223E+03  0.72061195970E+03  0.25500000920E-02 0.  1.
</event>
<event>
 5   0  0.3495279E-06  0.1900051E+04  0.7818609E-02  0.8654831E-01
        1   -1    0    0  501    0  0.00000000000E+00  0.00000000000E+00  0.76912841128E+03  0.76912841130E+03  0.50400001928E-02 0.  1.
       -1   -1    0    0    0  501  0.00000000000E+00  0.00000000000E+00 -0.11734691977E+04  0.11734691977E+04  0.50400001928E-02 0. -1.
    10030    2    1    2    0    0  0.00000000000E+00  0.00000000000E+00 -0.40434078641E+03  0.19425976090E+04  0.19000510517E+04 0.  0.
        2    1    3    3  502    0  0.90486290594E+03  0.21214385800E+03 -0.40347163907E+03  0.10131985287E+04  0.25500000920E-02 0. -1.
       -2    1    3    3    0  502 -0.90486290594E+03 -0.21214385800E+03 -0.86914734250E+00  0.92939908030E+03  0.25500000920E-02 0.  1.
</event>
<event>
 5   0  0.3211263E-06  0.1900287E+04  0.7818609E-02  0.8654714E-01
       -1   -1    0    0    0  501  0.00000000000E+00  0.00000000000E+00  0.67786125943E+03  0.67786125945E+03  0.50400001928E-02 0. -1.
        1   -1    0    0  501    0  0.00000000000E+00  0.00000000000E+00 -0.13317953751E+04  0.13317953751E+04  0.50400001928E-02 0.  1.
    10030    2    1    2    0    0  0.00000000000E+00  0.00000000000E+00 -0.65393411563E+03  0.20096566345E+04  0.19002868102E+04 0.  0.
        5    1    3    3  502    0 -0.12884123077E+02  0.64613536227E+03 -0.10635394416E+04  0.12445059826E+04  0.46999998093E+01 0.  1.
       -5    1    3    3    0  502  0.12884123077E+02 -0.64613536227E+03  0.40960532597E+03  0.76515065188E+03  0.46999998093E+01 0. -1.
</event>
<event>
 5   0  0.6870370E-06  0.1899839E+04  0.7818609E-02  0.8654937E-01
       -2   -1    0    0    0  501  0.00000000000E+00  0.00000000000E+00  0.59819996607E+03  0.59819996608E+03  0.25500000920E-02 0. -1.
        2   -1    0    0  501    0  0.00000000000E+00  0.00000000000E+00 -0.15084369365E+04  0.15084369365E+04  0.25500000920E-02 0.  1.
    10030    2    1    2    0    0  0.00000000000E+00  0.00000000000E+00 -0.91023697042E+03  0.21066369026E+04  0.18998388608E+04 0.  0.
        1    1    3    3  502    0  0.14295670479E+03 -0.92990642915E+03 -0.60047661327E+03  0.11161248808E+04  0.50400001928E-02 0.  1.
       -1    1    3    3    0  502 -0.14295670479E+03  0.92990642915E+03 -0.30976035716E+03  0.99051202178E+03  0.50400001928E-02 0. -1.
</event>
<event>
 5   0  0.6984466E-06  0.1899806E+04  0.7818609E-02  0.8654953E-01
       -2   -1    0    0    0  501  0.00000000000E+00  0.00000000000E+00  0.92334815749E+03  0.92334815749E+03  0.25500000920E-02 0. -1.
        2   -1    0    0  501    0  0.00000000000E+00  0.00000000000E+00 -0.97722112775E+03  0.97722112775E+03  0.25500000920E-02 0.  1.
    10030    2    1    2    0    0  0.00000000000E+00  0.00000000000E+00 -0.53872970254E+02  0.19005692852E+04  0.18998055982E+04 0.  0.
        2    1    3    3  502    0 -0.17147871042E+03  0.47829741264E+03 -0.82984366239E+03  0.97304361006E+03  0.25500000920E-02 0.  1.
       -2    1    3    3    0  502  0.17147871042E+03 -0.47829741264E+03  0.77597069214E+03  0.92752567518E+03  0.25500000920E-02 0. -1.
</event>
<event>
 5   0  0.7207648E-06  0.1901573E+04  0.7818609E-02  0.8654074E-01
        2   -1    0    0  501    0  0.00000000000E+00  0.00000000000E+00  0.10928306081E+04  0.10928306081E+04  0.25500000920E-02 0.  1.
       -2   -1    0    0    0  501  0.00000000000E+00  0.00000000000E+00 -0.82720525242E+03  0.82720525242E+03  0.25500000920E-02 0. -1.
    10030    2    1    2    0    0  0.00000000000E+00  0.00000000000E+00  0.26562535571E+03  0.19200358606E+04  0.19015732634E+04 0.  0.
        4    1    3    3  502    0  0.71791617907E+03 -0.93768252139E+02 -0.48944794239E+03  0.87393193470E+03  0.12699999809E+01 0. -1.
       -4    1    3    3    0  502 -0.71791617907E+03  0.93768252139E+02  0.75507329810E+03  0.10461039259E+04  0.12699999809E+01 0.  1.
</event>
<event>
 5   0  0.7577180E-06  0.1900643E+04  0.7818609E-02  0.8654536E-01
        2   -1    0    0  501    0  0.00000000000E+00  0.00000000000E+00  0.16475834006E+04  0.16475834006E+04  0.25500000920E-02 0. -1.
       -2   -1    0    0    0  501  0.00000000000E+00  0.00000000000E+00 -0.54814301718E+03  0.54814301718E+03  0.25500000920E-02 0.  1.
    10030    2    1    2    0    0  0.00000000000E+00  0.00000000000E+00  0.10994403834E+04  0.21957264178E+04  0.19006434029E+04 0.  0.
        5    1    3    3  502    0 -0.25598518395E+03  0.57544062053E+03 -0.27240287866E+03  0.68621114860E+03  0.46999998093E+01 0.  1.
       -5    1    3    3    0  502  0.25598518395E+03 -0.57544062053E+03  0.13718432621E+04  0.15095152692E+04  0.46999998093E+01 0. -1.
</event>
<event>
 5   0  0.7207648E-06  0.1900063E+04  0.7818609E-02  0.8654825E-01
        2   -1    0    0  501    0  0.00000000000E+00  0.00000000000E+00  0.17944053705E+04  0.17944053705E+04  0.25500000920E-02 0. -1.
       -2   -1    0    0    0  501  0.00000000000E+00  0.00000000000E+00 -0.50298532544E+03  0.50298532544E+03  0.25500000920E-02 0.  1.
    10030    2    1    2    0    0  0.00000000000E+00  0.00000000000E+00  0.12914200451E+04  0.22973906960E+04  0.19000627035E+04 0.  0.
        4    1    3    3  502    0 -0.51018309648E+03  0.44022374317E+03 -0.16401146910E+03  0.69353090117E+03  0.12699999809E+01 0.  1.
       -4    1    3    3    0  502  0.51018309648E+03 -0.44022374317E+03  0.14554315142E+04  0.16038597948E+04  0.12699999809E+01 0. -1.
</event>
<event>
 5   0  0.6870370E-06  0.1899637E+04  0.7818609E-02  0.8655037E-01
       -2   -1    0    0    0  501  0.00000000000E+00  0.00000000000E+00  0.50397650715E+03  0.50397650715E+03  0.25500000920E-02 0.  1.
        2   -1    0    0  501    0  0.00000000000E+00  0.00000000000E+00 -0.17900740281E+04  0.17900740281E+04  0.25500000920E-02 0. -1.
    10030    2    1    2    0    0  0.00000000000E+00  0.00000000000E+00 -0.12860975210E+04  0.22940505353E+04  0.18996370772E+04 0.  0.
        1    1    3    3  502    0 -0.24087624085E+03 -0.57413585485E+03  0.22316651881E+03  0.66140504864E+03  0.50400001928E-02 0.  1.
       -1    1    3    3    0  502  0.24087624085E+03  0.57413585485E+03 -0.15092640398E+04  0.16326454867E+04  0.50400001928E-02 0. -1.
</event>
<event>
 5   0  0.3379108E-06  0.1903496E+04  0.7818609E-02  0.8653118E-01
       -1   -1    0    0    0  501  0.00000000000E+00  0.00000000000E+00  0.53032563475E+03  0.53032563477E+03  0.50400001928E-02 0.  1.
        1   -1    0    0  501    0  0.00000000000E+00  0.00000000000E+00 -0.17080530700E+04  0.17080530700E+04  0.50400001928E-02 0. -1.
    10030    2    1    2    0    0  0.00000000000E+00  0.00000000000E+00 -0.11777274352E+04  0.22383787047E+04  0.19034960767E+04 0.  0.
        4    1    3    3  502    0 -0.71637748641E+03  0.62515475437E+03 -0.63885867724E+03  0.11454943004E+04  0.12699999809E+01 0. -1.
       -4    1    3    3    0  502  0.71637748641E+03 -0.62515475437E+03 -0.53886875798E+03  0.10928844043E+04  0.12699999809E+01 0.  1.
</event>
<event>
 5   0  0.6984466E-06  0.1899690E+04  0.7818609E-02  0.8655011E-01
       -2   -1    0    0    0  501  0.00000000000E+00  0.00000000000E+00  0.59800660611E+03  0.59800660611E+03  0.25500000920E-02 0.  1.
        2   -1    0    0  501    0  0.00000000000E+00  0.00000000000E+00 -0.15086880471E+04  0.15086880471E+04  0.25500000920E-02 0. -1.
    10030    2    1    2    0    0  0.00000000000E+00  0.00000000000E+00 -0.91068144099E+03  0.21066946532E+04  0.18996898891E+04 0.  0.
        2    1    3    3  502    0  0.68851860089E+03 -0.65328690169E+03 -0.49629420764E+03  0.10710506898E+04  0.25500000920E-02 0.  1.
       -2    1    3    3    0  502 -0.68851860089E+03  0.65328690169E+03 -0.41438723335E+03  0.10356439634E+04  0.25500000920E-02 0. -1.
</event>
<event>
 5   0  0.6862201E-06  0.1902629E+04  0.7818609E-02  0.8653549E-01
        2   -1    0    0  501    0  0.00000000000E+00  0.00000000000E+00  0.18025943636E+04  0.18025943636E+04  0.25500000920E-02 0.  1.
       -2   -1    0    0    0  501  0.00000000000E+00  0.00000000000E+00 -0.50205376727E+03  0.50205376727E+03  0.25500000920E-02 0. -1.
    10030    2    1    2    0    0  0.00000000000E+00  0.00000000000E+00  0.13005405963E+04  0.23046481309E+04  0.19026290139E+04 0.  0.
        3    1    3    3  502    0 -0.93975712119E+03 -0.17105841749E+02  0.47239839080E+03  0.10519488136E+04  0.10100000352E+00 0.  1.
       -3    1    3    3    0  502  0.93975712119E+03  0.17105841749E+02  0.82814220552E+03  0.12526993172E+04  0.10100000352E+00 0. -1.
</event>
<event>
 5   0  0.2527750E-06  0.1899758E+04  0.7818609E-02  0.8654977E-01
       -4   -1    0    0    0  501  0.00000000000E+00  0.00000000000E+00  0.57131342819E+03  0.57131483976E+03  0.12699999809E+01 0. -1.
        4   -1    0    0  501    0  0.00000000000E+00  0.00000000000E+00 -0.15792867823E+04  0.15792872930E+04  0.12699999809E+01 0.  1.
    10030    2    1    2    0    0  0.00000000000E+00  0.00000000000E+00 -0.10079733541E+04  0.21506021327E+04  0.18997576821E+04 0.  0.
        4    1    3    3  502    0 -0.49040051280E+03  0.59105659924E+03 -0.11367431292E+04  0.13718699359E+04  0.12699999809E+01 0.  1.
       -4    1    3    3    0  502  0.49040051280E+03 -0.59105659924E+03  0.12876977506E+03  0.77873219679E+03  0.12699999809E+01 0. -1.
</event>
<event>
 5   0  0.6870370E-06  0.1900320E+04  0.7818609E-02  0.8654697E-01
       -2   -1    0    0    0  501  0.00000000000E+00  0.00000000000E+00  0.11474867559E+04  0.11474867559E+04  0.25500000920E-02 0. -1.
        2   -1    0    0  501    0  0.00000000000E+00  0.00000000000E+00 -0.78676602689E+03  0.78676602689E+03  0.25500000920E-02 0.  1.
    10030    2    1    2    0    0  0.00000000000E+00  0.00000000000E+00  0.36072072899E+03  0.19342527828E+04  0.19003195477E+04 0.  0.
        1    1    3    3  502    0 -0.15402895953E+03  0.89375329671E+03  0.46876373961E+03  0.10209110242E+04  0.50400001928E-02 0. -1.
       -1    1    3    3    0  502  0.15402895953E+03 -0.89375329671E+03 -0.10804301062E+03  0.91334175856E+03  0.50400001928E-02 0.  1.
</event>
<event>
 5   0  0.3398807E-06  0.1899769E+04  0.7818609E-02  0.8654971E-01
       -1   -1    0    0    0  501  0.00000000000E+00  0.00000000000E+00  0.68788511891E+03  0.68788511892E+03  0.50400001928E-02 0.  1.
        1   -1    0    0  501    0  0.00000000000E+00  0.00000000000E+00 -0.13116731010E+04  0.13116731010E+04  0.50400001928E-02 0. -1.
    10030    2    1    2    0    0  0.00000000000E+00  0.00000000000E+00 -0.62378798209E+03  0.19995582199E+04  0.18997688355E+04 0.  0.
        1    1    3    3  502    0  0.42337977921E+03 -0.83746549005E+03 -0.46687489272E+03  0.10481274016E+04  0.50400001928E-02 0. -1.
       -1    1    3    3    0  502 -0.42337977921E+03  0.83746549005E+03 -0.15691308937E+03  0.95143081835E+03  0.50400001928E-02 0.  1.
</event>
<event>
 5   0  0.6984466E-06  0.1890106E+04  0.7818609E-02  0.8659797E-01
        2   -1    0    0  501    0  0.00000000000E+00  0.00000000000E+00  0.99075193708E+03  0.99075193709E+03  0.25500000920E-02 0.  1.
       -2   -1    0    0    0  501  0.00000000000E+00  0.00000000000E+00 -0.90146241694E+03  0.90146241694E+03  0.25500000920E-02 0. -1.
    10030    2    1    2    0    0  0.00000000000E+00  0.00000000000E+00  0.89289520143E+02  0.18922143540E+04  0.18901064899E+04 0.  0.
        2    1    3    3  502    0  0.16094190408E+03  0.88541114919E+03  0.33353274471E+03  0.95973917884E+03  0.25500000920E-02 0.  1.
       -2    1    3    3    0  502 -0.16094190408E+03 -0.88541114919E+03 -0.24424322457E+03  0.93247517519E+03  0.25500000920E-02 0. -1.
</event>
<event>
 5   0  0.3211263E-06  0.1900233E+04  0.7818609E-02  0.8654740E-01
       -1   -1    0    0    0  501  0.00000000000E+00  0.00000000000E+00  0.62530338278E+03  0.62530338280E+03  0.50400001928E-02 0. -1.
        1   -1    0    0  501    0  0.00000000000E+00  0.00000000000E+00 -0.14436531805E+04  0.14436531806E+04  0.50400001928E-02 0.  1.
    10030    2    1    2    0    0  0.00000000000E+00  0.00000000000E+00 -0.81834979777E+03  0.20689565634E+04  0.19002328461E+04 0.  0.
        5    1    3    3  502    0  0.17881655918E+02  0.37510783979E+03 -0.13594054079E+04  0.14103300316E+04  0.46999998093E+01 0.  1.
       -5    1    3    3    0  502 -0.17881655918E+02 -0.37510783979E+03  0.54105561011E+03  0.65862653175E+03  0.46999998093E+01 0. -1.
</event>
<event>
 5   0  0.7577180E-06  0.1902223E+04  0.7818609E-02  0.8653751E-01
       -2   -1    0    0    0  501  0.00000000000E+00  0.00000000000E+00  0.50061105972E+03  0.50061105973E+03  0.25500000920E-02 0. -1.
        2   -1    0    0  501    0  0.00000000000E+00  0.00000000000E+00 -0.18070178025E+04  0.18070178025E+04  0.25500000920E-02 0.  1.
    10030    2    1    2    0    0  0.00000000000E+00  0.00000000000E+00 -0.13064067427E+04  0.23076288622E+04  0.19022230122E+04 0.  0.
        5    1    3    3  502    0 -0.66610936323E+03 -0.50288173237E+02  0.16810847428E+03  0.68884913680E+03  0.46999998093E+01 0. -1.
       -5    1    3    3    0  502  0.66610936323E+03  0.50288173237E+02 -0.14745152170E+04  0.16187797254E+04  0.46999998093E+01 0.  1.
</event>
<event>
 5   0  0.3379108E-06  0.1899117E+04  0.7818609E-02  0.8655296E-01
       -1   -1    0    0    0  501  0.00000000000E+00  0.00000000000E+00  0.89071808738E+03  0.89071808739E+03  0.50400001928E-02 0.  1.
        1   -1    0    0  501    0  0.00000000000E+00  0.00000000000E+00 -0.10122855784E+04  0.10122855785E+04  0.50400001928E-02 0. -1.
    10030    2    1    2    0    0  0.00000000000E+00  0.00000000000E+00 -0.12156749107E+03  0.19030036659E+04  0.18991167150E+04 0.  0.
        4    1    3    3  502    0  0.35568566157E+03  0.76320682225E+03 -0.50061550394E+03  0.97959912161E+03  0.12699999809E+01 0. -1.
       -4    1    3    3    0  502 -0.35568566157E+03 -0.76320682225E+03  0.37904801286E+03  0.92340454424E+03  0.12699999809E+01 0.  1.
</event>
<event>
 5   0  0.7207648E-06  0.1899872E+04  0.7818609E-02  0.8654920E-01
       -2   -1    0    0    0  501  0.00000000000E+00  0.00000000000E+00  0.45034509404E+03  0.45034509405E+03  0.25500000920E-02 0. -1.
        2   -1    0    0  501    0  0.00000000000E+00  0.00000000000E+00 -0.20037482056E+04  0.20037482056E+04  0.25500000920E-02 0.  1.
    10030    2    1    2    0    0  0.00000000000E+00  0.00000000000E+00 -0.15534031116E+04  0.24540932997E+04  0.18998717579E+04 0.  0.
        4    1    3    3  502    0 -0.27679928110E+03  0.30382508421E+03 -0.18829476600E+04  0.19272833282E+04  0.12699999809E+01 0.  1.
       -4    1    3    3    0  502  0.27679928110E+03 -0.30382508421E+03  0.32954454841E+03  0.52680997153E+03  0.12699999809E+01 0. -1.
</event>
<event>
 5   0  0.3398807E-06  0.1899461E+04  0.7818609E-02  0.8655125E-01
        1   -1    0    0  501    0  0.00000000000E+00  0.00000000000E+00  0.18667982260E+04  0.18667982260E+04  0.50400001928E-02 0.  1.
       -1   -1    0    0    0  501  0.00000000000E+00  0.00000000000E+00 -0.48317396929E+03  0.48317396932E+03  0.50400001928E-02 0. -1.
    10030    2    1    2    0    0  0.00000000000E+00  0.00000000000E+00  0.13836242567E+04  0.23499721953E+04  0.18994613013E+04 0.  0.
        1    1    3    3  502    0  0.14589011375E+03  0.33604491258E+03  0.17758642464E+04  0.18132578224E+04  0.50400001928E-02 0.  1.
       -1    1    3    3    0  502 -0.14589011375E+03 -0.33604491258E+03 -0.39223998974E+03  0.53671437296E+03  0.50400001928E-02 0. -1.
</event>
<event>
 5   0  0.6870370E-06  0.1899848E+04  0.7818609E-02  0.8654932E-01
       -2   -1    0    0    0  501  0.00000000000E+00  0.00000000000E+00  0.89007542918E+03  0.89007542918E+03  0.25500000920E-02 0.  1.
        2   -1    0    0  501    0  0.00000000000E+00  0.00000000000E+00 -0.10137968487E+04  0.10137968487E+04  0.25500000920E-02 0. -1.
    10030    2    1    2    0    0  0.00000000000E+00  0.00000000000E+00 -0.12372141956E+03  0.19038722779E+04  0.18998480626E+04 0.  0.
        1    1    3    3  502    0  0.35050320892E+02  0.71915021451E+03  0.55908887012E+03  0.91158429163E+03  0.50400001928E-02 0.  1.
       -1    1    3    3    0  502 -0.35050320892E+02 -0.71915021451E+03 -0.68281028969E+03  0.99228798630E+03  0.50400001928E-02 0. -1.
</event>
<event>
 5   0  0.3379108E-06  0.1899553E+04  0.7818609E-02  0.8655079E-01
        1   -1    0    0  501    0  0.00000000000E+00  0.00000000000E+00  0.14508650041E+04  0.14508650041E+04  0.50400001928E-02 0. -1.
       -1   -1    0    0    0  501  0.00000000000E+00  0.00000000000E+00 -0.62174984064E+03  0.62174984066E+03  0.50400001928E-02 0.  1.
    10030    2    1    2    0    0  0.00000000000E+00  0.00000000000E+00  0.82911516348E+03  0.20726148448E+04  0.18995526685E+04 0.  0.
        4    1    3    3  502    0 -0.20184656937E+03 -0.80017799593E+03  0.92754792953E+03  0.12415206954E+04  0.12699999809E+01 0. -1.
       -4    1    3    3    0  502  0.20184656937E+03  0.80017799593E+03 -0.98432766051E+02  0.83109414934E+03  0.12699999809E+01 0.  1.
</event>
<event>
 5   0  0.2527750E-06  0.1900139E+04  0.7818609E-02  0.8654787E-01
        3   -1    0    0  501    0  0.00000000000E+00  0.00000000000E+00  0.69184910525E+03  0.69184911262E+03  0.10100000352E+00 0. -1.
       -3   -1    0    0    0  501  0.00000000000E+00  0.00000000000E+00 -0.13046655106E+04  0.13046655145E+04  0.10100000352E+00 0.  1.
    10030    2    1    2    0    0  0.00000000000E+00  0.00000000000E+00 -0.61281640536E+03  0.19965146271E+04  0.19001386028E+04 0.  0.
        5    1    3    3  502    0  0.60685527734E+03  0.73096392333E+03 -0.31196834958E+03  0.99996396234E+03  0.46999998093E+01 0. -1.
       -5    1    3    3    0  502 -0.60685527734E+03 -0.73096392333E+03 -0.30084805578E+03  0.99655066480E+03  0.46999998093E+01 0.  1.
</event>
<event>
 5   0  0.6862201E-06  0.1900049E+04  0.7818609E-02  0.8654832E-01
       -2   -1    0    0    0  501  0.00000000000E+00  0.00000000000E+00  0.82874058710E+03  0.82874058710E+03  0.25500000920E-02 0. -1.
        2   -1    0    0  501    0  0.00000000000E+00  0.00000000000E+00 -0.10890582341E+04  0.10890582341E+04  0.25500000920E-02 0.  1.
    10030    2    1    2    0    0  0.00000000000E+00  0.00000000000E+00 -0.26031764704E+03  0.19177988212E+04  0.19000492208E+04 0.  0.
        3    1    3    3  502    0  0.64684353895E+03  0.69562526365E+03 -0.11433825554E+03  0.95675196273E+03  0.10100000352E+00 0. -1.
       -3    1    3    3    0  502 -0.64684353895E+03 -0.69562526365E+03 -0.14597939149E+03  0.96104685851E+03  0.10100000352E+00 0.  1.
</event>
<event>
 5   0  0.3236653E-06  0.1900165E+04  0.7818609E-02  0.8654774E-01
       -1   -1    0    0    0  501  0.00000000000E+00  0.00000000000E+00  0.75277335355E+03  0.75277335357E+03  0.50400001928E-02 0. -1.
        1   -1    0    0  501    0  0.00000000000E+00  0.00000000000E+00 -0.11991080928E+04  0.11991080929E+04  0.50400001928E-02 0.  1.
    10030    2    1    2    0    0  0.00000000000E+00  0.00000000000E+00 -0.44633473930E+03  0.19518814464E+04  0.19001648564E+04 0.  0.
        3    1    3    3  502    0 -0.67629932455E+03 -0.48251468198E+03 -0.69664128431E+03  0.10842095203E+04  0.10100000352E+00 0.  1.
       -3    1    3    3    0  502  0.67629932455E+03  0.48251468198E+03  0.25030654501E+03  0.86767192612E+03  0.10100000352E+00 0. -1.
</event>
<event>
 5   0  0.6870370E-06  0.1896275E+04  0.7818609E-02  0.8656713E-01
       -2   -1    0    0    0  501  0.00000000000E+00  0.00000000000E+00  0.76897794837E+03  0.76897794838E+03  0.25500000920E-02 0. -1.
        2   -1    0    0  501    0  0.00000000000E+00  0.00000000000E+00 -0.11690383194E+04  0.11690383194E+04  0.25500000920E-02 0.  1.
    10030    2    1    2    0    0  0.00000000000E+00  0.00000000000E+00 -0.40006037106E+03  0.19380162678E+04  0.18962749679E+04 0.  0.
        1    1    3    3  502    0  0.90675884739E+03 -0.26953877788E+03 -0.26548628759E+03  0.98252009091E+03  0.50400001928E-02 0. -1.
       -1    1    3    3    0  502 -0.90675884739E+03  0.26953877788E+03 -0.13457408347E+03  0.95549617690E+03  0.50400001928E-02 0.  1.
</event>
<event>
 5   0  0.3379108E-06  0.1899964E+04  0.7818609E-02  0.8654874E-01
        1   -1    0    0  501    0  0.00000000000E+00  0.00000000000E+00  0.15763684096E+04  0.15763684096E+04  0.50400001928E-02 0.  1.
       -1   -1    0    0    0  501  0.00000000000E+00  0.00000000000E+00 -0.57249703848E+03  0.57249703850E+03  0.50400001928E-02 0. -1.
    10030    2    1    2    0    0  0.00000000000E+00  0.00000000000E+00  0.10038713711E+04  0.21488654481E+04  0.18999644692E+04 0.  0.
        4    1    3    3  502    0  0.72445246407E+03  0.29759030614E+03  0.11100254751E+04  0.13585100409E+04  0.12699999809E+01 0.  1.
       -4    1    3    3    0  502 -0.72445246407E+03 -0.29759030614E+03 -0.10615410396E+03  0.79035540720E+03  0.12699999809E+01 0. -1.
</event>
<event>
 5   0  0.6862201E-06  0.1897864E+04  0.7818609E-02  0.8655920E-01
        2   -1    0    0  501    0  0.00000000000E+00  0.00000000000E+00  0.15249074256E+04  0.15249074256E+04  0.25500000920E-02 0.  1.
       -2   -1    0    0    0  501  0.00000000000E+00  0.00000000000E+00 -0.59050915679E+03  0.59050915679E+03  0.25500000920E-02 0. -1.
    10030    2    1    2    0    0  0.00000000000E+00  0.00000000000E+00  0.93439826886E+03  0.21154165824E+04  0.18978638498E+04 0.  0.
        3    1    3    3  502    0 -0.22623845211E+03  0.15356496164E+03 -0.54564707294E+03  0.61032513717E+03  0.10100000352E+00 0. -1.
       -3    1    3    3    0  502  0.22623845211E+03 -0.15356496164E+03  0.14800453418E+04  0.15050914453E+04  0.10100000352E+00 0.  1.
</event>
<event>
 5   0  0.3379108E-06  0.1899875E+04  0.7818609E-02  0.8654918E-01
       -1   -1    0    0    0  501  0.00000000000E+00  0.00000000000E+00  0.97598247150E+03  0.97598247151E+03  0.50400001928E-02 0.  1.
        1   -1    0    0  501    0  0.00000000000E+00  0.00000000000E+00 -0.92458784965E+03  0.92458784967E+03  0.50400001928E-02 0. -1.
    10030    2    1    2    0    0  0.00000000000E+00  0.00000000000E+00  0.51394621846E+02  0.19005703212E+04  0.18998752955E+04 0.  0.
        4    1    3    3  502    0  0.20328807182E+03  0.84587816903E+03 -0.35594455273E+03  0.93996492195E+03  0.12699999809E+01 0. -1.
       -4    1    3    3    0  502 -0.20328807182E+03 -0.84587816903E+03  0.40733917457E+03  0.96060539923E+03  0.12699999809E+01 0.  1.
</event>
<event>
 5   0  0.3211263E-06  0.1899690E+04  0.7818609E-02  0.8655011E-01
       -1   -1    0    0    0  501  0.00000000000E+00  0.00000000000E+00  0.12930723664E+04  0.12930723664E+04  0.50400001928E-02 0.  1.
        1   -1    0    0  501    0  0.00000000000E+00  0.00000000000E+00 -0.69772266695E+03  0.69772266697E+03  0.50400001928E-02 0. -1.
    10030    2    1    2    0    0  0.00000000000E+00  0.00000000000E+00  0.59534969947E+03  0.19907950334E+04  0.18996903959E+04 0.  0.
        5    1    3    3  502    0 -0.45031000066E+03  0.50337153287E+03 -0.40220222990E+03  0.78609841657E+03  0.46999998093E+01 0. -1.
       -5    1    3    3    0  502  0.45031000066E+03 -0.50337153287E+03  0.99755192937E+03  0.12046966168E+04  0.46999998093E+01 0.  1.
</event>
<event>
 5   0  0.3379108E-06  0.1901492E+04  0.7818609E-02  0.8654114E-01
       -1   -1    0    0    0  501  0.00000000000E+00  0.00000000000E+00  0.21124638049E+04  0.21124638049E+04  0.50400001928E-02 0. -1.
        1   -1    0    0  501    0  0.00000000000E+00  0.00000000000E+00 -0.42789755711E+03  0.42789755714E+03  0.50400001928E-02 0.  1.
    10030    2    1    2    0    0  0.00000000000E+00  0.00000000000E+00  0.16845662478E+04  0.25403613621E+04  0.19014921527E+04 0.  0.
        4    1    3    3  502    0  0.50963024716E+03  0.67395111038E+03  0.25996703441E+03  0.88403481825E+03  0.12699999809E+01 0.  1.
       -4    1    3    3    0  502 -0.50963024716E+03 -0.67395111038E+03  0.14245992134E+04  0.16563265438E+04  0.12699999809E+01 0. -1.
</event>
<event>
 5   0  0.3211263E-06  0.1893598E+04  0.7818609E-02  0.8658050E-01
       -1   -1    0    0    0  501  0.00000000000E+00  0.00000000000E+00  0.16052338338E+04  0.16052338338E+04  0.50400001928E-02 0. -1.
        1   -1    0    0  501    0  0.00000000000E+00  0.00000000000E+00 -0.55844089637E+03  0.55844089639E+03  0.50400001928E-02 0.  1.
    10030    2    1    2    0    0  0.00000000000E+00  0.00000000000E+00  0.10467929374E+04  0.21636747302E+04  0.18935978676E+04 0.  0.
        5    1    3    3  502    0 -0.26373386699E+03 -0.51287152358E+03 -0.33457314238E+03  0.66674885069E+03  0.46999998093E+01 0.  1.
       -5    1    3    3    0  502  0.26373386699E+03  0.51287152358E+03  0.13813660798E+04  0.14969258795E+04  0.46999998093E+01 0. -1.
</event>
<event>
 5   0  0.6984466E-06  0.1899795E+04  0.7818609E-02  0.8654958E-01
       -2   -1    0    0    0  501  0.00000000000E+00  0.00000000000E+00  0.13359831624E+04  0.13359831624E+04  0.25500000920E-02 0.  1.
        2   -1    0    0  501    0  0.00000000000E+00  0.00000000000E+00 -0.67538665060E+03  0.67538665061E+03  0.25500000920E-02 0. -1.
    10030    2    1    2    0    0  0.00000000000E+00  0.00000000000E+00  0.66059651183E+03  0.20113698130E+04  0.18997949293E+04 0.  0.
        2    1    3    3  502    0  0.85431294219E+03  0.41506797133E+03  0.34423048749E+03  0.10102606854E+04  0.25500000920E-02 0.  1.
       -2    1    3    3    0  502 -0.85431294219E+03 -0.41506797133E+03  0.31636602434E+03  0.10011091276E+04  0.25500000920E-02 0. -1.
</event>
<event>
 5   0  0.7207648E-06  0.1899592E+04  0.7818609E-02  0.8655060E-01
       -2   -1    0    0    0  501  0.00000000000E+00  0.00000000000E+00  0.99908947298E+03  0.99908947298E+03  0.25500000920E-02 0.  1.
        2   -1    0    0  501    0  0.00000000000E+00  0.00000000000E+00 -0.90293451629E+03  0.90293451629E+03  0.25500000920E-02 0. -1.
    10030    2    1    2    0    0  0.00000000000E+00  0.00000000000E+00  0.96154956686E+02  0.19020239893E+04  0.18995919246E+04 0.  0.
        4    1    3    3  502    0 -0.23969254085E+03 -0.70617080297E+03  0.63703208816E+03  0.98078601711E+03  0.12699999809E+01 0.  1.
       -4    1    3    3    0  502  0.23969254085E+03  0.70617080297E+03 -0.54087713147E+03  0.92123797216E+03  0.12699999809E+01 0. -1.
</event>
<event>
 5   0  0.7577180E-06  0.1901046E+04  0.7818609E-02  0.8654336E-01
        2   -1    0    0  501    0  0.00000000000E+00  0.00000000000E+00  0.15605519036E+04  0.15605519036E+04  0.25500000920E-02 0.  1.
       -2   -1    0    0    0  501  0.00000000000E+00  0.00000000000E+00 -0.57895803928E+03  0.57895803929E+03  0.25500000920E-02 0. -1.
    10030    2    1    2    0    0  0.00000000000E+00  0.00000000000E+00  0.98159386436E+03  0.21395099429E+04  0.19010461019E+04 0.  0.
        5    1    3    3  502    0 -0.49885193985E+03  0.69523919311E+03  0.25048786172E+02  0.85607261679E+03  0.46999998093E+01 0. -1.
       -5    1    3    3    0  502  0.49885193985E+03 -0.69523919311E+03  0.95654507819E+03  0.12834373261E+04  0.46999998093E+01 0.  1.
</event>
<event>
 5   0  0.2527750E-06  0.1899503E+04  0.7818609E-02  0.8655104E-01
        4   -1    0    0  501    0  0.00000000000E+00  0.00000000000E+00  0.61771497887E+03  0.61771628441E+03  0.12699999809E+01 0. -1.
       -4   -1    0    0    0  501  0.00000000000E+00  0.00000000000E+00 -0.14602625206E+04  0.14602630729E+04  0.12699999809E+01 0.  1.
    10030    2    1    2    0    0  0.00000000000E+00  0.00000000000E+00 -0.84254754172E+03  0.20779793573E+04  0.18995030532E+04 0.  0.
        2    1    3    3  502    0 -0.35732647459E+03 -0.74776136833E+03 -0.92875623910E+03  0.12447559701E+04  0.25500000920E-02 0.  1.
       -2    1    3    3    0  502  0.35732647459E+03  0.74776136833E+03  0.86208697382E+02  0.83322338717E+03  0.25500000920E-02 0. -1.
</event>
<event>
 5   0  0.3379108E-06  0.1900460E+04  0.7818609E-02  0.8654627E-01
        1   -1    0    0  501    0  0.00000000000E+00  0.00000000000E+00  0.51291796080E+03  0.51291796082E+03  0.50400001928E-02 0. -1.
       -1   -1    0    0    0  501  0.00000000000E+00  0.00000000000E+00 -0.17603926124E+04  0.17603926124E+04  0.50400001928E-02 0.  1.
    10030    2    1    2    0    0  0.00000000000E+00  0.00000000000E+00 -0.12474746516E+04  0.22733105732E+04  0.19004599327E+04 0.  0.
        4    1    3    3  502    0  0.56921991337E+03 -0.64952086070E+03 -0.10977767765E+04  0.13967834915E+04  0.12699999809E+01 0. -1.
       -4    1    3    3    0  502 -0.56921991337E+03  0.64952086070E+03 -0.14969787511E+03  0.87652708171E+03  0.12699999809E+01 0.  1.
</event>
<event>
 5   0  0.3398807E-06  0.1900146E+04  0.7818609E-02  0.8654784E-01
       -1   -1    0    0    0  501  0.00000000000E+00  0.00000000000E+00  0.93908135048E+03  0.93908135049E+03  0.50400001928E-02 0. -1.
        1   -1    0    0  501    0  0.00000000000E+00  0.00000000000E+00 -0.96119339433E+03  0.96119339434E+03  0.50400001928E-02 0.  1.
    10030    2    1    2    0    0  0.00000000000E+00  0.00000000000E+00 -0.22112043856E+02  0.19002747448E+04  0.19001460900E+04 0.  0.
        1    1    3    3  502    0 -0.18414175743E+03 -0.82213083169E+03 -0.45021158990E+03  0.95524748989E+03  0.50400001928E-02 0.  1.
       -1    1    3    3    0  502  0.18414175743E+03  0.82213083169E+03  0.42809954604E+03  0.94502725494E+03  0.50400001928E-02 0. -1.
</event>
<event>
 5   0  0.6862201E-06  0.1899647E+04  0.7818609E-02  0.8655032E-01
       -2   -1    0    0    0  501  0.00000000000E+00  0.00000000000E+00  0.85760333942E+03  0.85760333942E+03  0.25500000920E-02 0. -1.
        2   -1    0    0  501    0  0.00000000000E+00  0.00000000000E+00 -0.10519597833E+04  0.10519597833E+04  0.25500000920E-02 0.  1.
    10030    2    1    2    0    0  0.00000000000E+00  0.00000000000E+00 -0.19435644392E+03  0.19095631228E+04  0.18996465178E+04 0.  0.
        3    1    3    3  502    0 -0.92919019557E+03  0.19687534465E+03 -0.94016641219E+02  0.95445977386E+03  0.10100000352E+00 0.  1.
       -3    1    3    3    0  502  0.92919019557E+03 -0.19687534465E+03 -0.10033980270E+03  0.95510334890E+03  0.10100000352E+00 0. -1.
</event>
<event>
 5   0  0.6870370E-06  0.1900832E+04  0.7818609E-02  0.8654442E-01
       -2   -1    0    0    0  501  0.00000000000E+00  0.00000000000E+00  0.40814391080E+03  0.40814391081E+03  0.25500000920E-02 0. -1.
        2   -1    0    0  501    0  0.00000000000E+00  0.00000000000E+00 -0.22131673508E+04  0.22131673508E+04  0.25500000920E-02 0.  1.
    10030    2    1    2    0    0  0.00000000000E+00  0.00000000000E+00 -0.18050234400E+04  0.26213112616E+04  0.19008322155E+04 0.  0.
        1    1    3    3  502    0  0.50926743813E+03  0.29760795422E+02  0.20334222480E+03  0.54916945372E+03  0.50400001928E-02 0. -1.
       -1    1    3    3    0  502 -0.50926743813E+03 -0.29760795422E+02 -0.20083656648E+04  0.20721418079E+04  0.50400001928E-02 0.  1.
</event>
<event>
 5   0  0.2527750E-06  0.1900269E+04  0.7818609E-02  0.8654722E-01
       -3   -1    0    0    0  501  0.00000000000E+00  0.00000000000E+00  0.70249562360E+03  0.70249563086E+03  0.10100000352E+00 0. -1.
        3   -1    0    0  501    0  0.00000000000E+00  0.00000000000E+00 -0.12850693529E+04  0.12850693569E+04  0.10100000352E+00 0.  1.
    10030    2    1    2    0    0  0.00000000000E+00  0.00000000000E+00 -0.58257372934E+03  0.19875649878E+04  0.19002690416E+04 0.  0.
        3    1    3    3  502    0  0.38673121249E+02 -0.62078259740E+03 -0.10425366470E+04  0.12139807717E+04  0.10100000352E+00 0.  1.
       -3    1    3    3    0  502 -0.38673121249E+02  0.62078259740E+03  0.45996291764E+03  0.77358421607E+03  0.10100000352E+00 0. -1.
</event>
<event>
 5   0  0.7577180E-06  0.1900064E+04  0.7818609E-02  0.8654824E-01
        2   -1    0    0  501    0  0.00000000000E+00  0.00000000000E+00  0.97950767591E+03  0.97950767591E+03  0.25500000920E-02 0.  1.
       -2   -1    0    0    0  501  0.00000000000E+00  0.00000000000E+00 -0.92144338336E+03  0.92144338336E+03  0.25500000920E-02 0. -1.
    10030    2    1    2    0    0  0.00000000000E+00  0.00000000000E+00  0.58064292552E+02  0.19009510593E+04  0.19000640694E+04 0.  0.
        5    1    3    3  502    0 -0.78890577638E+03  0.51771977420E+03 -0.81167756414E+02  0.94710948854E+03  0.46999998093E+01 0. -1.
       -5    1    3    3    0  502  0.78890577638E+03 -0.51771977420E+03  0.13923204897E+03  0.95384157073E+03  0.46999998093E+01 0.  1.
</event>
<event>
 5   0  0.3236653E-06  0.1900394E+04  0.7818609E-02  0.8654660E-01
        1   -1    0    0  501    0  0.00000000000E+00  0.00000000000E+00  0.18162313595E+04  0.18162313595E+04  0.50400001928E-02 0.  1.
       -1   -1    0    0    0  501  0.00000000000E+00  0.00000000000E+00 -0.49711413562E+03  0.49711413564E+03  0.50400001928E-02 0. -1.
    10030    2    1    2    0    0  0.00000000000E+00  0.00000000000E+00  0.13191172238E+04  0.23133454951E+04  0.19003939406E+04 0.  0.
        3    1    3    3  502    0  0.59915923992E+03 -0.54031578868E+03  0.48551075252E+02  0.80826367195E+03  0.10100000352E+00 0. -1.
       -3    1    3    3    0  502 -0.59915923992E+03  0.54031578868E+03  0.12705661486E+04  0.15050818232E+04  0.10100000352E+00 0.  1.
</event>
<event>
 5   0  0.6984466E-06  0.1899190E+04  0.7818609E-02  0.8655260E-01
        2   -1    0    0  501    0  0.00000000000E+00  0.00000000000E+00  0.13010331231E+04  0.13010331231E+04  0.25500000920E-02 0.  1.
       -2   -1    0    0    0  501  0.00000000000E+00  0.00000000000E+00 -0.69308793350E+03  0.69308793350E+03  0.25500000920E-02 0. -1.
    10030    2    1    2    0    0  0.00000000000E+00  0.00000000000E+00  0.60794518956E+03  0.19941210566E+04  0.18991896784E+04 0.  0.
        2    1    3    3  502    0 -0.79992667289E+03  0.16067758859E+03 -0.20614128358E+03  0.84154274893E+03  0.25500000920E-02 0. -1.
       -2    1    3    3    0  502  0.79992667289E+03 -0.16067758859E+03  0.81408647314E+03  0.11525783076E+04  0.25500000920E-02 0.  1.
</event>
<event>
 5   0  0.3398807E-06  0.1899175E+04  0.7818609E-02  0.8655267E-01
       -1   -1    0    0    0  501  0.00000000000E+00  0.00000000000E+00  0.11225914499E+04  0.11225914499E+04  0.50400001928E-02 0.  1.
        1   -1    0    0  501    0  0.00000000000E+00  0.00000000000E+00 -0.80324527359E+03  0.80324527360E+03  0.50400001928E-02 0. -1.
    10030    2    1    2    0    0  0.00000000000E+00  0.00000000000E+00  0.31934617631E+03  0.19258367235E+04  0.18991748485E+04 0.  0.
        1    1    3    3  502    0  0.86746445885E+03 -0.35440447788E+03  0.38303063025E+01  0.93707619358E+03  0.50400001928E-02 0.  1.
       -1    1    3    3    0  502 -0.86746445885E+03  0.35440447788E+03  0.31551587001E+03  0.98876052994E+03  0.50400001928E-02 0. -1.
</event>
<event>
 5   0  0.6862201E-06  0.1899664E+04  0.7818609E-02  0.8655024E-01
       -2   -1    0    0    0  501  0.00000000000E+00  0.00000000000E+00  0.74203768281E+03  0.74203768282E+03  0.25500000920E-02 0. -1.
        2   -1    0    0  501    0  0.00000000000E+00  0.00000000000E+00 -0.12158154652E+04  0.12158154652E+04  0.25500000920E-02 0.  1.
    10030    2    1    2    0    0  0.00000000000E+00  0.00000000000E+00 -0.47377778243E+03  0.19578531481E+04  0.18996640656E+04 0.  0.
        3    1    3    3  502    0  0.71424560138E+03 -0.41385006436E+02 -0.88078303886E+03  0.11347414990E+04  0.10100000352E+00 0.  1.
       -3    1    3    3    0  502 -0.71424560138E+03  0.41385006436E+02  0.40700525642E+03  0.82311164905E+03  0.10100000352E+00 0. -1.
</event>
<event>
 5   0  0.6984466E-06  0.1900208E+04  0.7818609E-02  0.8654753E-01
       -2   -1    0    0    0  501  0.00000000000E+00  0.00000000000E+00  0.40569305435E+03  0.40569305435E+03  0.25500000920E-02 0.  1.
        2   -1    0    0  501    0  0.00000000000E+00  0.00000000000E+00 -0.22250745406E+04  0.22250745406E+04  0.25500000920E-02 0. -1.
    10030    2    1    2    0    0  0.00000000000E+00  0.00000000000E+00 -0.18193814863E+04  0.26307675950E+04  0.19002076587E+04 0.  0.
        2    1    3    3  502    0  0.72117436567E+03 -0.44437246359E+03 -0.15053928369E+04  0.17273583721E+04  0.25500000920E-02 0. -1.
       -2    1    3    3    0  502 -0.72117436567E+03  0.44437246359E+03 -0.31398864934E+03  0.90340922290E+03  0.25500000920E-02 0.  1.
</event>
<event>
 5   0  0.3398807E-06  0.1899991E+04  0.7818609E-02  0.8654861E-01
       -1   -1    0    0    0  501  0.00000000000E+00  0.00000000000E+00  0.68098785224E+03  0.68098785226E+03  0.50400001928E-02 0. -1.
        1   -1    0    0  501    0  0.00000000000E+00  0.00000000000E+00 -0.13252678399E+04  0.13252678399E+04  0.50400001928E-02 0.  1.
    10030    2    1    2    0    0  0.00000000000E+00  0.00000000000E+00 -0.64427998765E+03  0.20062556922E+04  0.18999908420E+04 0.  0.
        1    1    3    3  502    0 -0.17533869096E+03 -0.54902184029E+03 -0.11195746184E+04  0.12592124379E+04  0.50400001928E-02 0.  1.
       -1    1    3    3    0  502  0.17533869096E+03  0.54902184029E+03  0.47529463074E+03  0.74704325423E+03  0.50400001928E-02 0. -1.
</event>
<event>
 5   0  0.7577180E-06  0.1901447E+04  0.7818609E-02  0.8654137E-01
       -2   -1    0    0    0  501  0.00000000000E+00  0.00000000000E+00  0.11571341137E+04  0.11571341137E+04  0.25500000920E-02 0. -1.
        2   -1    0    0  501    0  0.00000000000E+00  0.00000000000E+00 -0.78113231677E+03  0.78113231677E+03  0.25500000920E-02 0.  1.
    10030    2    1    2    0    0  0.00000000000E+00  0.00000000000E+00  0.37600179689E+03  0.19382664304E+04  0.19014466609E+04 0.  0.
        5    1    3    3  502    0 -0.62112164634E+03 -0.26012427487E+03  0.87211194086E+03  0.11018430312E+04  0.46999998093E+01 0. -1.
       -5    1    3    3    0  502  0.62112164634E+03  0.26012427487E+03 -0.49611014396E+03  0.83642339928E+03  0.46999998093E+01 0.  1.
</event>
<event>
 5   0  0.6984466E-06  0.1899896E+04  0.7818609E-02  0.8654908E-01
        2   -1    0    0  501    0  0.00000000000E+00  0.00000000000E+00  0.25079643113E+04  0.25079643113E+04  0.25500000920E-02 0. -1.
       -2   -1    0    0    0  501  0.00000000000E+00  0.00000000000E+00 -0.35981418381E+03  0.35981418382E+03  0.25500000920E-02 0.  1.
    10030    2    1    2    0    0  0.00000000000E+00  0.00000000000E+00  0.21481501275E+04  0.28677784951E+04  0.18998959253E+04 0.  0.
        2    1    3    3  502    0 -0.26669116962E+03 -0.70466807644E+02 -0.29803092410E+03  0.40609381017E+03  0.25500000920E-02 0.  1.
       -2    1    3    3    0  502  0.26669116962E+03  0.70466807644E+02  0.24461810516E+04  0.24616846849E+04  0.25500000920E-02 0. -1.
</event>
<event>
 5   0  0.7577180E-06  0.1899963E+04  0.7818609E-02  0.8654875E-01
        2   -1    0    0  501    0  0.00000000000E+00  0.00000000000E+00  0.25016524006E+04  0.25016524006E+04  0.25500000920E-02 0. -1.
       -2   -1    0    0    0  501  0.00000000000E+00  0.00000000000E+00 -0.36074732915E+03  0.36074732916E+03  0.25500000920E-02 0.  1.
    10030    2    1    2    0    0  0.00000000000E+00  0.00000000000E+00  0.21409050715E+04  0.28623997298E+04  0.18999625491E+04 0.  0.
        5    1    3    3  502    0 -0.53617653379E+03  0.51778559320E+03  0.18317536673E+03  0.76756921570E+03  0.46999998093E+01 0.  1.
       -5    1    3    3    0  502  0.53617653379E+03 -0.51778559320E+03  0.19577297047E+04  0.20948305141E+04  0.46999998093E+01 0. -1.
</event>
<event>
 5   0  0.3398807E-06  0.1900665E+04  0.7818609E-02  0.8654525E-01
       -1   -1    0    0    0  501  0.00000000000E+00  0.00000000000E+00  0.64085518025E+03  0.64085518027E+03  0.50400001928E-02 0. -1.
        1   -1    0    0  501    0  0.00000000000E+00  0.00000000000E+00 -0.14092611736E+04  0.14092611736E+04  0.50400001928E-02 0.  1.
    10030    2    1    2    0    0  0.00000000000E+00  0.00000000000E+00 -0.76840599338E+03  0.20501163539E+04  0.19006654871E+04 0.  0.
        1    1    3    3  502    0 -0.77671220403E+02  0.12825910737E+03  0.62801550370E+03  0.64566763123E+03  0.50400001928E-02 0. -1.
       -1    1    3    3    0  502  0.77671220403E+02 -0.12825910737E+03 -0.13964214971E+04  0.14044487227E+04  0.50400001928E-02 0.  1.
</event>
<event>
 5   0  0.7207648E-06  0.1901594E+04  0.7818609E-02  0.8654064E-01
       -2   -1    0    0    0  501  0.00000000000E+00  0.00000000000E+00  0.88098697394E+03  0.88098697394E+03  0.25500000920E-02 0. -1.
        2   -1    0    0  501    0  0.00000000000E+00  0.00000000000E+00 -0.10261384136E+04  0.10261384136E+04  0.25500000920E-02 0.  1.
    10030    2    1    2    0    0  0.00000000000E+00  0.00000000000E+00 -0.14515143971E+03  0.19071253876E+04  0.19015936221E+04 0.  0.
        4    1    3    3  502    0  0.81409583275E+03 -0.56927876786E+02 -0.56186804335E+03  0.99080276498E+03  0.12699999809E+01 0.  1.
       -4    1    3    3    0  502 -0.81409583275E+03  0.56927876786E+02  0.41671660365E+03  0.91632262261E+03  0.12699999809E+01 0. -1.
</event>
<event>
 5   0  0.6862201E-06  0.1909238E+04  0.7818609E-02  0.8650272E-01
       -2   -1    0    0    0  501  0.00000000000E+00  0.00000000000E+00  0.96139532292E+03  0.96139532293E+03  0.25500000920E-02 0. -1.
        2   -1    0    0  501    0  0.00000000000E+00  0.00000000000E+00 -0.94789010797E+03  0.94789010797E+03  0.25500000920E-02 0.  1.
    10030    2    1    2    0    0  0.00000000000E+00  0.00000000000E+00  0.13505214954E+02  0.19092854309E+04  0.19092376661E+04 0.  0.
        3    1    3    3  502    0 -0.74387847840E+03  0.85504875310E+02  0.59890831007E+03  0.95883129298E+03  0.10100000352E+00 0. -1.
       -3    1    3    3    0  502  0.74387847840E+03 -0.85504875310E+02 -0.58540309512E+03  0.95045413792E+03  0.10100000352E+00 0.  1.
</event>
<event>
 5   0  0.7577180E-06  0.1903226E+04  0.7818609E-02  0.8653252E-01
        2   -1    0    0  501    0  0.00000000000E+00  0.00000000000E+00  0.76713604047E+03  0.76713604048E+03  0.25500000920E-02 0. -1.
       -2   -1    0    0    0  501  0.00000000000E+00  0.00000000000E+00 -0.11804517751E+04  0.11804517751E+04  0.25500000920E-02 0.  1.
    10030    2    1    2    0    0  0.00000000000E+00  0.00000000000E+00 -0.41331573458E+03  0.19475878155E+04  0.19032257887E+04 0.  0.
        5    1    3    3  502    0  0.66724373641E+03  0.42863271156E+03  0.33153333673E+03  0.85957934396E+03  0.46999998093E+01 0.  1.
       -5    1    3    3    0  502 -0.66724373641E+03 -0.42863271156E+03 -0.74484907131E+03  0.10880084716E+04  0.46999998093E+01 0. -1.
</event>
<event>
 5   0  0.6862201E-06  0.1900198E+04  0.7818609E-02  0.8654758E-01
       -2   -1    0    0    0  501  0.00000000000E+00  0.00000000000E+00  0.78414557899E+03  0.78414557899E+03  0.25500000920E-02 0. -1.
        2   -1    0    0  501    0  0.00000000000E+00  0.00000000000E+00 -0.11511740539E+04  0.11511740539E+04  0.25500000920E-02 0.  1.
    10030    2    1    2    0    0  0.00000000000E+00  0.00000000000E+00 -0.36702847494E+03  0.19353196329E+04  0.19001979318E+04 0.  0.
        3    1    3    3  502    0 -0.15654029139E+03 -0.44728995107E+03 -0.10222120219E+04  0.11267167306E+04  0.10100000352E+00 0.  1.
       -3    1    3    3    0  502  0.15654029139E+03  0.44728995107E+03  0.65518354697E+03  0.80860290228E+03  0.10100000352E+00 0. -1.
</event>
<event>
 5   0  0.3236653E-06  0.1898133E+04  0.7818609E-02  0.8655786E-01
        1   -1    0    0  501    0  0.00000000000E+00  0.00000000000E+00  0.14903635366E+04  0.14903635366E+04  0.50400001928E-02 0.  1.
       -1   -1    0    0    0  501  0.00000000000E+00  0.00000000000E+00 -0.60436716117E+03  0.60436716119E+03  0.50400001928E-02 0. -1.
    10030    2    1    2    0    0  0.00000000000E+00  0.00000000000E+00  0.88599637544E+03  0.20947306978E+04  0.18981325346E+04 0.  0.
        3    1    3    3  502    0  0.24011516704E+03 -0.19044633938E+03 -0.54825605171E+03  0.62810015926E+03  0.10100000352E+00 0. -1.
       -3    1    3    3    0  502 -0.24011516704E+03  0.19044633938E+03  0.14342524271E+04  0.14666305386E+04  0.10100000352E+00 0.  1.
</event>
<event>
 5   0  0.3236653E-06  0.1899723E+04  0.7818609E-02  0.8654994E-01
       -1   -1    0    0    0  501  0.00000000000E+00  0.00000000000E+00  0.63724218172E+03  0.63724218174E+03  0.50400001928E-02 0. -1.
        1   -1    0    0  501    0  0.00000000000E+00  0.00000000000E+00 -0.14158463021E+04  0.14158463021E+04  0.50400001928E-02 0.  1.
    10030    2    1    2    0    0  0.00000000000E+00  0.00000000000E+00 -0.77860412037E+03  0.20530884838E+04  0.18997231236E+04 0.  0.
        3    1    3    3  502    0  0.52374244756E+03 -0.40442538961E+01  0.46708008337E+03  0.70177369704E+03  0.10100000352E+00 0. -1.
       -3    1    3    3    0  502 -0.52374244756E+03  0.40442538961E+01 -0.12456842037E+04  0.13513147868E+04  0.10100000352E+00 0.  1.
</event>
<event>
 5   0  0.7207648E-06  0.1899766E+04  0.7818609E-02  0.8654973E-01
       -2   -1    0    0    0  501  0.00000000000E+00  0.00000000000E+00  0.12282846221E+04  0.12282846221E+04  0.25500000920E-02 0. -1.
        2   -1    0    0  501    0  0.00000000000E+00  0.00000000000E+00 -0.73458393965E+03  0.73458393965E+03  0.25500000920E-02 0.  1.
    10030    2    1    2    0    0  0.00000000000E+00  0.00000000000E+00  0.49370068241E+03  0.19628685617E+04  0.18997664664E+04 0.  0.
        4    1    3    3  502    0 -0.33499066982E+03 -0.57431184265E+03  0.94778170389E+03  0.11577325307E+04  0.12699999809E+01 0. -1.
       -4    1    3    3    0  502  0.33499066982E+03  0.57431184265E+03 -0.45408102148E+03  0.80513603102E+03  0.12699999809E+01 0.  1.
</event>
<event>
 5   0  0.3211263E-06  0.1899952E+04  0.7818609E-02  0.8654880E-01
       -1   -1    0    0    0  501  0.00000000000E+00  0.00000000000E+00  0.49624657645E+03  0.49624657648E+03  0.50400001928E-02 0. -1.
        1   -1    0    0  501    0  0.00000000000E+00  0.00000000000E+00 -0.18185609873E+04  0.18185609873E+04  0.50400001928E-02 0.  1.
    10030    2    1    2    0    0  0.00000000000E+00  0.00000000000E+00 -0.13223144109E+04  0.23148075638E+04  0.18999522774E+04 0.  0.
        5    1    3    3  502    0  0.23276059900E+03 -0.64689128671E+03 -0.14598848331E+04  0.16136702418E+04  0.46999998093E+01 0.  1.
       -5    1    3    3    0  502 -0.23276059900E+03  0.64689128671E+03  0.13757042224E+03  0.70113732203E+03  0.46999998093E+01 0. -1.
</event>
<event>
 5   0  0.2527750E-06  0.1899855E+04  0.7818609E-02  0.8654928E-01
       -3   -1    0    0    0  501  0.00000000000E+00  0.00000000000E+00  0.11549270782E+04  0.11549270826E+04  0.10100000352E+00 0.  1.
        3   -1    0    0  501    0  0.00000000000E+00  0.00000000000E+00 -0.78131555858E+03  0.78131556510E+03  0.10100000352E+00 0. -1.
    10030    2    1    2    0    0  0.00000000000E+00  0.00000000000E+00  0.37361151963E+03  0.19362426477E+04  0.18998552638E+04 0.  0.
        1    1    3    3  502    0  0.27847149607E+03  0.70152170387E+02 -0.73601707512E+03  0.79005622334E+03  0.50400001928E-02 0. -1.
       -1    1    3    3    0  502 -0.27847149607E+03 -0.70152170387E+02  0.11096285948E+04  0.11461864244E+04  0.50400001928E-02 0.  1.
</event>
<event>
 5   0  0.3236653E-06  0.1899977E+04  0.7818609E-02  0.8654868E-01
        1   -1    0    0  501    0  0.00000000000E+00  0.00000000000E+00  0.14994662799E+04  0.14994662799E+04  0.50400001928E-02 0.  1.
       -1   -1    0    0    0  501  0.00000000000E+00  0.00000000000E+00 -0.60186631694E+03  0.60186631696E+03  0.50400001928E-02 0. -1.
    10030    2    1    2    0    0  0.00000000000E+00  0.00000000000E+00  0.89759996298E+03  0.21013325969E+04  0.18999771023E+04 0.  0.
        3    1    3    3  502    0 -0.80395609291E+02  0.80960014324E+03  0.99125070962E+03  0.12823781913E+04  0.10100000352E+00 0.  1.
       -3    1    3    3    0  502  0.80395609291E+02 -0.80960014324E+03 -0.93650746645E+02  0.81895440561E+03  0.10100000352E+00 0. -1.
</event>
<event>
 5   0  0.2527750E-06  0.1898835E+04  0.7818609E-02  0.8655436E-01
        3   -1    0    0  501    0  0.00000000000E+00  0.00000000000E+00  0.11448107452E+04  0.11448107497E+04  0.10100000352E+00 0.  1.
       -3   -1    0    0    0  501  0.00000000000E+00  0.00000000000E+00 -0.78737370158E+03  0.78737370806E+03  0.10100000352E+00 0. -1.
    10030    2    1    2    0    0  0.00000000000E+00  0.00000000000E+00  0.35743704364E+03  0.19321844577E+04  0.18988353111E+04 0.  0.
        2    1    3    3  502    0 -0.17310031188E+03 -0.18789519719E+01 -0.77117888114E+03  0.79036960668E+03  0.25500000920E-02 0. -1.
       -2    1    3    3    0  502  0.17310031188E+03  0.18789519719E+01  0.11286159248E+04  0.11418148511E+04  0.25500000920E-02 0.  1.
</event>
<event>
 5   0  0.3236653E-06  0.1898557E+04  0.7818609E-02  0.8655575E-01
       -1   -1    0    0    0  501  0.00000000000E+00  0.00000000000E+00  0.55669684498E+03  0.55669684500E+03  0.50400001928E-02 0.  1.
        1   -1    0    0  501    0  0.00000000000E+00  0.00000000000E+00 -0.16187073959E+04  0.16187073959E+04  0.50400001928E-02 0. -1.
    10030    2    1    2    0    0  0.00000000000E+00  0.00000000000E+00 -0.10620105509E+04  0.21754042409E+04  0.18985566099E+04 0.  0.
        3    1    3    3  502    0 -0.76950558007E+03 -0.54938880283E+03 -0.43403344958E+03  0.10403614468E+04  0.10100000352E+00 0. -1.
       -3    1    3    3    0  502  0.76950558007E+03  0.54938880283E+03 -0.62797710134E+03  0.11350427941E+04  0.10100000352E+00 0.  1.
</event>
<event>
 5   0  0.6870370E-06  0.1900207E+04  0.7818609E-02  0.8654753E-01
        2   -1    0    0  501    0  0.00000000000E+00  0.00000000000E+00  0.26730080839E+04  0.26730080839E+04  0.25500000920E-02 0.  1.
       -2   -1    0    0    0  501  0.00000000000E+00  0.00000000000E+00 -0.33770809929E+03  0.33770809930E+03  0.25500000920E-02 0. -1.
    10030    2    1    2    0    0  0.00000000000E+00  0.00000000000E+00  0.23352999846E+04  0.30107161832E+04  0.19002068092E+04 0.  0.
        1    1    3    3  502    0  0.33087301805E+03 -0.43613589301E+00 -0.24347535485E+03  0.41080091618E+03  0.50400001928E-02 0. -1.
       -1    1    3    3    0  502 -0.33087301805E+03  0.43613589301E+00  0.25787753394E+04  0.25999152670E+04  0.50400001928E-02 0.  1.
</event>
<event>
 5   0  0.3495279E-06  0.1899848E+04  0.7818609E-02  0.8654932E-01
       -1   -1    0    0    0  501  0.00000000000E+00  0.00000000000E+00  0.10845547431E+04  0.10845547431E+04  0.50400001928E-02 0. -1.
        1   -1    0    0  501    0  0.00000000000E+00  0.00000000000E+00 -0.83200579962E+03  0.83200579964E+03  0.50400001928E-02 0.  1.
    10030    2    1    2    0    0  0.00000000000E+00  0.00000000000E+00  0.25254894351E+03  0.19165605428E+04  0.18998482427E+04 0.  0.
        2    1    3    3  502    0  0.52586293874E+02 -0.80107426759E+03  0.63855104140E+03  0.10257839602E+04  0.25500000920E-02 0. -1.
       -2    1    3    3    0  502 -0.52586293874E+02  0.80107426759E+03 -0.38600209790E+03  0.89077658259E+03  0.25500000920E-02 0.  1.
</event>
<event>
 5   0  0.3236653E-06  0.1897546E+04  0.7818609E-02  0.8656079E-01
       -1   -1    0    0    0  501  0.00000000000E+00  0.00000000000E+00  0.70747684016E+03  0.70747684018E+03  0.50400001928E-02 0. -1.
        1   -1    0    0  501    0  0.00000000000E+00  0.00000000000E+00 -0.12723672353E+04  0.12723672353E+04  0.50400001928E-02 0.  1.
    10030    2    1    2    0    0  0.00000000000E+00  0.00000000000E+00 -0.56489039516E+03  0.19798440755E+04  0.18975461535E+04 0.  0.
        3    1    3    3  502    0 -0.12418158955E+03  0.29711933535E+03  0.64871237812E+03  0.72424355458E+03  0.10100000352E+00 0. -1.
       -3    1    3    3    0  502  0.12418158955E+03 -0.29711933535E+03 -0.12136027733E+04  0.12556005209E+04  0.10100000352E+00 0.  1.
</event>
<event>
 5   0  0.3495279E-06  0.1901914E+04  0.7818609E-02  0.8653904E-01
       -1   -1    0    0    0  501  0.00000000000E+00  0.00000000000E+00  0.46181654368E+03  0.46181654371E+03  0.50400001928E-02 0. -1.
        1   -1    0    0  501    0  0.00000000000E+00  0.00000000000E+00 -0.19581777252E+04  0.19581777252E+04  0.50400001928E-02 0.  1.
    10030    2    1    2    0    0  0.00000000000E+00  0.00000000000E+00 -0.14963611815E+04  0.24199942689E+04  0.19019136353E+04 0.  0.
        2    1    3    3  502    0 -0.17688516136E+03  0.67489702510E+03 -0.15703757899E+04  0.17183871730E+04  0.25500000920E-02 0.  1.
       -2    1    3    3    0  502  0.17688516136E+03 -0.67489702510E+03  0.74014608371E+02  0.70160709593E+03  0.25500000920E-02 0. -1.
</event>
<event>
 5   0  0.3236653E-06  0.1891361E+04  0.7818609E-02  0.8659168E-01
       -1   -1    0    0    0  501  0.00000000000E+00  0.00000000000E+00  0.89426419512E+03  0.89426419513E+03  0.50400001928E-02 0. -1.
        1   -1    0    0  501    0  0.00000000000E+00  0.00000000000E+00 -0.10000534180E+04  0.10000534180E+04  0.50400001928E-02 0.  1.
    10030    2    1    2    0    0  0.00000000000E+00  0.00000000000E+00 -0.10578922284E+03  0.18943176131E+04  0.18913613773E+04 0.  0.
        3    1    3    3  502    0 -0.71355631806E+03  0.46457145139E+03  0.35923695184E+03  0.92414308971E+03  0.10100000352E+00 0. -1.
       -3    1    3    3    0  502  0.71355631806E+03 -0.46457145139E+03 -0.46502617468E+03  0.97017452339E+03  0.10100000352E+00 0.  1.
</event>
<event>
 5   0  0.7577180E-06  0.1898725E+04  0.7818609E-02  0.8655491E-01
       -2   -1    0    0    0  501  0.00000000000E+00  0.00000000000E+00  0.47203424509E+03  0.47203424510E+03  0.25500000920E-02 0. -1.
        2   -1    0    0  501    0  0.00000000000E+00  0.00000000000E+00 -0.19093727537E+04  0.19093727537E+04  0.25500000920E-02 0.  1.
    10030    2    1    2    0    0  0.00000000000E+00  0.00000000000E+00 -0.14373385086E+04  0.23814069988E+04  0.18987251790E+04 0.  0.
        5    1    3    3  502    0  0.93479339590E+03  0.12911658568E+03 -0.84875394764E+03  0.12692183182E+04  0.46999998093E+01 0. -1.
       -5    1    3    3    0  502 -0.93479339590E+03 -0.12911658568E+03 -0.58858456092E+03  0.11121886805E+04  0.46999998093E+01 0.  1.
</event>
<event>
 5   0  0.6870370E-06  0.1901590E+04  0.7818609E-02  0.8654065E-01
        2   -1    0    0  501    0  0.00000000000E+00  0.00000000000E+00  0.71668933028E+03  0.71668933029E+03  0.25500000920E-02 0. -1.
       -2   -1    0    0    0  501  0.00000000000E+00  0.00000000000E+00 -0.12613713991E+04  0.12613713991E+04  0.25500000920E-02 0.  1.
    10030    2    1    2    0    0  0.00000000000E+00  0.00000000000E+00 -0.54468206881E+03  0.19780607294E+04  0.19015903063E+04 0.  0.
        1    1    3    3  502    0  0.43314397326E+03  0.25670730289E+03 -0.11113102205E+04  0.12200503052E+04  0.50400001928E-02 0.  1.
       -1    1    3    3    0  502 -0.43314397326E+03 -0.25670730289E+03  0.56662815168E+03  0.75801042422E+03  0.50400001928E-02 0. -1.
</event>
<event>
 5   0  0.3398807E-06  0.1898458E+04  0.7818609E-02  0.8655625E-01
       -1   -1    0    0    0  501  0.00000000000E+00  0.00000000000E+00  0.57401465824E+03  0.57401465827E+03  0.50400001928E-02 0.  1.
        1   -1    0    0  501    0  0.00000000000E+00  0.00000000000E+00 -0.15697077108E+04  0.15697077108E+04  0.50400001928E-02 0. -1.
    10030    2    1    2    0    0  0.00000000000E+00  0.00000000000E+00 -0.99569305251E+03  0.21437223690E+04  0.18984575162E+04 0.  0.
        1    1    3    3  502    0 -0.64455424606E+03  0.47467136564E+03  0.78231764911E+02  0.80429055107E+03  0.50400001928E-02 0.  1.
       -1    1    3    3    0  502  0.64455424606E+03 -0.47467136564E+03 -0.10739248174E+04  0.13394318180E+04  0.50400001928E-02 0. -1.
</event>
<event>
 5   0  0.6984466E-06  0.1899679E+04  0.7818609E-02  0.8655016E-01
        2   -1    0    0  501    0  0.00000000000E+00  0.00000000000E+00  0.62241260571E+03  0.62241260572E+03  0.25500000920E-02 0.  1.
       -2   -1    0    0    0  501  0.00000000000E+00  0.00000000000E+00 -0.14495124977E+04  0.14495124977E+04  0.25500000920E-02 0. -1.
    10030    2    1    2    0    0  0.00000000000E+00  0.00000000000E+00 -0.82709989200E+03  0.20719251034E+04  0.18996787631E+04 0.  0.
        2    1    3    3  502    0 -0.90145515872E+03 -0.45682520594E+02 -0.90949813086E+02  0.90718254193E+03  0.25500000920E-02 0.  1.
       -2    1    3    3    0  502  0.90145515872E+03  0.45682520594E+02 -0.73615007891E+03  0.11647425615E+04  0.25500000920E-02 0. -1.
</event>
<event>
 5   0  0.7577180E-06  0.1900782E+04  0.7818609E-02  0.8654467E-01
       -2   -1    0    0    0  501  0.00000000000E+00  0.00000000000E+00  0.70581082350E+03  0.70581082351E+03  0.25500000920E-02 0.  1.
        2   -1    0    0  501    0  0.00000000000E+00  0.00000000000E+00 -0.12797242436E+04  0.12797242436E+04  0.25500000920E-02 0. -1.
    10030    2    1    2    0    0  0.00000000000E+00  0.00000000000E+00 -0.57391342008E+03  0.19855350671E+04  0.19007821782E+04 0.  0.
        5    1    3    3  502    0  0.89049928947E+03  0.30783210225E+03 -0.15702592995E+03  0.95521140089E+03  0.46999998093E+01 0. -1.
       -5    1    3    3    0  502 -0.89049928947E+03 -0.30783210225E+03 -0.41688749013E+03  0.10303236662E+04  0.46999998093E+01 0.  1.
</event>
<event>
 5   0  0.3495279E-06  0.1899742E+04  0.7818609E-02  0.8654985E-01
        1   -1    0    0  501    0  0.00000000000E+00  0.00000000000E+00  0.87996363168E+03  0.87996363170E+03  0.50400001928E-02 0.  1.
       -1   -1    0    0    0  501  0.00000000000E+00  0.00000000000E+00 -0.10253322707E+04  0.10253322707E+04  0.50400001928E-02 0. -1.
    10030    2    1    2    0    0  0.00000000000E+00  0.00000000000E+00 -0.14536863901E+03  0.19052959024E+04  0.18997422021E+04 0.  0.
        2    1    3    3  502    0 -0.69418431221E+02  0.60494843729E+03 -0.80383788523E+03  0.10084328813E+04  0.25500000920E-02 0. -1.
       -2    1    3    3    0  502  0.69418431221E+02 -0.60494843729E+03  0.65846924622E+03  0.89686302109E+03  0.25500000920E-02 0.  1.
</event>
<event>
 5   0  0.6984466E-06  0.1900083E+04  0.7818609E-02  0.8654815E-01
        2   -1    0    0  501    0  0.00000000000E+00  0.00000000000E+00  0.10944777423E+04  0.10944777423E+04  0.25500000920E-02 0. -1.
       -2   -1    0    0    0  501  0.00000000000E+00  0.00000000000E+00 -0.82466591068E+03  0.82466591068E+03  0.25500000920E-02 0.  1.
    10030    2    1    2    0    0  0.00000000000E+00  0.00000000000E+00  0.26981183164E+03  0.19191436530E+04  0.19000826130E+04 0.  0.
        2    1    3    3  502    0 -0.18863709357E+03 -0.56721087541E+03  0.88073506032E+03  0.10644277227E+04  0.25500000920E-02 0. -1.
       -2    1    3    3    0  502  0.18863709357E+03  0.56721087541E+03 -0.61092322868E+03  0.85471593036E+03  0.25500000920E-02 0.  1.
</event>
<event>
 5   0  0.6862201E-06  0.1900381E+04  0.7818609E-02  0.8654667E-01
       -2   -1    0    0    0  501  0.00000000000E+00  0.00000000000E+00  0.45925071302E+03  0.45925071302E+03  0.25500000920E-02 0. -1.
        2   -1    0    0  501    0  0.00000000000E+00  0.00000000000E+00 -0.19659457207E+04  0.19659457207E+04  0.25500000920E-02 0.  1.
    10030    2    1    2    0    0  0.00000000000E+00  0.00000000000E+00 -0.15066950076E+04  0.24251964337E+04  0.19003809870E+04 0.  0.
        3    1    3    3  502    0 -0.44187120570E+03 -0.42080740657E+02  0.31881271399E+03  0.54650023602E+03  0.10100000352E+00 0. -1.
       -3    1    3    3    0  502  0.44187120570E+03  0.42080740657E+02 -0.18255077216E+04  0.18786961977E+04  0.10100000352E+00 0.  1.
</event>
<event>
 5   0  0.3211263E-06  0.1900006E+04  0.7818609E-02  0.8654854E-01
        1   -1    0    0  501    0  0.00000000000E+00  0.00000000000E+00  0.33549779440E+03  0.33549779444E+03  0.50400001928E-02 0. -1.
       -1   -1    0    0    0  501  0.00000000000E+00  0.00000000000E+00 -0.26900482604E+04  0.26900482604E+04  0.50400001928E-02 0.  1.
    10030    2    1    2    0    0  0.00000000000E+00  0.00000000000E+00 -0.23545504660E+04  0.30255460549E+04  0.19000055350E+04 0.  0.
        5    1    3    3  502    0  0.66640351508E+03  0.53140967135E+03 -0.18453067467E+04  0.20326507233E+04  0.46999998093E+01 0. -1.
       -5    1    3    3    0  502 -0.66640351508E+03 -0.53140967135E+03 -0.50924371936E+03  0.99289533155E+03  0.46999998093E+01 0.  1.
</event>
<event>
 5   0  0.3211263E-06  0.1899733E+04  0.7818609E-02  0.8654989E-01
       -1   -1    0    0    0  501  0.00000000000E+00  0.00000000000E+00  0.11676579600E+04  0.11676579600E+04  0.50400001928E-02 0.  1.
        1   -1    0    0  501    0  0.00000000000E+00  0.00000000000E+00 -0.77269778077E+03  0.77269778078E+03  0.50400001928E-02 0. -1.
    10030    2    1    2    0    0  0.00000000000E+00  0.00000000000E+00  0.39496017921E+03  0.19403557408E+04  0.18997333649E+04 0.  0.
        5    1    3    3  502    0 -0.29552751331E+03 -0.85337341715E+02 -0.72040514618E+03  0.78334196725E+03  0.46999998093E+01 0. -1.
       -5    1    3    3    0  502  0.29552751331E+03  0.85337341715E+02  0.11153653254E+04  0.11570137735E+04  0.46999998093E+01 0.  1.
</event>
<event>
 5   0  0.6870370E-06  0.1899695E+04  0.7818609E-02  0.8655008E-01
       -2   -1    0    0    0  501  0.00000000000E+00  0.00000000000E+00  0.13880983244E+04  0.13880983244E+04  0.25500000920E-02 0.  1.
        2   -1    0    0  501    0  0.00000000000E+00  0.00000000000E+00 -0.64996118223E+03  0.64996118223E+03  0.25500000920E-02 0. -1.
    10030    2    1    2    0    0  0.00000000000E+00  0.00000000000E+00  0.73813714220E+03  0.20380595067E+04  0.18996947418E+04 0.  0.
        1    1    3    3  502    0  0.79566274352E+03  0.49662926077E+02  0.92307598490E+03  0.12196781877E+04  0.50400001928E-02 0.  1.
       -1    1    3    3    0  502 -0.79566274352E+03 -0.49662926077E+02 -0.18493884269E+03  0.81838131896E+03  0.50400001928E-02 0. -1.
</event>
<event>
 5   0  0.3379108E-06  0.1899846E+04  0.7818609E-02  0.8654933E-01
        1   -1    0    0  501    0  0.00000000000E+00  0.00000000000E+00  0.92392785451E+03  0.92392785452E+03  0.50400001928E-02 0. -1.
       -1   -1    0    0    0  501  0.00000000000E+00  0.00000000000E+00 -0.97664970903E+03  0.97664970905E+03  0.50400001928E-02 0.  1.
    10030    2    1    2    0    0  0.00000000000E+00  0.00000000000E+00 -0.52721854526E+02  0.19005775636E+04  0.18998461730E+04 0.  0.
        4    1    3    3  502    0  0.84080608909E+03  0.32369851199E+03  0.27478095746E+03  0.94193513237E+03  0.12699999809E+01 0. -1.
       -4    1    3    3    0  502 -0.84080608909E+03 -0.32369851199E+03 -0.32750281198E+03  0.95864243119E+03  0.12699999809E+01 0.  1.
</event>
<event>
 5   0  0.3495279E-06  0.1899867E+04  0.7818609E-02  0.8654923E-01
        1   -1    0    0  501    0  0.00000000000E+00  0.00000000000E+00  0.69974877824E+03  0.69974877826E+03  0.50400001928E-02 0.  1.
       -1   -1    0    0    0  501  0.00000000000E+00  0.00000000000E+00 -0.12895677933E+04  0.12895677933E+04  0.50400001928E-02 0. -1.
    10030    2    1    2    0    0  0.00000000000E+00  0.00000000000E+00 -0.58981901505E+03  0.19893165716E+04  0.18998668246E+04 0.  0.
        2    1    3    3  502    0  0.20430290021E+03  0.92432482753E+03 -0.37773777990E+03  0.10192163128E+04  0.25500000920E-02 0.  1.
       -2    1    3    3    0  502 -0.20430290021E+03 -0.92432482753E+03 -0.21208123515E+03  0.97010025881E+03  0.25500000920E-02 0. -1.
</event>
<event>
 5   0  0.7207648E-06  0.1902414E+04  0.7818609E-02  0.8653656E-01
        2   -1    0    0  501    0  0.00000000000E+00  0.00000000000E+00  0.25478060243E+04  0.25478060243E+04  0.25500000920E-02 0.  1.
       -2   -1    0    0    0  501  0.00000000000E+00  0.00000000000E+00 -0.35512712517E+03  0.35512712518E+03  0.25500000920E-02 0. -1.
    10030    2    1    2    0    0  0.00000000000E+00  0.00000000000E+00  0.21926788991E+04  0.29029331495E+04  0.19024142860E+04 0.  0.
        4    1    3    3  502    0  0.42260457525E+03  0.10487944726E+03  0.23868020214E+04  0.24261945156E+04  0.12699999809E+01 0.  1.
       -4    1    3    3    0  502 -0.42260457525E+03 -0.10487944726E+03 -0.19412312228E+03  0.47673863383E+03  0.12699999809E+01 0. -1.
</event>
<event>
 5   0  0.6984466E-06  0.1900228E+04  0.7818609E-02  0.8654743E-01
        2   -1    0    0  501    0  0.00000000000E+00  0.00000000000E+00  0.15639260977E+04  0.15639260977E+04  0.25500000920E-02 0. -1.
       -2   -1    0    0    0  501  0.00000000000E+00  0.00000000000E+00 -0.57721169761E+03  0.57721169761E+03  0.25500000920E-02 0.  1.
    10030    2    1    2    0    0  0.00000000000E+00  0.00000000000E+00  0.98671440006E+03  0.21411377953E+04  0.19002278156E+04 0.  0.
        2    1    3    3  502    0  0.68494857718E+03  0.47872087936E+02  0.12333264036E+04  0.14115736991E+04  0.25500000920E-02 0. -1.
       -2    1    3    3    0  502 -0.68494857718E+03 -0.47872087936E+02 -0.24661200351E+03  0.72956409620E+03  0.25500000920E-02 0.  1.
</event>
<event>
 5   0  0.6862201E-06  0.1901408E+04  0.7818609E-02  0.8654156E-01
       -2   -1    0    0    0  501  0.00000000000E+00  0.00000000000E+00  0.73703447735E+03  0.73703447735E+03  0.25500000920E-02 0.  1.
        2   -1    0    0  501    0  0.00000000000E+00  0.00000000000E+00 -0.12263178623E+04  0.12263178623E+04  0.25500000920E-02 0. -1.
    10030    2    1    2    0    0  0.00000000000E+00  0.00000000000E+00 -0.48928338493E+03  0.19633523396E+04  0.19014084724E+04 0.  0.
        3    1    3    3  502    0 -0.89101375126E+03 -0.21529023134E+03  0.15730035462E+02  0.91678941577E+03  0.10100000352E+00 0.  1.
       -3    1    3    3    0  502  0.89101375126E+03  0.21529023134E+03 -0.50501342039E+03  0.10465629239E+04  0.10100000352E+00 0. -1.
</event>
<event>
 5   0  0.3495279E-06  0.1905247E+04  0.7818609E-02  0.8652249E-01
       -1   -1    0    0    0  501  0.00000000000E+00  0.00000000000E+00  0.64349122771E+03  0.64349122773E+03  0.50400001928E-02 0. -1.
        1   -1    0    0  501    0  0.00000000000E+00  0.00000000000E+00 -0.14102621247E+04  0.14102621247E+04  0.50400001928E-02 0.  1.
    10030    2    1    2    0    0  0.00000000000E+00  0.00000000000E+00 -0.76677089703E+03  0.20537533525E+04  0.19052467620E+04 0.  0.
        2    1    3    3  502    0  0.69390833422E+03 -0.36488139043E+03 -0.96671676574E+03  0.12446640151E+04  0.25500000920E-02 0.  1.
       -2    1    3    3    0  502 -0.69390833422E+03  0.36488139043E+03  0.19994586872E+03  0.80908933734E+03  0.25500000920E-02 0. -1.
</event>
<event>
 5   0  0.7207648E-06  0.1901079E+04  0.7818609E-02  0.8654319E-01
       -2   -1    0    0    0  501  0.00000000000E+00  0.00000000000E+00  0.92559529152E+03  0.92559529152E+03  0.25500000920E-02 0.  1.
        2   -1    0    0  501    0  0.00000000000E+00  0.00000000000E+00 -0.97615594253E+03  0.97615594253E+03  0.25500000920E-02 0. -1.
    10030    2    1    2    0    0  0.00000000000E+00  0.00000000000E+00 -0.50560651011E+02  0.19017512341E+04  0.19010790033E+04 0.  0.
        4    1    3    3  502    0  0.81678099410E+03 -0.11360960376E+03  0.44762925982E+03  0.93830267054E+03  0.12699999809E+01 0. -1.
       -4    1    3    3    0  502 -0.81678099410E+03  0.11360960376E+03 -0.49818991084E+03  0.96344856352E+03  0.12699999809E+01 0.  1.
</event>
<event>
 5   0  0.6862201E-06  0.1900323E+04  0.7818609E-02  0.8654696E-01
       -2   -1    0    0    0  501  0.00000000000E+00  0.00000000000E+00  0.34499545737E+03  0.34499545738E+03  0.25500000920E-02 0.  1.
        2   -1    0    0  501    0  0.00000000000E+00  0.00000000000E+00 -0.26168657864E+04  0.26168657864E+04  0.25500000920E-02 0. -1.
    10030    2    1    2    0    0  0.00000000000E+00  0.00000000000E+00 -0.22718703290E+04  0.29618612437E+04  0.19003229293E+04 0.  0.
        3    1    3    3  502    0  0.63751036073E+03 -0.19890034027E+03 -0.82488132219E+02  0.67289308776E+03  0.10100000352E+00 0.  1.
       -3    1    3    3    0  502 -0.63751036073E+03  0.19890034027E+03 -0.21893821968E+04  0.22889681560E+04  0.10100000352E+00 0. -1.
</event>
<event>
 5   0  0.3236653E-06  0.1899727E+04  0.7818609E-02  0.8654992E-01
        1   -1    0    0  501    0  0.00000000000E+00  0.00000000000E+00  0.13469081980E+04  0.13469081980E+04  0.50400001928E-02 0. -1.
       -1   -1    0    0    0  501  0.00000000000E+00  0.00000000000E+00 -0.66986032225E+03  0.66986032226E+03  0.50400001928E-02 0.  1.
    10030    2    1    2    0    0  0.00000000000E+00  0.00000000000E+00  0.67704787579E+03  0.20167685203E+04  0.18997266747E+04 0.  0.
        3    1    3    3  502    0  0.71973459812E+03 -0.33838295083E+03  0.88986590910E+03  0.11934748676E+04  0.10100000352E+00 0. -1.
       -3    1    3    3    0  502 -0.71973459812E+03  0.33838295083E+03 -0.21281803330E+03  0.82329365274E+03  0.10100000352E+00 0.  1.
</event>
<event>
 5   0  0.6862201E-06  0.1898464E+04  0.7818609E-02  0.8655622E-01
       -2   -1    0    0    0  501  0.00000000000E+00  0.00000000000E+00  0.11726128219E+04  0.11726128219E+04  0.25500000920E-02 0. -1.
        2   -1    0    0  501    0  0.00000000000E+00  0.00000000000E+00 -0.76840455040E+03  0.76840455041E+03  0.25500000920E-02 0.  1.
    10030    2    1    2    0    0  0.00000000000E+00  0.00000000000E+00  0.40420827148E+03  0.19410173723E+04  0.18984636190E+04 0.  0.
        3    1    3    3  502    0  0.26016653082E+03 -0.16070447477E+03  0.11208725652E+04  0.11618381426E+04  0.10100000352E+00 0. -1.
       -3    1    3    3    0  502 -0.26016653082E+03  0.16070447477E+03 -0.71666429370E+03  0.77917922972E+03  0.10100000352E+00 0.  1.
</event>
<event>
 5   0  0.3495279E-06  0.1900264E+04  0.7818609E-02  0.8654725E-01
        1   -1    0    0  501    0  0.00000000000E+00  0.00000000000E+00  0.99805973552E+03  0.99805973553E+03  0.50400001928E-02 0.  1.
       -1   -1    0    0    0  501  0.00000000000E+00  0.00000000000E+00 -0.90450550478E+03  0.90450550479E+03  0.50400001928E-02 0. -1.
    10030    2    1    2    0    0  0.00000000000E+00  0.00000000000E+00  0.93554230742E+02  0.19025652403E+04  0.19002636921E+04 0.  0.
        2    1    3    3  502    0  0.31967658901E+03 -0.61882143891E+03 -0.60023884785E+03  0.91946711159E+03  0.25500000920E-02 0. -1.
       -2    1    3    3    0  502 -0.31967658901E+03  0.61882143891E+03  0.69379307859E+03  0.98309812874E+03  0.25500000920E-02 0.  1.
</event>
<event>
 5   0  0.3398807E-06  0.1900714E+04  0.7818609E-02  0.8654501E-01
       -1   -1    0    0    0  501  0.00000000000E+00  0.00000000000E+00  0.82978426489E+03  0.82978426490E+03  0.50400001928E-02 0.  1.
        1   -1    0    0  501    0  0.00000000000E+00  0.00000000000E+00 -0.10884501597E+04  0.10884501597E+04  0.50400001928E-02 0. -1.
    10030    2    1    2    0    0  0.00000000000E+00  0.00000000000E+00 -0.25866589476E+03  0.19182344246E+04  0.19007144084E+04 0.  0.
        1    1    3    3  502    0  0.59331966583E+03 -0.50093794053E+03 -0.68229925544E+03  0.10336824078E+04  0.50400001928E-02 0. -1.
       -1    1    3    3    0  502 -0.59331966583E+03  0.50093794053E+03  0.42363336068E+03  0.88455201680E+03  0.50400001928E-02 0.  1.
</event>
<event>
 5   0  0.7207648E-06  0.1899728E+04  0.7818609E-02  0.8654992E-01
        2   -1    0    0  501    0  0.00000000000E+00  0.00000000000E+00  0.13886407668E+04  0.13886407668E+04  0.25500000920E-02 0. -1.
       -2   -1    0    0    0  501  0.00000000000E+00  0.00000000000E+00 -0.64973003874E+03  0.64973003875E+03  0.25500000920E-02 0.  1.
    10030    2    1    2    0    0  0.00000000000E+00  0.00000000000E+00  0.73891072807E+03  0.20383708056E+04  0.18997280008E+04 0.  0.
        4    1    3    3  502    0  0.71569961047E+03 -0.19557372015E+03 -0.26692691214E+03  0.78849641836E+03  0.12699999809E+01 0. -1.
       -4    1    3    3    0  502 -0.71569961047E+03  0.19557372015E+03  0.10058376402E+04  0.12498743872E+04  0.12699999809E+01 0.  1.
</event>
<event>
 5   0  0.7207648E-06  0.1899664E+04  0.7818609E-02  0.8655024E-01
        2   -1    0    0  501    0  0.00000000000E+00  0.00000000000E+00  0.94358237894E+03  0.94358237894E+03  0.25500000920E-02 0.  1.
       -2   -1    0    0    0  501  0.00000000000E+00  0.00000000000E+00 -0.95612289690E+03  0.95612289690E+03  0.25500000920E-02 0. -1.
    10030    2    1    2    0    0  0.00000000000E+00  0.00000000000E+00 -0.12540517960E+02  0.18997052758E+04  0.18996638836E+04 0.  0.
        4    1    3    3  502    0  0.36075861189E+03 -0.38827747136E+03 -0.79449612024E+03  0.95505595061E+03  0.12699999809E+01 0. -1.
       -4    1    3    3    0  502 -0.36075861189E+03  0.38827747136E+03  0.78195560228E+03  0.94464932523E+03  0.12699999809E+01 0.  1.
</event>
<event>
 5   0  0.7207648E-06  0.1897292E+04  0.7818609E-02  0.8656205E-01
       -2   -1    0    0    0  501  0.00000000000E+00  0.00000000000E+00  0.84366792416E+03  0.84366792417E+03  0.25500000920E-02 0.  1.
        2   -1    0    0  501    0  0.00000000000E+00  0.00000000000E+00 -0.10666869975E+04  0.10666869975E+04  0.25500000920E-02 0. -1.
    10030    2    1    2    0    0  0.00000000000E+00  0.00000000000E+00 -0.22301907329E+03  0.19103549216E+04  0.18972923917E+04 0.  0.
        4    1    3    3  502    0  0.53755326037E+03  0.72646346530E+03 -0.40196626051E+03  0.98908602338E+03  0.12699999809E+01 0. -1.
       -4    1    3    3    0  502 -0.53755326037E+03 -0.72646346530E+03  0.17894718722E+03  0.92126889824E+03  0.12699999809E+01 0.  1.
</event>
<event>
 5   0  0.2527750E-06  0.1900319E+04  0.7818609E-02  0.8654697E-01
        3   -1    0    0  501    0  0.00000000000E+00  0.00000000000E+00  0.20966957310E+04  0.20966957334E+04  0.10100000352E+00 0.  1.
       -3   -1    0    0    0  501  0.00000000000E+00  0.00000000000E+00 -0.43058386930E+03  0.43058388114E+03  0.10100000352E+00 0. -1.
    10030    2    1    2    0    0  0.00000000000E+00  0.00000000000E+00  0.16661118617E+04  0.25272796146E+04  0.19003193191E+04 0.  0.
        3    1    3    3  502    0  0.20958241987E+03 -0.66270538500E+03  0.16946372484E+04  0.18316382372E+04  0.10100000352E+00 0.  1.
       -3    1    3    3    0  502 -0.20958241987E+03  0.66270538500E+03 -0.28525386722E+02  0.69564137738E+03  0.10100000352E+00 0. -1.
</event>
<event>
 5   0  0.3398807E-06  0.1899738E+04  0.7818609E-02  0.8654987E-01
        1   -1    0    0  501    0  0.00000000000E+00  0.00000000000E+00  0.10656098751E+04  0.10656098751E+04  0.50400001928E-02 0.  1.
       -1   -1    0    0    0  501  0.00000000000E+00  0.00000000000E+00 -0.84669907765E+03  0.84669907767E+03  0.50400001928E-02 0. -1.
    10030    2    1    2    0    0  0.00000000000E+00  0.00000000000E+00  0.21891079749E+03  0.19123089528E+04  0.18997377697E+04 0.  0.
        1    1    3    3  502    0  0.18736265370E+03 -0.43566881547E+03 -0.71899666409E+03  0.86131776005E+03  0.50400001928E-02 0. -1.
       -1    1    3    3    0  502 -0.18736265370E+03  0.43566881547E+03  0.93790746158E+03  0.10509911928E+04  0.50400001928E-02 0.  1.
</event>
<event>
 5   0  0.2527750E-06  0.1900209E+04  0.7818609E-02  0.8654752E-01
        3   -1    0    0  501    0  0.00000000000E+00  0.00000000000E+00  0.11335667189E+04  0.11335667234E+04  0.10100000352E+00 0. -1.
       -3   -1    0    0    0  501  0.00000000000E+00  0.00000000000E+00 -0.79633458763E+03  0.79633459403E+03  0.10100000352E+00 0.  1.
    10030    2    1    2    0    0  0.00000000000E+00  0.00000000000E+00  0.33723213127E+03  0.19299013174E+04  0.19002088266E+04 0.  0.
        5    1    3    3  502    0  0.30281947034E+03 -0.47400191269E+03 -0.60905026580E+03  0.82906077046E+03  0.46999998093E+01 0.  1.
       -5    1    3    3    0  502 -0.30281947034E+03  0.47400191269E+03  0.94628239707E+03  0.11008405470E+04  0.46999998093E+01 0. -1.
</event>
<event>
 5   0  0.6862201E-06  0.1900036E+04  0.7818609E-02  0.8654839E-01
       -2   -1    0    0    0  501  0.00000000000E+00  0.00000000000E+00  0.88864029179E+03  0.88864029179E+03  0.25500000920E-02 0. -1.
        2   -1    0    0  501    0  0.00000000000E+00  0.00000000000E+00 -0.10156347670E+04  0.10156347671E+04  0.25500000920E-02 0.  1.
    10030    2    1    2    0    0  0.00000000000E+00  0.00000000000E+00 -0.12699447526E+03  0.19042750588E+04  0.19000357636E+04 0.  0.
        3    1    3    3  502    0  0.14222459115E+03 -0.49680367029E+03  0.73545907241E+03  0.89885581632E+03  0.10100000352E+00 0. -1.
       -3    1    3    3    0  502 -0.14222459115E+03  0.49680367029E+03 -0.86245354767E+03  0.10054192425E+04  0.10100000352E+00 0.  1.
</event>
<event>
 5   0  0.6870370E-06  0.1900662E+04  0.7818609E-02  0.8654527E-01
       -2   -1    0    0    0  501  0.00000000000E+00  0.00000000000E+00  0.68065620359E+03  0.68065620359E+03  0.25500000920E-02 0. -1.
        2   -1    0    0  501    0  0.00000000000E+00  0.00000000000E+00 -0.13268501934E+04  0.13268501934E+04  0.25500000920E-02 0.  1.
    10030    2    1    2    0    0  0.00000000000E+00  0.00000000000E+00 -0.64619398977E+03  0.20075063970E+04  0.19006617956E+04 0.  0.
        1    1    3    3  502    0  0.14425246602E+02 -0.94275849531E+03 -0.44863618611E+03  0.10441628684E+04  0.50400001928E-02 0.  1.
       -1    1    3    3    0  502 -0.14425246602E+02  0.94275849531E+03 -0.19755780366E+03  0.96334352857E+03  0.50400001928E-02 0. -1.
</event>
<event>
 5   0  0.3495279E-06  0.1899512E+04  0.7818609E-02  0.8655099E-01
       -1   -1    0    0    0  501  0.00000000000E+00  0.00000000000E+00  0.56834531429E+03  0.56834531432E+03  0.50400001928E-02 0.  1.
        1   -1    0    0  501    0  0.00000000000E+00  0.00000000000E+00 -0.15871270136E+04  0.15871270136E+04  0.50400001928E-02 0. -1.
    10030    2    1    2    0    0  0.00000000000E+00  0.00000000000E+00 -0.10187816993E+04  0.21554723279E+04  0.18995117282E+04 0.  0.
        2    1    3    3  502    0  0.19810522496E+03 -0.17738140591E+03  0.52524196290E+03  0.58871806743E+03  0.25500000920E-02 0.  1.
       -2    1    3    3    0  502 -0.19810522496E+03  0.17738140591E+03 -0.15440236622E+04  0.15667542605E+04  0.25500000920E-02 0. -1.
</event>
<event>
 5   0  0.3398807E-06  0.1901141E+04  0.7818609E-02  0.8654289E-01
        1   -1    0    0  501    0  0.00000000000E+00  0.00000000000E+00  0.10240230347E+04  0.10240230347E+04  0.50400001928E-02 0. -1.
       -1   -1    0    0    0  501  0.00000000000E+00  0.00000000000E+00 -0.88238663152E+03  0.88238663153E+03  0.50400001928E-02 0.  1.
    10030    2    1    2    0    0  0.00000000000E+00  0.00000000000E+00  0.14163640320E+03  0.19064096663E+04  0.19011409587E+04 0.  0.
        1    1    3    3  502    0 -0.83701617249E+03 -0.41054157888E+03  0.25692287793E+03  0.96703145048E+03  0.50400001928E-02 0. -1.
       -1    1    3    3    0  502  0.83701617249E+03  0.41054157888E+03 -0.11528647474E+03  0.93937821578E+03  0.50400001928E-02 0.  1.
</event>
<event>
 5   0  0.3495279E-06  0.1899842E+04  0.7818609E-02  0.8654935E-01
       -1   -1    0    0    0  501  0.00000000000E+00  0.00000000000E+00  0.13495175951E+04  0.13495175951E+04  0.50400001928E-02 0.  1.
        1   -1    0    0  501    0  0.00000000000E+00  0.00000000000E+00 -0.66864653241E+03  0.66864653243E+03  0.50400001928E-02 0. -1.
    10030    2    1    2    0    0  0.00000000000E+00  0.00000000000E+00  0.68087106270E+03  0.20181641275E+04  0.18998423729E+04 0.  0.
        2    1    3    3  502    0 -0.40627620414E+01  0.84151058326E+03 -0.12768368869E+03  0.85115197946E+03  0.25500000920E-02 0. -1.
       -2    1    3    3    0  502  0.40627620414E+01 -0.84151058326E+03  0.80855475139E+03  0.11670121481E+04  0.25500000920E-02 0.  1.
</event>
<event>
 5   0  0.6862201E-06  0.1893535E+04  0.7818609E-02  0.8658081E-01
       -2   -1    0    0    0  501  0.00000000000E+00  0.00000000000E+00  0.10802318755E+04  0.10802318755E+04  0.25500000920E-02 0.  1.
        2   -1    0    0  501    0  0.00000000000E+00  0.00000000000E+00 -0.82979244573E+03  0.82979244573E+03  0.25500000920E-02 0. -1.
    10030    2    1    2    0    0  0.00000000000E+00  0.00000000000E+00  0.25043942979E+03  0.19100243213E+04  0.18935345256E+04 0.  0.
        3    1    3    3  502    0  0.27485308634E+03  0.55208786297E+03 -0.59938341221E+03  0.86000332123E+03  0.10100000352E+00 0. -1.
       -3    1    3    3    0  502 -0.27485308634E+03 -0.55208786297E+03  0.84982284200E+03  0.10500210000E+04  0.10100000352E+00 0.  1.
</event>
<event>
 5   0  0.3495279E-06  0.1900736E+04  0.7818609E-02  0.8654490E-01
        1   -1    0    0  501    0  0.00000000000E+00  0.00000000000E+00  0.94747586509E+03  0.94747586510E+03  0.50400001928E-02 0. -1.
       -1   -1    0    0    0  501  0.00000000000E+00  0.00000000000E+00 -0.95326850519E+03  0.95326850520E+03  0.50400001928E-02 0.  1.
    10030    2    1    2    0    0  0.00000000000E+00  0.00000000000E+00 -0.57926401003E+01  0.19007443703E+04  0.19007355436E+04 0.  0.
        2    1    3    3  502    0  0.27953452194E+03  0.70537614917E+03  0.56938585041E+03  0.94862811861E+03  0.25500000920E-02 0. -1.
       -2    1    3    3    0  502 -0.27953452194E+03 -0.70537614917E+03 -0.57517849051E+03  0.95211625169E+03  0.25500000920E-02 0.  1.
</event>
<event>
 5   0  0.7207648E-06  0.1899295E+04  0.7818609E-02  0.8655208E-01
        2   -1    0    0  501    0  0.00000000000E+00  0.00000000000E+00  0.10526770138E+04  0.10526770138E+04  0.25500000920E-02 0. -1.
       -2   -1    0    0    0  501  0.00000000000E+00  0.00000000000E+00 -0.85670143065E+03  0.85670143066E+03  0.25500000920E-02 0.  1.
    10030    2    1    2    0    0  0.00000000000E+00  0.00000000000E+00  0.19597558319E+03  0.19093784445E+04  0.18992945046E+04 0.  0.
        4    1    3    3  502    0 -0.61889838685E+03  0.27705864993E+02  0.82154896998E+03  0.10289543970E+04  0.12699999809E+01 0. -1.
       -4    1    3    3    0  502  0.61889838685E+03 -0.27705864993E+02 -0.62557338679E+03  0.88042404747E+03  0.12699999809E+01 0.  1.
</event>
<event>
 5   0  0.3236653E-06  0.1898874E+04  0.7818609E-02  0.8655417E-01
       -1   -1    0    0    0  501  0.00000000000E+00  0.00000000000E+00  0.56222186023E+03  0.56222186025E+03  0.50400001928E-02 0.  1.
        1   -1    0    0  501    0  0.00000000000E+00  0.00000000000E+00 -0.16033358049E+04  0.16033358049E+04  0.50400001928E-02 0. -1.
    10030    2    1    2    0    0  0.00000000000E+00  0.00000000000E+00 -0.10411139447E+04  0.21655576652E+04  0.18988738124E+04 0.  0.
        3    1    3    3  502    0 -0.67066581782E+03  0.32228722790E+03 -0.11930982021E+04  0.14061098914E+04  0.10100000352E+00 0. -1.
       -3    1    3    3    0  502  0.67066581782E+03 -0.32228722790E+03  0.15198425744E+03  0.75944777382E+03  0.10100000352E+00 0.  1.
</event>
<event>
 5   0  0.3398807E-06  0.1900070E+04  0.7818609E-02  0.8654822E-01
       -1   -1    0    0    0  501  0.00000000000E+00  0.00000000000E+00  0.75657221625E+03  0.75657221627E+03  0.50400001928E-02 0. -1.
        1   -1    0    0  501    0  0.00000000000E+00  0.00000000000E+00 -0.11929681307E+04  0.11929681307E+04  0.50400001928E-02 0.  1.
    10030    2    1    2    0    0  0.00000000000E+00  0.00000000000E+00 -0.43639591440E+03  0.19495403469E+04  0.19000700435E+04 0.  0.
        1    1    3    3  502    0 -0.10919078341E+03 -0.90829159650E+03 -0.48109212082E+03  0.10336178598E+04  0.50400001928E-02 0. -1.
       -1    1    3    3    0  502  0.10919078341E+03  0.90829159650E+03  0.44696206424E+02  0.91592248708E+03  0.50400001928E-02 0.  1.
</event>
<event>
 5   0  0.7207648E-06  0.1894086E+04  0.7818609E-02  0.8657806E-01
       -2   -1    0    0    0  501  0.00000000000E+00  0.00000000000E+00  0.49411334838E+03  0.49411334839E+03  0.25500000920E-02 0.  1.
        2   -1    0    0  501    0  0.00000000000E+00  0.00000000000E+00 -0.18151506112E+04  0.18151506113E+04  0.25500000920E-02 0. -1.
    10030    2    1    2    0    0  0.00000000000E+00  0.00000000000E+00 -0.13210372629E+04  0.23092639596E+04  0.18940856859E+04 0.  0.
        4    1    3    3  502    0  0.80902786223E+03 -0.33099152931E+03 -0.21621021964E+03  0.90046096324E+03  0.12699999809E+01 0.  1.
       -4    1    3    3    0  502 -0.80902786223E+03  0.33099152931E+03 -0.11048270432E+04  0.14088029964E+04  0.12699999809E+01 0. -1.
</event>
<event>
 5   0  0.7577180E-06  0.1900091E+04  0.7818609E-02  0.8654811E-01
       -2   -1    0    0    0  501  0.00000000000E+00  0.00000000000E+00  0.79731561814E+03  0.79731561814E+03  0.25500000920E-02 0. -1.
        2   -1    0    0  501    0  0.00000000000E+00  0.00000000000E+00 -0.11320311872E+04  0.11320311872E+04  0.25500000920E-02 0.  1.
    10030    2    1    2    0    0  0.00000000000E+00  0.00000000000E+00 -0.33471556910E+03  0.19293468054E+04  0.19000906776E+04 0.  0.
        5    1    3    3  502    0 -0.73294306108E+03 -0.13234511853E+03  0.43150564218E+03  0.86077870002E+03  0.46999998093E+01 0. -1.
       -5    1    3    3    0  502  0.73294306108E+03  0.13234511853E+03 -0.76622121128E+03  0.10685681054E+04  0.46999998093E+01 0.  1.
</event>
<event>
 5   0  0.3495279E-06  0.1895809E+04  0.7818609E-02  0.8656945E-01
        1   -1    0    0  501    0  0.00000000000E+00  0.00000000000E+00  0.14704283450E+04  0.14704283450E+04  0.50400001928E-02 0. -1.
       -1   -1    0    0    0  501  0.00000000000E+00  0.00000000000E+00 -0.61106218034E+03  0.61106218036E+03  0.50400001928E-02 0.  1.
    10030    2    1    2    0    0  0.00000000000E+00  0.00000000000E+00  0.85936616463E+03  0.20814905253E+04  0.18958092209E+04 0.  0.
        2    1    3    3  502    0 -0.39754136801E+03  0.47936910755E+03  0.12143009134E+04  0.13646833292E+04  0.25500000920E-02 0. -1.
       -2    1    3    3    0  502  0.39754136801E+03 -0.47936910755E+03 -0.35493474880E+03  0.71680719616E+03  0.25500000920E-02 0.  1.
</event>
<event>
 5   0  0.3379108E-06  0.1900525E+04  0.7818609E-02  0.8654595E-01
        1   -1    0    0  501    0  0.00000000000E+00  0.00000000000E+00  0.14907920539E+04  0.14907920539E+04  0.50400001928E-02 0.  1.
       -1   -1    0    0    0  501  0.00000000000E+00  0.00000000000E+00 -0.60571752070E+03  0.60571752072E+03  0.50400001928E-02 0. -1.
    10030    2    1    2    0    0  0.00000000000E+00  0.00000000000E+00  0.88507453318E+03  0.20965095746E+04  0.19005250504E+04 0.  0.
        4    1    3    3  502    0  0.37841358369E+03  0.27369003428E+03  0.13554620335E+04  0.14336603546E+04  0.12699999809E+01 0.  1.
       -4    1    3    3    0  502 -0.37841358369E+03 -0.27369003428E+03 -0.47038750029E+03  0.66284922004E+03  0.12699999809E+01 0. -1.
</event>
<event>
 5   0  0.3398807E-06  0.1898902E+04  0.7818609E-02  0.8655403E-01
        1   -1    0    0  501    0  0.00000000000E+00  0.00000000000E+00  0.19859437710E+04  0.19859437710E+04  0.50400001928E-02 0. -1.
       -1   -1    0    0    0  501  0.00000000000E+00  0.00000000000E+00 -0.45391897536E+03  0.45391897539E+03  0.50400001928E-02 0.  1.
    10030    2    1    2    0    0  0.00000000000E+00  0.00000000000E+00  0.15320247957E+04  0.24398627464E+04  0.18989023795E+04 0.  0.
        1    1    3    3  502    0  0.22028106891E+03  0.59089580827E+03  0.16779843363E+04  0.17925716272E+04  0.50400001928E-02 0. -1.
       -1    1    3    3    0  502 -0.22028106891E+03 -0.59089580827E+03 -0.14595954064E+03  0.64729111926E+03  0.50400001928E-02 0.  1.
</event>
<event>
 5   0  0.3211263E-06  0.1899602E+04  0.7818609E-02  0.8655055E-01
        1   -1    0    0  501    0  0.00000000000E+00  0.00000000000E+00  0.75618387692E+03  0.75618387693E+03  0.50400001928E-02 0.  1.
       -1   -1    0    0    0  501  0.00000000000E+00  0.00000000000E+00 -0.11929925413E+04  0.11929925413E+04  0.50400001928E-02 0. -1.
    10030    2    1    2    0    0  0.00000000000E+00  0.00000000000E+00 -0.43680866437E+03  0.19491764182E+04  0.18996017741E+04 0.  0.
        5    1    3    3  502    0 -0.62239080951E+03 -0.32454347077E+03 -0.87494699531E+03  0.11217188234E+04  0.46999998093E+01 0. -1.
       -5    1    3    3    0  502  0.62239080951E+03  0.32454347077E+03  0.43813833095E+03  0.82745759482E+03  0.46999998093E+01 0.  1.
</event>
<event>
 5   0  0.3236653E-06  0.1901199E+04  0.7818609E-02  0.8654260E-01
        1   -1    0    0  501    0  0.00000000000E+00  0.00000000000E+00  0.12045272202E+04  0.12045272202E+04  0.50400001928E-02 0.  1.
       -1   -1    0    0    0  501  0.00000000000E+00  0.00000000000E+00 -0.75020239974E+03  0.75020239976E+03  0.50400001928E-02 0. -1.
    10030    2    1    2    0    0  0.00000000000E+00  0.00000000000E+00  0.45432482041E+03  0.19547296199E+04  0.19011987914E+04 0.  0.
        3    1    3    3  502    0 -0.40200117569E+02  0.32351777225E+03 -0.69092963447E+03  0.76397877484E+03  0.10100000352E+00 0. -1.
       -3    1    3    3    0  502  0.40200117569E+02 -0.32351777225E+03  0.11452544549E+04  0.11907508451E+04  0.10100000352E+00 0.  1.
</event>
<event>
 5   0  0.6870370E-06  0.1899988E+04  0.7818609E-02  0.8654862E-01
        2   -1    0    0  501    0  0.00000000000E+00  0.00000000000E+00  0.15136762525E+04  0.15136762525E+04  0.25500000920E-02 0.  1.
       -2   -1    0    0    0  501  0.00000000000E+00  0.00000000000E+00 -0.59622305048E+03  0.59622305049E+03  0.25500000920E-02 0. -1.
    10030    2    1    2    0    0  0.00000000000E+00  0.00000000000E+00  0.91745320199E+03  0.21098993030E+04  0.18999880765E+04 0.  0.
        1    1    3    3  502    0 -0.94186620456E+03  0.20141709838E+02  0.59460073638E+03  0.11140321681E+04  0.50400001928E-02 0. -1.
       -1    1    3    3    0  502  0.94186620456E+03 -0.20141709838E+02  0.32285246561E+03  0.99586713489E+03  0.50400001928E-02 0.  1.
</event>
<event>
 5   0  0.3211263E-06  0.1903154E+04  0.7818609E-02  0.8653288E-01
        1   -1    0    0  501    0  0.00000000000E+00  0.00000000000E+00  0.22271160112E+04  0.22271160112E+04  0.50400001928E-02 0.  1.
       -1   -1    0    0    0  501  0.00000000000E+00  0.00000000000E+00 -0.40657919930E+03  0.40657919933E+03  0.50400001928E-02 0. -1.
    10030    2    1    2    0    0  0.00000000000E+00  0.00000000000E+00  0.18205368119E+04  0.26336952105E+04  0.19031542708E+04 0.  0.
        5    1    3    3  502    0 -0.15674792718E+02 -0.66014938322E+03 -0.37885443614E+02  0.66143805766E+03  0.46999998093E+01 0. -1.
       -5    1    3    3    0  502  0.15674792718E+02  0.66014938322E+03  0.18584222555E+04  0.19722571529E+04  0.46999998093E+01 0.  1.
</event>
<event>
 5   0  0.3398807E-06  0.1899940E+04  0.7818609E-02  0.8654886E-01
       -1   -1    0    0    0  501  0.00000000000E+00  0.00000000000E+00  0.54673104574E+03  0.54673104576E+03  0.50400001928E-02 0.  1.
        1   -1    0    0  501    0  0.00000000000E+00  0.00000000000E+00 -0.16506160472E+04  0.16506160472E+04  0.50400001928E-02 0. -1.
    10030    2    1    2    0    0  0.00000000000E+00  0.00000000000E+00 -0.11038850015E+04  0.21973470930E+04  0.18999400387E+04 0.  0.
        1    1    3    3  502    0  0.74713811744E+02 -0.46625338001E+03 -0.15052729983E+04  0.15775998122E+04  0.50400001928E-02 0. -1.
       -1    1    3    3    0  502 -0.74713811744E+02  0.46625338001E+03  0.40138799681E+03  0.61974728079E+03  0.50400001928E-02 0.  1.
</event>
<event>
 5   0  0.3236653E-06  0.1899784E+04  0.7818609E-02  0.8654964E-01
       -1   -1    0    0    0  501  0.00000000000E+00  0.00000000000E+00  0.70597605553E+03  0.70597605554E+03  0.50400001928E-02 0.  1.
        1   -1    0    0  501    0  0.00000000000E+00  0.00000000000E+00 -0.12780813642E+04  0.12780813642E+04  0.50400001928E-02 0. -1.
    10030    2    1    2    0    0  0.00000000000E+00  0.00000000000E+00 -0.57210530866E+03  0.19840574197E+04  0.18997840300E+04 0.  0.
        3    1    3    3  502    0 -0.13467376485E+03 -0.13488165894E+03 -0.12579046032E+04  0.12722633713E+04  0.10100000352E+00 0. -1.
       -3    1    3    3    0  502  0.13467376485E+03  0.13488165894E+03  0.68579929455E+03  0.71179404849E+03  0.10100000352E+00 0.  1.
</event>
<event>
 5   0  0.3379108E-06  0.1903849E+04  0.7818609E-02  0.8652943E-01
       -1   -1    0    0    0  501  0.00000000000E+00  0.00000000000E+00  0.16084313134E+04  0.16084313134E+04  0.50400001928E-02 0. -1.
        1   -1    0    0  501    0  0.00000000000E+00  0.00000000000E+00 -0.56338162899E+03  0.56338162901E+03  0.50400001928E-02 0.  1.
    10030    2    1    2    0    0  0.00000000000E+00  0.00000000000E+00  0.10450496844E+04  0.21718129424E+04  0.19038494200E+04 0.  0.
        4    1    3    3  502    0  0.51263394762E+02  0.61903991747E+03 -0.30033405010E+03  0.68995688968E+03  0.12699999809E+01 0.  1.
       -4    1    3    3    0  502 -0.51263394762E+02 -0.61903991747E+03  0.13453837345E+04  0.14818560527E+04  0.12699999809E+01 0. -1.
</event>
<event>
 5   0  0.3236653E-06  0.1900561E+04  0.7818609E-02  0.8654577E-01
        1   -1    0    0  501    0  0.00000000000E+00  0.00000000000E+00  0.73493067811E+03  0.73493067813E+03  0.50400001928E-02 0. -1.
       -1   -1    0    0    0  501  0.00000000000E+00  0.00000000000E+00 -0.12287323893E+04  0.12287323893E+04  0.50400001928E-02 0.  1.
    10030    2    1    2    0    0  0.00000000000E+00  0.00000000000E+00 -0.49380171114E+03  0.19636630674E+04  0.19005611046E+04 0.  0.
        3    1    3    3  502    0  0.17444699370E+03  0.88619987549E+03  0.58289427642E+02  0.90508543271E+03  0.10100000352E+00 0. -1.
       -3    1    3    3    0  502 -0.17444699370E+03 -0.88619987549E+03 -0.55209113878E+03  0.10585776347E+04  0.10100000352E+00 0.  1.
</event>
<event>
 5   0  0.6870370E-06  0.1900988E+04  0.7818609E-02  0.8654365E-01
       -2   -1    0    0    0  501  0.00000000000E+00  0.00000000000E+00  0.73583106911E+03  0.73583106912E+03  0.25500000920E-02 0. -1.
        2   -1    0    0  501    0  0.00000000000E+00  0.00000000000E+00 -0.12277798635E+04  0.12277798635E+04  0.25500000920E-02 0.  1.
    10030    2    1    2    0    0  0.00000000000E+00  0.00000000000E+00 -0.49194879438E+03  0.19636109326E+04  0.19009877113E+04 0.  0.
        1    1    3    3  502    0  0.51013741143E+02  0.52212362067E+03  0.57274123025E+03  0.77669041059E+03  0.50400001928E-02 0. -1.
       -1    1    3    3    0  502 -0.51013741143E+02 -0.52212362067E+03 -0.10646900246E+04  0.11869205220E+04  0.50400001928E-02 0.  1.
</event>
<event>
 5   0  0.6862201E-06  0.1901370E+04  0.7818609E-02  0.8654175E-01
        2   -1    0    0  501    0  0.00000000000E+00  0.00000000000E+00  0.10197025151E+04  0.10197025151E+04  0.25500000920E-02 0.  1.
       -2   -1    0    0    0  501  0.00000000000E+00  0.00000000000E+00 -0.88633904432E+03  0.88633904433E+03  0.25500000920E-02 0. -1.
    10030    2    1    2    0    0  0.00000000000E+00  0.00000000000E+00  0.13336347078E+03  0.19060415594E+04  0.19013701930E+04 0.  0.
        3    1    3    3  502    0  0.20155538001E+03 -0.83504258344E+03  0.47496784283E+03  0.98158807516E+03  0.10100000352E+00 0. -1.
       -3    1    3    3    0  502 -0.20155538001E+03  0.83504258344E+03 -0.34160437205E+03  0.92445348427E+03  0.10100000352E+00 0.  1.
</event>
<event>
 5   0  0.3236653E-06  0.1899574E+04  0.7818609E-02  0.8655069E-01
       -1   -1    0    0    0  501  0.00000000000E+00  0.00000000000E+00  0.40780255024E+03  0.40780255027E+03  0.50400001928E-02 0.  1.
        1   -1    0    0  501    0  0.00000000000E+00  0.00000000000E+00 -0.22120880483E+04  0.22120880483E+04  0.50400001928E-02 0. -1.
    10030    2    1    2    0    0  0.00000000000E+00  0.00000000000E+00 -0.18042854980E+04  0.26198905986E+04  0.18995737917E+04 0.  0.
        3    1    3    3  502    0 -0.89276041634E+03 -0.11622731946E+03 -0.13194848323E+04  0.15973635102E+04  0.10100000352E+00 0.  1.
       -3    1    3    3    0  502  0.89276041634E+03  0.11622731946E+03 -0.48480066573E+03  0.10225270884E+04  0.10100000352E+00 0. -1.
</event>
<event>
 5   0  0.2527750E-06  0.1899648E+04  0.7818609E-02  0.8655032E-01
        4   -1    0    0  501    0  0.00000000000E+00  0.00000000000E+00  0.22388425466E+04  0.22388429069E+04  0.12699999809E+01 0.  1.
       -4   -1    0    0    0  501  0.00000000000E+00  0.00000000000E+00 -0.40295938730E+03  0.40296138862E+03  0.12699999809E+01 0. -1.
    10030    2    1    2    0    0  0.00000000000E+00  0.00000000000E+00  0.18358831593E+04  0.26418042955E+04  0.18996481150E+04 0.  0.
        3    1    3    3  502    0  0.93599901195E+03  0.37670094773E+02  0.11362941702E+04  0.14726430789E+04  0.10100000352E+00 0.  1.
       -3    1    3    3    0  502 -0.93599901195E+03 -0.37670094773E+02  0.69958898919E+03  0.11691612166E+04  0.10100000352E+00 0. -1.
</event>
<event>
 5   0  0.3379108E-06  0.1899621E+04  0.7818609E-02  0.8655045E-01
       -1   -1    0    0    0  501  0.00000000000E+00  0.00000000000E+00  0.39788418848E+03  0.39788418851E+03  0.50400001928E-02 0.  1.
        1   -1    0    0  501    0  0.00000000000E+00  0.00000000000E+00 -0.22673429421E+04  0.22673429421E+04  0.50400001928E-02 0. -1.
    10030    2    1    2    0    0  0.00000000000E+00  0.00000000000E+00 -0.18694587537E+04  0.26652271306E+04  0.18996209165E+04 0.  0.
        4    1    3    3  502    0 -0.78498285164E+02  0.65778659112E+03  0.20252665250E+02  0.66276463664E+03  0.12699999809E+01 0.  1.
       -4    1    3    3    0  502  0.78498285164E+02 -0.65778659112E+03 -0.18897114189E+04  0.20024624940E+04  0.12699999809E+01 0. -1.
</event>
<event>
 5   0  0.3495279E-06  0.1899830E+04  0.7818609E-02  0.8654941E-01
        1   -1    0    0  501    0  0.00000000000E+00  0.00000000000E+00  0.63441286157E+03  0.63441286159E+03  0.50400001928E-02 0. -1.
       -1   -1    0    0    0  501  0.00000000000E+00  0.00000000000E+00 -0.14223203695E+04  0.14223203695E+04  0.50400001928E-02 0.  1.
    10030    2    1    2    0    0  0.00000000000E+00  0.00000000000E+00 -0.78790750789E+03  0.20567332311E+04  0.18998298194E+04 0.  0.
        2    1    3    3  502    0  0.62972560843E+03  0.62478530551E+03 -0.76175869847E+03  0.11692678626E+04  0.25500000920E-02 0. -1.
       -2    1    3    3    0  502 -0.62972560843E+03 -0.62478530551E+03 -0.26148809426E+02  0.88746536842E+03  0.25500000920E-02 0.  1.
</event>
<event>
 5   0  0.3398807E-06  0.1898700E+04  0.7818609E-02  0.8655504E-01
        1   -1    0    0  501    0  0.00000000000E+00  0.00000000000E+00  0.11712724368E+04  0.11712724368E+04  0.50400001928E-02 0. -1.
       -1   -1    0    0    0  501  0.00000000000E+00  0.00000000000E+00 -0.76947577399E+03  0.76947577400E+03  0.50400001928E-02 0.  1.
    10030    2    1    2    0    0  0.00000000000E+00  0.00000000000E+00  0.40179666285E+03  0.19407482108E+04  0.18987003607E+04 0.  0.
        1    1    3    3  502    0  0.17700846002E+03 -0.53468961125E+03  0.98204817707E+03  0.11320969912E+04  0.50400001928E-02 0. -1.
       -1    1    3    3    0  502 -0.17700846002E+03  0.53468961125E+03 -0.58025151423E+03  0.80865121968E+03  0.50400001928E-02 0.  1.
</event>
<event>
 5   0  0.3211263E-06  0.1900879E+04  0.7818609E-02  0.8654419E-01
       -1   -1    0    0    0  501  0.00000000000E+00  0.00000000000E+00  0.95247040074E+03  0.95247040075E+03  0.50400001928E-02 0.  1.
        1   -1    0    0  501    0  0.00000000000E+00  0.00000000000E+00 -0.94841274680E+03  0.94841274681E+03  0.50400001928E-02 0. -1.
    10030    2    1    2    0    0  0.00000000000E+00  0.00000000000E+00  0.40576539420E+01  0.19008831476E+04  0.19008788168E+04 0.  0.
        5    1    3    3  502    0 -0.24372228430E+03 -0.43411434251E+03 -0.80757610845E+03  0.94871337883E+03  0.46999998093E+01 0. -1.
       -5    1    3    3    0  502  0.24372228430E+03  0.43411434251E+03  0.81163376239E+03  0.95216976873E+03  0.46999998093E+01 0.  1.
</event>
<event>
 5   0  0.7577180E-06  0.1896046E+04  0.7818609E-02  0.8656827E-01
        2   -1    0    0  501    0  0.00000000000E+00  0.00000000000E+00  0.11488609384E+04  0.11488609384E+04  0.25500000920E-02 0.  1.
       -2   -1    0    0    0  501  0.00000000000E+00  0.00000000000E+00 -0.78229454025E+03  0.78229454025E+03  0.25500000920E-02 0. -1.
    10030    2    1    2    0    0  0.00000000000E+00  0.00000000000E+00  0.36656639819E+03  0.19311554787E+04  0.18960460328E+04 0.  0.
        5    1    3    3  502    0  0.39208719581E+03 -0.30309500207E+03  0.10064105817E+04  0.11218214200E+04  0.46999998093E+01 0.  1.
       -5    1    3    3    0  502 -0.39208719581E+03  0.30309500207E+03 -0.63984418351E+03  0.80933405870E+03  0.46999998093E+01 0. -1.
</event>
<event>
 5   0  0.7207648E-06  0.1900311E+04  0.7818609E-02  0.8654702E-01
       -2   -1    0    0    0  501  0.00000000000E+00  0.00000000000E+00  0.33525156928E+03  0.33525156929E+03  0.25500000920E-02 0. -1.
        2   -1    0    0  501    0  0.00000000000E+00  0.00000000000E+00 -0.26928900195E+04  0.26928900195E+04  0.25500000920E-02 0.  1.
    10030    2    1    2    0    0  0.00000000000E+00  0.00000000000E+00 -0.23576384502E+04  0.30281415888E+04  0.19003111376E+04 0.  0.
        4    1    3    3  502    0  0.44543318022E+03  0.83481327350E+03 -0.13165445703E+04  0.16213004466E+04  0.12699999809E+01 0.  1.
       -4    1    3    3    0  502 -0.44543318022E+03 -0.83481327350E+03 -0.10410938799E+04  0.14068411422E+04  0.12699999809E+01 0. -1.
</event>
<event>
 5   0  0.3211263E-06  0.1900085E+04  0.7818609E-02  0.8654814E-01
       -1   -1    0    0    0  501  0.00000000000E+00  0.00000000000E+00  0.11979635524E+04  0.11979635524E+04  0.50400001928E-02 0. -1.
        1   -1    0    0  501    0  0.00000000000E+00  0.00000000000E+00 -0.75342886389E+03  0.75342886391E+03  0.50400001928E-02 0.  1.
    10030    2    1    2    0    0  0.00000000000E+00  0.00000000000E+00  0.44453468847E+03  0.19513924163E+04  0.19000845437E+04 0.  0.
        5    1    3    3  502    0  0.66363211611E+03  0.25875745731E+03 -0.42335347974E+03  0.82862130437E+03  0.46999998093E+01 0.  1.
       -5    1    3    3    0  502 -0.66363211611E+03 -0.25875745731E+03  0.86788816822E+03  0.11227711119E+04  0.46999998093E+01 0. -1.
</event>
<event>
 5   0  0.2527750E-06  0.1900534E+04  0.7818609E-02  0.8654591E-01
        3   -1    0    0  501    0  0.00000000000E+00  0.00000000000E+00  0.88835942011E+03  0.88835942585E+03  0.10100000352E+00 0. -1.
       -3   -1    0    0    0  501  0.00000000000E+00  0.00000000000E+00 -0.10164886774E+04  0.10164886824E+04  0.10100000352E+00 0.  1.
    10030    2    1    2    0    0  0.00000000000E+00  0.00000000000E+00 -0.12812925727E+03  0.19048481082E+04  0.19005339273E+04 0.  0.
        2    1    3    3  502    0 -0.92676831154E+02  0.52116280843E+03 -0.85503768114E+03  0.10056287109E+04  0.25500000920E-02 0.  1.
       -2    1    3    3    0  502  0.92676831154E+02 -0.52116280843E+03  0.72690842387E+03  0.89921939738E+03  0.25500000920E-02 0. -1.
</event>
<event>
 5   0  0.6870370E-06  0.1898540E+04  0.7818609E-02  0.8655583E-01
       -2   -1    0    0    0  501  0.00000000000E+00  0.00000000000E+00  0.17941315769E+04  0.17941315769E+04  0.25500000920E-02 0. -1.
        2   -1    0    0  501    0  0.00000000000E+00  0.00000000000E+00 -0.50225606662E+03  0.50225606663E+03  0.25500000920E-02 0.  1.
    10030    2    1    2    0    0  0.00000000000E+00  0.00000000000E+00  0.12918755103E+04  0.22963876435E+04  0.18985399325E+04 0.  0.
        1    1    3    3  502    0 -0.35109919989E+03 -0.31837248989E+03  0.16407783915E+04  0.17078598948E+04  0.50400001928E-02 0. -1.
       -1    1    3    3    0  502  0.35109919989E+03  0.31837248989E+03 -0.34890288117E+03  0.58852774870E+03  0.50400001928E-02 0.  1.
</event>
<event>
 5   0  0.7207648E-06  0.1899828E+04  0.7818609E-02  0.8654942E-01
        2   -1    0    0  501    0  0.00000000000E+00  0.00000000000E+00  0.14468796881E+04  0.14468796881E+04  0.25500000920E-02 0. -1.
       -2   -1    0    0    0  501  0.00000000000E+00  0.00000000000E+00 -0.62364329319E+03  0.62364329319E+03  0.25500000920E-02 0.  1.
    10030    2    1    2    0    0  0.00000000000E+00  0.00000000000E+00  0.82323639488E+03  0.20705229813E+04  0.18998282170E+04 0.  0.
        4    1    3    3  502    0 -0.59119273569E+03 -0.70074294208E+03  0.68251858945E+03  0.11429710230E+04  0.12699999809E+01 0. -1.
       -4    1    3    3    0  502  0.59119273569E+03  0.70074294208E+03  0.14071780544E+03  0.92755195826E+03  0.12699999809E+01 0.  1.
</event>
<event>
 5   0  0.7207648E-06  0.1899987E+04  0.7818609E-02  0.8654863E-01
       -2   -1    0    0    0  501  0.00000000000E+00  0.00000000000E+00  0.48345123073E+03  0.48345123074E+03  0.25500000920E-02 0. -1.
        2   -1    0    0  501    0  0.00000000000E+00  0.00000000000E+00 -0.18667614058E+04  0.18667614058E+04  0.25500000920E-02 0.  1.
    10030    2    1    2    0    0  0.00000000000E+00  0.00000000000E+00 -0.13833101750E+04  0.23502126365E+04  0.18999874727E+04 0.  0.
        4    1    3    3  502    0  0.32398589968E+03 -0.85251916069E+03 -0.10206282039E+04  0.13687363975E+04  0.12699999809E+01 0. -1.
       -4    1    3    3    0  502 -0.32398589968E+03  0.85251916069E+03 -0.36268197114E+03  0.98147623895E+03  0.12699999809E+01 0.  1.
</event>
<event>
 5   0  0.3398807E-06  0.1899881E+04  0.7818609E-02  0.8654916E-01
        1   -1    0    0  501    0  0.00000000000E+00  0.00000000000E+00  0.98854994853E+03  0.98854994854E+03  0.50400001928E-02 0.  1.
       -1   -1    0    0    0  501  0.00000000000E+00  0.00000000000E+00 -0.91283917876E+03  0.91283917878E+03  0.50400001928E-02 0. -1.
    10030    2    1    2    0    0  0.00000000000E+00  0.00000000000E+00  0.75710769764E+02  0.19013891273E+04  0.18998811786E+04 0.  0.
        1    1    3    3  502    0  0.34462906694E+03 -0.54209739212E+02  0.92211721618E+03  0.98590468607E+03  0.50400001928E-02 0.  1.
       -1    1    3    3    0  502 -0.34462906694E+03  0.54209739212E+02 -0.84640644642E+03  0.91548444125E+03  0.50400001928E-02 0. -1.
</event>
<event>
 5   0  0.3236653E-06  0.1900165E+04  0.7818609E-02  0.8654774E-01
        1   -1    0    0  501    0  0.00000000000E+00  0.00000000000E+00  0.78672628010E+03  0.78672628011E+03  0.50400001928E-02 0.  1.
       -1   -1    0    0    0  501  0.00000000000E+00  0.00000000000E+00 -0.11473575192E+04  0.11473575192E+04  0.50400001928E-02 0. -1.
    10030    2    1    2    0    0  0.00000000000E+00  0.00000000000E+00 -0.36063123906E+03  0.19340837993E+04  0.19001645329E+04 0.  0.
        3    1    3    3  502    0 -0.19799117503E+03  0.92891674464E+03 -0.15602587657E+03  0.96251280938E+03  0.10100000352E+00 0.  1.
       -3    1    3    3    0  502  0.19799117503E+03 -0.92891674464E+03 -0.20460536250E+03  0.97157098991E+03  0.10100000352E+00 0. -1.
</event>
<event>
 5   0  0.3236653E-06  0.1900218E+04  0.7818609E-02  0.8654748E-01
       -1   -1    0    0    0  501  0.00000000000E+00  0.00000000000E+00  0.14133074767E+04  0.14133074767E+04  0.50400001928E-02 0. -1.
        1   -1    0    0  501    0  0.00000000000E+00  0.00000000000E+00 -0.63871930360E+03  0.63871930362E+03  0.50400001928E-02 0.  1.
    10030    2    1    2    0    0  0.00000000000E+00  0.00000000000E+00  0.77458817314E+03  0.20520267804E+04  0.19002176374E+04 0.  0.
        3    1    3    3  502    0  0.88688666711E+03  0.33643232128E+03  0.32862025102E+03  0.10038655023E+04  0.10100000352E+00 0.  1.
       -3    1    3    3    0  502 -0.88688666711E+03 -0.33643232128E+03  0.44596792212E+03  0.10481612781E+04  0.10100000352E+00 0. -1.
</event>
<event>
 5   0  0.6870370E-06  0.1900621E+04  0.7818609E-02  0.8654547E-01
       -2   -1    0    0    0  501  0.00000000000E+00  0.00000000000E+00  0.80341988798E+03  0.80341988799E+03  0.25500000920E-02 0. -1.
        2   -1    0    0  501    0  0.00000000000E+00  0.00000000000E+00 -0.11240570036E+04  0.11240570036E+04  0.25500000920E-02 0.  1.
    10030    2    1    2    0    0  0.00000000000E+00  0.00000000000E+00 -0.32063711562E+03  0.19274768916E+04  0.19006206901E+04 0.  0.
        1    1    3    3  502    0 -0.81682751089E+03 -0.30697247639E+03  0.22136436948E+03  0.90024522654E+03  0.50400001928E-02 0. -1.
       -1    1    3    3    0  502  0.81682751089E+03  0.30697247639E+03 -0.54200148510E+03  0.10272316650E+04  0.50400001928E-02 0.  1.
</event>
<event>
 5   0  0.3379108E-06  0.1899155E+04  0.7818609E-02  0.8655277E-01
       -1   -1    0    0    0  501  0.00000000000E+00  0.00000000000E+00  0.51808641106E+03  0.51808641109E+03  0.50400001928E-02 0. -1.
        1   -1    0    0  501    0  0.00000000000E+00  0.00000000000E+00 -0.17404389511E+04  0.17404389511E+04  0.50400001928E-02 0.  1.
    10030    2    1    2    0    0  0.00000000000E+00  0.00000000000E+00 -0.12223525401E+04  0.22585253622E+04  0.18991553595E+04 0.  0.
        4    1    3    3  502    0  0.45928101480E+03 -0.63170468674E+03 -0.12534754672E+04  0.14768859880E+04  0.12699999809E+01 0.  1.
       -4    1    3    3    0  502 -0.45928101480E+03  0.63170468674E+03  0.31122927149E+02  0.78163937420E+03  0.12699999809E+01 0. -1.
</event>
<event>
 5   0  0.6870370E-06  0.1900506E+04  0.7818609E-02  0.8654604E-01
        2   -1    0    0  501    0  0.00000000000E+00  0.00000000000E+00  0.14650158309E+04  0.14650158309E+04  0.25500000920E-02 0.  1.
       -2   -1    0    0    0  501  0.00000000000E+00  0.00000000000E+00 -0.61636259998E+03  0.61636259999E+03  0.25500000920E-02 0. -1.
    10030    2    1    2    0    0  0.00000000000E+00  0.00000000000E+00  0.84865323093E+03  0.20813784309E+04  0.19005062132E+04 0.  0.
        1    1    3    3  502    0 -0.16725259795E+03  0.67730567691E+03  0.11309149645E+04  0.13287908295E+04  0.50400001928E-02 0.  1.
       -1    1    3    3    0  502  0.16725259795E+03 -0.67730567691E+03 -0.28226173361E+03  0.75258760140E+03  0.50400001928E-02 0. -1.
</event>
<event>
 5   0  0.3211263E-06  0.1900756E+04  0.7818609E-02  0.8654480E-01
        1   -1    0    0  501    0  0.00000000000E+00  0.00000000000E+00  0.20590710086E+04  0.20590710086E+04  0.50400001928E-02 0.  1.
       -1   -1    0    0    0  501  0.00000000000E+00  0.00000000000E+00 -0.43865344166E+03  0.43865344169E+03  0.50400001928E-02 0. -1.
    10030    2    1    2    0    0  0.00000000000E+00  0.00000000000E+00  0.16204175670E+04  0.24977244503E+04  0.19007562543E+04 0.  0.
        5    1    3    3  502    0 -0.61339341696E+03 -0.44693069519E+03  0.58545401758E+02  0.76121493964E+03  0.46999998093E+01 0. -1.
       -5    1    3    3    0  502  0.61339341696E+03  0.44693069519E+03  0.15618721652E+04  0.17365095107E+04  0.46999998093E+01 0.  1.
</event>
<event>
 5   0  0.6862201E-06  0.1900353E+04  0.7818609E-02  0.8654681E-01
        2   -1    0    0  501    0  0.00000000000E+00  0.00000000000E+00  0.97083131882E+03  0.97083131882E+03  0.25500000920E-02 0. -1.
       -2   -1    0    0    0  501  0.00000000000E+00  0.00000000000E+00 -0.92996131232E+03  0.92996131232E+03  0.25500000920E-02 0.  1.
    10030    2    1    2    0    0  0.00000000000E+00  0.00000000000E+00  0.40870006502E+02  0.19007926311E+04  0.19003531959E+04 0.  0.
        3    1    3    3  502    0  0.38497540225E+03 -0.50664154809E+03 -0.68537952828E+03  0.93522020218E+03  0.10100000352E+00 0.  1.
       -3    1    3    3    0  502 -0.38497540225E+03  0.50664154809E+03  0.72624953478E+03  0.96557242896E+03  0.10100000352E+00 0. -1.
</event>
<event>
 5   0  0.6870370E-06  0.1898670E+04  0.7818609E-02  0.8655519E-01
       -2   -1    0    0    0  501  0.00000000000E+00  0.00000000000E+00  0.66040865094E+03  0.66040865094E+03  0.25500000920E-02 0.  1.
        2   -1    0    0  501    0  0.00000000000E+00  0.00000000000E+00 -0.13646660730E+04  0.13646660730E+04  0.25500000920E-02 0. -1.
    10030    2    1    2    0    0  0.00000000000E+00  0.00000000000E+00 -0.70425742207E+03  0.20250747239E+04  0.18986703561E+04 0.  0.
        1    1    3    3  502    0  0.34458683227E+03  0.73077024896E+03 -0.88378412986E+03  0.11974304280E+04  0.50400001928E-02 0. -1.
       -1    1    3    3    0  502 -0.34458683227E+03 -0.73077024896E+03  0.17952670779E+03  0.82764429592E+03  0.50400001928E-02 0.  1.
</event>
<event>
 5   0  0.3211263E-06  0.1898228E+04  0.7818609E-02  0.8655739E-01
        1   -1    0    0  501    0  0.00000000000E+00  0.00000000000E+00  0.18732517905E+04  0.18732517905E+04  0.50400001928E-02 0.  1.
       -1   -1    0    0    0  501  0.00000000000E+00  0.00000000000E+00 -0.48088438680E+03  0.48088438682E+03  0.50400001928E-02 0. -1.
    10030    2    1    2    0    0  0.00000000000E+00  0.00000000000E+00  0.13923674037E+04  0.23541361773E+04  0.18982281619E+04 0.  0.
        5    1    3    3  502    0  0.66892737506E+03  0.64899808358E+03  0.47387344398E+03  0.10455814060E+04  0.46999998093E+01 0. -1.
       -5    1    3    3    0  502 -0.66892737506E+03 -0.64899808358E+03  0.91849395970E+03  0.13085547713E+04  0.46999998093E+01 0.  1.
</event>
<event>
 5   0  0.3495279E-06  0.1899057E+04  0.7818609E-02  0.8655326E-01
       -1   -1    0    0    0  501  0.00000000000E+00  0.00000000000E+00  0.55935028293E+03  0.55935028295E+03  0.50400001928E-02 0. -1.
        1   -1    0    0  501    0  0.00000000000E+00  0.00000000000E+00 -0.16118771435E+04  0.16118771435E+04  0.50400001928E-02 0.  1.
    10030    2    1    2    0    0  0.00000000000E+00  0.00000000000E+00 -0.10525268606E+04  0.21712274264E+04  0.18990565408E+04 0.  0.
        2    1    3    3  502    0 -0.85050219410E+03  0.15340942867E+03 -0.97597528443E+03  0.13036165812E+04  0.25500000920E-02 0.  1.
       -2    1    3    3    0  502  0.85050219410E+03 -0.15340942867E+03 -0.76551576134E+02  0.86761084524E+03  0.25500000920E-02 0. -1.
</event>
<event>
 5   0  0.6984466E-06  0.1897207E+04  0.7818609E-02  0.8656248E-01
       -2   -1    0    0    0  501  0.00000000000E+00  0.00000000000E+00  0.95610602953E+03  0.95610602954E+03  0.25500000920E-02 0. -1.
        2   -1    0    0  501    0  0.00000000000E+00  0.00000000000E+00 -0.94115991684E+03  0.94115991684E+03  0.25500000920E-02 0.  1.
    10030    2    1    2    0    0  0.00000000000E+00  0.00000000000E+00  0.14946112695E+02  0.18972659464E+04  0.18972070749E+04 0.  0.
        2    1    3    3  502    0  0.12114830209E+03 -0.30779849734E+03 -0.88161687224E+03  0.94162897974E+03  0.25500000920E-02 0.  1.
       -2    1    3    3    0  502 -0.12114830209E+03  0.30779849734E+03  0.89656298493E+03  0.95563696664E+03  0.25500000920E-02 0. -1.
</event>
<event>
 5   0  0.6984466E-06  0.1901241E+04  0.7818609E-02  0.8654239E-01
       -2   -1    0    0    0  501  0.00000000000E+00  0.00000000000E+00  0.61904660202E+03  0.61904660202E+03  0.25500000920E-02 0.  1.
        2   -1    0    0  501    0  0.00000000000E+00  0.00000000000E+00 -0.14597920117E+04  0.14597920117E+04  0.25500000920E-02 0. -1.
    10030    2    1    2    0    0  0.00000000000E+00  0.00000000000E+00 -0.84074540971E+03  0.20788386138E+04  0.19012409469E+04 0.  0.
        2    1    3    3  502    0  0.54376895369E+03 -0.53922523740E+03 -0.10362174740E+04  0.12884856169E+04  0.25500000920E-02 0. -1.
       -2    1    3    3    0  502 -0.54376895369E+03  0.53922523740E+03  0.19547206429E+03  0.79035299681E+03  0.25500000920E-02 0.  1.
</event>
<event>
 5   0  0.3236653E-06  0.1900206E+04  0.7818609E-02  0.8654754E-01
       -1   -1    0    0    0  501  0.00000000000E+00  0.00000000000E+00  0.14087132967E+04  0.14087132967E+04  0.50400001928E-02 0.  1.
        1   -1    0    0  501    0  0.00000000000E+00  0.00000000000E+00 -0.64079454630E+03  0.64079454632E+03  0.50400001928E-02 0. -1.
    10030    2    1    2    0    0  0.00000000000E+00  0.00000000000E+00  0.76791875039E+03  0.20495078430E+04  0.19002060918E+04 0.  0.
        3    1    3    3  502    0  0.86699785761E+03  0.43680157670E+02 -0.32517995270E+02  0.86870632062E+03  0.10100000352E+00 0. -1.
       -3    1    3    3    0  502 -0.86699785761E+03 -0.43680157670E+02  0.80043674566E+03  0.11808015224E+04  0.10100000352E+00 0.  1.
</event>
<event>
 5   0  0.3495279E-06  0.1899680E+04  0.7818609E-02  0.8655016E-01
        1   -1    0    0  501    0  0.00000000000E+00  0.00000000000E+00  0.13955984887E+04  0.13955984888E+04  0.50400001928E-02 0.  1.
       -1   -1    0    0    0  501  0.00000000000E+00  0.00000000000E+00 -0.64645806874E+03  0.64645806876E+03  0.50400001928E-02 0. -1.
    10030    2    1    2    0    0  0.00000000000E+00  0.00000000000E+00  0.74914042001E+03  0.20420565575E+04  0.18996798718E+04 0.  0.
        2    1    3    3  502    0  0.80865196700E+02  0.70364870812E+03 -0.30574111415E+03  0.77145208105E+03  0.25500000920E-02 0. -1.
       -2    1    3    3    0  502 -0.80865196700E+02 -0.70364870812E+03  0.10548815342E+04  0.12706044765E+04  0.25500000920E-02 0.  1.
</event>
<event>
 5   0  0.6870370E-06  0.1900272E+04  0.7818609E-02  0.8654721E-01
        2   -1    0    0  501    0  0.00000000000E+00  0.00000000000E+00  0.19841771940E+04  0.19841771940E+04  0.25500000920E-02 0.  1.
       -2   -1    0    0    0  501  0.00000000000E+00  0.00000000000E+00 -0.45497852855E+03  0.45497852856E+03  0.25500000920E-02 0. -1.
    10030    2    1    2    0    0  0.00000000000E+00  0.00000000000E+00  0.15291986654E+04  0.24391557225E+04  0.19002715807E+04 0.  0.
        1    1    3    3  502    0  0.35095136313E+03  0.56772750933E+03  0.16325866120E+04  0.17637518051E+04  0.50400001928E-02 0.  1.
       -1    1    3    3    0  502 -0.35095136313E+03 -0.56772750933E+03 -0.10338794664E+03  0.67540391742E+03  0.50400001928E-02 0. -1.
</event>
<event>
 5   0  0.3379108E-06  0.1901163E+04  0.7818609E-02  0.8654278E-01
        1   -1    0    0  501    0  0.00000000000E+00  0.00000000000E+00  0.80725650615E+03  0.80725650617E+03  0.50400001928E-02 0.  1.
       -1   -1    0    0    0  501  0.00000000000E+00  0.00000000000E+00 -0.11193529092E+04  0.11193529092E+04  0.50400001928E-02 0. -1.
    10030    2    1    2    0    0  0.00000000000E+00  0.00000000000E+00 -0.31209640305E+03  0.19266094154E+04  0.19011627165E+04 0.  0.
        4    1    3    3  502    0  0.15946874810E+03  0.41797558602E+02  0.79265859759E+03  0.80962125883E+03  0.12699999809E+01 0.  1.
       -4    1    3    3    0  502 -0.15946874810E+03 -0.41797558602E+02 -0.11047550006E+04  0.11169881565E+04  0.12699999809E+01 0. -1.
</event>
<event>
 5   0  0.6870370E-06  0.1899576E+04  0.7818609E-02  0.8655067E-01
       -2   -1    0    0    0  501  0.00000000000E+00  0.00000000000E+00  0.51838096670E+03  0.51838096671E+03  0.25500000920E-02 0. -1.
        2   -1    0    0  501    0  0.00000000000E+00  0.00000000000E+00 -0.17402213136E+04  0.17402213136E+04  0.25500000920E-02 0.  1.
    10030    2    1    2    0    0  0.00000000000E+00  0.00000000000E+00 -0.12218403469E+04  0.22586022803E+04  0.18995763810E+04 0.  0.
        1    1    3    3  502    0 -0.66318449094E+03 -0.64780358090E+00  0.19750011858E+03  0.69196848595E+03  0.50400001928E-02 0. -1.
       -1    1    3    3    0  502  0.66318449094E+03  0.64780358090E+00 -0.14193404655E+04  0.15666337944E+04  0.50400001928E-02 0.  1.
</event>
<event>
 5   0  0.3398807E-06  0.1900002E+04  0.7818609E-02  0.8654855E-01
        1   -1    0    0  501    0  0.00000000000E+00  0.00000000000E+00  0.14104135141E+04  0.14104135141E+04  0.50400001928E-02 0. -1.
       -1   -1    0    0    0  501  0.00000000000E+00  0.00000000000E+00 -0.63988487930E+03  0.63988487932E+03  0.50400001928E-02 0.  1.
    10030    2    1    2    0    0  0.00000000000E+00  0.00000000000E+00  0.77052863482E+03  0.20502983934E+04  0.19000024013E+04 0.  0.
        1    1    3    3  502    0 -0.50440946697E+03  0.75459594006E+03  0.82618062037E+02  0.91141082248E+03  0.50400001928E-02 0.  1.
       -1    1    3    3    0  502  0.50440946697E+03 -0.75459594006E+03  0.68791057278E+03  0.11388875710E+04  0.50400001928E-02 0. -1.
</event>
<event>
 5   0  0.7207648E-06  0.1900828E+04  0.7818609E-02  0.8654444E-01
       -2   -1    0    0    0  501  0.00000000000E+00  0.00000000000E+00  0.69077131451E+03  0.69077131452E+03  0.25500000920E-02 0. -1.
        2   -1    0    0  501    0  0.00000000000E+00  0.00000000000E+00 -0.13076499214E+04  0.13076499214E+04  0.25500000920E-02 0.  1.
    10030    2    1    2    0    0  0.00000000000E+00  0.00000000000E+00 -0.61687860689E+03  0.19984212359E+04  0.19008282985E+04 0.  0.
        4    1    3    3  502    0 -0.61846320994E+03 -0.60832713257E+03  0.99729103632E+02  0.87321598089E+03  0.12699999809E+01 0. -1.
       -4    1    3    3    0  502  0.61846320994E+03  0.60832713257E+03 -0.71660771052E+03  0.11252052550E+04  0.12699999809E+01 0.  1.
</event>
<event>
 5   0  0.3211263E-06  0.1898369E+04  0.7818609E-02  0.8655669E-01
        1   -1    0    0  501    0  0.00000000000E+00  0.00000000000E+00  0.60493201223E+03  0.60493201225E+03  0.50400001928E-02 0. -1.
       -1   -1    0    0    0  501  0.00000000000E+00  0.00000000000E+00 -0.14893422846E+04  0.14893422846E+04  0.50400001928E-02 0.  1.
    10030    2    1    2    0    0  0.00000000000E+00  0.00000000000E+00 -0.88441027236E+03  0.20942742968E+04  0.18983685892E+04 0.  0.
        5    1    3    3  502    0 -0.56253830927E+01  0.69167469615E+03 -0.11592688528E+04  0.13499525522E+04  0.46999998093E+01 0.  1.
       -5    1    3    3    0  502  0.56253830927E+01 -0.69167469615E+03  0.27485858045E+03  0.74432174459E+03  0.46999998093E+01 0. -1.
</event>
<event>
 5   0  0.6862201E-06  0.1899693E+04  0.7818609E-02  0.8655009E-01
       -2   -1    0    0    0  501  0.00000000000E+00  0.00000000000E+00  0.90791816652E+03  0.90791816652E+03  0.25500000920E-02 0.  1.
        2   -1    0    0  501    0  0.00000000000E+00  0.00000000000E+00 -0.99371160265E+03  0.99371160265E+03  0.25500000920E-02 0. -1.
    10030    2    1    2    0    0  0.00000000000E+00  0.00000000000E+00 -0.85793436128E+02  0.19016297692E+04  0.18996934661E+04 0.  0.
        3    1    3    3  502    0  0.51893529399E+03  0.11049293798E+03  0.74575546033E+03  0.91523425717E+03  0.10100000352E+00 0.  1.
       -3    1    3    3    0  502 -0.51893529399E+03 -0.11049293798E+03 -0.83154889646E+03  0.98639551200E+03  0.10100000352E+00 0. -1.
</event>
<event>
 5   0  0.6984466E-06  0.1899777E+04  0.7818609E-02  0.8654967E-01
       -2   -1    0    0    0  501  0.00000000000E+00  0.00000000000E+00  0.89101038776E+03  0.89101038777E+03  0.25500000920E-02 0. -1.
        2   -1    0    0  501    0  0.00000000000E+00  0.00000000000E+00 -0.10126571004E+04  0.10126571004E+04  0.25500000920E-02 0.  1.
    10030    2    1    2    0    0  0.00000000000E+00  0.00000000000E+00 -0.12164671267E+03  0.19036674882E+04  0.18997768245E+04 0.  0.
        2    1    3    3  502    0  0.74869227381E+03  0.57556270000E+03  0.41735913113E+02  0.94528007963E+03  0.25500000920E-02 0. -1.
       -2    1    3    3    0  502 -0.74869227381E+03 -0.57556270000E+03 -0.16338262578E+03  0.95838740857E+03  0.25500000920E-02 0.  1.
</event>
<event>
 5   0  0.6870370E-06  0.1899943E+04  0.7818609E-02  0.8654885E-01
        2   -1    0    0  501    0  0.00000000000E+00  0.00000000000E+00  0.19398931157E+04  0.19398931157E+04  0.25500000920E-02 0.  1.
       -2   -1    0    0    0  501  0.00000000000E+00  0.00000000000E+00 -0.46520384309E+03  0.46520384310E+03  0.25500000920E-02 0. -1.
    10030    2    1    2    0    0  0.00000000000E+00  0.00000000000E+00  0.14746892726E+04  0.24050969588E+04  0.18999428756E+04 0.  0.
        1    1    3    3  502    0  0.16741663729E+03  0.89730560651E+03  0.40419952233E+03  0.99827998868E+03  0.50400001928E-02 0. -1.
       -1    1    3    3    0  502 -0.16741663729E+03 -0.89730560651E+03  0.10704897503E+04  0.14068169701E+04  0.50400001928E-02 0.  1.
</event>
<event>
 5   0  0.3379108E-06  0.1899764E+04  0.7818609E-02  0.8654974E-01
       -1   -1    0    0    0  501  0.00000000000E+00  0.00000000000E+00  0.82482543923E+03  0.82482543925E+03  0.50400001928E-02 0. -1.
        1   -1    0    0  501    0  0.00000000000E+00  0.00000000000E+00 -0.10938990948E+04  0.10938990948E+04  0.50400001928E-02 0.  1.
    10030    2    1    2    0    0  0.00000000000E+00  0.00000000000E+00 -0.26907365553E+03  0.19187245340E+04  0.18997639868E+04 0.  0.
        4    1    3    3  502    0 -0.55091172112E+03  0.25035914913E+03  0.60495288913E+03  0.85565941763E+03  0.12699999809E+01 0. -1.
       -4    1    3    3    0  502  0.55091172112E+03 -0.25035914913E+03 -0.87402654466E+03  0.10630651164E+04  0.12699999809E+01 0.  1.
</event>
<event>
 5   0  0.6984466E-06  0.1900436E+04  0.7818609E-02  0.8654640E-01
        2   -1    0    0  501    0  0.00000000000E+00  0.00000000000E+00  0.20479214343E+04  0.20479214343E+04  0.25500000920E-02 0.  1.
       -2   -1    0    0    0  501  0.00000000000E+00  0.00000000000E+00 -0.44089281152E+03  0.44089281153E+03  0.25500000920E-02 0. -1.
    10030    2    1    2    0    0  0.00000000000E+00  0.00000000000E+00  0.16070286228E+04  0.24888142459E+04  0.19004355700E+04 0.  0.
        2    1    3    3  502    0  0.42700202411E+03 -0.65585348376E+03  0.15092905582E+04  0.17001272040E+04  0.25500000920E-02 0.  1.
       -2    1    3    3    0  502 -0.42700202411E+03  0.65585348376E+03  0.97738064668E+02  0.78868704189E+03  0.25500000920E-02 0. -1.
</event>
<event>
 5   0  0.3236653E-06  0.1902227E+04  0.7818609E-02  0.8653749E-01
        1   -1    0    0  501    0  0.00000000000E+00  0.00000000000E+00  0.82263518932E+03  0.82263518934E+03  0.50400001928E-02 0. -1.
       -1   -1    0    0    0  501  0.00000000000E+00  0.00000000000E+00 -0.10996568804E+04  0.10996568804E+04  0.50400001928E-02 0.  1.
    10030    2    1    2    0    0  0.00000000000E+00  0.00000000000E+00 -0.27702169105E+03  0.19222920697E+04  0.19022265333E+04 0.  0.
        3    1    3    3  502    0 -0.23214116020E+03 -0.85948156063E+03 -0.47673276729E+03  0.10098872278E+04  0.10100000352E+00 0. -1.
       -3    1    3    3    0  502  0.23214116020E+03  0.85948156063E+03  0.19971107624E+03  0.91240484189E+03  0.10100000352E+00 0.  1.
</event>
<event>
 5   0  0.3379108E-06  0.1899849E+04  0.7818609E-02  0.8654932E-01
        1   -1    0    0  501    0  0.00000000000E+00  0.00000000000E+00  0.91496965409E+03  0.91496965410E+03  0.50400001928E-02 0. -1.
       -1   -1    0    0    0  501  0.00000000000E+00  0.00000000000E+00 -0.98621428300E+03  0.98621428301E+03  0.50400001928E-02 0.  1.
    10030    2    1    2    0    0  0.00000000000E+00  0.00000000000E+00 -0.71244628907E+02  0.19011839371E+04  0.18998485639E+04 0.  0.
        4    1    3    3  502    0  0.94056608475E+03 -0.11110627522E+03 -0.10878570224E+03  0.95333368035E+03  0.12699999809E+01 0.  1.
       -4    1    3    3    0  502 -0.94056608475E+03  0.11110627522E+03  0.37541073331E+02  0.94785025677E+03  0.12699999809E+01 0. -1.
</event>
<event>
 5   0  0.3495279E-06  0.1899589E+04  0.7818609E-02  0.8655061E-01
        1   -1    0    0  501    0  0.00000000000E+00  0.00000000000E+00  0.12334035902E+04  0.12334035902E+04  0.50400001928E-02 0. -1.
       -1   -1    0    0    0  501  0.00000000000E+00  0.00000000000E+00 -0.73139852085E+03  0.73139852087E+03  0.50400001928E-02 0.  1.
    10030    2    1    2    0    0  0.00000000000E+00  0.00000000000E+00  0.50200506937E+03  0.19648021111E+04  0.18995889677E+04 0.  0.
        2    1    3    3  502    0 -0.28627283023E+03  0.44547084943E+03  0.10665593180E+04  0.11907750375E+04  0.25500000920E-02 0. -1.
       -2    1    3    3    0  502  0.28627283023E+03 -0.44547084943E+03 -0.56455424866E+03  0.77402707362E+03  0.25500000920E-02 0.  1.
</event>
<event>
 5   0  0.3211263E-06  0.1899064E+04  0.7818609E-02  0.8655322E-01
        1   -1    0    0  501    0  0.00000000000E+00  0.00000000000E+00  0.74886607404E+03  0.74886607406E+03  0.50400001928E-02 0. -1.
       -1   -1    0    0    0  501  0.00000000000E+00  0.00000000000E+00 -0.12039688247E+04  0.12039688248E+04  0.50400001928E-02 0.  1.
    10030    2    1    2    0    0  0.00000000000E+00  0.00000000000E+00 -0.45510275071E+03  0.19528348988E+04  0.18990644087E+04 0.  0.
        5    1    3    3  502    0 -0.44930478340E+02 -0.91746594030E+03 -0.47483222217E+03  0.10340455641E+04  0.46999998093E+01 0.  1.
       -5    1    3    3    0  502  0.44930478340E+02  0.91746594030E+03  0.19729471468E+02  0.91878933468E+03  0.46999998093E+01 0. -1.
</event>
<event>
 5   0  0.6862201E-06  0.1899049E+04  0.7818609E-02  0.8655330E-01
       -2   -1    0    0    0  501  0.00000000000E+00  0.00000000000E+00  0.88293747662E+03  0.88293747662E+03  0.25500000920E-02 0. -1.
        2   -1    0    0  501    0  0.00000000000E+00  0.00000000000E+00 -0.10211336092E+04  0.10211336092E+04  0.25500000920E-02 0.  1.
    10030    2    1    2    0    0  0.00000000000E+00  0.00000000000E+00 -0.13819613260E+03  0.19040710858E+04  0.18990493750E+04 0.  0.
        3    1    3    3  502    0  0.22035350951E+03  0.92125516116E+03 -0.31184249398E+01  0.94724678722E+03  0.10100000352E+00 0. -1.
       -3    1    3    3    0  502 -0.22035350951E+03 -0.92125516116E+03 -0.13507770766E+03  0.95682429862E+03  0.10100000352E+00 0.  1.
</event>
<event>
 5   0  0.7207648E-06  0.1900312E+04  0.7818609E-02  0.8654701E-01
        2   -1    0    0  501    0  0.00000000000E+00  0.00000000000E+00  0.16298001619E+04  0.16298001619E+04  0.25500000920E-02 0.  1.
       -2   -1    0    0    0  501  0.00000000000E+00  0.00000000000E+00 -0.55393103858E+03  0.55393103859E+03  0.25500000920E-02 0. -1.
    10030    2    1    2    0    0  0.00000000000E+00  0.00000000000E+00  0.10758691233E+04  0.21837312005E+04  0.19003124968E+04 0.  0.
        4    1    3    3  502    0  0.53373825865E+03  0.61768875314E+03 -0.20765771234E+02  0.81660807898E+03  0.12699999809E+01 0.  1.
       -4    1    3    3    0  502 -0.53373825865E+03 -0.61768875314E+03  0.10966348945E+04  0.13671231215E+04  0.12699999809E+01 0. -1.
</event>
<event>
 5   0  0.6862201E-06  0.1899949E+04  0.7818609E-02  0.8654882E-01
        2   -1    0    0  501    0  0.00000000000E+00  0.00000000000E+00  0.12485036677E+04  0.12485036677E+04  0.25500000920E-02 0.  1.
       -2   -1    0    0    0  501  0.00000000000E+00  0.00000000000E+00 -0.72282668171E+03  0.72282668172E+03  0.25500000920E-02 0. -1.
    10030    2    1    2    0    0  0.00000000000E+00  0.00000000000E+00  0.52567698595E+03  0.19713303494E+04  0.18999492238E+04 0.  0.
        3    1    3    3  502    0  0.38621690783E+03  0.78241777814E+03 -0.12692157826E+03  0.88173135175E+03  0.10100000352E+00 0. -1.
       -3    1    3    3    0  502 -0.38621690783E+03 -0.78241777814E+03  0.65259856421E+03  0.10895989976E+04  0.10100000352E+00 0.  1.
</event>
<event>
 5   0  0.3495279E-06  0.1900197E+04  0.7818609E-02  0.8654759E-01
       -1   -1    0    0    0  501  0.00000000000E+00  0.00000000000E+00  0.92606031430E+03  0.92606031431E+03  0.50400001928E-02 0.  1.
        1   -1    0    0  501    0  0.00000000000E+00  0.00000000000E+00 -0.97476026114E+03  0.97476026115E+03  0.50400001928E-02 0. -1.
    10030    2    1    2    0    0  0.00000000000E+00  0.00000000000E+00 -0.48699946838E+02  0.19008205755E+04  0.19001966149E+04 0.  0.
        2    1    3    3  502    0  0.94296149018E+03 -0.79705737910E+02  0.60279326903E+02  0.94824204393E+03  0.25500000920E-02 0.  1.
       -2    1    3    3    0  502 -0.94296149018E+03  0.79705737910E+02 -0.10897927374E+03  0.95257853153E+03  0.25500000920E-02 0. -1.
</event>
<event>
 5   0  0.3495279E-06  0.1903232E+04  0.7818609E-02  0.8653249E-01
       -1   -1    0    0    0  501  0.00000000000E+00  0.00000000000E+00  0.70536007383E+03  0.70536007385E+03  0.50400001928E-02 0.  1.
        1   -1    0    0  501    0  0.00000000000E+00  0.00000000000E+00 -0.12838449705E+04  0.12838449705E+04  0.50400001928E-02 0. -1.
    10030    2    1    2    0    0  0.00000000000E+00  0.00000000000E+00 -0.57848489665E+03  0.19892050443E+04  0.19032319703E+04 0.  0.
        2    1    3    3  502    0 -0.45350900098E+03  0.49155045616E+03  0.41830182474E+03  0.78884008614E+03  0.25500000920E-02 0.  1.
       -2    1    3    3    0  502  0.45350900098E+03 -0.49155045616E+03 -0.99678672139E+03  0.12003649582E+04  0.25500000920E-02 0. -1.
</event>
<event>
 5   0  0.2527750E-06  0.1899095E+04  0.7818609E-02  0.8655307E-01
        3   -1    0    0  501    0  0.00000000000E+00  0.00000000000E+00  0.61695218536E+03  0.61695219363E+03  0.10100000352E+00 0.  1.
       -3   -1    0    0    0  501  0.00000000000E+00  0.00000000000E+00 -0.14614427396E+04  0.14614427431E+04  0.10100000352E+00 0. -1.
    10030    2    1    2    0    0  0.00000000000E+00  0.00000000000E+00 -0.84449055426E+03  0.20783949367E+04  0.18990948415E+04 0.  0.
        4    1    3    3  502    0 -0.18063322504E+03 -0.87708849389E+03 -0.76635638195E+02  0.89876983819E+03  0.12699999809E+01 0. -1.
       -4    1    3    3    0  502  0.18063322504E+03  0.87708849389E+03 -0.76785491607E+03  0.11796250986E+04  0.12699999809E+01 0.  1.
</event>
<event>
 5   0  0.2527750E-06  0.1899878E+04  0.7818609E-02  0.8654917E-01
        3   -1    0    0  501    0  0.00000000000E+00  0.00000000000E+00  0.75707180659E+03  0.75707181333E+03  0.10100000352E+00 0.  1.
       -3   -1    0    0    0  501  0.00000000000E+00  0.00000000000E+00 -0.11919402944E+04  0.11919402987E+04  0.10100000352E+00 0. -1.
    10030    2    1    2    0    0  0.00000000000E+00  0.00000000000E+00 -0.43486848785E+03  0.19490121120E+04  0.18998783148E+04 0.  0.
        2    1    3    3  502    0  0.30518696113E+03 -0.14959793998E+02  0.70528332732E+03  0.76862698917E+03  0.25500000920E-02 0.  1.
       -2    1    3    3    0  502 -0.30518696113E+03  0.14959793998E+02 -0.11401518152E+04  0.11803851229E+04  0.25500000920E-02 0. -1.
</event>
<event>
 5   0  0.3379108E-06  0.1899211E+04  0.7818609E-02  0.8655249E-01
       -1   -1    0    0    0  501  0.00000000000E+00  0.00000000000E+00  0.90507032549E+03  0.90507032550E+03  0.50400001928E-02 0. -1.
        1   -1    0    0  501    0  0.00000000000E+00  0.00000000000E+00 -0.99633251379E+03  0.99633251380E+03  0.50400001928E-02 0.  1.
    10030    2    1    2    0    0  0.00000000000E+00  0.00000000000E+00 -0.91262188298E+02  0.19014028393E+04  0.18992114075E+04 0.  0.
        4    1    3    3  502    0  0.57371571260E+03  0.65912924897E+03  0.32648083334E+03  0.93284105461E+03  0.12699999809E+01 0. -1.
       -4    1    3    3    0  502 -0.57371571260E+03 -0.65912924897E+03 -0.41774302164E+03  0.96856178469E+03  0.12699999809E+01 0.  1.
</event>
<event>
 5   0  0.3236653E-06  0.1899619E+04  0.7818609E-02  0.8655046E-01
        1   -1    0    0  501    0  0.00000000000E+00  0.00000000000E+00  0.46248150866E+03  0.46248150868E+03  0.50400001928E-02 0.  1.
       -1   -1    0    0    0  501  0.00000000000E+00  0.00000000000E+00 -0.19506472732E+04  0.19506472732E+04  0.50400001928E-02 0. -1.
    10030    2    1    2    0    0  0.00000000000E+00  0.00000000000E+00 -0.14881657645E+04  0.24131287819E+04  0.18996192185E+04 0.  0.
        3    1    3    3  502    0  0.77226609007E+03  0.31592015107E+03 -0.13205599142E+04  0.15620752072E+04  0.10100000352E+00 0. -1.
       -3    1    3    3    0  502 -0.77226609007E+03 -0.31592015107E+03 -0.16760585034E+03  0.85105357470E+03  0.10100000352E+00 0.  1.
</event>
<event>
 5   0  0.7207648E-06  0.1900288E+04  0.7818609E-02  0.8654713E-01
        2   -1    0    0  501    0  0.00000000000E+00  0.00000000000E+00  0.13705810114E+04  0.13705810114E+04  0.25500000920E-02 0.  1.
       -2   -1    0    0    0  501  0.00000000000E+00  0.00000000000E+00 -0.65867937833E+03  0.65867937833E+03  0.25500000920E-02 0. -1.
    10030    2    1    2    0    0  0.00000000000E+00  0.00000000000E+00  0.71190163312E+03  0.20292603898E+04  0.19002878188E+04 0.  0.
        4    1    3    3  502    0 -0.22488019998E+03 -0.64389398916E+02 -0.62744948210E+03  0.66963539671E+03  0.12699999809E+01 0. -1.
       -4    1    3    3    0  502  0.22488019998E+03  0.64389398916E+02  0.13393511152E+04  0.13596249931E+04  0.12699999809E+01 0.  1.
</event>
<event>
 5   0  0.7577180E-06  0.1899909E+04  0.7818609E-02  0.8654902E-01
        2   -1    0    0  501    0  0.00000000000E+00  0.00000000000E+00  0.10328066875E+04  0.10328066875E+04  0.25500000920E-02 0.  1.
       -2   -1    0    0    0  501  0.00000000000E+00  0.00000000000E+00 -0.87374847557E+03  0.87374847557E+03  0.25500000920E-02 0. -1.
    10030    2    1    2    0    0  0.00000000000E+00  0.00000000000E+00  0.15905821196E+03  0.19065551631E+04  0.18999087018E+04 0.  0.
        5    1    3    3  502    0  0.40589767546E+03  0.45618820679E+03 -0.65070508652E+03  0.89235632041E+03  0.46999998093E+01 0. -1.
       -5    1    3    3    0  502 -0.40589767546E+03 -0.45618820679E+03  0.80976329847E+03  0.10141988427E+04  0.46999998093E+01 0.  1.
</event>
<event>
 5   0  0.3211263E-06  0.1899033E+04  0.7818609E-02  0.8655338E-01
       -1   -1    0    0    0  501  0.00000000000E+00  0.00000000000E+00  0.42146253737E+03  0.42146253740E+03  0.50400001928E-02 0. -1.
        1   -1    0    0  501    0  0.00000000000E+00  0.00000000000E+00 -0.21391739925E+04  0.21391739925E+04  0.50400001928E-02 0.  1.
    10030    2    1    2    0    0  0.00000000000E+00  0.00000000000E+00 -0.17177114551E+04  0.25606365299E+04  0.18990331212E+04 0.  0.
        5    1    3    3  502    0  0.45728480053E+03 -0.75462396888E+03 -0.13317405692E+04  0.15975361520E+04  0.46999998093E+01 0.  1.
       -5    1    3    3    0  502 -0.45728480053E+03  0.75462396888E+03 -0.38597088592E+03  0.96310037794E+03  0.46999998093E+01 0. -1.
</event>
<event>
 5   0  0.6870370E-06  0.1900558E+04  0.7818609E-02  0.8654578E-01
        2   -1    0    0  501    0  0.00000000000E+00  0.00000000000E+00  0.17196254326E+04  0.17196254326E+04  0.25500000920E-02 0. -1.
       -2   -1    0    0    0  501  0.00000000000E+00  0.00000000000E+00 -0.52513217065E+03  0.52513217066E+03  0.25500000920E-02 0.  1.
    10030    2    1    2    0    0  0.00000000000E+00  0.00000000000E+00  0.11944932620E+04  0.22447576033E+04  0.19005584823E+04 0.  0.
        1    1    3    3  502    0  0.53899514732E+03 -0.49439936847E+03 -0.11932854829E+03  0.74107071649E+03  0.50400001928E-02 0.  1.
       -1    1    3    3    0  502 -0.53899514732E+03  0.49439936847E+03  0.13138218103E+04  0.15036868868E+04  0.50400001928E-02 0. -1.
</event>
<event>
 5   0  0.6984466E-06  0.1899300E+04  0.7818609E-02  0.8655205E-01
        2   -1    0    0  501    0  0.00000000000E+00  0.00000000000E+00  0.11964122647E+04  0.11964122647E+04  0.25500000920E-02 0. -1.
       -2   -1    0    0    0  501  0.00000000000E+00  0.00000000000E+00 -0.75378316657E+03  0.75378316658E+03  0.25500000920E-02 0.  1.
    10030    2    1    2    0    0  0.00000000000E+00  0.00000000000E+00  0.44262909817E+03  0.19501954313E+04  0.18993003190E+04 0.  0.
        2    1    3    3  502    0  0.36286529360E+03 -0.22106365681E+03 -0.65073462187E+03  0.77717173763E+03  0.25500000920E-02 0.  1.
       -2    1    3    3    0  502 -0.36286529360E+03  0.22106365681E+03  0.10933637200E+04  0.11730236937E+04  0.25500000920E-02 0. -1.
</event>
<event>
 5   0  0.6984466E-06  0.1900316E+04  0.7818609E-02  0.8654699E-01
        2   -1    0    0  501    0  0.00000000000E+00  0.00000000000E+00  0.16625974165E+04  0.16625974165E+04  0.25500000920E-02 0. -1.
       -2   -1    0    0    0  501  0.00000000000E+00  0.00000000000E+00 -0.54300618834E+03  0.54300618835E+03  0.25500000920E-02 0.  1.
    10030    2    1    2    0    0  0.00000000000E+00  0.00000000000E+00  0.11195912282E+04  0.22056036049E+04  0.19003164851E+04 0.  0.
        2    1    3    3  502    0 -0.68878058136E+03 -0.51271292345E+03  0.10319785705E+04  0.13424876168E+04  0.25500000920E-02 0.  1.
       -2    1    3    3    0  502  0.68878058136E+03  0.51271292345E+03  0.87612657642E+02  0.86311598810E+03  0.25500000920E-02 0. -1.
</event>
<event>
 5   0  0.3379108E-06  0.1899272E+04  0.7818609E-02  0.8655219E-01
       -1   -1    0    0    0  501  0.00000000000E+00  0.00000000000E+00  0.49853435437E+03  0.49853435440E+03  0.50400001928E-02 0. -1.
        1   -1    0    0  501    0  0.00000000000E+00  0.00000000000E+00 -0.18089190205E+04  0.18089190205E+04  0.50400001928E-02 0.  1.
    10030    2    1    2    0    0  0.00000000000E+00  0.00000000000E+00 -0.13103846662E+04  0.23074533749E+04  0.18992717300E+04 0.  0.
        4    1    3    3  502    0 -0.67904367366E+03 -0.12282501572E+03 -0.14477977420E+04  0.16038410800E+04  0.12699999809E+01 0.  1.
       -4    1    3    3    0  502  0.67904367366E+03  0.12282501572E+03  0.13741307588E+03  0.70361229491E+03  0.12699999809E+01 0. -1.
</event>
<event>
 5   0  0.3398807E-06  0.1899847E+04  0.7818609E-02  0.8654933E-01
       -1   -1    0    0    0  501  0.00000000000E+00  0.00000000000E+00  0.10309610911E+04  0.10309610911E+04  0.50400001928E-02 0.  1.
        1   -1    0    0  501    0  0.00000000000E+00  0.00000000000E+00 -0.87525560810E+03  0.87525560812E+03  0.50400001928E-02 0. -1.
    10030    2    1    2    0    0  0.00000000000E+00  0.00000000000E+00  0.15570548297E+03  0.19062166992E+04  0.18998468114E+04 0.  0.
        1    1    3    3  502    0 -0.63250281389E+03 -0.70872371585E+03  0.80176039305E+02  0.95329812352E+03  0.50400001928E-02 0. -1.
       -1    1    3    3    0  502  0.63250281389E+03  0.70872371585E+03  0.75529443664E+02  0.95291857568E+03  0.50400001928E-02 0.  1.
</event>
<event>
 5   0  0.7577180E-06  0.1899749E+04  0.7818609E-02  0.8654982E-01
       -2   -1    0    0    0  501  0.00000000000E+00  0.00000000000E+00  0.96296775880E+03  0.96296775881E+03  0.25500000920E-02 0.  1.
        2   -1    0    0  501    0  0.00000000000E+00  0.00000000000E+00 -0.93695889311E+03  0.93695889311E+03  0.25500000920E-02 0. -1.
    10030    2    1    2    0    0  0.00000000000E+00  0.00000000000E+00  0.26008865693E+02  0.18999266519E+04  0.18997486206E+04 0.  0.
        5    1    3    3  502    0 -0.54027888393E+03  0.77999714913E+03 -0.31071120279E+02  0.94935995786E+03  0.46999998093E+01 0. -1.
       -5    1    3    3    0  502  0.54027888393E+03 -0.77999714913E+03  0.57079985972E+02  0.95056669407E+03  0.46999998093E+01 0.  1.
</event>
<event>
 5   0  0.3211263E-06  0.1900451E+04  0.7818609E-02  0.8654632E-01
        1   -1    0    0  501    0  0.00000000000E+00  0.00000000000E+00  0.11287126510E+04  0.11287126510E+04  0.50400001928E-02 0. -1.
       -1   -1    0    0    0  501  0.00000000000E+00  0.00000000000E+00 -0.79996278420E+03  0.79996278421E+03  0.50400001928E-02 0.  1.
    10030    2    1    2    0    0  0.00000000000E+00  0.00000000000E+00  0.32874986680E+03  0.19286754352E+04  0.19004505938E+04 0.  0.
        5    1    3    3  502    0 -0.18939705026E+03 -0.77126929675E+03 -0.36508053345E+03  0.87409007354E+03  0.46999998093E+01 0.  1.
       -5    1    3    3    0  502  0.18939705026E+03  0.77126929675E+03  0.69383040025E+03  0.10545853617E+04  0.46999998093E+01 0. -1.
</event>
<event>
 5   0  0.6984466E-06  0.1905024E+04  0.7818609E-02  0.8652360E-01
       -2   -1    0    0    0  501  0.00000000000E+00  0.00000000000E+00  0.73571454016E+03  0.73571454017E+03  0.25500000920E-02 0.  1.
        2   -1    0    0  501    0  0.00000000000E+00  0.00000000000E+00 -0.12331948621E+04  0.12331948621E+04  0.25500000920E-02 0. -1.
    10030    2    1    2    0    0  0.00000000000E+00  0.00000000000E+00 -0.49748032191E+03  0.19689094022E+04  0.19050242947E+04 0.  0.
        2    1    3    3  502    0  0.41197015442E+03 -0.27225237239E+03  0.59309215172E+03  0.77175064809E+03  0.25500000920E-02 0.  1.
       -2    1    3    3    0  502 -0.41197015442E+03  0.27225237239E+03 -0.10905724736E+04  0.11971587541E+04  0.25500000920E-02 0. -1.
</event>
<event>
 5   0  0.7207648E-06  0.1899754E+04  0.7818609E-02  0.8654979E-01
       -2   -1    0    0    0  501  0.00000000000E+00  0.00000000000E+00  0.81889944442E+03  0.81889944442E+03  0.25500000920E-02 0. -1.
        2   -1    0    0  501    0  0.00000000000E+00  0.00000000000E+00 -0.11018035498E+04  0.11018035498E+04  0.25500000920E-02 0.  1.
    10030    2    1    2    0    0  0.00000000000E+00  0.00000000000E+00 -0.28290410541E+03  0.19207029943E+04  0.18997539997E+04 0.  0.
        4    1    3    3  502    0 -0.72116478626E+03 -0.27583012743E+03 -0.70081951703E+03  0.10427418264E+04  0.12699999809E+01 0. -1.
       -4    1    3    3    0  502  0.72116478626E+03  0.27583012743E+03  0.41791541162E+03  0.87796116788E+03  0.12699999809E+01 0.  1.
</event>
<event>
 5   0  0.3379108E-06  0.1894679E+04  0.7818609E-02  0.8657510E-01
       -1   -1    0    0    0  501  0.00000000000E+00  0.00000000000E+00  0.58933686414E+03  0.58933686416E+03  0.50400001928E-02 0. -1.
        1   -1    0    0  501    0  0.00000000000E+00  0.00000000000E+00 -0.15228167790E+04  0.15228167790E+04  0.50400001928E-02 0.  1.
    10030    2    1    2    0    0  0.00000000000E+00  0.00000000000E+00 -0.93347991490E+03  0.21121536432E+04  0.18946789335E+04 0.  0.
        4    1    3    3  502    0  0.49723517398E+03  0.70204503238E+03 -0.24548839989E+02  0.86064760743E+03  0.12699999809E+01 0. -1.
       -4    1    3    3    0  502 -0.49723517398E+03 -0.70204503238E+03 -0.90893107491E+03  0.12515060358E+04  0.12699999809E+01 0.  1.
</event>
<event>
 5   0  0.7577180E-06  0.1901280E+04  0.7818609E-02  0.8654219E-01
       -2   -1    0    0    0  501  0.00000000000E+00  0.00000000000E+00  0.49130760127E+03  0.49130760127E+03  0.25500000920E-02 0.  1.
        2   -1    0    0  501    0  0.00000000000E+00  0.00000000000E+00 -0.18394108978E+04  0.18394108978E+04  0.25500000920E-02 0. -1.
    10030    2    1    2    0    0  0.00000000000E+00  0.00000000000E+00 -0.13481032965E+04  0.23307184990E+04  0.19012801539E+04 0.  0.
        5    1    3    3  502    0 -0.33705002801E+03  0.71922304535E+03 -0.13143373677E+04  0.15357048273E+04  0.46999998093E+01 0. -1.
       -5    1    3    3    0  502  0.33705002801E+03 -0.71922304535E+03 -0.33765928778E+02  0.79501367176E+03  0.46999998093E+01 0.  1.
</event>
<event>
 5   0  0.6862201E-06  0.1900558E+04  0.7818609E-02  0.8654579E-01
       -2   -1    0    0    0  501  0.00000000000E+00  0.00000000000E+00  0.77994447016E+03  0.77994447017E+03  0.25500000920E-02 0. -1.
        2   -1    0    0  501    0  0.00000000000E+00  0.00000000000E+00 -0.11578130380E+04  0.11578130380E+04  0.25500000920E-02 0.  1.
    10030    2    1    2    0    0  0.00000000000E+00  0.00000000000E+00 -0.37786856779E+03  0.19377575081E+04  0.19005576828E+04 0.  0.
        3    1    3    3  502    0 -0.35216685311E+03  0.67469463797E+03 -0.76910230990E+03  0.10820132717E+04  0.10100000352E+00 0.  1.
       -3    1    3    3    0  502  0.35216685311E+03 -0.67469463797E+03  0.39123374211E+03  0.85574423638E+03  0.10100000352E+00 0. -1.
</event>
<event>
 5   0  0.7207648E-06  0.1901061E+04  0.7818609E-02  0.8654328E-01
        2   -1    0    0  501    0  0.00000000000E+00  0.00000000000E+00  0.10243258257E+04  0.10243258257E+04  0.25500000920E-02 0.  1.
       -2   -1    0    0    0  501  0.00000000000E+00  0.00000000000E+00 -0.88205180247E+03  0.88205180248E+03  0.25500000920E-02 0. -1.
    10030    2    1    2    0    0  0.00000000000E+00  0.00000000000E+00  0.14227402322E+03  0.19063776282E+04  0.19010612203E+04 0.  0.
        4    1    3    3  502    0 -0.89054372898E+03  0.32650233362E+03  0.13323693082E+03  0.95782336561E+03  0.12699999809E+01 0.  1.
       -4    1    3    3    0  502  0.89054372898E+03 -0.32650233362E+03  0.90370923986E+01  0.94855426256E+03  0.12699999809E+01 0. -1.
</event>
<event>
 5   0  0.3495279E-06  0.1900667E+04  0.7818609E-02  0.8654524E-01
        1   -1    0    0  501    0  0.00000000000E+00  0.00000000000E+00  0.85263620264E+03  0.85263620266E+03  0.50400001928E-02 0.  1.
       -1   -1    0    0    0  501  0.00000000000E+00  0.00000000000E+00 -0.10592257289E+04  0.10592257289E+04  0.50400001928E-02 0. -1.
    10030    2    1    2    0    0  0.00000000000E+00  0.00000000000E+00 -0.20658952623E+03  0.19118619315E+04  0.19006674651E+04 0.  0.
        2    1    3    3  502    0 -0.15670687743E+03  0.49519633621E+03 -0.90381981674E+03  0.10424330760E+04  0.25500000920E-02 0. -1.
       -2    1    3    3    0  502  0.15670687743E+03 -0.49519633621E+03  0.69723029051E+03  0.86942885554E+03  0.25500000920E-02 0.  1.
</event>
<event>
 5   0  0.6862201E-06  0.1901677E+04  0.7818609E-02  0.8654022E-01
        2   -1    0    0  501    0  0.00000000000E+00  0.00000000000E+00  0.17836457701E+04  0.17836457701E+04  0.25500000920E-02 0.  1.
       -2   -1    0    0    0  501  0.00000000000E+00  0.00000000000E+00 -0.50687973298E+03  0.50687973298E+03  0.25500000920E-02 0. -1.
    10030    2    1    2    0    0  0.00000000000E+00  0.00000000000E+00  0.12767660371E+04  0.22905255030E+04  0.19016770406E+04 0.  0.
        3    1    3    3  502    0 -0.63031469238E+03  0.37383051010E+03 -0.91342965965E+02  0.73850484721E+03  0.10100000352E+00 0. -1.
       -3    1    3    3    0  502  0.63031469238E+03 -0.37383051010E+03  0.13681090031E+04  0.15520206558E+04  0.10100000352E+00 0.  1.
</event>
<event>
 5   0  0.3211263E-06  0.1906225E+04  0.7818609E-02  0.8651764E-01
       -1   -1    0    0    0  501  0.00000000000E+00  0.00000000000E+00  0.10002316632E+04  0.10002316632E+04  0.50400001928E-02 0. -1.
        1   -1    0    0  501    0  0.00000000000E+00  0.00000000000E+00 -0.90821339706E+03  0.90821339707E+03  0.50400001928E-02 0.  1.
    10030    2    1    2    0    0  0.00000000000E+00  0.00000000000E+00  0.92018266165E+02  0.19084450603E+04  0.19062253767E+04 0.  0.
        5    1    3    3  502    0 -0.57021250788E+03  0.12888796424E+03 -0.70762719583E+03  0.91788493273E+03  0.46999998093E+01 0.  1.
       -5    1    3    3    0  502  0.57021250788E+03 -0.12888796424E+03  0.79964546199E+03  0.99056012758E+03  0.46999998093E+01 0. -1.
</event>
<event>
 5   0  0.7207648E-06  0.1899492E+04  0.7818609E-02  0.8655109E-01
       -2   -1    0    0    0  501  0.00000000000E+00  0.00000000000E+00  0.93871404463E+03  0.93871404463E+03  0.25500000920E-02 0.  1.
        2   -1    0    0  501    0  0.00000000000E+00  0.00000000000E+00 -0.96090772433E+03  0.96090772433E+03  0.25500000920E-02 0. -1.
    10030    2    1    2    0    0  0.00000000000E+00  0.00000000000E+00 -0.22193679698E+02  0.18996217690E+04  0.18994921178E+04 0.  0.
        4    1    3    3  502    0  0.10170360458E+03 -0.63204679114E+03  0.69051301318E+03  0.94161382936E+03  0.12699999809E+01 0.  1.
       -4    1    3    3    0  502 -0.10170360458E+03  0.63204679114E+03 -0.71270669287E+03  0.95800793960E+03  0.12699999809E+01 0. -1.
</event>
<event>
 5   0  0.3398807E-06  0.1900454E+04  0.7818609E-02  0.8654630E-01
        1   -1    0    0  501    0  0.00000000000E+00  0.00000000000E+00  0.62373560293E+03  0.62373560295E+03  0.50400001928E-02 0.  1.
       -1   -1    0    0    0  501  0.00000000000E+00  0.00000000000E+00 -0.14476191057E+04  0.14476191057E+04  0.50400001928E-02 0. -1.
    10030    2    1    2    0    0  0.00000000000E+00  0.00000000000E+00 -0.82388350274E+03  0.20713547086E+04  0.19004542359E+04 0.  0.
        1    1    3    3  502    0  0.37177353622E+03  0.82965404180E+03 -0.11069953163E+03  0.91585794621E+03  0.50400001928E-02 0.  1.
       -1    1    3    3    0  502 -0.37177353622E+03 -0.82965404180E+03 -0.71318397110E+03  0.11554967624E+04  0.50400001928E-02 0. -1.
</event>
<event>
 5   0  0.7577180E-06  0.1899321E+04  0.7818609E-02  0.8655195E-01
        2   -1    0    0  501    0  0.00000000000E+00  0.00000000000E+00  0.17140281416E+04  0.17140281416E+04  0.25500000920E-02 0.  1.
       -2   -1    0    0    0  501  0.00000000000E+00  0.00000000000E+00 -0.52616099543E+03  0.52616099543E+03  0.25500000920E-02 0. -1.
    10030    2    1    2    0    0  0.00000000000E+00  0.00000000000E+00  0.11878671462E+04  0.22401891371E+04  0.18993206714E+04 0.  0.
        5    1    3    3  502    0  0.54031103140E+03  0.78046552449E+03  0.62666712407E+03  0.11374516341E+04  0.46999998093E+01 0. -1.
       -5    1    3    3    0  502 -0.54031103140E+03 -0.78046552449E+03  0.56120002213E+03  0.11027375029E+04  0.46999998093E+01 0.  1.
</event>
<event>
 5   0  0.3211263E-06  0.1901112E+04  0.7818609E-02  0.8654303E-01
        1   -1    0    0  501    0  0.00000000000E+00  0.00000000000E+00  0.87657554374E+03  0.87657554376E+03  0.50400001928E-02 0. -1.
       -1   -1    0    0    0  501  0.00000000000E+00  0.00000000000E+00 -0.10307802751E+04  0.10307802751E+04  0.50400001928E-02 0.  1.
    10030    2    1    2    0    0  0.00000000000E+00  0.00000000000E+00 -0.15420473133E+03  0.19073558188E+04  0.19011120747E+04 0.  0.
        5    1    3    3  502    0  0.80535882315E+03  0.48832947267E+03 -0.20584442655E+03  0.96408636846E+03  0.46999998093E+01 0.  1.
       -5    1    3    3    0  502 -0.80535882315E+03 -0.48832947267E+03  0.51639695216E+02  0.94326945038E+03  0.46999998093E+01 0. -1.
</event>
<event>
 5   0  0.3211263E-06  0.1900674E+04  0.7818609E-02  0.8654521E-01
        1   -1    0    0  501    0  0.00000000000E+00  0.00000000000E+00  0.66352814767E+03  0.66352814769E+03  0.50400001928E-02 0.  1.
       -1   -1    0    0    0  501  0.00000000000E+00  0.00000000000E+00 -0.13611188213E+04  0.13611188213E+04  0.50400001928E-02 0. -1.
    10030    2    1    2    0    0  0.00000000000E+00  0.00000000000E+00 -0.69759067367E+03  0.20246469690E+04  0.19006742491E+04 0.  0.
        5    1    3    3  502    0  0.26879025435E+03 -0.86768279974E+03 -0.51299878949E+02  0.90982163603E+03  0.46999998093E+01 0. -1.
       -5    1    3    3    0  502 -0.26879025435E+03  0.86768279974E+03 -0.64629079472E+03  0.11148253330E+04  0.46999998093E+01 0.  1.
</event>
<event>
 5   0  0.7577180E-06  0.1900041E+04  0.7818609E-02  0.8654836E-01
        2   -1    0    0  501    0  0.00000000000E+00  0.00000000000E+00  0.84588984567E+03  0.84588984567E+03  0.25500000920E-02 0.  1.
       -2   -1    0    0    0  501  0.00000000000E+00  0.00000000000E+00 -0.10669703748E+04  0.10669703748E+04  0.25500000920E-02 0. -1.
    10030    2    1    2    0    0  0.00000000000E+00  0.00000000000E+00 -0.22108052915E+03  0.19128602205E+04  0.19000414792E+04 0.  0.
        5    1    3    3  502    0 -0.12053093505E+03 -0.58703634389E+02  0.83630660938E+03  0.84699743677E+03  0.46999998093E+01 0.  1.
       -5    1    3    3    0  502  0.12053093505E+03  0.58703634389E+02 -0.10573871385E+04  0.10658627837E+04  0.46999998093E+01 0. -1.
</event>
<event>
 5   0  0.3379108E-06  0.1899718E+04  0.7818609E-02  0.8654997E-01
       -1   -1    0    0    0  501  0.00000000000E+00  0.00000000000E+00  0.17110895319E+04  0.17110895319E+04  0.50400001928E-02 0. -1.
        1   -1    0    0  501    0  0.00000000000E+00  0.00000000000E+00 -0.52728527333E+03  0.52728527335E+03  0.50400001928E-02 0.  1.
    10030    2    1    2    0    0  0.00000000000E+00  0.00000000000E+00  0.11838042586E+04  0.22383748053E+04  0.18997182018E+04 0.  0.
        4    1    3    3  502    0 -0.74774758096E+03 -0.23033094609E+03 -0.42670723804E+02  0.78358228230E+03  0.12699999809E+01 0.  1.
       -4    1    3    3    0  502  0.74774758096E+03  0.23033094609E+03  0.12264749824E+04  0.14547925230E+04  0.12699999809E+01 0. -1.
</event>
<event>
 5   0  0.3379108E-06  0.1901348E+04  0.7818609E-02  0.8654186E-01
       -1   -1    0    0    0  501  0.00000000000E+00  0.00000000000E+00  0.11165017013E+04  0.11165017013E+04  0.50400001928E-02 0. -1.
        1   -1    0    0  501    0  0.00000000000E+00  0.00000000000E+00 -0.80947587544E+03  0.80947587545E+03  0.50400001928E-02 0.  1.
    10030    2    1    2    0    0  0.00000000000E+00  0.00000000000E+00  0.30702582584E+03  0.19259775767E+04  0.19013481450E+04 0.  0.
        4    1    3    3  502    0  0.68677382380E+03  0.29988160619E+02 -0.51166839718E+03  0.85695025317E+03  0.12699999809E+01 0.  1.
       -4    1    3    3    0  502 -0.68677382380E+03 -0.29988160619E+02  0.81869422301E+03  0.10690273236E+04  0.12699999809E+01 0. -1.
</event>
<event>
 5   0  0.3211263E-06  0.1900664E+04  0.7818609E-02  0.8654526E-01
        1   -1    0    0  501    0  0.00000000000E+00  0.00000000000E+00  0.16356697118E+04  0.16356697118E+04  0.50400001928E-02 0.  1.
       -1   -1    0    0    0  501  0.00000000000E+00  0.00000000000E+00 -0.55214774546E+03  0.55214774548E+03  0.50400001928E-02 0. -1.
    10030    2    1    2    0    0  0.00000000000E+00  0.00000000000E+00  0.10835219663E+04  0.21878174573E+04  0.19006644561E+04 0.  0.
        5    1    3    3  502    0 -0.42317382086E+03 -0.63628659304E+03 -0.10854596146E+03  0.77184261795E+03  0.46999998093E+01 0. -1.
       -5    1    3    3    0  502  0.42317382086E+03  0.63628659304E+03  0.11920679278E+04  0.14159748393E+04  0.46999998093E+01 0.  1.
</event>
<event>
 5   0  0.3379108E-06  0.1899796E+04  0.7818609E-02  0.8654958E-01
       -1   -1    0    0    0  501  0.00000000000E+00  0.00000000000E+00  0.66215714362E+03  0.66215714364E+03  0.50400001928E-02 0.  1.
        1   -1    0    0  501    0  0.00000000000E+00  0.00000000000E+00 -0.13626763471E+04  0.13626763471E+04  0.50400001928E-02 0. -1.
    10030    2    1    2    0    0  0.00000000000E+00  0.00000000000E+00 -0.70051920344E+03  0.20248334907E+04  0.18997956497E+04 0.  0.
        4    1    3    3  502    0 -0.89263995804E+03 -0.86960592749E+02 -0.68380400975E+03  0.11278110551E+04  0.12699999809E+01 0. -1.
       -4    1    3    3    0  502  0.89263995804E+03  0.86960592749E+02 -0.16715193694E+02  0.89702243561E+03  0.12699999809E+01 0.  1.
</event>
<event>
 5   0  0.3379108E-06  0.1899723E+04  0.7818609E-02  0.8654994E-01
       -1   -1    0    0    0  501  0.00000000000E+00  0.00000000000E+00  0.10585685891E+04  0.10585685891E+04  0.50400001928E-02 0. -1.
        1   -1    0    0  501    0  0.00000000000E+00  0.00000000000E+00 -0.85231819608E+03  0.85231819610E+03  0.50400001928E-02 0.  1.
    10030    2    1    2    0    0  0.00000000000E+00  0.00000000000E+00  0.20625039303E+03  0.19108867852E+04  0.18997234223E+04 0.  0.
        4    1    3    3  502    0 -0.20708521273E+03 -0.92633443583E+03  0.67478479912E+02  0.95159588612E+03  0.12699999809E+01 0. -1.
       -4    1    3    3    0  502  0.20708521273E+03  0.92633443583E+03  0.13877191312E+03  0.95929089910E+03  0.12699999809E+01 0.  1.
</event>
<event>
 5   0  0.3379108E-06  0.1900284E+04  0.7818609E-02  0.8654715E-01
        1   -1    0    0  501    0  0.00000000000E+00  0.00000000000E+00  0.55701475128E+03  0.55701475131E+03  0.50400001928E-02 0. -1.
       -1   -1    0    0    0  501  0.00000000000E+00  0.00000000000E+00 -0.16207288279E+04  0.16207288279E+04  0.50400001928E-02 0.  1.
    10030    2    1    2    0    0  0.00000000000E+00  0.00000000000E+00 -0.10637140766E+04  0.21777435792E+04  0.19002840472E+04 0.  0.
        4    1    3    3  502    0 -0.75184688559E+03 -0.52581599285E+03 -0.81492847155E+03  0.12271374105E+04  0.12699999809E+01 0.  1.
       -4    1    3    3    0  502  0.75184688559E+03  0.52581599285E+03 -0.24878560506E+03  0.95060616866E+03  0.12699999809E+01 0. -1.
</event>
<event>
 5   0  0.3398807E-06  0.1907344E+04  0.7818609E-02  0.8651209E-01
        1   -1    0    0  501    0  0.00000000000E+00  0.00000000000E+00  0.13641410319E+04  0.13641410319E+04  0.50400001928E-02 0.  1.
       -1   -1    0    0    0  501  0.00000000000E+00  0.00000000000E+00 -0.66671301994E+03  0.66671301996E+03  0.50400001928E-02 0. -1.
    10030    2    1    2    0    0  0.00000000000E+00  0.00000000000E+00  0.69742801193E+03  0.20308540518E+04  0.19073443182E+04 0.  0.
        1    1    3    3  502    0 -0.40636745454E+03  0.35169278376E+03 -0.49012648136E+03  0.72735568329E+03  0.50400001928E-02 0. -1.
       -1    1    3    3    0  502  0.40636745454E+03 -0.35169278376E+03  0.11875544933E+04  0.13034983686E+04  0.50400001928E-02 0.  1.
</event>
<event>
 5   0  0.6984466E-06  0.1899724E+04  0.7818609E-02  0.8654994E-01
       -2   -1    0    0    0  501  0.00000000000E+00  0.00000000000E+00  0.85043632873E+03  0.85043632873E+03  0.25500000920E-02 0.  1.
        2   -1    0    0  501    0  0.00000000000E+00  0.00000000000E+00 -0.10609114964E+04  0.10609114964E+04  0.25500000920E-02 0. -1.
    10030    2    1    2    0    0  0.00000000000E+00  0.00000000000E+00 -0.21047516764E+03  0.19113478251E+04  0.18997238516E+04 0.  0.
        2    1    3    3  502    0  0.14325506584E+02  0.30147048763E+03 -0.10113859316E+04  0.10554578048E+04  0.25500000920E-02 0. -1.
       -2    1    3    3    0  502 -0.14325506584E+02 -0.30147048763E+03  0.80091076396E+03  0.85589002032E+03  0.25500000920E-02 0.  1.
</event>
<event>
 5   0  0.3398807E-06  0.1899702E+04  0.7818609E-02  0.8655005E-01
       -1   -1    0    0    0  501  0.00000000000E+00  0.00000000000E+00  0.59219477752E+03  0.59219477754E+03  0.50400001928E-02 0.  1.
        1   -1    0    0  501    0  0.00000000000E+00  0.00000000000E+00 -0.15235141696E+04  0.15235141696E+04  0.50400001928E-02 0. -1.
    10030    2    1    2    0    0  0.00000000000E+00  0.00000000000E+00 -0.93131939209E+03  0.21157089472E+04  0.18997022238E+04 0.  0.
        1    1    3    3  502    0  0.11678828749E+03 -0.25762694188E+03  0.54419923254E+03  0.61332206059E+03  0.50400001928E-02 0.  1.
       -1    1    3    3    0  502 -0.11678828749E+03  0.25762694188E+03 -0.14755186246E+04  0.15023868866E+04  0.50400001928E-02 0. -1.
</event>
<event>
 5   0  0.3398807E-06  0.1898970E+04  0.7818609E-02  0.8655369E-01
        1   -1    0    0  501    0  0.00000000000E+00  0.00000000000E+00  0.19191988562E+04  0.19191988562E+04  0.50400001928E-02 0.  1.
       -1   -1    0    0    0  501  0.00000000000E+00  0.00000000000E+00 -0.46973849369E+03  0.46973849372E+03  0.50400001928E-02 0. -1.
    10030    2    1    2    0    0  0.00000000000E+00  0.00000000000E+00  0.14494603625E+04  0.23889373500E+04  0.18989698048E+04 0.  0.
        1    1    3    3  502    0  0.16282649638E+03 -0.85106438595E+03  0.23636892855E+03  0.89816108096E+03  0.50400001928E-02 0. -1.
       -1    1    3    3    0  502 -0.16282649638E+03  0.85106438595E+03  0.12130914340E+04  0.14907762690E+04  0.50400001928E-02 0.  1.
</event>
<event>
 5   0  0.7577180E-06  0.1900427E+04  0.7818609E-02  0.8654644E-01
       -2   -1    0    0    0  501  0.00000000000E+00  0.00000000000E+00  0.28580365539E+03  0.28580365541E+03  0.25500000920E-02 0.  1.
        2   -1    0    0  501    0  0.00000000000E+00  0.00000000000E+00 -0.31591820991E+04  0.31591820991E+04  0.25500000920E-02 0. -1.
    10030    2    1    2    0    0  0.00000000000E+00  0.00000000000E+00 -0.28733784437E+04  0.34449857545E+04  0.19004271015E+04 0.  0.
        5    1    3    3  502    0 -0.90607454113E+03  0.12909621336E+03 -0.97365210104E+03  0.13362849285E+04  0.46999998093E+01 0. -1.
       -5    1    3    3    0  502  0.90607454113E+03 -0.12909621336E+03 -0.18997263427E+04  0.21087008260E+04  0.46999998093E+01 0.  1.
</event>
<event>
 5   0  0.2527750E-06  0.1898601E+04  0.7818609E-02  0.8655553E-01
        4   -1    0    0  501    0  0.00000000000E+00  0.00000000000E+00  0.11612240512E+04  0.11612247457E+04  0.12699999809E+01 0. -1.
       -4   -1    0    0    0  501  0.00000000000E+00  0.00000000000E+00 -0.77605153036E+03  0.77605256953E+03  0.12699999809E+01 0.  1.
    10030    2    1    2    0    0  0.00000000000E+00  0.00000000000E+00  0.38517252083E+03  0.19372773152E+04  0.18986009389E+04 0.  0.
        5    1    3    3  502    0 -0.68962767099E+02  0.71771993277E+03 -0.43746413458E+03  0.84337104775E+03  0.46999998093E+01 0.  1.
       -5    1    3    3    0  502  0.68962767099E+02 -0.71771993277E+03  0.82263665541E+03  0.10939062675E+04  0.46999998093E+01 0. -1.
</event>
<event>
 5   0  0.3236653E-06  0.1895668E+04  0.7818609E-02  0.8657016E-01
       -1   -1    0    0    0  501  0.00000000000E+00  0.00000000000E+00  0.79508912388E+03  0.79508912390E+03  0.50400001928E-02 0.  1.
        1   -1    0    0  501    0  0.00000000000E+00  0.00000000000E+00 -0.11299230601E+04  0.11299230601E+04  0.50400001928E-02 0. -1.
    10030    2    1    2    0    0  0.00000000000E+00  0.00000000000E+00 -0.33483393625E+03  0.19250121840E+04  0.18956682579E+04 0.  0.
        3    1    3    3  502    0  0.73075786087E+03  0.49948673725E+03 -0.51162627191E+03  0.10223773786E+04  0.10100000352E+00 0. -1.
       -3    1    3    3    0  502 -0.73075786087E+03 -0.49948673725E+03  0.17679233566E+03  0.90263480547E+03  0.10100000352E+00 0.  1.
</event>
<event>
 5   0  0.3379108E-06  0.1891403E+04  0.7818609E-02  0.8659148E-01
        1   -1    0    0  501    0  0.00000000000E+00  0.00000000000E+00  0.11665970183E+04  0.11665970183E+04  0.50400001928E-02 0.  1.
       -1   -1    0    0    0  501  0.00000000000E+00  0.00000000000E+00 -0.76663263502E+03  0.76663263503E+03  0.50400001928E-02 0. -1.
    10030    2    1    2    0    0  0.00000000000E+00  0.00000000000E+00  0.39996438326E+03  0.19332296533E+04  0.18914030201E+04 0.  0.
        4    1    3    3  502    0  0.41635735011E+03  0.61261218038E+03  0.80094929143E+03  0.10909484437E+04  0.12699999809E+01 0.  1.
       -4    1    3    3    0  502 -0.41635735011E+03 -0.61261218038E+03 -0.40098490817E+03  0.84228120959E+03  0.12699999809E+01 0. -1.
</event>
<event>
 5   0  0.3379108E-06  0.1901297E+04  0.7818609E-02  0.8654211E-01
        1   -1    0    0  501    0  0.00000000000E+00  0.00000000000E+00  0.55132305248E+03  0.55132305250E+03  0.50400001928E-02 0.  1.
       -1   -1    0    0    0  501  0.00000000000E+00  0.00000000000E+00 -0.16392063025E+04  0.16392063025E+04  0.50400001928E-02 0. -1.
    10030    2    1    2    0    0  0.00000000000E+00  0.00000000000E+00 -0.10878832500E+04  0.21905293550E+04  0.19012966337E+04 0.  0.
        4    1    3    3  502    0  0.15979328176E+03  0.60985063865E+03 -0.13637155844E+04  0.15023892646E+04  0.12699999809E+01 0. -1.
       -4    1    3    3    0  502 -0.15979328176E+03 -0.60985063865E+03  0.27583233442E+03  0.68814009037E+03  0.12699999809E+01 0.  1.
</event>
<event>
 5   0  0.7207648E-06  0.1899925E+04  0.7818609E-02  0.8654894E-01
       -2   -1    0    0    0  501  0.00000000000E+00  0.00000000000E+00  0.36562662377E+03  0.36562662378E+03  0.25500000920E-02 0.  1.
        2   -1    0    0  501    0  0.00000000000E+00  0.00000000000E+00 -0.24681706422E+04  0.24681706422E+04  0.25500000920E-02 0. -1.
    10030    2    1    2    0    0  0.00000000000E+00  0.00000000000E+00 -0.21025440184E+04  0.28337972659E+04  0.18999251552E+04 0.  0.
        4    1    3    3  502    0 -0.79967768665E+03  0.28839422994E+03 -0.16836735045E+04  0.18861107383E+04  0.12699999809E+01 0. -1.
       -4    1    3    3    0  502  0.79967768665E+03 -0.28839422994E+03 -0.41887051385E+03  0.94768652763E+03  0.12699999809E+01 0.  1.
</event>
<event>
 5   0  0.2527750E-06  0.1899684E+04  0.7818609E-02  0.8655014E-01
        3   -1    0    0  501    0  0.00000000000E+00  0.00000000000E+00  0.45292528557E+03  0.45292529683E+03  0.10100000352E+00 0. -1.
       -3   -1    0    0    0  501  0.00000000000E+00  0.00000000000E+00 -0.19919388898E+04  0.19919388924E+04  0.10100000352E+00 0.  1.
    10030    2    1    2    0    0  0.00000000000E+00  0.00000000000E+00 -0.15390136043E+04  0.24448641892E+04  0.18996836657E+04 0.  0.
        4    1    3    3  502    0  0.78525079969E+03 -0.44923343904E+03 -0.11419958808E+04  0.14569096423E+04  0.12699999809E+01 0.  1.
       -4    1    3    3    0  502 -0.78525079969E+03  0.44923343904E+03 -0.39701772350E+03  0.98795454695E+03  0.12699999809E+01 0. -1.
</event>
<event>
 5   0  0.3236653E-06  0.1900149E+04  0.7818609E-02  0.8654782E-01
        1   -1    0    0  501    0  0.00000000000E+00  0.00000000000E+00  0.11167072163E+04  0.11167072163E+04  0.50400001928E-02 0. -1.
       -1   -1    0    0    0  501  0.00000000000E+00  0.00000000000E+00 -0.80830623864E+03  0.80830623865E+03  0.50400001928E-02 0.  1.
    10030    2    1    2    0    0  0.00000000000E+00  0.00000000000E+00  0.30840097766E+03  0.19250134550E+04  0.19001488465E+04 0.  0.
        3    1    3    3  502    0  0.55149368295E+03 -0.16882278664E+03  0.91905998646E+03  0.10850427109E+04  0.10100000352E+00 0. -1.
       -3    1    3    3    0  502 -0.55149368295E+03  0.16882278664E+03 -0.61065900880E+03  0.83997074404E+03  0.10100000352E+00 0.  1.
</event>
<event>
 5   0  0.6984466E-06  0.1906660E+04  0.7818609E-02  0.8651548E-01
        2   -1    0    0  501    0  0.00000000000E+00  0.00000000000E+00  0.66978943686E+03  0.66978943687E+03  0.25500000920E-02 0. -1.
       -2   -1    0    0    0  501  0.00000000000E+00  0.00000000000E+00 -0.13569014824E+04  0.13569014824E+04  0.25500000920E-02 0.  1.
    10030    2    1    2    0    0  0.00000000000E+00  0.00000000000E+00 -0.68711204554E+03  0.20266909193E+04  0.19066602002E+04 0.  0.
        2    1    3    3  502    0 -0.56770392294E+03  0.70785995838E+03 -0.32771982394E+02  0.90797988283E+03  0.25500000920E-02 0. -1.
       -2    1    3    3    0  502  0.56770392294E+03 -0.70785995838E+03 -0.65434006314E+03  0.11187110364E+04  0.25500000920E-02 0.  1.
</event>
<event>
 5   0  0.7577180E-06  0.1900070E+04  0.7818609E-02  0.8654822E-01
        2   -1    0    0  501    0  0.00000000000E+00  0.00000000000E+00  0.93520628342E+03  0.93520628342E+03  0.25500000920E-02 0. -1.
       -2   -1    0    0    0  501  0.00000000000E+00  0.00000000000E+00 -0.96509883140E+03  0.96509883140E+03  0.25500000920E-02 0.  1.
    10030    2    1    2    0    0  0.00000000000E+00  0.00000000000E+00 -0.29892547982E+02  0.19003051148E+04  0.19000699895E+04 0.  0.
        5    1    3    3  502    0 -0.43626190725E+03  0.45797056011E+03 -0.72389428578E+03  0.96130458889E+03  0.46999998093E+01 0.  1.
       -5    1    3    3    0  502  0.43626190725E+03 -0.45797056011E+03  0.69400173780E+03  0.93900052593E+03  0.46999998093E+01 0. -1.
</event>
<event>
 5   0  0.6862201E-06  0.1900000E+04  0.7818609E-02  0.8654856E-01
        2   -1    0    0  501    0  0.00000000000E+00  0.00000000000E+00  0.10700070929E+04  0.10700070929E+04  0.25500000920E-02 0. -1.
       -2   -1    0    0    0  501  0.00000000000E+00  0.00000000000E+00 -0.84345228547E+03  0.84345228547E+03  0.25500000920E-02 0.  1.
    10030    2    1    2    0    0  0.00000000000E+00  0.00000000000E+00  0.22655480748E+03  0.19134593784E+04  0.18999999242E+04 0.  0.
        3    1    3    3  502    0 -0.24828709823E+03 -0.79489214378E+03  0.57368101068E+03  0.10112417691E+04  0.10100000352E+00 0. -1.
       -3    1    3    3    0  502  0.24828709823E+03  0.79489214378E+03 -0.34712620320E+03  0.90221760931E+03  0.10100000352E+00 0.  1.
</event>
<event>
 5   0  0.3495279E-06  0.1897689E+04  0.7818609E-02  0.8656008E-01
        1   -1    0    0  501    0  0.00000000000E+00  0.00000000000E+00  0.20782928090E+04  0.20782928090E+04  0.50400001928E-02 0.  1.
       -1   -1    0    0    0  501  0.00000000000E+00  0.00000000000E+00 -0.43319484667E+03  0.43319484670E+03  0.50400001928E-02 0. -1.
    10030    2    1    2    0    0  0.00000000000E+00  0.00000000000E+00  0.16450979623E+04  0.25114876557E+04  0.18976888415E+04 0.  0.
        2    1    3    3  502    0 -0.91031319324E+01 -0.94140800602E+03  0.97899475414E+03  0.13582203906E+04  0.25500000920E-02 0.  1.
       -2    1    3    3    0  502  0.91031319324E+01  0.94140800602E+03  0.66610320820E+03  0.11532672651E+04  0.25500000920E-02 0. -1.
</event>
<event>
 5   0  0.6862201E-06  0.1903433E+04  0.7818609E-02  0.8653149E-01
        2   -1    0    0  501    0  0.00000000000E+00  0.00000000000E+00  0.11094590941E+04  0.11094590941E+04  0.25500000920E-02 0. -1.
       -2   -1    0    0    0  501  0.00000000000E+00  0.00000000000E+00 -0.81640166801E+03  0.81640166801E+03  0.25500000920E-02 0.  1.
    10030    2    1    2    0    0  0.00000000000E+00  0.00000000000E+00  0.29305742613E+03  0.19258607622E+04  0.19034329566E+04 0.  0.
        3    1    3    3  502    0  0.86713954328E+03 -0.29901634210E+03 -0.11027780065E+03  0.92385224137E+03  0.10100000352E+00 0. -1.
       -3    1    3    3    0  502 -0.86713954328E+03  0.29901634210E+03  0.40333522678E+03  0.10020085208E+04  0.10100000352E+00 0.  1.
</event>
<event>
 5   0  0.3211263E-06  0.1902496E+04  0.7818609E-02  0.8653615E-01
       -1   -1    0    0    0  501  0.00000000000E+00  0.00000000000E+00  0.40113665309E+03  0.40113665312E+03  0.50400001928E-02 0. -1.
        1   -1    0    0  501    0  0.00000000000E+00  0.00000000000E+00 -0.22557706854E+04  0.22557706854E+04  0.50400001928E-02 0.  1.
    10030    2    1    2    0    0  0.00000000000E+00  0.00000000000E+00 -0.18546340323E+04  0.26569073385E+04  0.19024955221E+04 0.  0.
        5    1    3    3  502    0 -0.75482564022E+03  0.43770071783E+02 -0.12121977561E+03  0.76576359950E+03  0.46999998093E+01 0. -1.
       -5    1    3    3    0  502  0.75482564022E+03 -0.43770071783E+02 -0.17334142567E+04  0.18911437390E+04  0.46999998093E+01 0.  1.
</event>
<event>
 5   0  0.3236653E-06  0.1899644E+04  0.7818609E-02  0.8655034E-01
       -1   -1    0    0    0  501  0.00000000000E+00  0.00000000000E+00  0.51168480029E+03  0.51168480031E+03  0.50400001928E-02 0.  1.
        1   -1    0    0  501    0  0.00000000000E+00  0.00000000000E+00 -0.17631200494E+04  0.17631200494E+04  0.50400001928E-02 0. -1.
    10030    2    1    2    0    0  0.00000000000E+00  0.00000000000E+00 -0.12514352491E+04  0.22748048497E+04  0.18996438933E+04 0.  0.
        3    1    3    3  502    0  0.84608317606E+03  0.27397792039E+03 -0.22632085763E+03  0.91768283327E+03  0.10100000352E+00 0.  1.
       -3    1    3    3    0  502 -0.84608317606E+03 -0.27397792039E+03 -0.10251143914E+04  0.13571220164E+04  0.10100000352E+00 0. -1.
</event>
<event>
 5   0  0.3398807E-06  0.1899972E+04  0.7818609E-02  0.8654870E-01
       -1   -1    0    0    0  501  0.00000000000E+00  0.00000000000E+00  0.59877546950E+03  0.59877546952E+03  0.50400001928E-02 0.  1.
        1   -1    0    0  501    0  0.00000000000E+00  0.00000000000E+00 -0.15071977799E+04  0.15071977799E+04  0.50400001928E-02 0. -1.
    10030    2    1    2    0    0  0.00000000000E+00  0.00000000000E+00 -0.90842231040E+03  0.21059732494E+04  0.18999716401E+04 0.  0.
        1    1    3    3  502    0  0.25904837501E+03 -0.47501367999E+03 -0.13197252768E+04  0.14263305588E+04  0.50400001928E-02 0. -1.
       -1    1    3    3    0  502 -0.25904837501E+03  0.47501367999E+03  0.41130296637E+03  0.67964269064E+03  0.50400001928E-02 0.  1.
</event>
<event>
 5   0  0.7207648E-06  0.1900040E+04  0.7818609E-02  0.8654836E-01
        2   -1    0    0  501    0  0.00000000000E+00  0.00000000000E+00  0.24403165024E+04  0.24403165024E+04  0.25500000920E-02 0. -1.
       -2   -1    0    0    0  501  0.00000000000E+00  0.00000000000E+00 -0.36984484095E+03  0.36984484096E+03  0.25500000920E-02 0.  1.
    10030    2    1    2    0    0  0.00000000000E+00  0.00000000000E+00  0.20704716614E+04  0.28101613433E+04  0.19000404929E+04 0.  0.
        4    1    3    3  502    0 -0.10856365441E+03 -0.71736623943E+03  0.12816517102E+03  0.73676883247E+03  0.12699999809E+01 0.  1.
       -4    1    3    3    0  502  0.10856365441E+03  0.71736623943E+03  0.19423064904E+04  0.20733925108E+04  0.12699999809E+01 0. -1.
</event>
<event>
 5   0  0.3379108E-06  0.1901655E+04  0.7818609E-02  0.8654033E-01
        1   -1    0    0  501    0  0.00000000000E+00  0.00000000000E+00  0.25277898891E+04  0.25277898891E+04  0.50400001928E-02 0.  1.
       -1   -1    0    0    0  501  0.00000000000E+00  0.00000000000E+00 -0.35765345849E+03  0.35765345852E+03  0.50400001928E-02 0. -1.
    10030    2    1    2    0    0  0.00000000000E+00  0.00000000000E+00  0.21701364306E+04  0.28854433476E+04  0.19016548543E+04 0.  0.
        4    1    3    3  502    0 -0.33636574887E+03 -0.21015591362E+03 -0.22614244623E+03  0.45656263965E+03  0.12699999809E+01 0. -1.
       -4    1    3    3    0  502  0.33636574887E+03  0.21015591362E+03  0.23962788768E+04  0.24288807079E+04  0.12699999809E+01 0.  1.
</event>
<event>
 5   0  0.2527750E-06  0.1899587E+04  0.7818609E-02  0.8655062E-01
        4   -1    0    0  501    0  0.00000000000E+00  0.00000000000E+00  0.11014690154E+04  0.11014697476E+04  0.12699999809E+01 0.  1.
       -4   -1    0    0    0  501  0.00000000000E+00  0.00000000000E+00 -0.81900281148E+03  0.81900379616E+03  0.12699999809E+01 0. -1.
    10030    2    1    2    0    0  0.00000000000E+00  0.00000000000E+00  0.28246620396E+03  0.19204735438E+04  0.18995871857E+04 0.  0.
        4    1    3    3  502    0  0.30314167249E+03 -0.18821477310E+03  0.10311309219E+04  0.10911243126E+04  0.12699999809E+01 0.  1.
       -4    1    3    3    0  502 -0.30314167249E+03  0.18821477310E+03 -0.74866471798E+03  0.82934923118E+03  0.12699999809E+01 0. -1.
</event>
<event>
 5   0  0.3236653E-06  0.1900384E+04  0.7818609E-02  0.8654665E-01
        1   -1    0    0  501    0  0.00000000000E+00  0.00000000000E+00  0.15029299783E+04  0.15029299783E+04  0.50400001928E-02 0.  1.
       -1   -1    0    0    0  501  0.00000000000E+00  0.00000000000E+00 -0.60073640640E+03  0.60073640642E+03  0.50400001928E-02 0. -1.
    10030    2    1    2    0    0  0.00000000000E+00  0.00000000000E+00  0.90219357194E+03  0.21036663848E+04  0.19003839131E+04 0.  0.
        3    1    3    3  502    0  0.35235140739E+03  0.70149804287E+03  0.10437273067E+04  0.13059930013E+04  0.10100000352E+00 0. -1.
       -3    1    3    3    0  502 -0.35235140739E+03 -0.70149804287E+03 -0.14153373478E+03  0.79767338348E+03  0.10100000352E+00 0.  1.
</event>
<event>
 5   0  0.6984466E-06  0.1906926E+04  0.7818609E-02  0.8651416E-01
        2   -1    0    0  501    0  0.00000000000E+00  0.00000000000E+00  0.97042849810E+03  0.97042849810E+03  0.25500000920E-02 0.  1.
       -2   -1    0    0    0  501  0.00000000000E+00  0.00000000000E+00 -0.93679431673E+03  0.93679431673E+03  0.25500000920E-02 0. -1.
    10030    2    1    2    0    0  0.00000000000E+00  0.00000000000E+00  0.33634181367E+02  0.19072228148E+04  0.19069262197E+04 0.  0.
        2    1    3    3  502    0 -0.47940487379E+03 -0.70137952097E+03  0.44970034722E+03  0.96124537333E+03  0.25500000920E-02 0.  1.
       -2    1    3    3    0  502  0.47940487379E+03  0.70137952097E+03 -0.41606616585E+03  0.94597744150E+03  0.25500000920E-02 0. -1.
</event>
<event>
 5   0  0.7207648E-06  0.1899993E+04  0.7818609E-02  0.8654860E-01
       -2   -1    0    0    0  501  0.00000000000E+00  0.00000000000E+00  0.43933313655E+03  0.43933313656E+03  0.25500000920E-02 0.  1.
        2   -1    0    0  501    0  0.00000000000E+00  0.00000000000E+00 -0.20542343199E+04  0.20542343199E+04  0.25500000920E-02 0. -1.
    10030    2    1    2    0    0  0.00000000000E+00  0.00000000000E+00 -0.16149011834E+04  0.24935674565E+04  0.18999928495E+04 0.  0.
        4    1    3    3  502    0  0.46758528766E+03  0.57897617319E+03 -0.15823746093E+04  0.17486453120E+04  0.12699999809E+01 0. -1.
       -4    1    3    3    0  502 -0.46758528766E+03 -0.57897617319E+03 -0.32526574105E+02  0.74492214444E+03  0.12699999809E+01 0.  1.
</event>
<event>
 5   0  0.6984466E-06  0.1899890E+04  0.7818609E-02  0.8654911E-01
       -2   -1    0    0    0  501  0.00000000000E+00  0.00000000000E+00  0.68902821117E+03  0.68902821118E+03  0.25500000920E-02 0. -1.
        2   -1    0    0  501    0  0.00000000000E+00  0.00000000000E+00 -0.13096645969E+04  0.13096645969E+04  0.25500000920E-02 0.  1.
    10030    2    1    2    0    0  0.00000000000E+00  0.00000000000E+00 -0.62063638575E+03  0.19986928081E+04  0.18998903700E+04 0.  0.
        2    1    3    3  502    0  0.23079631566E+03 -0.76508365692E+03 -0.85061832758E+03  0.11671210223E+04  0.25500000920E-02 0. -1.
       -2    1    3    3    0  502 -0.23079631566E+03  0.76508365692E+03  0.22998194183E+03  0.83157178583E+03  0.25500000920E-02 0.  1.
</event>
<event>
 5   0  0.3379108E-06  0.1900478E+04  0.7818609E-02  0.8654618E-01
        1   -1    0    0  501    0  0.00000000000E+00  0.00000000000E+00  0.14909665586E+04  0.14909665586E+04  0.50400001928E-02 0. -1.
       -1   -1    0    0    0  501  0.00000000000E+00  0.00000000000E+00 -0.60561692227E+03  0.60561692230E+03  0.50400001928E-02 0.  1.
    10030    2    1    2    0    0  0.00000000000E+00  0.00000000000E+00  0.88534963632E+03  0.20965834809E+04  0.19004784434E+04 0.  0.
        4    1    3    3  502    0 -0.34802349463E+03  0.59479432560E+03  0.11644428471E+04  0.13530814461E+04  0.12699999809E+01 0. -1.
       -4    1    3    3    0  502  0.34802349463E+03 -0.59479432560E+03 -0.27909321080E+03  0.74350203483E+03  0.12699999809E+01 0.  1.
</event>
<event>
 5   0  0.7577180E-06  0.1898267E+04  0.7818609E-02  0.8655719E-01
        2   -1    0    0  501    0  0.00000000000E+00  0.00000000000E+00  0.14942467648E+04  0.14942467648E+04  0.25500000920E-02 0.  1.
       -2   -1    0    0    0  501  0.00000000000E+00  0.00000000000E+00 -0.60288215508E+03  0.60288215509E+03  0.25500000920E-02 0. -1.
    10030    2    1    2    0    0  0.00000000000E+00  0.00000000000E+00  0.89136460968E+03  0.20971289199E+04  0.18982673255E+04 0.  0.
        5    1    3    3  502    0  0.88825703912E+02 -0.33453443736E+03  0.14220230794E+04  0.14635487774E+04  0.46999998093E+01 0.  1.
       -5    1    3    3    0  502 -0.88825703912E+02  0.33453443736E+03 -0.53065846972E+03  0.63358014247E+03  0.46999998093E+01 0. -1.
</event>
<event>
 5   0  0.3495279E-06  0.1897029E+04  0.7818609E-02  0.8656337E-01
       -1   -1    0    0    0  501  0.00000000000E+00  0.00000000000E+00  0.68994840426E+03  0.68994840428E+03  0.50400001928E-02 0.  1.
        1   -1    0    0  501    0  0.00000000000E+00  0.00000000000E+00 -0.13039811348E+04  0.13039811348E+04  0.50400001928E-02 0. -1.
    10030    2    1    2    0    0  0.00000000000E+00  0.00000000000E+00 -0.61403273054E+03  0.19939295391E+04  0.18970289435E+04 0.  0.
        2    1    3    3  502    0  0.32827227056E+03 -0.88713832377E+03 -0.23342112928E+03  0.97430103804E+03  0.25500000920E-02 0. -1.
       -2    1    3    3    0  502 -0.32827227056E+03  0.88713832377E+03 -0.38061160125E+03  0.10196285010E+04  0.25500000920E-02 0.  1.
</event>
<event>
 5   0  0.3398807E-06  0.1899420E+04  0.7818609E-02  0.8655145E-01
        1   -1    0    0  501    0  0.00000000000E+00  0.00000000000E+00  0.54020364616E+03  0.54020364619E+03  0.50400001928E-02 0.  1.
       -1   -1    0    0    0  501  0.00000000000E+00  0.00000000000E+00 -0.16696463275E+04  0.16696463275E+04  0.50400001928E-02 0. -1.
    10030    2    1    2    0    0  0.00000000000E+00  0.00000000000E+00 -0.11294426813E+04  0.22098499737E+04  0.18994199472E+04 0.  0.
        1    1    3    3  502    0  0.92885053308E+03 -0.14840222079E+03 -0.41230480154E+03  0.10270256965E+04  0.50400001928E-02 0. -1.
       -1    1    3    3    0  502 -0.92885053308E+03  0.14840222079E+03 -0.71713787976E+03  0.11828242771E+04  0.50400001928E-02 0.  1.
</event>
<event>
 5   0  0.3211263E-06  0.1898701E+04  0.7818609E-02  0.8655503E-01
       -1   -1    0    0    0  501  0.00000000000E+00  0.00000000000E+00  0.10751869291E+04  0.10751869291E+04  0.50400001928E-02 0. -1.
        1   -1    0    0  501    0  0.00000000000E+00  0.00000000000E+00 -0.83824160698E+03  0.83824160699E+03  0.50400001928E-02 0.  1.
    10030    2    1    2    0    0  0.00000000000E+00  0.00000000000E+00  0.23694532212E+03  0.19134285361E+04  0.18987010500E+04 0.  0.
        5    1    3    3  502    0  0.31147080153E+03  0.74736140388E+03  0.61797970773E+03  0.10185696527E+04  0.46999998093E+01 0. -1.
       -5    1    3    3    0  502 -0.31147080153E+03 -0.74736140388E+03 -0.38103438562E+03  0.89485888342E+03  0.46999998093E+01 0.  1.
</event>
<event>
 5   0  0.3379108E-06  0.1900115E+04  0.7818609E-02  0.8654799E-01
       -1   -1    0    0    0  501  0.00000000000E+00  0.00000000000E+00  0.74031646480E+03  0.74031646481E+03  0.50400001928E-02 0. -1.
        1   -1    0    0  501    0  0.00000000000E+00  0.00000000000E+00 -0.12192206059E+04  0.12192206059E+04  0.50400001928E-02 0.  1.
    10030    2    1    2    0    0  0.00000000000E+00  0.00000000000E+00 -0.47890414109E+03  0.19595370707E+04  0.19001148268E+04 0.  0.
        4    1    3    3  502    0  0.62478292453E+03  0.66924767873E+03  0.22177061413E+02  0.91582727260E+03  0.12699999809E+01 0.  1.
       -4    1    3    3    0  502 -0.62478292453E+03 -0.66924767873E+03 -0.50108120251E+03  0.10437097981E+04  0.12699999809E+01 0. -1.
</event>
<event>
 5   0  0.6870370E-06  0.1900159E+04  0.7818609E-02  0.8654777E-01
        2   -1    0    0  501    0  0.00000000000E+00  0.00000000000E+00  0.18964902543E+04  0.18964902543E+04  0.25500000920E-02 0.  1.
       -2   -1    0    0    0  501  0.00000000000E+00  0.00000000000E+00 -0.47595886218E+03  0.47595886219E+03  0.25500000920E-02 0. -1.
    10030    2    1    2    0    0  0.00000000000E+00  0.00000000000E+00  0.14205313922E+04  0.23724491165E+04  0.19001593024E+04 0.  0.
        1    1    3    3  502    0 -0.89644192983E+03  0.15748345296E+03  0.10504640666E+04  0.13899222736E+04  0.50400001928E-02 0.  1.
       -1    1    3    3    0  502  0.89644192983E+03 -0.15748345296E+03  0.37006732554E+03  0.98252684288E+03  0.50400001928E-02 0. -1.
</event>
<event>
 5   0  0.3398807E-06  0.1900389E+04  0.7818609E-02  0.8654663E-01
       -1   -1    0    0    0  501  0.00000000000E+00  0.00000000000E+00  0.47912716853E+03  0.47912716855E+03  0.50400001928E-02 0.  1.
        1   -1    0    0  501    0  0.00000000000E+00  0.00000000000E+00 -0.18844055677E+04  0.18844055677E+04  0.50400001928E-02 0. -1.
    10030    2    1    2    0    0  0.00000000000E+00  0.00000000000E+00 -0.14052783992E+04  0.23635327362E+04  0.19003893328E+04 0.  0.
        1    1    3    3  502    0 -0.26543133985E+03 -0.91180887193E+03 -0.74237351525E+03  0.12053910781E+04  0.50400001928E-02 0.  1.
       -1    1    3    3    0  502  0.26543133985E+03  0.91180887193E+03 -0.66290488391E+03  0.11581416581E+04  0.50400001928E-02 0. -1.
</event>
<event>
 5   0  0.6862201E-06  0.1905839E+04  0.7818609E-02  0.8651956E-01
        2   -1    0    0  501    0  0.00000000000E+00  0.00000000000E+00  0.10949983127E+04  0.10949983127E+04  0.25500000920E-02 0. -1.
       -2   -1    0    0    0  501  0.00000000000E+00  0.00000000000E+00 -0.82927547272E+03  0.82927547272E+03  0.25500000920E-02 0.  1.
    10030    2    1    2    0    0  0.00000000000E+00  0.00000000000E+00  0.26572283998E+03  0.19242737854E+04  0.19058386536E+04 0.  0.
        3    1    3    3  502    0  0.46636099625E+03 -0.74663359309E+02 -0.70278436319E+03  0.84674262169E+03  0.10100000352E+00 0.  1.
       -3    1    3    3    0  502 -0.46636099625E+03  0.74663359309E+02  0.96850720317E+03  0.10775311637E+04  0.10100000352E+00 0. -1.
</event>
<event>
 5   0  0.6870370E-06  0.1899427E+04  0.7818609E-02  0.8655142E-01
        2   -1    0    0  501    0  0.00000000000E+00  0.00000000000E+00  0.10571698785E+04  0.10571698785E+04  0.25500000920E-02 0. -1.
       -2   -1    0    0    0  501  0.00000000000E+00  0.00000000000E+00 -0.85317950189E+03  0.85317950189E+03  0.25500000920E-02 0.  1.
    10030    2    1    2    0    0  0.00000000000E+00  0.00000000000E+00  0.20399037657E+03  0.19103493804E+04  0.18994269350E+04 0.  0.
        1    1    3    3  502    0 -0.80993015790E+03  0.35333174648E+03 -0.24803699503E+03  0.91779765453E+03  0.50400001928E-02 0. -1.
       -1    1    3    3    0  502  0.80993015790E+03 -0.35333174648E+03  0.45202737160E+03  0.99255172582E+03  0.50400001928E-02 0.  1.
</event>
<event>
 5   0  0.6870370E-06  0.1900084E+04  0.7818609E-02  0.8654815E-01
        2   -1    0    0  501    0  0.00000000000E+00  0.00000000000E+00  0.13166489949E+04  0.13166489949E+04  0.25500000920E-02 0.  1.
       -2   -1    0    0    0  501  0.00000000000E+00  0.00000000000E+00 -0.68551250611E+03  0.68551250611E+03  0.25500000920E-02 0. -1.
    10030    2    1    2    0    0  0.00000000000E+00  0.00000000000E+00  0.63113648880E+03  0.20021615010E+04  0.19000835268E+04 0.  0.
        1    1    3    3  502    0 -0.71830735181E+03  0.20708366280E+03  0.93335030778E+03  0.11958226842E+04  0.50400001928E-02 0.  1.
       -1    1    3    3    0  502  0.71830735181E+03 -0.20708366280E+03 -0.30221381898E+03  0.80633881679E+03  0.50400001928E-02 0. -1.
</event>
<event>
 5   0  0.7577180E-06  0.1899754E+04  0.7818609E-02  0.8654979E-01
       -2   -1    0    0    0  501  0.00000000000E+00  0.00000000000E+00  0.73855633268E+03  0.73855633269E+03  0.25500000920E-02 0.  1.
        2   -1    0    0  501    0  0.00000000000E+00  0.00000000000E+00 -0.12216622244E+04  0.12216622244E+04  0.25500000920E-02 0. -1.
    10030    2    1    2    0    0  0.00000000000E+00  0.00000000000E+00 -0.48310589175E+03  0.19602185571E+04  0.18997540601E+04 0.  0.
        5    1    3    3  502    0 -0.60777277992E+03  0.54112767325E+03  0.26397660345E+03  0.85551893488E+03  0.46999998093E+01 0.  1.
       -5    1    3    3    0  502  0.60777277992E+03 -0.54112767325E+03 -0.74708249519E+03  0.11046996222E+04  0.46999998093E+01 0. -1.
</event>
<event>
 5   0  0.3211263E-06  0.1899739E+04  0.7818609E-02  0.8654986E-01
        1   -1    0    0  501    0  0.00000000000E+00  0.00000000000E+00  0.11077275446E+04  0.11077275446E+04  0.50400001928E-02 0. -1.
       -1   -1    0    0    0  501  0.00000000000E+00  0.00000000000E+00 -0.81450712950E+03  0.81450712951E+03  0.50400001928E-02 0.  1.
    10030    2    1    2    0    0  0.00000000000E+00  0.00000000000E+00  0.29322041512E+03  0.19222346741E+04  0.18997389112E+04 0.  0.
        5    1    3    3  502    0  0.47533977864E+03 -0.50932558441E+03  0.79990999434E+03  0.10607726171E+04  0.46999998093E+01 0. -1.
       -5    1    3    3    0  502 -0.47533977864E+03  0.50932558441E+03 -0.50668957922E+03  0.86146205707E+03  0.46999998093E+01 0.  1.
</event>
<event>
 5   0  0.6862201E-06  0.1899784E+04  0.7818609E-02  0.8654964E-01
        2   -1    0    0  501    0  0.00000000000E+00  0.00000000000E+00  0.18297331902E+04  0.18297331902E+04  0.25500000920E-02 0. -1.
       -2   -1    0    0    0  501  0.00000000000E+00  0.00000000000E+00 -0.49312911095E+03  0.49312911096E+03  0.25500000920E-02 0.  1.
    10030    2    1    2    0    0  0.00000000000E+00  0.00000000000E+00  0.13366040793E+04  0.23228623012E+04  0.18997838839E+04 0.  0.
        3    1    3    3  502    0  0.41637435637E+03 -0.40738450257E+03 -0.24910051725E+03  0.63354622205E+03  0.10100000352E+00 0.  1.
       -3    1    3    3    0  502 -0.41637435637E+03  0.40738450257E+03  0.15857045965E+04  0.16893160792E+04  0.10100000352E+00 0. -1.
</event>
<event>
 5   0  0.3495279E-06  0.1897735E+04  0.7818609E-02  0.8655984E-01
        1   -1    0    0  501    0  0.00000000000E+00  0.00000000000E+00  0.14172725387E+04  0.14172725387E+04  0.50400001928E-02 0. -1.
       -1   -1    0    0    0  501  0.00000000000E+00  0.00000000000E+00 -0.63526936147E+03  0.63526936149E+03  0.50400001928E-02 0.  1.
    10030    2    1    2    0    0  0.00000000000E+00  0.00000000000E+00  0.78200317721E+03  0.20525419002E+04  0.18977353037E+04 0.  0.
        2    1    3    3  502    0 -0.31329766436E+03  0.60353964966E+03  0.11067507834E+04  0.12989660626E+04  0.25500000920E-02 0. -1.
       -2    1    3    3    0  502  0.31329766436E+03 -0.60353964966E+03 -0.32474760622E+03  0.75357583756E+03  0.25500000920E-02 0.  1.
</event>
<event>
 5   0  0.3398807E-06  0.1900105E+04  0.7818609E-02  0.8654804E-01
        1   -1    0    0  501    0  0.00000000000E+00  0.00000000000E+00  0.14112206676E+04  0.14112206676E+04  0.50400001928E-02 0.  1.
       -1   -1    0    0    0  501  0.00000000000E+00  0.00000000000E+00 -0.63958801300E+03  0.63958801302E+03  0.50400001928E-02 0. -1.
    10030    2    1    2    0    0  0.00000000000E+00  0.00000000000E+00  0.77163265455E+03  0.20508086806E+04  0.19001050736E+04 0.  0.
        1    1    3    3  502    0 -0.56505203420E+03  0.64627547161E+03 -0.53457604665E+02  0.86012412016E+03  0.50400001928E-02 0. -1.
       -1    1    3    3    0  502  0.56505203420E+03 -0.64627547161E+03  0.82509025922E+03  0.11906845604E+04  0.50400001928E-02 0.  1.
</event>
<event>
 5   0  0.3236653E-06  0.1899936E+04  0.7818609E-02  0.8654888E-01
       -1   -1    0    0    0  501  0.00000000000E+00  0.00000000000E+00  0.15245625150E+04  0.15245625150E+04  0.50400001928E-02 0.  1.
        1   -1    0    0  501    0  0.00000000000E+00  0.00000000000E+00 -0.59193352023E+03  0.59193352025E+03  0.50400001928E-02 0. -1.
    10030    2    1    2    0    0  0.00000000000E+00  0.00000000000E+00  0.93262899473E+03  0.21164960352E+04  0.18999364793E+04 0.  0.
        3    1    3    3  502    0  0.90756393661E+02  0.90868897939E+03  0.17478447932E+03  0.92978600154E+03  0.10100000352E+00 0. -1.
       -3    1    3    3    0  502 -0.90756393661E+02 -0.90868897939E+03  0.75784451541E+03  0.11867100337E+04  0.10100000352E+00 0.  1.
</event>
<event>
 5   0  0.3236653E-06  0.1899614E+04  0.7818609E-02  0.8655049E-01
        1   -1    0    0  501    0  0.00000000000E+00  0.00000000000E+00  0.12374080458E+04  0.12374080458E+04  0.50400001928E-02 0. -1.
       -1   -1    0    0    0  501  0.00000000000E+00  0.00000000000E+00 -0.72905079430E+03  0.72905079432E+03  0.50400001928E-02 0.  1.
    10030    2    1    2    0    0  0.00000000000E+00  0.00000000000E+00  0.50835725146E+03  0.19664588401E+04  0.18996139804E+04 0.  0.
        3    1    3    3  502    0  0.39715983403E+03 -0.69996912513E+02  0.11443793610E+04  0.12133588231E+04  0.10100000352E+00 0. -1.
       -3    1    3    3    0  502 -0.39715983403E+03  0.69996912513E+02 -0.63602210955E+03  0.75310001698E+03  0.10100000352E+00 0.  1.
</event>
<event>
 5   0  0.6984466E-06  0.1904696E+04  0.7818609E-02  0.8652522E-01
        2   -1    0    0  501    0  0.00000000000E+00  0.00000000000E+00  0.17501003761E+04  0.17501003761E+04  0.25500000920E-02 0.  1.
       -2   -1    0    0    0  501  0.00000000000E+00  0.00000000000E+00 -0.51823701030E+03  0.51823701031E+03  0.25500000920E-02 0. -1.
    10030    2    1    2    0    0  0.00000000000E+00  0.00000000000E+00  0.12318633658E+04  0.22683373864E+04  0.19046960772E+04 0.  0.
        2    1    3    3  502    0 -0.51068291479E+03 -0.79666041426E+03  0.74365416581E+03  0.12035307946E+04  0.25500000920E-02 0. -1.
       -2    1    3    3    0  502  0.51068291479E+03  0.79666041426E+03  0.48820920000E+03  0.10648065919E+04  0.25500000920E-02 0.  1.
</event>
<event>
 5   0  0.3211263E-06  0.1899845E+04  0.7818609E-02  0.8654933E-01
       -1   -1    0    0    0  501  0.00000000000E+00  0.00000000000E+00  0.87640719595E+03  0.87640719596E+03  0.50400001928E-02 0.  1.
        1   -1    0    0  501    0  0.00000000000E+00  0.00000000000E+00 -0.10296046775E+04  0.10296046775E+04  0.50400001928E-02 0. -1.
    10030    2    1    2    0    0  0.00000000000E+00  0.00000000000E+00 -0.15319748155E+03  0.19060118735E+04  0.18998452025E+04 0.  0.
        5    1    3    3  502    0 -0.15788992817E+03  0.92829936030E+03 -0.20215257434E+03  0.96309744318E+03  0.46999998093E+01 0.  1.
       -5    1    3    3    0  502  0.15788992817E+03 -0.92829936030E+03  0.48955092792E+02  0.94291443029E+03  0.46999998093E+01 0. -1.
</event>
<event>
 5   0  0.7577180E-06  0.1900380E+04  0.7818609E-02  0.8654667E-01
        2   -1    0    0  501    0  0.00000000000E+00  0.00000000000E+00  0.73745642236E+03  0.73745642237E+03  0.25500000920E-02 0. -1.
       -2   -1    0    0    0  501  0.00000000000E+00  0.00000000000E+00 -0.12242907561E+04  0.12242907561E+04  0.25500000920E-02 0.  1.
    10030    2    1    2    0    0  0.00000000000E+00  0.00000000000E+00 -0.48683433370E+03  0.19617471784E+04  0.19003800472E+04 0.  0.
        5    1    3    3  502    0 -0.74606392777E+03 -0.45313992582E+03 -0.63089374466E+03  0.10770311898E+04  0.46999998093E+01 0.  1.
       -5    1    3    3    0  502  0.74606392777E+03  0.45313992582E+03  0.14405941097E+03  0.88471598865E+03  0.46999998093E+01 0. -1.
</event>
<event>
 5   0  0.3495279E-06  0.1899848E+04  0.7818609E-02  0.8654932E-01
       -1   -1    0    0    0  501  0.00000000000E+00  0.00000000000E+00  0.74603811363E+03  0.74603811365E+03  0.50400001928E-02 0. -1.
        1   -1    0    0  501    0  0.00000000000E+00  0.00000000000E+00 -0.12095306005E+04  0.12095306005E+04  0.50400001928E-02 0.  1.
    10030    2    1    2    0    0  0.00000000000E+00  0.00000000000E+00 -0.46349248685E+03  0.19555687141E+04  0.18998483388E+04 0.  0.
        2    1    3    3  502    0 -0.12013352504E+02  0.50111062520E+03 -0.10623194382E+04  0.11746398461E+04  0.25500000920E-02 0.  1.
       -2    1    3    3    0  502  0.12013352504E+02 -0.50111062520E+03  0.59882695131E+03  0.78092886805E+03  0.25500000920E-02 0. -1.
</event>
<event>
 5   0  0.3495279E-06  0.1899976E+04  0.7818609E-02  0.8654868E-01
       -1   -1    0    0    0  501  0.00000000000E+00  0.00000000000E+00  0.14113029243E+04  0.14113029243E+04  0.50400001928E-02 0.  1.
        1   -1    0    0  501    0  0.00000000000E+00  0.00000000000E+00 -0.63946396165E+03  0.63946396167E+03  0.50400001928E-02 0. -1.
    10030    2    1    2    0    0  0.00000000000E+00  0.00000000000E+00  0.77183896261E+03  0.20507668860E+04  0.18999761673E+04 0.  0.
        2    1    3    3  502    0  0.16463657821E+03  0.36072689216E+03  0.13177107355E+04  0.13760780050E+04  0.25500000920E-02 0.  1.
       -2    1    3    3    0  502 -0.16463657821E+03 -0.36072689216E+03 -0.54587177285E+03  0.67468888090E+03  0.25500000920E-02 0. -1.
</event>
<event>
 5   0  0.3398807E-06  0.1900065E+04  0.7818609E-02  0.8654824E-01
        1   -1    0    0  501    0  0.00000000000E+00  0.00000000000E+00  0.12137911669E+04  0.12137911670E+04  0.50400001928E-02 0. -1.
       -1   -1    0    0    0  501  0.00000000000E+00  0.00000000000E+00 -0.74358930620E+03  0.74358930622E+03  0.50400001928E-02 0.  1.
    10030    2    1    2    0    0  0.00000000000E+00  0.00000000000E+00  0.47020186074E+03  0.19573804732E+04  0.19000654007E+04 0.  0.
        1    1    3    3  502    0  0.12864900235E+03 -0.30921410392E+03 -0.68076029776E+03  0.75868208817E+03  0.50400001928E-02 0.  1.
       -1    1    3    3    0  502 -0.12864900235E+03  0.30921410392E+03  0.11509621585E+04  0.11986983850E+04  0.50400001928E-02 0. -1.
</event>
<event>
 5   0  0.3495279E-06  0.1903132E+04  0.7818609E-02  0.8653299E-01
       -1   -1    0    0    0  501  0.00000000000E+00  0.00000000000E+00  0.15625464088E+04  0.15625464088E+04  0.50400001928E-02 0.  1.
        1   -1    0    0  501    0  0.00000000000E+00  0.00000000000E+00 -0.57948832729E+03  0.57948832731E+03  0.50400001928E-02 0. -1.
    10030    2    1    2    0    0  0.00000000000E+00  0.00000000000E+00  0.98305808154E+03  0.21420347361E+04  0.19031315297E+04 0.  0.
        2    1    3    3  502    0 -0.75811395378E+03  0.57478673129E+03  0.47014834167E+03  0.10612049833E+04  0.25500000920E-02 0.  1.
       -2    1    3    3    0  502  0.75811395378E+03 -0.57478673129E+03  0.51290973987E+03  0.10808297529E+04  0.25500000920E-02 0. -1.
</event>
<event>
 5   0  0.6870370E-06  0.1899978E+04  0.7818609E-02  0.8654867E-01
        2   -1    0    0  501    0  0.00000000000E+00  0.00000000000E+00  0.14221307164E+04  0.14221307164E+04  0.25500000920E-02 0. -1.
       -2   -1    0    0    0  501  0.00000000000E+00  0.00000000000E+00 -0.63459644498E+03  0.63459644498E+03  0.25500000920E-02 0.  1.
    10030    2    1    2    0    0  0.00000000000E+00  0.00000000000E+00  0.78753427143E+03  0.20567271614E+04  0.18999779966E+04 0.  0.
        1    1    3    3  502    0 -0.94179283458E+03 -0.53177279595E+02  0.27188348747E+03  0.98169353524E+03  0.50400001928E-02 0.  1.
       -1    1    3    3    0  502  0.94179283458E+03  0.53177279595E+02  0.51565078396E+03  0.10750336262E+04  0.50400001928E-02 0. -1.
</event>
<event>
 5   0  0.6870370E-06  0.1898759E+04  0.7818609E-02  0.8655474E-01
       -2   -1    0    0    0  501  0.00000000000E+00  0.00000000000E+00  0.10683340309E+04  0.10683340309E+04  0.25500000920E-02 0.  1.
        2   -1    0    0  501    0  0.00000000000E+00  0.00000000000E+00 -0.84367021555E+03  0.84367021555E+03  0.25500000920E-02 0. -1.
    10030    2    1    2    0    0  0.00000000000E+00  0.00000000000E+00  0.22466381530E+03  0.19120042464E+04  0.18987591760E+04 0.  0.
        1    1    3    3  502    0 -0.13216953617E+03  0.69560049638E+03  0.74919346559E+03  0.10308344609E+04  0.50400001928E-02 0.  1.
       -1    1    3    3    0  502  0.13216953617E+03 -0.69560049638E+03 -0.52452965029E+03  0.88116978552E+03  0.50400001928E-02 0. -1.
</event>
<event>
 5   0  0.2527750E-06  0.1887434E+04  0.7818609E-02  0.8661137E-01
       -3   -1    0    0    0  501  0.00000000000E+00  0.00000000000E+00  0.10716776722E+04  0.10716776770E+04  0.10100000352E+00 0.  1.
        3   -1    0    0  501    0  0.00000000000E+00  0.00000000000E+00 -0.83103491560E+03  0.83103492173E+03  0.10100000352E+00 0. -1.
    10030    2    1    2    0    0  0.00000000000E+00  0.00000000000E+00  0.24064275661E+03  0.19027125987E+04  0.18874337861E+04 0.  0.
        4    1    3    3  502    0  0.33551857312E+03 -0.62572930437E+03 -0.50639442794E+03  0.87209334638E+03  0.12699999809E+01 0. -1.
       -4    1    3    3    0  502 -0.33551857312E+03  0.62572930437E+03  0.74703718455E+03  0.10306192523E+04  0.12699999809E+01 0.  1.
</event>
<event>
 5   0  0.3379108E-06  0.1900041E+04  0.7818609E-02  0.8654836E-01
        1   -1    0    0  501    0  0.00000000000E+00  0.00000000000E+00  0.31231940741E+04  0.31231940741E+04  0.50400001928E-02 0. -1.
       -1   -1    0    0    0  501  0.00000000000E+00  0.00000000000E+00 -0.28897956821E+03  0.28897956825E+03  0.50400001928E-02 0.  1.
    10030    2    1    2    0    0  0.00000000000E+00  0.00000000000E+00  0.28342145059E+04  0.34121736423E+04  0.19000413417E+04 0.  0.
        4    1    3    3  502    0 -0.62387315664E+02  0.25176885189E+03 -0.22415649577E+03  0.34282281055E+03  0.12699999809E+01 0.  1.
       -4    1    3    3    0  502  0.62387315664E+02 -0.25176885189E+03  0.30583710016E+04  0.30693508318E+04  0.12699999809E+01 0. -1.
</event>
<event>
 5   0  0.7577180E-06  0.1901001E+04  0.7818609E-02  0.8654358E-01
        2   -1    0    0  501    0  0.00000000000E+00  0.00000000000E+00  0.11819789759E+04  0.11819789759E+04  0.25500000920E-02 0.  1.
       -2   -1    0    0    0  501  0.00000000000E+00  0.00000000000E+00 -0.76435441862E+03  0.76435441862E+03  0.25500000920E-02 0. -1.
    10030    2    1    2    0    0  0.00000000000E+00  0.00000000000E+00  0.41762455727E+03  0.19463333945E+04  0.19010006343E+04 0.  0.
        5    1    3    3  502    0  0.62246977122E+03  0.26566743939E+03  0.89209556110E+03  0.11197787212E+04  0.46999998093E+01 0.  1.
       -5    1    3    3    0  502 -0.62246977122E+03 -0.26566743939E+03 -0.47447100383E+03  0.82655467327E+03  0.46999998093E+01 0. -1.
</event>
<event>
 5   0  0.3211263E-06  0.1899693E+04  0.7818609E-02  0.8655009E-01
        1   -1    0    0  501    0  0.00000000000E+00  0.00000000000E+00  0.15159863827E+04  0.15159863827E+04  0.50400001928E-02 0. -1.
       -1   -1    0    0    0  501  0.00000000000E+00  0.00000000000E+00 -0.59512945105E+03  0.59512945107E+03  0.50400001928E-02 0.  1.
    10030    2    1    2    0    0  0.00000000000E+00  0.00000000000E+00  0.92085693167E+03  0.21111158338E+04  0.18996927581E+04 0.  0.
        5    1    3    3  502    0 -0.37610349978E+03  0.72729687709E+03  0.99543449683E+03  0.12889245585E+04  0.46999998093E+01 0. -1.
       -5    1    3    3    0  502  0.37610349978E+03 -0.72729687709E+03 -0.74577565164E+02  0.82219127531E+03  0.46999998093E+01 0.  1.
</event>
<event>
 5   0  0.3495279E-06  0.1900523E+04  0.7818609E-02  0.8654596E-01
       -1   -1    0    0    0  501  0.00000000000E+00  0.00000000000E+00  0.67001844890E+03  0.67001844892E+03  0.50400001928E-02 0. -1.
        1   -1    0    0  501    0  0.00000000000E+00  0.00000000000E+00 -0.13477192830E+04  0.13477192830E+04  0.50400001928E-02 0.  1.
    10030    2    1    2    0    0  0.00000000000E+00  0.00000000000E+00 -0.67770083411E+03  0.20177377319E+04  0.19005228581E+04 0.  0.
        2    1    3    3  502    0  0.29147236366E+03  0.87514826282E+03 -0.58131283649E+03  0.10903051108E+04  0.25500000920E-02 0. -1.
       -2    1    3    3    0  502 -0.29147236366E+03 -0.87514826282E+03 -0.96387997621E+02  0.92743262116E+03  0.25500000920E-02 0.  1.
</event>
<event>
 5   0  0.7577180E-06  0.1896355E+04  0.7818609E-02  0.8656673E-01
        2   -1    0    0  501    0  0.00000000000E+00  0.00000000000E+00  0.14029774270E+04  0.14029774270E+04  0.25500000920E-02 0.  1.
       -2   -1    0    0    0  501  0.00000000000E+00  0.00000000000E+00 -0.64080923471E+03  0.64080923471E+03  0.25500000920E-02 0. -1.
    10030    2    1    2    0    0  0.00000000000E+00  0.00000000000E+00  0.76216819227E+03  0.20437866617E+04  0.18963553373E+04 0.  0.
        5    1    3    3  502    0 -0.68232949478E+03 -0.56642359262E+03  0.74274661526E+03  0.11567643884E+04  0.46999998093E+01 0.  1.
       -5    1    3    3    0  502  0.68232949478E+03  0.56642359262E+03  0.19421577011E+02  0.88702227332E+03  0.46999998093E+01 0. -1.
</event>
<event>
 5   0  0.6870370E-06  0.1899704E+04  0.7818609E-02  0.8655003E-01
        2   -1    0    0  501    0  0.00000000000E+00  0.00000000000E+00  0.16345718626E+04  0.16345718626E+04  0.25500000920E-02 0. -1.
       -2   -1    0    0    0  501  0.00000000000E+00  0.00000000000E+00 -0.55196060527E+03  0.55196060528E+03  0.25500000920E-02 0.  1.
    10030    2    1    2    0    0  0.00000000000E+00  0.00000000000E+00  0.10826112573E+04  0.21865324678E+04  0.18997044766E+04 0.  0.
        1    1    3    3  502    0 -0.24308408313E+03  0.89731103491E+03  0.76556272711E+03  0.12043019779E+04  0.50400001928E-02 0. -1.
       -1    1    3    3    0  502  0.24308408313E+03 -0.89731103491E+03  0.31704853019E+03  0.98223048994E+03  0.50400001928E-02 0.  1.
</event>
<event>
 5   0  0.3495279E-06  0.1898629E+04  0.7818609E-02  0.8655539E-01
        1   -1    0    0  501    0  0.00000000000E+00  0.00000000000E+00  0.12439388676E+04  0.12439388676E+04  0.50400001928E-02 0.  1.
       -1   -1    0    0    0  501  0.00000000000E+00  0.00000000000E+00 -0.72447144722E+03  0.72447144724E+03  0.50400001928E-02 0. -1.
    10030    2    1    2    0    0  0.00000000000E+00  0.00000000000E+00  0.51946742038E+03  0.19684103149E+04  0.18986291810E+04 0.  0.
        2    1    3    3  502    0  0.22139454050E+03 -0.77799575131E+03 -0.25542453100E+03  0.84825386687E+03  0.25500000920E-02 0. -1.
       -2    1    3    3    0  502 -0.22139454050E+03  0.77799575131E+03  0.77489195138E+03  0.11201564480E+04  0.25500000920E-02 0.  1.
</event>
<event>
 5   0  0.3211263E-06  0.1900007E+04  0.7818609E-02  0.8654853E-01
       -1   -1    0    0    0  501  0.00000000000E+00  0.00000000000E+00  0.48946115142E+03  0.48946115145E+03  0.50400001928E-02 0. -1.
        1   -1    0    0  501    0  0.00000000000E+00  0.00000000000E+00 -0.18438771535E+04  0.18438771535E+04  0.50400001928E-02 0.  1.
    10030    2    1    2    0    0  0.00000000000E+00  0.00000000000E+00 -0.13544160021E+04  0.23333383049E+04  0.19000065628E+04 0.  0.
        5    1    3    3  502    0  0.29116482234E+03 -0.37593019615E+02 -0.17867555030E+04  0.18107201623E+04  0.46999998093E+01 0.  1.
       -5    1    3    3    0  502 -0.29116482234E+03  0.37593019615E+02  0.43233950093E+03  0.52261814258E+03  0.46999998093E+01 0. -1.
</event>
<event>
 5   0  0.3236653E-06  0.1894169E+04  0.7818609E-02  0.8657764E-01
        1   -1    0    0  501    0  0.00000000000E+00  0.00000000000E+00  0.11403528095E+04  0.11403528096E+04  0.50400001928E-02 0.  1.
       -1   -1    0    0    0  501  0.00000000000E+00  0.00000000000E+00 -0.78657163079E+03  0.78657163080E+03  0.50400001928E-02 0. -1.
    10030    2    1    2    0    0  0.00000000000E+00  0.00000000000E+00  0.35378117876E+03  0.19269244404E+04  0.18941691256E+04 0.  0.
        3    1    3    3  502    0  0.15512690378E+03 -0.72018542542E+03  0.78236160164E+03  0.10746260229E+04  0.10100000352E+00 0.  1.
       -3    1    3    3    0  502 -0.15512690378E+03  0.72018542542E+03 -0.42858042288E+03  0.85229841742E+03  0.10100000352E+00 0. -1.
</event>
<event>
 5   0  0.3236653E-06  0.1900123E+04  0.7818609E-02  0.8654795E-01
        1   -1    0    0  501    0  0.00000000000E+00  0.00000000000E+00  0.60184739345E+03  0.60184739347E+03  0.50400001928E-02 0. -1.
       -1   -1    0    0    0  501  0.00000000000E+00  0.00000000000E+00 -0.14997440206E+04  0.14997440206E+04  0.50400001928E-02 0.  1.
    10030    2    1    2    0    0  0.00000000000E+00  0.00000000000E+00 -0.89789662715E+03  0.21015914141E+04  0.19001231851E+04 0.  0.
        3    1    3    3  502    0 -0.80821430396E+03 -0.19606708406E+01  0.10340530440E+03  0.81480480641E+03  0.10100000352E+00 0. -1.
       -3    1    3    3    0  502  0.80821430396E+03  0.19606708406E+01 -0.10013019316E+04  0.12867866077E+04  0.10100000352E+00 0.  1.
</event>
<event>
 5   0  0.3211263E-06  0.1901594E+04  0.7818609E-02  0.8654063E-01
        1   -1    0    0  501    0  0.00000000000E+00  0.00000000000E+00  0.11889205956E+04  0.11889205956E+04  0.50400001928E-02 0. -1.
       -1   -1    0    0    0  501  0.00000000000E+00  0.00000000000E+00 -0.76036588002E+03  0.76036588003E+03  0.50400001928E-02 0.  1.
    10030    2    1    2    0    0  0.00000000000E+00  0.00000000000E+00  0.42855471559E+03  0.19492864757E+04  0.19015937053E+04 0.  0.
        5    1    3    3  502    0 -0.29353898067E+02  0.13123547202E+03 -0.75055595647E+03  0.76252261228E+03  0.46999998093E+01 0.  1.
       -5    1    3    3    0  502  0.29353898067E+02 -0.13123547202E+03  0.11791106721E+04  0.11867638634E+04  0.46999998093E+01 0. -1.
</event>
<event>
 5   0  0.3379108E-06  0.1900127E+04  0.7818609E-02  0.8654793E-01
        1   -1    0    0  501    0  0.00000000000E+00  0.00000000000E+00  0.14949881501E+04  0.14949881501E+04  0.50400001928E-02 0. -1.
       -1   -1    0    0    0  501  0.00000000000E+00  0.00000000000E+00 -0.60376455221E+03  0.60376455223E+03  0.50400001928E-02 0.  1.
    10030    2    1    2    0    0  0.00000000000E+00  0.00000000000E+00  0.89122359787E+03  0.20987527023E+04  0.19001272073E+04 0.  0.
        4    1    3    3  502    0  0.12770877365E+03  0.82643258803E+03 -0.52431901404E+02  0.83788487910E+03  0.12699999809E+01 0.  1.
       -4    1    3    3    0  502 -0.12770877365E+03 -0.82643258803E+03  0.94365549928E+03  0.12608678232E+04  0.12699999809E+01 0. -1.
</event>
<event>
 5   0  0.3211263E-06  0.1899974E+04  0.7818609E-02  0.8654869E-01
       -1   -1    0    0    0  501  0.00000000000E+00  0.00000000000E+00  0.40131462205E+03  0.40131462208E+03  0.50400001928E-02 0.  1.
        1   -1    0    0  501    0  0.00000000000E+00  0.00000000000E+00 -0.22487972998E+04  0.22487972998E+04  0.50400001928E-02 0. -1.
    10030    2    1    2    0    0  0.00000000000E+00  0.00000000000E+00 -0.18474826778E+04  0.26501119219E+04  0.18999739351E+04 0.  0.
        5    1    3    3  502    0  0.93994157648E+03  0.11395832898E+03 -0.81591140764E+03  0.12498840678E+04  0.46999998093E+01 0.  1.
       -5    1    3    3    0  502 -0.93994157648E+03 -0.11395832898E+03 -0.10315712701E+04  0.14002278541E+04  0.46999998093E+01 0. -1.
</event>
<event>
 5   0  0.7207648E-06  0.1899524E+04  0.7818609E-02  0.8655093E-01
       -2   -1    0    0    0  501  0.00000000000E+00  0.00000000000E+00  0.85377416799E+03  0.85377416799E+03  0.25500000920E-02 0.  1.
        2   -1    0    0  501    0  0.00000000000E+00  0.00000000000E+00 -0.10565411977E+04  0.10565411977E+04  0.25500000920E-02 0. -1.
    10030    2    1    2    0    0  0.00000000000E+00  0.00000000000E+00 -0.20276702973E+03  0.19103153657E+04  0.18995237109E+04 0.  0.
        4    1    3    3  502    0  0.47277567908E+03  0.64370795512E+03 -0.61827744972E+03  0.10100224710E+04  0.12699999809E+01 0. -1.
       -4    1    3    3    0  502 -0.47277567908E+03 -0.64370795512E+03  0.41551042000E+03  0.90029289470E+03  0.12699999809E+01 0.  1.
</event>
<event>
 5   0  0.3211263E-06  0.1900759E+04  0.7818609E-02  0.8654478E-01
       -1   -1    0    0    0  501  0.00000000000E+00  0.00000000000E+00  0.62163702307E+03  0.62163702309E+03  0.50400001928E-02 0.  1.
        1   -1    0    0  501    0  0.00000000000E+00  0.00000000000E+00 -0.14529726179E+04  0.14529726179E+04  0.50400001928E-02 0. -1.
    10030    2    1    2    0    0  0.00000000000E+00  0.00000000000E+00 -0.83133559484E+03  0.20746096410E+04  0.19007593986E+04 0.  0.
        5    1    3    3  502    0 -0.45155105517E+03  0.74326111746E+02  0.49344781913E+03  0.67300487852E+03  0.46999998093E+01 0.  1.
       -5    1    3    3    0  502  0.45155105517E+03 -0.74326111746E+02 -0.13247834140E+04  0.14016047625E+04  0.46999998093E+01 0. -1.
</event>
<event>
 5   0  0.6862201E-06  0.1898775E+04  0.7818609E-02  0.8655466E-01
        2   -1    0    0  501    0  0.00000000000E+00  0.00000000000E+00  0.11653600685E+04  0.11653600685E+04  0.25500000920E-02 0. -1.
       -2   -1    0    0    0  501  0.00000000000E+00  0.00000000000E+00 -0.77344078134E+03  0.77344078135E+03  0.25500000920E-02 0.  1.
    10030    2    1    2    0    0  0.00000000000E+00  0.00000000000E+00  0.39191928716E+03  0.19388008499E+04  0.18987753969E+04 0.  0.
        3    1    3    3  502    0 -0.41831803080E+03  0.65978115726E+03 -0.35488970945E+03  0.85804887183E+03  0.10100000352E+00 0.  1.
       -3    1    3    3    0  502  0.41831803080E+03 -0.65978115726E+03  0.74680899662E+03  0.10807519780E+04  0.10100000352E+00 0. -1.
</event>
<event>
 5   0  0.6862201E-06  0.1900323E+04  0.7818609E-02  0.8654695E-01
       -2   -1    0    0    0  501  0.00000000000E+00  0.00000000000E+00  0.55355876587E+03  0.55355876588E+03  0.25500000920E-02 0. -1.
        2   -1    0    0  501    0  0.00000000000E+00  0.00000000000E+00 -0.16309149877E+04  0.16309149877E+04  0.25500000920E-02 0.  1.
    10030    2    1    2    0    0  0.00000000000E+00  0.00000000000E+00 -0.10773562218E+04  0.21844737536E+04  0.19003234334E+04 0.  0.
        3    1    3    3  502    0  0.88051460321E+03 -0.35141295379E+03 -0.61147366789E+03  0.11281387713E+04  0.10100000352E+00 0. -1.
       -3    1    3    3    0  502 -0.88051460321E+03  0.35141295379E+03 -0.46588255394E+03  0.10563349823E+04  0.10100000352E+00 0.  1.
</event>
<event>
 5   0  0.3495279E-06  0.1900482E+04  0.7818609E-02  0.8654617E-01
        1   -1    0    0  501    0  0.00000000000E+00  0.00000000000E+00  0.87285162221E+03  0.87285162222E+03  0.50400001928E-02 0.  1.
       -1   -1    0    0    0  501  0.00000000000E+00  0.00000000000E+00 -0.10344917316E+04  0.10344917316E+04  0.50400001928E-02 0. -1.
    10030    2    1    2    0    0  0.00000000000E+00  0.00000000000E+00 -0.16164010940E+03  0.19073433538E+04  0.19004818190E+04 0.  0.
        2    1    3    3  502    0  0.88678045705E+03  0.73480564184E+02  0.25381865666E+03  0.92531231635E+03  0.25500000920E-02 0.  1.
       -2    1    3    3    0  502 -0.88678045705E+03 -0.73480564184E+02 -0.41545876606E+03  0.98203103750E+03  0.25500000920E-02 0. -1.
</event>
<event>
 5   0  0.7577180E-06  0.1899981E+04  0.7818609E-02  0.8654866E-01
       -2   -1    0    0    0  501  0.00000000000E+00  0.00000000000E+00  0.51557131756E+03  0.51557131757E+03  0.25500000920E-02 0. -1.
        2   -1    0    0  501    0  0.00000000000E+00  0.00000000000E+00 -0.17504506814E+04  0.17504506814E+04  0.25500000920E-02 0.  1.
    10030    2    1    2    0    0  0.00000000000E+00  0.00000000000E+00 -0.12348793639E+04  0.22660219990E+04  0.18999812253E+04 0.  0.
        5    1    3    3  502    0 -0.49276104544E+03 -0.58712326362E+03 -0.12867443102E+04  0.14977517098E+04  0.46999998093E+01 0.  1.
       -5    1    3    3    0  502  0.49276104544E+03  0.58712326362E+03  0.51864946265E+02  0.76827028918E+03  0.46999998093E+01 0. -1.
</event>
<event>
 5   0  0.3211263E-06  0.1896976E+04  0.7818609E-02  0.8656363E-01
        1   -1    0    0  501    0  0.00000000000E+00  0.00000000000E+00  0.75175845240E+03  0.75175845241E+03  0.50400001928E-02 0. -1.
       -1   -1    0    0    0  501  0.00000000000E+00  0.00000000000E+00 -0.11967001617E+04  0.11967001617E+04  0.50400001928E-02 0.  1.
    10030    2    1    2    0    0  0.00000000000E+00  0.00000000000E+00 -0.44494170927E+03  0.19484586141E+04  0.18969759741E+04 0.  0.
        5    1    3    3  502    0  0.44844567626E+03  0.39597995295E+03  0.53350907524E+03  0.80159695051E+03  0.46999998093E+01 0. -1.
       -5    1    3    3    0  502 -0.44844567626E+03 -0.39597995295E+03 -0.97845078452E+03  0.11468616636E+04  0.46999998093E+01 0.  1.
</event>
<event>
 5   0  0.3495279E-06  0.1900801E+04  0.7818609E-02  0.8654458E-01
        1   -1    0    0  501    0  0.00000000000E+00  0.00000000000E+00  0.20100065705E+04  0.20100065705E+04  0.50400001928E-02 0. -1.
       -1   -1    0    0    0  501  0.00000000000E+00  0.00000000000E+00 -0.44938234839E+03  0.44938234842E+03  0.50400001928E-02 0.  1.
    10030    2    1    2    0    0  0.00000000000E+00  0.00000000000E+00  0.15606242221E+04  0.24593889189E+04  0.19008013815E+04 0.  0.
        2    1    3    3  502    0 -0.61918944157E+03 -0.46961650686E+03  0.72426847127E+02  0.78050040119E+03  0.25500000920E-02 0.  1.
       -2    1    3    3    0  502  0.61918944157E+03  0.46961650686E+03  0.14881973749E+04  0.16788885177E+04  0.25500000920E-02 0. -1.
</event>
<event>
 5   0  0.7577180E-06  0.1899969E+04  0.7818609E-02  0.8654872E-01
        2   -1    0    0  501    0  0.00000000000E+00  0.00000000000E+00  0.30196998478E+04  0.30196998478E+04  0.25500000920E-02 0.  1.
       -2   -1    0    0    0  501  0.00000000000E+00  0.00000000000E+00 -0.29886096164E+03  0.29886096165E+03  0.25500000920E-02 0. -1.
    10030    2    1    2    0    0  0.00000000000E+00  0.00000000000E+00  0.27208388861E+04  0.33185608094E+04  0.18999688423E+04 0.  0.
        5    1    3    3  502    0 -0.56668337680E+03 -0.75644551460E+03  0.11937233563E+04  0.15226087506E+04  0.46999998093E+01 0.  1.
       -5    1    3    3    0  502  0.56668337680E+03  0.75644551460E+03  0.15271155299E+04  0.17959520589E+04  0.46999998093E+01 0. -1.
</event>
<event>
 5   0  0.6870370E-06  0.1900330E+04  0.7818609E-02  0.8654692E-01
        2   -1    0    0  501    0  0.00000000000E+00  0.00000000000E+00  0.15547746025E+04  0.15547746025E+04  0.25500000920E-02 0. -1.
       -2   -1    0    0    0  501  0.00000000000E+00  0.00000000000E+00 -0.58067191367E+03  0.58067191368E+03  0.25500000920E-02 0.  1.
    10030    2    1    2    0    0  0.00000000000E+00  0.00000000000E+00  0.97410268878E+03  0.21354465161E+04  0.19003304384E+04 0.  0.
        1    1    3    3  502    0 -0.80513487650E+03  0.48832415850E+03  0.34441679332E+03  0.10026592545E+04  0.50400001928E-02 0.  1.
       -1    1    3    3    0  502  0.80513487650E+03 -0.48832415850E+03  0.62968589547E+03  0.11327872616E+04  0.50400001928E-02 0. -1.
</event>
<event>
 5   0  0.3495279E-06  0.1899885E+04  0.7818609E-02  0.8654914E-01
        1   -1    0    0  501    0  0.00000000000E+00  0.00000000000E+00  0.17966437426E+04  0.17966437426E+04  0.50400001928E-02 0. -1.
       -1   -1    0    0    0  501  0.00000000000E+00  0.00000000000E+00 -0.50226458825E+03  0.50226458828E+03  0.50400001928E-02 0.  1.
    10030    2    1    2    0    0  0.00000000000E+00  0.00000000000E+00  0.12943791543E+04  0.22989083309E+04  0.18998847645E+04 0.  0.
        2    1    3    3  502    0 -0.29817425199E+03 -0.12222578234E+03  0.17284833063E+04  0.17582666369E+04  0.25500000920E-02 0. -1.
       -2    1    3    3    0  502  0.29817425199E+03  0.12222578234E+03 -0.43410415199E+03  0.54064169391E+03  0.25500000920E-02 0.  1.
</event>
<event>
 5   0  0.6870370E-06  0.1900866E+04  0.7818609E-02  0.8654425E-01
        2   -1    0    0  501    0  0.00000000000E+00  0.00000000000E+00  0.89539682220E+03  0.89539682220E+03  0.25500000920E-02 0. -1.
       -2   -1    0    0    0  501  0.00000000000E+00  0.00000000000E+00 -0.10088523421E+04  0.10088523421E+04  0.25500000920E-02 0.  1.
    10030    2    1    2    0    0  0.00000000000E+00  0.00000000000E+00 -0.11345551987E+03  0.19042491643E+04  0.19008663090E+04 0.  0.
        1    1    3    3  502    0  0.81204282300E+02 -0.37457692104E+03 -0.92800032601E+03  0.10040351639E+04  0.50400001928E-02 0.  1.
       -1    1    3    3    0  502 -0.81204282300E+02  0.37457692104E+03  0.81454480614E+03  0.90021400038E+03  0.50400001928E-02 0. -1.
</event>
<event>
 5   0  0.3379108E-06  0.1902282E+04  0.7818609E-02  0.8653721E-01
        1   -1    0    0  501    0  0.00000000000E+00  0.00000000000E+00  0.12935179172E+04  0.12935179172E+04  0.50400001928E-02 0.  1.
       -1   -1    0    0    0  501  0.00000000000E+00  0.00000000000E+00 -0.69938677471E+03  0.69938677473E+03  0.50400001928E-02 0. -1.
    10030    2    1    2    0    0  0.00000000000E+00  0.00000000000E+00  0.59413114247E+03  0.19929046919E+04  0.19022821286E+04 0.  0.
        4    1    3    3  502    0  0.19300411801E+03 -0.17610837285E+03  0.12551844179E+04  0.12820898114E+04  0.12699999809E+01 0.  1.
       -4    1    3    3    0  502 -0.19300411801E+03  0.17610837285E+03 -0.66105327543E+03  0.71081488055E+03  0.12699999809E+01 0. -1.
</event>
<event>
 5   0  0.6862201E-06  0.1898495E+04  0.7818609E-02  0.8655606E-01
        2   -1    0    0  501    0  0.00000000000E+00  0.00000000000E+00  0.23042772948E+04  0.23042772948E+04  0.25500000920E-02 0.  1.
       -2   -1    0    0    0  501  0.00000000000E+00  0.00000000000E+00 -0.39104273396E+03  0.39104273397E+03  0.25500000920E-02 0. -1.
    10030    2    1    2    0    0  0.00000000000E+00  0.00000000000E+00  0.19132345609E+04  0.26953200288E+04  0.18984950810E+04 0.  0.
        3    1    3    3  502    0  0.53934768605E+03 -0.55919098796E+03  0.17309543265E+04  0.18973121457E+04  0.10100000352E+00 0.  1.
       -3    1    3    3    0  502 -0.53934768605E+03  0.55919098796E+03  0.18228023434E+03  0.79800788311E+03  0.10100000352E+00 0. -1.
</event>
<event>
 5   0  0.3379108E-06  0.1899693E+04  0.7818609E-02  0.8655009E-01
       -1   -1    0    0    0  501  0.00000000000E+00  0.00000000000E+00  0.65479017750E+03  0.65479017752E+03  0.50400001928E-02 0.  1.
        1   -1    0    0  501    0  0.00000000000E+00  0.00000000000E+00 -0.13778592603E+04  0.13778592603E+04  0.50400001928E-02 0. -1.
    10030    2    1    2    0    0  0.00000000000E+00  0.00000000000E+00 -0.72306908275E+03  0.20326494378E+04  0.18996933538E+04 0.  0.
        4    1    3    3  502    0 -0.19208898264E+03  0.27535526477E+02  0.63335351651E+03  0.66241578503E+03  0.12699999809E+01 0.  1.
       -4    1    3    3    0  502  0.19208898264E+03 -0.27535526477E+02 -0.13564225993E+04  0.13702336528E+04  0.12699999809E+01 0. -1.
</event>
<event>
 5   0  0.6862201E-06  0.1902595E+04  0.7818609E-02  0.8653566E-01
       -2   -1    0    0    0  501  0.00000000000E+00  0.00000000000E+00  0.52174337695E+03  0.52174337696E+03  0.25500000920E-02 0. -1.
        2   -1    0    0  501    0  0.00000000000E+00  0.00000000000E+00 -0.17345058105E+04  0.17345058105E+04  0.25500000920E-02 0.  1.
    10030    2    1    2    0    0  0.00000000000E+00  0.00000000000E+00 -0.12127624335E+04  0.22562491874E+04  0.19025949847E+04 0.  0.
        3    1    3    3  502    0 -0.30852578142E+03  0.69712124853E+03 -0.12811882765E+04  0.14908419108E+04  0.10100000352E+00 0.  1.
       -3    1    3    3    0  502  0.30852578142E+03 -0.69712124853E+03  0.68425842962E+02  0.76540727664E+03  0.10100000352E+00 0. -1.
</event>
<event>
 5   0  0.7207648E-06  0.1899714E+04  0.7818609E-02  0.8654999E-01
       -2   -1    0    0    0  501  0.00000000000E+00  0.00000000000E+00  0.56149991745E+03  0.56149991745E+03  0.25500000920E-02 0.  1.
        2   -1    0    0  501    0  0.00000000000E+00  0.00000000000E+00 -0.16068174202E+04  0.16068174202E+04  0.25500000920E-02 0. -1.
    10030    2    1    2    0    0  0.00000000000E+00  0.00000000000E+00 -0.10453175028E+04  0.21683173377E+04  0.18997135035E+04 0.  0.
        4    1    3    3  502    0 -0.98889763501E+02  0.27667903513E+03 -0.15536430976E+04  0.15811827730E+04  0.12699999809E+01 0. -1.
       -4    1    3    3    0  502  0.98889763501E+02 -0.27667903513E+03  0.50832559485E+03  0.58713456472E+03  0.12699999809E+01 0.  1.
</event>
<event>
 5   0  0.6984466E-06  0.1900625E+04  0.7818609E-02  0.8654545E-01
        2   -1    0    0  501    0  0.00000000000E+00  0.00000000000E+00  0.13689112477E+04  0.13689112477E+04  0.25500000920E-02 0.  1.
       -2   -1    0    0    0  501  0.00000000000E+00  0.00000000000E+00 -0.65971674139E+03  0.65971674140E+03  0.25500000920E-02 0. -1.
    10030    2    1    2    0    0  0.00000000000E+00  0.00000000000E+00  0.70919450634E+03  0.20286279891E+04  0.19006248105E+04 0.  0.
        2    1    3    3  502    0  0.81706459737E+03  0.35942963177E+03  0.70260744024E+03  0.11359759819E+04  0.25500000920E-02 0.  1.
       -2    1    3    3    0  502 -0.81706459737E+03 -0.35942963177E+03  0.65870660938E+01  0.89265200718E+03  0.25500000920E-02 0. -1.
</event>
<event>
 5   0  0.6984466E-06  0.1900907E+04  0.7818609E-02  0.8654405E-01
        2   -1    0    0  501    0  0.00000000000E+00  0.00000000000E+00  0.14321650015E+04  0.14321650015E+04  0.25500000920E-02 0.  1.
       -2   -1    0    0    0  501  0.00000000000E+00  0.00000000000E+00 -0.63076633108E+03  0.63076633108E+03  0.25500000920E-02 0. -1.
    10030    2    1    2    0    0  0.00000000000E+00  0.00000000000E+00  0.80139867046E+03  0.20629313326E+04  0.19009065874E+04 0.  0.
        2    1    3    3  502    0 -0.90379391997E+03  0.40954284689E+02  0.84598042175E+02  0.90866799875E+03  0.25500000920E-02 0. -1.
       -2    1    3    3    0  502  0.90379391997E+03 -0.40954284689E+02  0.71680062829E+03  0.11542633339E+04  0.25500000920E-02 0.  1.
</event>
<event>
 5   0  0.3379108E-06  0.1899600E+04  0.7818609E-02  0.8655055E-01
        1   -1    0    0  501    0  0.00000000000E+00  0.00000000000E+00  0.14360268511E+04  0.14360268511E+04  0.50400001928E-02 0.  1.
       -1   -1    0    0    0  501  0.00000000000E+00  0.00000000000E+00 -0.62820581298E+03  0.62820581300E+03  0.50400001928E-02 0. -1.
    10030    2    1    2    0    0  0.00000000000E+00  0.00000000000E+00  0.80782103807E+03  0.20642326641E+04  0.18996003953E+04 0.  0.
        4    1    3    3  502    0 -0.13301286586E+03  0.60528029720E+03  0.11860556086E+04  0.13382025931E+04  0.12699999809E+01 0.  1.
       -4    1    3    3    0  502  0.13301286586E+03 -0.60528029720E+03 -0.37823457052E+03  0.72603007094E+03  0.12699999809E+01 0. -1.
</event>
<event>
 5   0  0.6984466E-06  0.1901040E+04  0.7818609E-02  0.8654339E-01
        2   -1    0    0  501    0  0.00000000000E+00  0.00000000000E+00  0.21816193685E+04  0.21816193685E+04  0.25500000920E-02 0.  1.
       -2   -1    0    0    0  501  0.00000000000E+00  0.00000000000E+00 -0.41413663179E+03  0.41413663179E+03  0.25500000920E-02 0. -1.
    10030    2    1    2    0    0  0.00000000000E+00  0.00000000000E+00  0.17674827367E+04  0.25957560003E+04  0.19010402385E+04 0.  0.
        2    1    3    3  502    0 -0.90505037100E+03  0.43046723254E+01  0.48716679603E+03  0.10278454122E+04  0.25500000920E-02 0.  1.
       -2    1    3    3    0  502  0.90505037100E+03 -0.43046723254E+01  0.12803159407E+04  0.15679105881E+04  0.25500000920E-02 0. -1.
</event>
<event>
 5   0  0.7577180E-06  0.1902728E+04  0.7818609E-02  0.8653500E-01
       -2   -1    0    0    0  501  0.00000000000E+00  0.00000000000E+00  0.84619597722E+03  0.84619597722E+03  0.25500000920E-02 0.  1.
        2   -1    0    0  501    0  0.00000000000E+00  0.00000000000E+00 -0.10696024346E+04  0.10696024346E+04  0.25500000920E-02 0. -1.
    10030    2    1    2    0    0  0.00000000000E+00  0.00000000000E+00 -0.22340645741E+03  0.19157984118E+04  0.19027278075E+04 0.  0.
        5    1    3    3  502    0  0.24022200956E+03  0.10109218662E+02  0.81508840486E+03  0.84982351574E+03  0.46999998093E+01 0.  1.
       -5    1    3    3    0  502 -0.24022200956E+03 -0.10109218662E+02 -0.10384948623E+04  0.10659748961E+04  0.46999998093E+01 0. -1.
</event>
<event>
 5   0  0.7577180E-06  0.1901997E+04  0.7818609E-02  0.8653863E-01
        2   -1    0    0  501    0  0.00000000000E+00  0.00000000000E+00  0.16937853385E+04  0.16937853385E+04  0.25500000920E-02 0. -1.
       -2   -1    0    0    0  501  0.00000000000E+00  0.00000000000E+00 -0.53395065258E+03  0.53395065259E+03  0.25500000920E-02 0.  1.
    10030    2    1    2    0    0  0.00000000000E+00  0.00000000000E+00  0.11598346859E+04  0.22277359911E+04  0.19019966213E+04 0.  0.
        5    1    3    3  502    0  0.39569277864E+03 -0.55722739733E+03 -0.19462290766E+03  0.71061615066E+03  0.46999998093E+01 0.  1.
       -5    1    3    3    0  502 -0.39569277864E+03  0.55722739733E+03  0.13544575935E+04  0.15171198404E+04  0.46999998093E+01 0. -1.
</event>
<event>
 5   0  0.6862201E-06  0.1901580E+04  0.7818609E-02  0.8654070E-01
        2   -1    0    0  501    0  0.00000000000E+00  0.00000000000E+00  0.56201711656E+03  0.56201711657E+03  0.25500000920E-02 0.  1.
       -2   -1    0    0    0  501  0.00000000000E+00  0.00000000000E+00 -0.16084943413E+04  0.16084943413E+04  0.25500000920E-02 0. -1.
    10030    2    1    2    0    0  0.00000000000E+00  0.00000000000E+00 -0.10464772248E+04  0.21705114579E+04  0.19015797135E+04 0.  0.
        3    1    3    3  502    0 -0.60320375300E+03 -0.38666689724E+03 -0.12366389024E+04  0.14292102162E+04  0.10100000352E+00 0. -1.
       -3    1    3    3    0  502  0.60320375300E+03  0.38666689724E+03  0.19016167764E+03  0.74130124167E+03  0.10100000352E+00 0.  1.
</event>
<event>
 5   0  0.3211263E-06  0.1899324E+04  0.7818609E-02  0.8655193E-01
       -1   -1    0    0    0  501  0.00000000000E+00  0.00000000000E+00  0.41319804120E+03  0.41319804123E+03  0.50400001928E-02 0. -1.
        1   -1    0    0  501    0  0.00000000000E+00  0.00000000000E+00 -0.21826285176E+04  0.21826285176E+04  0.50400001928E-02 0.  1.
    10030    2    1    2    0    0  0.00000000000E+00  0.00000000000E+00 -0.17694304764E+04  0.25958265589E+04  0.18993239094E+04 0.  0.
        5    1    3    3  502    0  0.17980591476E+03 -0.57419302164E+03 -0.18888598736E+04  0.19823827848E+04  0.46999998093E+01 0.  1.
       -5    1    3    3    0  502 -0.17980591476E+03  0.57419302164E+03  0.11942939720E+03  0.61344377411E+03  0.46999998093E+01 0. -1.
</event>
<event>
 5   0  0.3398807E-06  0.1894058E+04  0.7818609E-02  0.8657820E-01
       -1   -1    0    0    0  501  0.00000000000E+00  0.00000000000E+00  0.66012791173E+03  0.66012791175E+03  0.50400001928E-02 0.  1.
        1   -1    0    0  501    0  0.00000000000E+00  0.00000000000E+00 -0.13586214772E+04  0.13586214773E+04  0.50400001928E-02 0. -1.
    10030    2    1    2    0    0  0.00000000000E+00  0.00000000000E+00 -0.69849356551E+03  0.20187493890E+04  0.18940580336E+04 0.  0.
        1    1    3    3  502    0 -0.74896732183E+03  0.16085340669E+03 -0.94271389059E+03  0.12147161591E+04  0.50400001928E-02 0. -1.
       -1    1    3    3    0  502  0.74896732183E+03 -0.16085340669E+03  0.24422032507E+03  0.80403322992E+03  0.50400001928E-02 0.  1.
</event>
<event>
 5   0  0.6862201E-06  0.1899236E+04  0.7818609E-02  0.8655237E-01
       -2   -1    0    0    0  501  0.00000000000E+00  0.00000000000E+00  0.72401037803E+03  0.72401037803E+03  0.25500000920E-02 0. -1.
        2   -1    0    0  501    0  0.00000000000E+00  0.00000000000E+00 -0.12455267168E+04  0.12455267168E+04  0.25500000920E-02 0.  1.
    10030    2    1    2    0    0  0.00000000000E+00  0.00000000000E+00 -0.52151633879E+03  0.19695370948E+04  0.18992359191E+04 0.  0.
        3    1    3    3  502    0  0.93365447094E+03  0.95744905660E+02 -0.11085112767E+03  0.94507446308E+03  0.10100000352E+00 0.  1.
       -3    1    3    3    0  502 -0.93365447094E+03 -0.95744905660E+02 -0.41066521112E+03  0.10244626318E+04  0.10100000352E+00 0. -1.
</event>
<event>
 5   0  0.3495279E-06  0.1900212E+04  0.7818609E-02  0.8654751E-01
        1   -1    0    0  501    0  0.00000000000E+00  0.00000000000E+00  0.16033450728E+04  0.16033450728E+04  0.50400001928E-02 0. -1.
       -1   -1    0    0    0  501  0.00000000000E+00  0.00000000000E+00 -0.56301139359E+03  0.56301139361E+03  0.50400001928E-02 0.  1.
    10030    2    1    2    0    0  0.00000000000E+00  0.00000000000E+00  0.10403336792E+04  0.21663564664E+04  0.19002121396E+04 0.  0.
        2    1    3    3  502    0  0.24382801582E+03  0.14947722663E+03 -0.51277185534E+03  0.58713756328E+03  0.25500000920E-02 0.  1.
       -2    1    3    3    0  502 -0.24382801582E+03 -0.14947722663E+03  0.15531055345E+04  0.15792189031E+04  0.25500000920E-02 0. -1.
</event>
<event>
 5   0  0.7207648E-06  0.1900590E+04  0.7818609E-02  0.8654563E-01
        2   -1    0    0  501    0  0.00000000000E+00  0.00000000000E+00  0.12396470800E+04  0.12396470800E+04  0.25500000920E-02 0. -1.
       -2   -1    0    0    0  501  0.00000000000E+00  0.00000000000E+00 -0.72848223692E+03  0.72848223692E+03  0.25500000920E-02 0.  1.
    10030    2    1    2    0    0  0.00000000000E+00  0.00000000000E+00  0.51116484307E+03  0.19681293169E+04  0.19005903060E+04 0.  0.
        4    1    3    3  502    0 -0.82830214089E+03 -0.54138587133E+02 -0.22350689825E+03  0.85963502121E+03  0.12699999809E+01 0. -1.
       -4    1    3    3    0  502  0.82830214089E+03  0.54138587133E+02  0.73467174132E+03  0.11084942957E+04  0.12699999809E+01 0.  1.
</event>
<event>
 5   0  0.3379108E-06  0.1900196E+04  0.7818609E-02  0.8654759E-01
       -1   -1    0    0    0  501  0.00000000000E+00  0.00000000000E+00  0.91907858342E+03  0.91907858344E+03  0.50400001928E-02 0.  1.
        1   -1    0    0  501    0  0.00000000000E+00  0.00000000000E+00 -0.98216453681E+03  0.98216453683E+03  0.50400001928E-02 0. -1.
    10030    2    1    2    0    0  0.00000000000E+00  0.00000000000E+00 -0.63085953390E+02  0.19012431203E+04  0.19001961911E+04 0.  0.
        4    1    3    3  502    0 -0.31941765559E+03 -0.57015622224E+03  0.65845935284E+03  0.92772630053E+03  0.12699999809E+01 0.  1.
       -4    1    3    3    0  502  0.31941765559E+03  0.57015622224E+03 -0.72154530623E+03  0.97351681973E+03  0.12699999809E+01 0. -1.
</event>
<event>
 5   0  0.7207648E-06  0.1895102E+04  0.7818609E-02  0.8657298E-01
        2   -1    0    0  501    0  0.00000000000E+00  0.00000000000E+00  0.87709751622E+03  0.87709751622E+03  0.25500000920E-02 0. -1.
       -2   -1    0    0    0  501  0.00000000000E+00  0.00000000000E+00 -0.10236640909E+04  0.10236640909E+04  0.25500000920E-02 0.  1.
    10030    2    1    2    0    0  0.00000000000E+00  0.00000000000E+00 -0.14656657470E+03  0.19007616071E+04  0.18951023525E+04 0.  0.
        4    1    3    3  502    0  0.26801108918E+03 -0.88237615222E+03 -0.29172715565E+03  0.96722487777E+03  0.12699999809E+01 0. -1.
       -4    1    3    3    0  502 -0.26801108918E+03  0.88237615222E+03  0.14516058094E+03  0.93353672938E+03  0.12699999809E+01 0.  1.
</event>
<event>
 5   0  0.6870370E-06  0.1898527E+04  0.7818609E-02  0.8655590E-01
       -2   -1    0    0    0  501  0.00000000000E+00  0.00000000000E+00  0.93838551233E+03  0.93838551234E+03  0.25500000920E-02 0.  1.
        2   -1    0    0  501    0  0.00000000000E+00  0.00000000000E+00 -0.96026773112E+03  0.96026773112E+03  0.25500000920E-02 0. -1.
    10030    2    1    2    0    0  0.00000000000E+00  0.00000000000E+00 -0.21882218785E+02  0.18986532435E+04  0.18985271416E+04 0.  0.
        1    1    3    3  502    0  0.43007694715E+03  0.31326255574E+03  0.77524195879E+03  0.94026576243E+03  0.50400001928E-02 0.  1.
       -1    1    3    3    0  502 -0.43007694715E+03 -0.31326255574E+03 -0.79712417758E+03  0.95838748103E+03  0.50400001928E-02 0. -1.
</event>
<event>
 5   0  0.6984466E-06  0.1899665E+04  0.7818609E-02  0.8655023E-01
       -2   -1    0    0    0  501  0.00000000000E+00  0.00000000000E+00  0.44863931510E+03  0.44863931511E+03  0.25500000920E-02 0.  1.
        2   -1    0    0  501    0  0.00000000000E+00  0.00000000000E+00 -0.20109279706E+04  0.20109279706E+04  0.25500000920E-02 0. -1.
    10030    2    1    2    0    0  0.00000000000E+00  0.00000000000E+00 -0.15622886555E+04  0.24595672857E+04  0.18996645467E+04 0.  0.
        2    1    3    3  502    0  0.50259487293E+03 -0.68330394825E+03 -0.22776632730E+03  0.87828434567E+03  0.25500000920E-02 0.  1.
       -2    1    3    3    0  502 -0.50259487293E+03  0.68330394825E+03 -0.13345223282E+04  0.15812829401E+04  0.25500000920E-02 0. -1.
</event>
<event>
 5   0  0.3236653E-06  0.1899957E+04  0.7818609E-02  0.8654878E-01
       -1   -1    0    0    0  501  0.00000000000E+00  0.00000000000E+00  0.89042726883E+03  0.89042726884E+03  0.50400001928E-02 0.  1.
        1   -1    0    0  501    0  0.00000000000E+00  0.00000000000E+00 -0.10135125392E+04  0.10135125392E+04  0.50400001928E-02 0. -1.
    10030    2    1    2    0    0  0.00000000000E+00  0.00000000000E+00 -0.12308527040E+03  0.19039398081E+04  0.18999570545E+04 0.  0.
        3    1    3    3  502    0  0.21462946361E+03 -0.29217463811E+03 -0.94146493918E+03  0.10088548298E+04  0.10100000352E+00 0. -1.
       -3    1    3    3    0  502 -0.21462946361E+03  0.29217463811E+03  0.81837966877E+03  0.89508497824E+03  0.10100000352E+00 0.  1.
</event>
<event>
 5   0  0.2527750E-06  0.1899029E+04  0.7818609E-02  0.8655340E-01
        3   -1    0    0  501    0  0.00000000000E+00  0.00000000000E+00  0.99640476950E+03  0.99640477462E+03  0.10100000352E+00 0. -1.
       -3   -1    0    0    0  501  0.00000000000E+00  0.00000000000E+00 -0.90483080075E+03  0.90483080639E+03  0.10100000352E+00 0.  1.
    10030    2    1    2    0    0  0.00000000000E+00  0.00000000000E+00  0.91573968746E+02  0.19012355810E+04  0.18990289473E+04 0.  0.
        5    1    3    3  502    0  0.93389207810E+03 -0.15292565498E+03  0.12343338076E+03  0.95435766827E+03  0.46999998093E+01 0. -1.
       -5    1    3    3    0  502 -0.93389207810E+03  0.15292565498E+03 -0.31859412018E+02  0.94687791274E+03  0.46999998093E+01 0.  1.
</event>
<event>
 5   0  0.3398807E-06  0.1900017E+04  0.7818609E-02  0.8654848E-01
        1   -1    0    0  501    0  0.00000000000E+00  0.00000000000E+00  0.84798334261E+03  0.84798334262E+03  0.50400001928E-02 0. -1.
       -1   -1    0    0    0  501  0.00000000000E+00  0.00000000000E+00 -0.10643091790E+04  0.10643091790E+04  0.50400001928E-02 0.  1.
    10030    2    1    2    0    0  0.00000000000E+00  0.00000000000E+00 -0.21632583643E+03  0.19122925217E+04  0.19000173212E+04 0.  0.
        1    1    3    3  502    0 -0.80459820274E+03 -0.23090911911E+02  0.39968096764E+03  0.89869702013E+03  0.50400001928E-02 0. -1.
       -1    1    3    3    0  502  0.80459820274E+03  0.23090911911E+02 -0.61600680406E+03  0.10135955015E+04  0.50400001928E-02 0.  1.
</event>
<event>
 5   0  0.3495279E-06  0.1901509E+04  0.7818609E-02  0.8654106E-01
       -1   -1    0    0    0  501  0.00000000000E+00  0.00000000000E+00  0.25801958906E+04  0.25801958906E+04  0.50400001928E-02 0.  1.
        1   -1    0    0  501    0  0.00000000000E+00  0.00000000000E+00 -0.35033528461E+03  0.35033528464E+03  0.50400001928E-02 0. -1.
    10030    2    1    2    0    0  0.00000000000E+00  0.00000000000E+00  0.22298606060E+04  0.29305311752E+04  0.19015085188E+04 0.  0.
        2    1    3    3  502    0  0.47784364728E+03  0.60166151852E+03  0.19779840603E+04  0.21219689152E+04  0.25500000920E-02 0.  1.
       -2    1    3    3    0  502 -0.47784364728E+03 -0.60166151852E+03  0.25187654565E+03  0.80856226005E+03  0.25500000920E-02 0. -1.
</event>
<event>
 5   0  0.6984466E-06  0.1899929E+04  0.7818609E-02  0.8654892E-01
       -2   -1    0    0    0  501  0.00000000000E+00  0.00000000000E+00  0.15094658312E+04  0.15094658312E+04  0.25500000920E-02 0.  1.
        2   -1    0    0  501    0  0.00000000000E+00  0.00000000000E+00 -0.59784920715E+03  0.59784920716E+03  0.25500000920E-02 0. -1.
    10030    2    1    2    0    0  0.00000000000E+00  0.00000000000E+00  0.91161662409E+03  0.21073150384E+04  0.18999294202E+04 0.  0.
        2    1    3    3  502    0 -0.57591700847E+03 -0.71170415077E+03  0.17470878187E+03  0.93205491111E+03  0.25500000920E-02 0. -1.
       -2    1    3    3    0  502  0.57591700847E+03  0.71170415077E+03  0.73690784223E+03  0.11752601273E+04  0.25500000920E-02 0.  1.
</event>
<event>
 5   0  0.7577180E-06  0.1899945E+04  0.7818609E-02  0.8654884E-01
       -2   -1    0    0    0  501  0.00000000000E+00  0.00000000000E+00  0.10705122119E+04  0.10705122119E+04  0.25500000920E-02 0. -1.
        2   -1    0    0  501    0  0.00000000000E+00  0.00000000000E+00 -0.84300590211E+03  0.84300590212E+03  0.25500000920E-02 0.  1.
    10030    2    1    2    0    0  0.00000000000E+00  0.00000000000E+00  0.22750630982E+03  0.19135181141E+04  0.18999453813E+04 0.  0.
        5    1    3    3  502    0 -0.71562853428E+03 -0.13610176128E+03  0.72784507536E+03  0.10297710582E+04  0.46999998093E+01 0. -1.
       -5    1    3    3    0  502  0.71562853428E+03  0.13610176128E+03 -0.50033876554E+03  0.88374705589E+03  0.46999998093E+01 0.  1.
</event>
<event>
 5   0  0.3398807E-06  0.1900601E+04  0.7818609E-02  0.8654557E-01
       -1   -1    0    0    0  501  0.00000000000E+00  0.00000000000E+00  0.48247175483E+03  0.48247175486E+03  0.50400001928E-02 0.  1.
        1   -1    0    0  501    0  0.00000000000E+00  0.00000000000E+00 -0.18717597347E+04  0.18717597347E+04  0.50400001928E-02 0. -1.
    10030    2    1    2    0    0  0.00000000000E+00  0.00000000000E+00 -0.13892879799E+04  0.23542314896E+04  0.19006011721E+04 0.  0.
        1    1    3    3  502    0 -0.90620194236E+03  0.14855204672E+03 -0.39173348847E+03  0.99836105540E+03  0.50400001928E-02 0.  1.
       -1    1    3    3    0  502  0.90620194236E+03 -0.14855204672E+03 -0.99755449141E+03  0.13558704342E+04  0.50400001928E-02 0. -1.
</event>
<event>
 5   0  0.6870370E-06  0.1899691E+04  0.7818609E-02  0.8655010E-01
       -2   -1    0    0    0  501  0.00000000000E+00  0.00000000000E+00  0.50991520059E+03  0.50991520059E+03  0.25500000920E-02 0.  1.
        2   -1    0    0  501    0  0.00000000000E+00  0.00000000000E+00 -0.17693262634E+04  0.17693262634E+04  0.25500000920E-02 0. -1.
    10030    2    1    2    0    0  0.00000000000E+00  0.00000000000E+00 -0.12594110629E+04  0.22792414640E+04  0.18996908765E+04 0.  0.
        1    1    3    3  502    0  0.77016774665E+03 -0.35032906738E+03 -0.11475916548E+04  0.14257823886E+04  0.50400001928E-02 0. -1.
       -1    1    3    3    0  502 -0.77016774665E+03  0.35032906738E+03 -0.11181940807E+03  0.85345907546E+03  0.50400001928E-02 0.  1.
</event>
<event>
 5   0  0.3398807E-06  0.1895453E+04  0.7818609E-02  0.8657123E-01
       -1   -1    0    0    0  501  0.00000000000E+00  0.00000000000E+00  0.56506876325E+03  0.56506876328E+03  0.50400001928E-02 0.  1.
        1   -1    0    0  501    0  0.00000000000E+00  0.00000000000E+00 -0.15895158758E+04  0.15895158758E+04  0.50400001928E-02 0. -1.
    10030    2    1    2    0    0  0.00000000000E+00  0.00000000000E+00 -0.10244471125E+04  0.21545846390E+04  0.18954532652E+04 0.  0.
        1    1    3    3  502    0  0.86460429456E+03  0.16201620311E+03 -0.11130738811E+03  0.88666745226E+03  0.50400001928E-02 0.  1.
       -1    1    3    3    0  502 -0.86460429456E+03 -0.16201620311E+03 -0.91313972439E+03  0.12679171868E+04  0.50400001928E-02 0. -1.
</event>
<event>
 5   0  0.7577180E-06  0.1902945E+04  0.7818609E-02  0.8653392E-01
        2   -1    0    0  501    0  0.00000000000E+00  0.00000000000E+00  0.11672420045E+04  0.11672420045E+04  0.25500000920E-02 0. -1.
       -2   -1    0    0    0  501  0.00000000000E+00  0.00000000000E+00 -0.77558926780E+03  0.77558926781E+03  0.25500000920E-02 0.  1.
    10030    2    1    2    0    0  0.00000000000E+00  0.00000000000E+00  0.39165273673E+03  0.19428312723E+04  0.19029454765E+04 0.  0.
        5    1    3    3  502    0  0.63172167803E+03 -0.37121358707E+03 -0.42386060706E+03  0.84649377430E+03  0.46999998093E+01 0.  1.
       -5    1    3    3    0  502 -0.63172167803E+03  0.37121358707E+03  0.81551334378E+03  0.10963374980E+04  0.46999998093E+01 0. -1.
</event>
<event>
 5   0  0.6870370E-06  0.1899809E+04  0.7818609E-02  0.8654952E-01
       -2   -1    0    0    0  501  0.00000000000E+00  0.00000000000E+00  0.12907921427E+04  0.12907921427E+04  0.25500000920E-02 0.  1.
        2   -1    0    0  501    0  0.00000000000E+00  0.00000000000E+00 -0.69904236628E+03  0.69904236628E+03  0.25500000920E-02 0. -1.
    10030    2    1    2    0    0  0.00000000000E+00  0.00000000000E+00  0.59174977646E+03  0.19898345090E+04  0.18998088260E+04 0.  0.
        1    1    3    3  502    0  0.44644565211E+03 -0.50233471502E+03  0.99900182424E+03  0.12040176623E+04  0.50400001928E-02 0.  1.
       -1    1    3    3    0  502 -0.44644565211E+03  0.50233471502E+03 -0.40725204778E+03  0.78581684676E+03  0.50400001928E-02 0. -1.
</event>
<event>
 5   0  0.7577180E-06  0.1899227E+04  0.7818609E-02  0.8655241E-01
       -2   -1    0    0    0  501  0.00000000000E+00  0.00000000000E+00  0.55980129383E+03  0.55980129384E+03  0.25500000920E-02 0. -1.
        2   -1    0    0  501    0  0.00000000000E+00  0.00000000000E+00 -0.16108676197E+04  0.16108676197E+04  0.25500000920E-02 0.  1.
    10030    2    1    2    0    0  0.00000000000E+00  0.00000000000E+00 -0.10510663259E+04  0.21706689136E+04  0.18992269772E+04 0.  0.
        5    1    3    3  502    0  0.49776047900E+03 -0.85610656880E+02  0.39354198810E+03  0.64030622784E+03  0.46999998093E+01 0. -1.
       -5    1    3    3    0  502 -0.49776047900E+03  0.85610656880E+02 -0.14446083140E+04  0.15303626857E+04  0.46999998093E+01 0.  1.
</event>
<event>
 5   0  0.7577180E-06  0.1897838E+04  0.7818609E-02  0.8655933E-01
       -2   -1    0    0    0  501  0.00000000000E+00  0.00000000000E+00  0.98986829234E+03  0.98986829234E+03  0.25500000920E-02 0. -1.
        2   -1    0    0  501    0  0.00000000000E+00  0.00000000000E+00 -0.90966406298E+03  0.90966406298E+03  0.25500000920E-02 0.  1.
    10030    2    1    2    0    0  0.00000000000E+00  0.00000000000E+00  0.80204229358E+02  0.18995323553E+04  0.18978383626E+04 0.  0.
        5    1    3    3  502    0  0.66977539403E+03  0.65220520614E+03  0.20289665075E+03  0.95663987490E+03  0.46999998093E+01 0. -1.
       -5    1    3    3    0  502 -0.66977539403E+03 -0.65220520614E+03 -0.12269242139E+03  0.94289248042E+03  0.46999998093E+01 0.  1.
</event>
<event>
 5   0  0.3495279E-06  0.1902529E+04  0.7818609E-02  0.8653598E-01
        1   -1    0    0  501    0  0.00000000000E+00  0.00000000000E+00  0.22807561741E+04  0.22807561741E+04  0.50400001928E-02 0. -1.
       -1   -1    0    0    0  501  0.00000000000E+00  0.00000000000E+00 -0.39675625447E+03  0.39675625450E+03  0.50400001928E-02 0.  1.
    10030    2    1    2    0    0  0.00000000000E+00  0.00000000000E+00  0.18839999196E+04  0.26775124286E+04  0.19025291346E+04 0.  0.
        2    1    3    3  502    0 -0.53587881950E+03  0.16255313253E+03  0.20242048639E+04  0.21002368822E+04  0.25500000920E-02 0. -1.
       -2    1    3    3    0  502  0.53587881950E+03 -0.16255313253E+03 -0.14020494431E+03  0.57727554642E+03  0.25500000920E-02 0.  1.
</event>
<event>
 5   0  0.6870370E-06  0.1897734E+04  0.7818609E-02  0.8655985E-01
       -2   -1    0    0    0  501  0.00000000000E+00  0.00000000000E+00  0.40112668172E+03  0.40112668172E+03  0.25500000920E-02 0. -1.
        2   -1    0    0  501    0  0.00000000000E+00  0.00000000000E+00 -0.22445500325E+04  0.22445500325E+04  0.25500000920E-02 0.  1.
    10030    2    1    2    0    0  0.00000000000E+00  0.00000000000E+00 -0.18434233508E+04  0.26456767142E+04  0.18977343402E+04 0.  0.
        1    1    3    3  502    0 -0.95502196074E+02  0.57291418775E+03 -0.19677669144E+04  0.20516963628E+04  0.50400001928E-02 0.  1.
       -1    1    3    3    0  502  0.95502196074E+02 -0.57291418775E+03  0.12434356360E+03  0.59398035137E+03  0.50400001928E-02 0. -1.
</event>
<event>
 5   0  0.3495279E-06  0.1899775E+04  0.7818609E-02  0.8654968E-01
       -1   -1    0    0    0  501  0.00000000000E+00  0.00000000000E+00  0.70387953800E+03  0.70387953802E+03  0.50400001928E-02 0. -1.
        1   -1    0    0  501    0  0.00000000000E+00  0.00000000000E+00 -0.12818764619E+04  0.12818764619E+04  0.50400001928E-02 0.  1.
    10030    2    1    2    0    0  0.00000000000E+00  0.00000000000E+00 -0.57799692387E+03  0.19857559999E+04  0.18997753675E+04 0.  0.
        2    1    3    3  502    0 -0.76647733823E+03 -0.15042549088E+03 -0.85399057820E+03  0.11573310875E+04  0.25500000920E-02 0.  1.
       -2    1    3    3    0  502  0.76647733823E+03  0.15042549088E+03  0.27599365433E+03  0.82842491245E+03  0.25500000920E-02 0. -1.
</event>
<event>
 5   0  0.7207648E-06  0.1899637E+04  0.7818609E-02  0.8655037E-01
       -2   -1    0    0    0  501  0.00000000000E+00  0.00000000000E+00  0.64423738989E+03  0.64423738990E+03  0.25500000920E-02 0.  1.
        2   -1    0    0  501    0  0.00000000000E+00  0.00000000000E+00 -0.14003458619E+04  0.14003458619E+04  0.25500000920E-02 0. -1.
    10030    2    1    2    0    0  0.00000000000E+00  0.00000000000E+00 -0.75610847201E+03  0.20445832518E+04  0.18996369790E+04 0.  0.
        4    1    3    3  502    0 -0.40511772566E+02  0.69552180606E+03  0.31677505390E+03  0.76533641890E+03  0.12699999809E+01 0.  1.
       -4    1    3    3    0  502  0.40511772566E+02 -0.69552180606E+03 -0.10728835259E+04  0.12792468329E+04  0.12699999809E+01 0. -1.
</event>
<event>
 5   0  0.3236653E-06  0.1899850E+04  0.7818609E-02  0.8654931E-01
       -1   -1    0    0    0  501  0.00000000000E+00  0.00000000000E+00  0.11579777073E+04  0.11579777073E+04  0.50400001928E-02 0. -1.
        1   -1    0    0  501    0  0.00000000000E+00  0.00000000000E+00 -0.77925298231E+03  0.77925298233E+03  0.50400001928E-02 0.  1.
    10030    2    1    2    0    0  0.00000000000E+00  0.00000000000E+00  0.37872472495E+03  0.19372306896E+04  0.18998500803E+04 0.  0.
        3    1    3    3  502    0  0.77841562024E+03  0.15579956098E+03 -0.34258507863E+03  0.86462068407E+03  0.10100000352E+00 0. -1.
       -3    1    3    3    0  502 -0.77841562024E+03 -0.15579956098E+03  0.72130980358E+03  0.10726100055E+04  0.10100000352E+00 0.  1.
</event>
<event>
 5   0  0.6862201E-06  0.1911397E+04  0.7818609E-02  0.8649204E-01
        2   -1    0    0  501    0  0.00000000000E+00  0.00000000000E+00  0.16198779475E+04  0.16198779475E+04  0.25500000920E-02 0. -1.
       -2   -1    0    0    0  501  0.00000000000E+00  0.00000000000E+00 -0.56384479233E+03  0.56384479234E+03  0.25500000920E-02 0.  1.
    10030    2    1    2    0    0  0.00000000000E+00  0.00000000000E+00  0.10560331552E+04  0.21837227398E+04  0.19113971277E+04 0.  0.
        3    1    3    3  502    0 -0.68789270194E+02 -0.97790683991E+02  0.16112998911E+04  0.16157296590E+04  0.10100000352E+00 0. -1.
       -3    1    3    3    0  502  0.68789270194E+02  0.97790683991E+02 -0.55526673599E+03  0.56799308083E+03  0.10100000352E+00 0.  1.
</event>
<event>
 5   0  0.3379108E-06  0.1903883E+04  0.7818609E-02  0.8652926E-01
        1   -1    0    0  501    0  0.00000000000E+00  0.00000000000E+00  0.23319451739E+04  0.23319451740E+04  0.50400001928E-02 0.  1.
       -1   -1    0    0    0  501  0.00000000000E+00  0.00000000000E+00 -0.38859937500E+03  0.38859937503E+03  0.50400001928E-02 0. -1.
    10030    2    1    2    0    0  0.00000000000E+00  0.00000000000E+00  0.19433457989E+04  0.27205445490E+04  0.19038828086E+04 0.  0.
        4    1    3    3  502    0  0.41599513357E+03  0.64921719222E+02 -0.24831849522E+03  0.48880514395E+03  0.12699999809E+01 0. -1.
       -4    1    3    3    0  502 -0.41599513357E+03 -0.64921719222E+02  0.21916642942E+04  0.22317394050E+04  0.12699999809E+01 0.  1.
</event>
<event>
 5   0  0.6870370E-06  0.1900337E+04  0.7818609E-02  0.8654689E-01
       -2   -1    0    0    0  501  0.00000000000E+00  0.00000000000E+00  0.12089418080E+04  0.12089418080E+04  0.25500000920E-02 0.  1.
        2   -1    0    0  501    0  0.00000000000E+00  0.00000000000E+00 -0.74678557434E+03  0.74678557435E+03  0.25500000920E-02 0. -1.
    10030    2    1    2    0    0  0.00000000000E+00  0.00000000000E+00  0.46215623366E+03  0.19557273824E+04  0.19003371306E+04 0.  0.
        1    1    3    3  502    0 -0.35800261707E+03  0.84401304821E+03  0.48794561041E+03  0.10385638248E+04  0.50400001928E-02 0.  1.
       -1    1    3    3    0  502  0.35800261707E+03 -0.84401304821E+03 -0.25789376750E+02  0.91716355758E+03  0.50400001928E-02 0. -1.
</event>
<event>
 5   0  0.3211263E-06  0.1903936E+04  0.7818609E-02  0.8652900E-01
       -1   -1    0    0    0  501  0.00000000000E+00  0.00000000000E+00  0.12292775664E+04  0.12292775664E+04  0.50400001928E-02 0.  1.
        1   -1    0    0  501    0  0.00000000000E+00  0.00000000000E+00 -0.73721581364E+03  0.73721581366E+03  0.50400001928E-02 0. -1.
    10030    2    1    2    0    0  0.00000000000E+00  0.00000000000E+00  0.49206175277E+03  0.19664933801E+04  0.19039357776E+04 0.  0.
        5    1    3    3  502    0 -0.11281310284E+03 -0.44044488586E+03  0.11098737609E+04  0.11993999953E+04  0.46999998093E+01 0.  1.
       -5    1    3    3    0  502  0.11281310284E+03  0.44044488586E+03 -0.61781200809E+03  0.76709338479E+03  0.46999998093E+01 0. -1.
</event>
<event>
 5   0  0.3379108E-06  0.1900007E+04  0.7818609E-02  0.8654853E-01
        1   -1    0    0  501    0  0.00000000000E+00  0.00000000000E+00  0.14379157759E+04  0.14379157759E+04  0.50400001928E-02 0. -1.
       -1   -1    0    0    0  501  0.00000000000E+00  0.00000000000E+00 -0.62764899363E+03  0.62764899365E+03  0.50400001928E-02 0.  1.
    10030    2    1    2    0    0  0.00000000000E+00  0.00000000000E+00  0.81026678227E+03  0.20655647696E+04  0.19000067260E+04 0.  0.
        4    1    3    3  502    0  0.33460406040E+03  0.80265611088E+03 -0.10670098933E+02  0.86967360169E+03  0.12699999809E+01 0.  1.
       -4    1    3    3    0  502 -0.33460406040E+03 -0.80265611088E+03  0.82093688121E+03  0.11958911679E+04  0.12699999809E+01 0. -1.
</event>
<event>
 5   0  0.6862201E-06  0.1897394E+04  0.7818609E-02  0.8656155E-01
        2   -1    0    0  501    0  0.00000000000E+00  0.00000000000E+00  0.15418707152E+04  0.15418707152E+04  0.25500000920E-02 0.  1.
       -2   -1    0    0    0  501  0.00000000000E+00  0.00000000000E+00 -0.58372323715E+03  0.58372323715E+03  0.25500000920E-02 0. -1.
    10030    2    1    2    0    0  0.00000000000E+00  0.00000000000E+00  0.95814747802E+03  0.21255939523E+04  0.18973937547E+04 0.  0.
        3    1    3    3  502    0  0.14226945036E+03  0.18431472970E+03  0.15093651474E+04  0.15272182799E+04  0.10100000352E+00 0.  1.
       -3    1    3    3    0  502 -0.14226945036E+03 -0.18431472970E+03 -0.55121766938E+03  0.59837567241E+03  0.10100000352E+00 0. -1.
</event>
<event>
 5   0  0.3211263E-06  0.1899572E+04  0.7818609E-02  0.8655070E-01
        1   -1    0    0  501    0  0.00000000000E+00  0.00000000000E+00  0.87369168535E+03  0.87369168536E+03  0.50400001928E-02 0. -1.
       -1   -1    0    0    0  501  0.00000000000E+00  0.00000000000E+00 -0.10325076035E+04  0.10325076036E+04  0.50400001928E-02 0.  1.
    10030    2    1    2    0    0  0.00000000000E+00  0.00000000000E+00 -0.15881591820E+03  0.19061992889E+04  0.18995718552E+04 0.  0.
        5    1    3    3  502    0  0.42980153529E+03  0.23417880227E+03 -0.89619007880E+03  0.10211502429E+04  0.46999998093E+01 0.  1.
       -5    1    3    3    0  502 -0.42980153529E+03 -0.23417880227E+03  0.73737416061E+03  0.88504904604E+03  0.46999998093E+01 0. -1.
</event>
<event>
 5   0  0.3236653E-06  0.1899694E+04  0.7818609E-02  0.8655009E-01
       -1   -1    0    0    0  501  0.00000000000E+00  0.00000000000E+00  0.75172776445E+03  0.75172776447E+03  0.50400001928E-02 0. -1.
        1   -1    0    0  501    0  0.00000000000E+00  0.00000000000E+00 -0.12001809344E+04  0.12001809344E+04  0.50400001928E-02 0.  1.
    10030    2    1    2    0    0  0.00000000000E+00  0.00000000000E+00 -0.44845316991E+03  0.19519086988E+04  0.18996940077E+04 0.  0.
        3    1    3    3  502    0  0.72589444533E+03  0.22529371340E+03 -0.80955932268E+03  0.11104351896E+04  0.10100000352E+00 0.  1.
       -3    1    3    3    0  502 -0.72589444533E+03 -0.22529371340E+03  0.36110615277E+03  0.84147350929E+03  0.10100000352E+00 0. -1.
</event>
<event>
 5   0  0.3495279E-06  0.1899500E+04  0.7818609E-02  0.8655105E-01
       -1   -1    0    0    0  501  0.00000000000E+00  0.00000000000E+00  0.60026735933E+03  0.60026735935E+03  0.50400001928E-02 0.  1.
        1   -1    0    0  501    0  0.00000000000E+00  0.00000000000E+00 -0.15027053007E+04  0.15027053007E+04  0.50400001928E-02 0. -1.
    10030    2    1    2    0    0  0.00000000000E+00  0.00000000000E+00 -0.90243794138E+03  0.21029726601E+04  0.18994998739E+04 0.  0.
        2    1    3    3  502    0 -0.15210161473E+03 -0.37645409618E+02  0.58585851259E+03  0.60645055433E+03  0.25500000920E-02 0.  1.
       -2    1    3    3    0  502  0.15210161473E+03  0.37645409618E+02 -0.14882964540E+04  0.14965221057E+04  0.25500000920E-02 0. -1.
</event>
<event>
 5   0  0.6984466E-06  0.1899805E+04  0.7818609E-02  0.8654953E-01
       -2   -1    0    0    0  501  0.00000000000E+00  0.00000000000E+00  0.65327173679E+03  0.65327173679E+03  0.25500000920E-02 0. -1.
        2   -1    0    0  501    0  0.00000000000E+00  0.00000000000E+00 -0.13812246855E+04  0.13812246855E+04  0.25500000920E-02 0.  1.
    10030    2    1    2    0    0  0.00000000000E+00  0.00000000000E+00 -0.72795294868E+03  0.20344964223E+04  0.18998053050E+04 0.  0.
        2    1    3    3  502    0 -0.42432665988E+03 -0.84860886666E+03 -0.41334154592E+03  0.10349112795E+04  0.25500000920E-02 0. -1.
       -2    1    3    3    0  502  0.42432665988E+03  0.84860886666E+03 -0.31461140276E+03  0.99958514276E+03  0.25500000920E-02 0.  1.
</event>
<event>
 5   0  0.3379108E-06  0.1900115E+04  0.7818609E-02  0.8654799E-01
        1   -1    0    0  501    0  0.00000000000E+00  0.00000000000E+00  0.82719153438E+03  0.82719153440E+03  0.50400001928E-02 0. -1.
       -1   -1    0    0    0  501  0.00000000000E+00  0.00000000000E+00 -0.10911729433E+04  0.10911729433E+04  0.50400001928E-02 0.  1.
    10030    2    1    2    0    0  0.00000000000E+00  0.00000000000E+00 -0.26398140888E+03  0.19183644777E+04  0.19001147557E+04 0.  0.
        4    1    3    3  502    0  0.19121610526E+03  0.83954388567E+03  0.27337510186E+03  0.90340084906E+03  0.12699999809E+01 0. -1.
       -4    1    3    3    0  502 -0.19121610526E+03 -0.83954388567E+03 -0.53735651074E+03  0.10149636286E+04  0.12699999809E+01 0.  1.
</event>
<event>
 5   0  0.3495279E-06  0.1899969E+04  0.7818609E-02  0.8654872E-01
       -1   -1    0    0    0  501  0.00000000000E+00  0.00000000000E+00  0.81311316478E+03  0.81311316479E+03  0.50400001928E-02 0.  1.
        1   -1    0    0  501    0  0.00000000000E+00  0.00000000000E+00 -0.11098957439E+04  0.11098957439E+04  0.50400001928E-02 0. -1.
    10030    2    1    2    0    0  0.00000000000E+00  0.00000000000E+00 -0.29678257913E+03  0.19230089087E+04  0.18999693060E+04 0.  0.
        2    1    3    3  502    0 -0.76706139794E+03  0.50869218603E+03 -0.38644527338E+03  0.99824389688E+03  0.25500000920E-02 0. -1.
       -2    1    3    3    0  502  0.76706139794E+03 -0.50869218603E+03  0.89662694251E+02  0.92476501182E+03  0.25500000920E-02 0.  1.
</event>
<event>
 5   0  0.3236653E-06  0.1901304E+04  0.7818609E-02  0.8654208E-01
       -1   -1    0    0    0  501  0.00000000000E+00  0.00000000000E+00  0.16047469821E+04  0.16047469821E+04  0.50400001928E-02 0. -1.
        1   -1    0    0  501    0  0.00000000000E+00  0.00000000000E+00 -0.56316617987E+03  0.56316617989E+03  0.50400001928E-02 0.  1.
    10030    2    1    2    0    0  0.00000000000E+00  0.00000000000E+00  0.10415808022E+04  0.21679131620E+04  0.19013040026E+04 0.  0.
        3    1    3    3  502    0  0.37054298081E+03  0.26817762344E+03 -0.42944681322E+03  0.62741207665E+03  0.10100000352E+00 0.  1.
       -3    1    3    3    0  502 -0.37054298081E+03 -0.26817762344E+03  0.14710276155E+04  0.15405010854E+04  0.10100000352E+00 0. -1.
</event>
<event>
 5   0  0.6870370E-06  0.1900300E+04  0.7818609E-02  0.8654707E-01
       -2   -1    0    0    0  501  0.00000000000E+00  0.00000000000E+00  0.62479033235E+03  0.62479033235E+03  0.25500000920E-02 0. -1.
        2   -1    0    0  501    0  0.00000000000E+00  0.00000000000E+00 -0.14449404824E+04  0.14449404824E+04  0.25500000920E-02 0.  1.
    10030    2    1    2    0    0  0.00000000000E+00  0.00000000000E+00 -0.82015015005E+03  0.20697308148E+04  0.19002998124E+04 0.  0.
        1    1    3    3  502    0 -0.37195470191E+03 -0.13191348291E+03  0.53129793654E+03  0.66183756666E+03  0.50400001928E-02 0. -1.
       -1    1    3    3    0  502  0.37195470191E+03  0.13191348291E+03 -0.13514480866E+04  0.14078932481E+04  0.50400001928E-02 0.  1.
</event>
<event>
 5   0  0.7207648E-06  0.1899951E+04  0.7818609E-02  0.8654881E-01
       -2   -1    0    0    0  501  0.00000000000E+00  0.00000000000E+00  0.22696938676E+04  0.22696938676E+04  0.25500000920E-02 0.  1.
        2   -1    0    0  501    0  0.00000000000E+00  0.00000000000E+00 -0.39761020522E+03  0.39761020523E+03  0.25500000920E-02 0. -1.
    10030    2    1    2    0    0  0.00000000000E+00  0.00000000000E+00  0.18720836623E+04  0.26673040728E+04  0.18999509936E+04 0.  0.
        4    1    3    3  502    0  0.50302173207E+03 -0.80214456044E+03  0.82743307292E+03  0.12574235014E+04  0.12699999809E+01 0.  1.
       -4    1    3    3    0  502 -0.50302173207E+03  0.80214456044E+03  0.10446505894E+04  0.14098805714E+04  0.12699999809E+01 0. -1.
</event>
<event>
 5   0  0.3398807E-06  0.1899945E+04  0.7818609E-02  0.8654884E-01
       -1   -1    0    0    0  501  0.00000000000E+00  0.00000000000E+00  0.15598923291E+04  0.15598923291E+04  0.50400001928E-02 0.  1.
        1   -1    0    0  501    0  0.00000000000E+00  0.00000000000E+00 -0.57853206364E+03  0.57853206366E+03  0.50400001928E-02 0. -1.
    10030    2    1    2    0    0  0.00000000000E+00  0.00000000000E+00  0.98136026548E+03  0.21384243928E+04  0.18999449763E+04 0.  0.
        1    1    3    3  502    0 -0.95281116296E+02  0.56125024274E+03  0.13466427140E+04  0.14620283599E+04  0.50400001928E-02 0.  1.
       -1    1    3    3    0  502  0.95281116296E+02 -0.56125024274E+03 -0.36528244848E+03  0.67639603288E+03  0.50400001928E-02 0. -1.
</event>
<event>
 5   0  0.6870370E-06  0.1896663E+04  0.7818609E-02  0.8656519E-01
       -2   -1    0    0    0  501  0.00000000000E+00  0.00000000000E+00  0.42653352984E+03  0.42653352984E+03  0.25500000920E-02 0.  1.
        2   -1    0    0  501    0  0.00000000000E+00  0.00000000000E+00 -0.21084678331E+04  0.21084678331E+04  0.25500000920E-02 0. -1.
    10030    2    1    2    0    0  0.00000000000E+00  0.00000000000E+00 -0.16819343032E+04  0.25350013629E+04  0.18966625714E+04 0.  0.
        1    1    3    3  502    0 -0.32317005257E+03  0.27997641163E+03  0.29038604090E+03  0.51686528875E+03  0.50400001928E-02 0.  1.
       -1    1    3    3    0  502  0.32317005257E+03 -0.27997641163E+03 -0.19723203441E+04  0.20181360742E+04  0.50400001928E-02 0. -1.
</event>
<event>
 5   0  0.7207648E-06  0.1899889E+04  0.7818609E-02  0.8654911E-01
       -2   -1    0    0    0  501  0.00000000000E+00  0.00000000000E+00  0.64198524306E+03  0.64198524307E+03  0.25500000920E-02 0. -1.
        2   -1    0    0  501    0  0.00000000000E+00  0.00000000000E+00 -0.14056319404E+04  0.14056319404E+04  0.25500000920E-02 0.  1.
    10030    2    1    2    0    0  0.00000000000E+00  0.00000000000E+00 -0.76364669738E+03  0.20476171835E+04  0.18998894315E+04 0.  0.
        4    1    3    3  502    0 -0.15053056519E+03 -0.14393846592E+03 -0.13807209455E+04  0.13963415325E+04  0.12699999809E+01 0.  1.
       -4    1    3    3    0  502  0.15053056519E+03  0.14393846592E+03  0.61707424813E+03  0.65127565104E+03  0.12699999809E+01 0. -1.
</event>
<event>
 5   0  0.7577180E-06  0.1899783E+04  0.7818609E-02  0.8654964E-01
       -2   -1    0    0    0  501  0.00000000000E+00  0.00000000000E+00  0.88424692488E+03  0.88424692489E+03  0.25500000920E-02 0. -1.
        2   -1    0    0  501    0  0.00000000000E+00  0.00000000000E+00 -0.10204092178E+04  0.10204092178E+04  0.25500000920E-02 0.  1.
    10030    2    1    2    0    0  0.00000000000E+00  0.00000000000E+00 -0.13616229293E+03  0.19046561427E+04  0.18997828434E+04 0.  0.
        5    1    3    3  502    0 -0.61895593567E+03 -0.26162599571E+03  0.60499561306E+03  0.90421037029E+03  0.46999998093E+01 0. -1.
       -5    1    3    3    0  502  0.61895593567E+03  0.26162599571E+03 -0.74115790599E+03  0.10004457724E+04  0.46999998093E+01 0.  1.
</event>
<event>
 5   0  0.6870370E-06  0.1899918E+04  0.7818609E-02  0.8654897E-01
       -2   -1    0    0    0  501  0.00000000000E+00  0.00000000000E+00  0.44096045377E+03  0.44096045377E+03  0.25500000920E-02 0.  1.
        2   -1    0    0  501    0  0.00000000000E+00  0.00000000000E+00 -0.20464920476E+04  0.20464920476E+04  0.25500000920E-02 0. -1.
    10030    2    1    2    0    0  0.00000000000E+00  0.00000000000E+00 -0.16055315938E+04  0.24874525014E+04  0.18999179582E+04 0.  0.
        1    1    3    3  502    0 -0.18870345774E+02 -0.50530575486E+03  0.25012213053E+03  0.56413746202E+03  0.50400001928E-02 0.  1.
       -1    1    3    3    0  502  0.18870345774E+02  0.50530575486E+03 -0.18556537244E+04  0.19233150393E+04  0.50400001928E-02 0. -1.
</event>
<event>
 5   0  0.7577180E-06  0.1899853E+04  0.7818609E-02  0.8654929E-01
        2   -1    0    0  501    0  0.00000000000E+00  0.00000000000E+00  0.17930019820E+04  0.17930019820E+04  0.25500000920E-02 0.  1.
       -2   -1    0    0    0  501  0.00000000000E+00  0.00000000000E+00 -0.50326796790E+03  0.50326796790E+03  0.25500000920E-02 0. -1.
    10030    2    1    2    0    0  0.00000000000E+00  0.00000000000E+00  0.12897340141E+04  0.22962699499E+04  0.18998531142E+04 0.  0.
        5    1    3    3  502    0  0.22835302079E+03  0.81695691867E+03  0.12814029188E+03  0.85790776513E+03  0.46999998093E+01 0. -1.
       -5    1    3    3    0  502 -0.22835302079E+03 -0.81695691867E+03  0.11615937222E+04  0.14383621848E+04  0.46999998093E+01 0.  1.
</event>
<event>
 5   0  0.6870370E-06  0.1898319E+04  0.7818609E-02  0.8655693E-01
        2   -1    0    0  501    0  0.00000000000E+00  0.00000000000E+00  0.64371488646E+03  0.64371488646E+03  0.25500000920E-02 0.  1.
       -2   -1    0    0    0  501  0.00000000000E+00  0.00000000000E+00 -0.13995390330E+04  0.13995390330E+04  0.25500000920E-02 0. -1.
    10030    2    1    2    0    0  0.00000000000E+00  0.00000000000E+00 -0.75582414654E+03  0.20432539195E+04  0.18983193722E+04 0.  0.
        1    1    3    3  502    0  0.94206516301E+03  0.93852500414E+01 -0.50217912830E+03  0.10675948348E+04  0.50400001928E-02 0. -1.
       -1    1    3    3    0  502 -0.94206516301E+03 -0.93852500414E+01 -0.25364501825E+03  0.97565908471E+03  0.50400001928E-02 0.  1.
</event>
<event>
 5   0  0.3379108E-06  0.1899524E+04  0.7818609E-02  0.8655093E-01
       -1   -1    0    0    0  501  0.00000000000E+00  0.00000000000E+00  0.93855919261E+03  0.93855919263E+03  0.50400001928E-02 0. -1.
        1   -1    0    0  501    0  0.00000000000E+00  0.00000000000E+00 -0.96109858743E+03  0.96109858744E+03  0.50400001928E-02 0.  1.
    10030    2    1    2    0    0  0.00000000000E+00  0.00000000000E+00 -0.22539394818E+02  0.18996577801E+04  0.18995240607E+04 0.  0.
        4    1    3    3  502    0  0.51929570680E+03  0.29032501583E+03 -0.75165258828E+03  0.95861351560E+03  0.12699999809E+01 0.  1.
       -4    1    3    3    0  502 -0.51929570680E+03 -0.29032501583E+03  0.72911319346E+03  0.94104426447E+03  0.12699999809E+01 0. -1.
</event>
<event>
 5   0  0.3236653E-06  0.1900880E+04  0.7818609E-02  0.8654418E-01
        1   -1    0    0  501    0  0.00000000000E+00  0.00000000000E+00  0.12712511076E+04  0.12712511076E+04  0.50400001928E-02 0.  1.
       -1   -1    0    0    0  501  0.00000000000E+00  0.00000000000E+00 -0.71058830361E+03  0.71058830363E+03  0.50400001928E-02 0. -1.
    10030    2    1    2    0    0  0.00000000000E+00  0.00000000000E+00  0.56066280399E+03  0.19818394112E+04  0.19008799731E+04 0.  0.
        3    1    3    3  502    0  0.12628318731E+03  0.90621994857E+03  0.12172504508E+02  0.91505749473E+03  0.10100000352E+00 0. -1.
       -3    1    3    3    0  502 -0.12628318731E+03 -0.90621994857E+03  0.54849029948E+03  0.10667819165E+04  0.10100000352E+00 0.  1.
</event>
<event>
 5   0  0.6870370E-06  0.1900133E+04  0.7818609E-02  0.8654790E-01
        2   -1    0    0  501    0  0.00000000000E+00  0.00000000000E+00  0.99746742084E+03  0.99746742085E+03  0.25500000920E-02 0. -1.
       -2   -1    0    0    0  501  0.00000000000E+00  0.00000000000E+00 -0.90491835956E+03  0.90491835956E+03  0.25500000920E-02 0.  1.
    10030    2    1    2    0    0  0.00000000000E+00  0.00000000000E+00  0.92549061283E+02  0.19023857804E+04  0.19001332397E+04 0.  0.
        1    1    3    3  502    0 -0.53297998543E+03 -0.18925913924E+03  0.81055350423E+03  0.98837425599E+03  0.50400001928E-02 0. -1.
       -1    1    3    3    0  502  0.53297998543E+03  0.18925913924E+03 -0.71800444295E+03  0.91401152442E+03  0.50400001928E-02 0.  1.
</event>
<event>
 5   0  0.3495279E-06  0.1900376E+04  0.7818609E-02  0.8654669E-01
        1   -1    0    0  501    0  0.00000000000E+00  0.00000000000E+00  0.21172879708E+04  0.21172879708E+04  0.50400001928E-02 0. -1.
       -1   -1    0    0    0  501  0.00000000000E+00  0.00000000000E+00 -0.42642172139E+03  0.42642172142E+03  0.50400001928E-02 0.  1.
    10030    2    1    2    0    0  0.00000000000E+00  0.00000000000E+00  0.16908662494E+04  0.25437096923E+04  0.19003763640E+04 0.  0.
        2    1    3    3  502    0 -0.13496335331E+03 -0.18742753775E+03  0.20791429955E+04  0.20919320698E+04  0.25500000920E-02 0. -1.
       -2    1    3    3    0  502  0.13496335331E+03  0.18742753775E+03 -0.38827674607E+03  0.45177762250E+03  0.25500000920E-02 0.  1.
</event>
<event>
 5   0  0.6984466E-06  0.1900230E+04  0.7818609E-02  0.8654742E-01
        2   -1    0    0  501    0  0.00000000000E+00  0.00000000000E+00  0.60312431222E+03  0.60312431222E+03  0.25500000920E-02 0. -1.
       -2   -1    0    0    0  501  0.00000000000E+00  0.00000000000E+00 -0.14967370009E+04  0.14967370009E+04  0.25500000920E-02 0.  1.
    10030    2    1    2    0    0  0.00000000000E+00  0.00000000000E+00 -0.89361268872E+03  0.20998613132E+04  0.19002299590E+04 0.  0.
        2    1    3    3  502    0  0.82867444560E+03 -0.35596606523E+03 -0.11657137243E+03  0.90939653686E+03  0.25500000920E-02 0.  1.
       -2    1    3    3    0  502 -0.82867444560E+03  0.35596606523E+03 -0.77704131629E+03  0.11904647763E+04  0.25500000920E-02 0. -1.
</event>
<event>
 5   0  0.3379108E-06  0.1899063E+04  0.7818609E-02  0.8655323E-01
        1   -1    0    0  501    0  0.00000000000E+00  0.00000000000E+00  0.26154031479E+04  0.26154031479E+04  0.50400001928E-02 0.  1.
       -1   -1    0    0    0  501  0.00000000000E+00  0.00000000000E+00 -0.34473084159E+03  0.34473084163E+03  0.50400001928E-02 0. -1.
    10030    2    1    2    0    0  0.00000000000E+00  0.00000000000E+00  0.22706723063E+04  0.29601339895E+04  0.18990630620E+04 0.  0.
        4    1    3    3  502    0  0.46089619122E+03  0.17807934962E+03  0.23992290447E+04  0.24495793875E+04  0.12699999809E+01 0.  1.
       -4    1    3    3    0  502 -0.46089619122E+03 -0.17807934962E+03 -0.12855673834E+03  0.51055460209E+03  0.12699999809E+01 0. -1.
</event>
<event>
 5   0  0.7577180E-06  0.1900063E+04  0.7818609E-02  0.8654825E-01
        2   -1    0    0  501    0  0.00000000000E+00  0.00000000000E+00  0.93206474006E+03  0.93206474006E+03  0.25500000920E-02 0.  1.
       -2   -1    0    0    0  501  0.00000000000E+00  0.00000000000E+00 -0.96834433476E+03  0.96834433476E+03  0.25500000920E-02 0. -1.
    10030    2    1    2    0    0  0.00000000000E+00  0.00000000000E+00 -0.36279594700E+02  0.19004090748E+04  0.19000627470E+04 0.  0.
        5    1    3    3  502    0  0.42461018030E+02 -0.44012582660E+03  0.82286056164E+03  0.93414949296E+03  0.46999998093E+01 0.  1.
       -5    1    3    3    0  502 -0.42461018030E+02  0.44012582660E+03 -0.85914015634E+03  0.96625958186E+03  0.46999998093E+01 0. -1.
</event>
<event>
 5   0  0.3398807E-06  0.1899437E+04  0.7818609E-02  0.8655136E-01
        1   -1    0    0  501    0  0.00000000000E+00  0.00000000000E+00  0.14089164344E+04  0.14089164345E+04  0.50400001928E-02 0.  1.
       -1   -1    0    0    0  501  0.00000000000E+00  0.00000000000E+00 -0.64018395006E+03  0.64018395008E+03  0.50400001928E-02 0. -1.
    10030    2    1    2    0    0  0.00000000000E+00  0.00000000000E+00  0.76873248439E+03  0.20491003845E+04  0.18994374834E+04 0.  0.
        1    1    3    3  502    0 -0.34377998706E+03  0.87953003762E+03  0.27537116168E+03  0.98366002424E+03  0.50400001928E-02 0. -1.
       -1    1    3    3    0  502  0.34377998706E+03 -0.87953003762E+03  0.49336132271E+03  0.10654403603E+04  0.50400001928E-02 0.  1.
</event>
<event>
 5   0  0.6870370E-06  0.1903894E+04  0.7818609E-02  0.8652920E-01
       -2   -1    0    0    0  501  0.00000000000E+00  0.00000000000E+00  0.77768948754E+03  0.77768948754E+03  0.25500000920E-02 0.  1.
        2   -1    0    0  501    0  0.00000000000E+00  0.00000000000E+00 -0.11652506994E+04  0.11652506994E+04  0.25500000920E-02 0. -1.
    10030    2    1    2    0    0  0.00000000000E+00  0.00000000000E+00 -0.38756121185E+03  0.19429401869E+04  0.19038941349E+04 0.  0.
        1    1    3    3  502    0 -0.16424167739E+03 -0.53399535345E+03 -0.98035164291E+03  0.11283686055E+04  0.50400001928E-02 0. -1.
       -1    1    3    3    0  502  0.16424167739E+03  0.53399535345E+03  0.59279043106E+03  0.81457158143E+03  0.50400001928E-02 0.  1.
</event>
<event>
 5   0  0.3495279E-06  0.1901252E+04  0.7818609E-02  0.8654233E-01
       -1   -1    0    0    0  501  0.00000000000E+00  0.00000000000E+00  0.68982491075E+03  0.68982491077E+03  0.50400001928E-02 0.  1.
        1   -1    0    0  501    0  0.00000000000E+00  0.00000000000E+00 -0.13100281932E+04  0.13100281932E+04  0.50400001928E-02 0. -1.
    10030    2    1    2    0    0  0.00000000000E+00  0.00000000000E+00 -0.62020328247E+03  0.19998531040E+04  0.19012523047E+04 0.  0.
        2    1    3    3  502    0 -0.87217433421E+03  0.25721283718E+03 -0.18518704561E+02  0.90949956310E+03  0.25500000920E-02 0.  1.
       -2    1    3    3    0  502  0.87217433421E+03 -0.25721283718E+03 -0.60168457791E+03  0.10903535409E+04  0.25500000920E-02 0. -1.
</event>
<event>
 5   0  0.3495279E-06  0.1899272E+04  0.7818609E-02  0.8655219E-01
       -1   -1    0    0    0  501  0.00000000000E+00  0.00000000000E+00  0.57960680551E+03  0.57960680553E+03  0.50400001928E-02 0. -1.
        1   -1    0    0  501    0  0.00000000000E+00  0.00000000000E+00 -0.15558977691E+04  0.15558977691E+04  0.50400001928E-02 0.  1.
    10030    2    1    2    0    0  0.00000000000E+00  0.00000000000E+00 -0.97629096356E+03  0.21355045746E+04  0.18992724246E+04 0.  0.
        2    1    3    3  502    0 -0.34266846547E+03 -0.79784240163E+03 -0.92046169623E+03  0.12653947642E+04  0.25500000920E-02 0.  1.
       -2    1    3    3    0  502  0.34266846547E+03  0.79784240163E+03 -0.55829267334E+02  0.87010981040E+03  0.25500000920E-02 0. -1.
</event>
<event>
 5   0  0.3236653E-06  0.1901253E+04  0.7818609E-02  0.8654233E-01
        1   -1    0    0  501    0  0.00000000000E+00  0.00000000000E+00  0.10743989955E+04  0.10743989956E+04  0.50400001928E-02 0.  1.
       -1   -1    0    0    0  501  0.00000000000E+00  0.00000000000E+00 -0.84111253762E+03  0.84111253764E+03  0.50400001928E-02 0. -1.
    10030    2    1    2    0    0  0.00000000000E+00  0.00000000000E+00  0.23328645792E+03  0.19155115332E+04  0.19012527087E+04 0.  0.
        3    1    3    3  502    0 -0.56136866785E+03 -0.71821878800E+03  0.38832733737E+03  0.99084365055E+03  0.10100000352E+00 0.  1.
       -3    1    3    3    0  502  0.56136866785E+03  0.71821878800E+03 -0.15504087945E+03  0.92466788264E+03  0.10100000352E+00 0. -1.
</event>
<event>
 5   0  0.3211263E-06  0.1900154E+04  0.7818609E-02  0.8654780E-01
       -1   -1    0    0    0  501  0.00000000000E+00  0.00000000000E+00  0.41876445174E+03  0.41876445177E+03  0.50400001928E-02 0. -1.
        1   -1    0    0  501    0  0.00000000000E+00  0.00000000000E+00 -0.21554978747E+04  0.21554978747E+04  0.50400001928E-02 0.  1.
    10030    2    1    2    0    0  0.00000000000E+00  0.00000000000E+00 -0.17367334229E+04  0.25742623264E+04  0.19001535577E+04 0.  0.
        5    1    3    3  502    0  0.78474532464E+03  0.11230802873E+03 -0.15777587763E+04  0.17657245437E+04  0.46999998093E+01 0.  1.
       -5    1    3    3    0  502 -0.78474532464E+03 -0.11230802873E+03 -0.15897464658E+03  0.80853778274E+03  0.46999998093E+01 0. -1.
</event>
<event>
 5   0  0.3379108E-06  0.1898668E+04  0.7818609E-02  0.8655520E-01
        1   -1    0    0  501    0  0.00000000000E+00  0.00000000000E+00  0.53808543433E+03  0.53808543435E+03  0.50400001928E-02 0. -1.
       -1   -1    0    0    0  501  0.00000000000E+00  0.00000000000E+00 -0.16748920380E+04  0.16748920380E+04  0.50400001928E-02 0.  1.
    10030    2    1    2    0    0  0.00000000000E+00  0.00000000000E+00 -0.11368066037E+04  0.22129774724E+04  0.18986679644E+04 0.  0.
        4    1    3    3  502    0 -0.89439027291E+03 -0.80833113332E+02 -0.92720374597E+03  0.12908045367E+04  0.12699999809E+01 0.  1.
       -4    1    3    3    0  502  0.89439027291E+03  0.80833113332E+02 -0.20960285774E+03  0.92217293571E+03  0.12699999809E+01 0. -1.
</event>
<event>
 5   0  0.7207648E-06  0.1899706E+04  0.7818609E-02  0.8655003E-01
       -2   -1    0    0    0  501  0.00000000000E+00  0.00000000000E+00  0.83456733142E+03  0.83456733143E+03  0.25500000920E-02 0.  1.
        2   -1    0    0  501    0  0.00000000000E+00  0.00000000000E+00 -0.10810637897E+04  0.10810637897E+04  0.25500000920E-02 0. -1.
    10030    2    1    2    0    0  0.00000000000E+00  0.00000000000E+00 -0.24649645826E+03  0.19156311211E+04  0.18997057899E+04 0.  0.
        4    1    3    3  502    0 -0.52877079911E+03  0.51760601493E+03 -0.72381154913E+03  0.10350938683E+04  0.12699999809E+01 0. -1.
       -4    1    3    3    0  502  0.52877079911E+03 -0.51760601493E+03  0.47731509088E+03  0.88053725279E+03  0.12699999809E+01 0.  1.
</event>
<event>
 5   0  0.6870370E-06  0.1899879E+04  0.7818609E-02  0.8654917E-01
        2   -1    0    0  501    0  0.00000000000E+00  0.00000000000E+00  0.80844949224E+03  0.80844949224E+03  0.25500000920E-02 0.  1.
       -2   -1    0    0    0  501  0.00000000000E+00  0.00000000000E+00 -0.11161922157E+04  0.11161922157E+04  0.25500000920E-02 0. -1.
    10030    2    1    2    0    0  0.00000000000E+00  0.00000000000E+00 -0.30774272348E+03  0.19246417080E+04  0.18998789751E+04 0.  0.
        1    1    3    3  502    0  0.73981924239E+03 -0.18772091725E+03 -0.72676271588E+03  0.10539239533E+04  0.50400001928E-02 0. -1.
       -1    1    3    3    0  502 -0.73981924239E+03  0.18772091725E+03  0.41901999240E+03  0.87071775464E+03  0.50400001928E-02 0.  1.
</event>
<event>
 5   0  0.7577180E-06  0.1900975E+04  0.7818609E-02  0.8654371E-01
       -2   -1    0    0    0  501  0.00000000000E+00  0.00000000000E+00  0.47995346483E+03  0.47995346484E+03  0.25500000920E-02 0.  1.
        2   -1    0    0  501    0  0.00000000000E+00  0.00000000000E+00 -0.18823216184E+04  0.18823216184E+04  0.25500000920E-02 0. -1.
    10030    2    1    2    0    0  0.00000000000E+00  0.00000000000E+00 -0.14023681536E+04  0.23622750833E+04  0.19009753104E+04 0.  0.
        5    1    3    3  502    0 -0.66444719258E+03 -0.59297053922E+03 -0.28847610981E+03  0.93613283675E+03  0.46999998093E+01 0.  1.
       -5    1    3    3    0  502  0.66444719258E+03  0.59297053922E+03 -0.11138920438E+04  0.14261422465E+04  0.46999998093E+01 0. -1.
</event>
<event>
 5   0  0.6984466E-06  0.1899810E+04  0.7818609E-02  0.8654951E-01
       -2   -1    0    0    0  501  0.00000000000E+00  0.00000000000E+00  0.65532616935E+03  0.65532616935E+03  0.25500000920E-02 0. -1.
        2   -1    0    0  501    0  0.00000000000E+00  0.00000000000E+00 -0.13769016069E+04  0.13769016069E+04  0.25500000920E-02 0.  1.
    10030    2    1    2    0    0  0.00000000000E+00  0.00000000000E+00 -0.72157543758E+03  0.20322277763E+04  0.18998101543E+04 0.  0.
        2    1    3    3  502    0 -0.50417989075E+03 -0.67250027391E+03  0.11262655176E+03  0.84802047193E+03  0.25500000920E-02 0. -1.
       -2    1    3    3    0  502  0.50417989075E+03  0.67250027391E+03 -0.83420198933E+03  0.11842073043E+04  0.25500000920E-02 0.  1.
</event>
<event>
 5   0  0.3495279E-06  0.1899869E+04  0.7818609E-02  0.8654922E-01
       -1   -1    0    0    0  501  0.00000000000E+00  0.00000000000E+00  0.71463898498E+03  0.71463898499E+03  0.50400001928E-02 0. -1.
        1   -1    0    0  501    0  0.00000000000E+00  0.00000000000E+00 -0.12627011825E+04  0.12627011825E+04  0.50400001928E-02 0.  1.
    10030    2    1    2    0    0  0.00000000000E+00  0.00000000000E+00 -0.54806219754E+03  0.19773401675E+04  0.18998689338E+04 0.  0.
        2    1    3    3  502    0 -0.16483400070E+03 -0.88776189014E+03 -0.58116454057E+03  0.10737986984E+04  0.25500000920E-02 0. -1.
       -2    1    3    3    0  502  0.16483400070E+03  0.88776189014E+03  0.33102343029E+02  0.90354146916E+03  0.25500000920E-02 0.  1.
</event>
<event>
 5   0  0.3398807E-06  0.1900732E+04  0.7818609E-02  0.8654492E-01
        1   -1    0    0  501    0  0.00000000000E+00  0.00000000000E+00  0.12749631986E+04  0.12749631986E+04  0.50400001928E-02 0. -1.
       -1   -1    0    0    0  501  0.00000000000E+00  0.00000000000E+00 -0.70840945513E+03  0.70840945515E+03  0.50400001928E-02 0.  1.
    10030    2    1    2    0    0  0.00000000000E+00  0.00000000000E+00  0.56655374345E+03  0.19833726537E+04  0.19007324744E+04 0.  0.
        1    1    3    3  502    0 -0.18625213557E+03  0.59036243601E+03  0.10357239234E+04  0.12066240962E+04  0.50400001928E-02 0. -1.
       -1    1    3    3    0  502  0.18625213557E+03 -0.59036243601E+03 -0.46917017999E+03  0.77674855756E+03  0.50400001928E-02 0.  1.
</event>
<event>
 5   0  0.7577180E-06  0.1899980E+04  0.7818609E-02  0.8654866E-01
        2   -1    0    0  501    0  0.00000000000E+00  0.00000000000E+00  0.18671169416E+04  0.18671169416E+04  0.25500000920E-02 0. -1.
       -2   -1    0    0    0  501  0.00000000000E+00  0.00000000000E+00 -0.48335561833E+03  0.48335561834E+03  0.25500000920E-02 0.  1.
    10030    2    1    2    0    0  0.00000000000E+00  0.00000000000E+00  0.13837613232E+04  0.23504725599E+04  0.18999804881E+04 0.  0.
        5    1    3    3  502    0 -0.16220648988E+03  0.84748731715E+03  0.20027608673E+03  0.88582069235E+03  0.46999998093E+01 0. -1.
       -5    1    3    3    0  502  0.16220648988E+03 -0.84748731715E+03  0.11834852365E+04  0.14646518676E+04  0.46999998093E+01 0.  1.
</event>
<event>
 5   0  0.6870370E-06  0.1900166E+04  0.7818609E-02  0.8654774E-01
       -2   -1    0    0    0  501  0.00000000000E+00  0.00000000000E+00  0.72645234461E+03  0.72645234461E+03  0.25500000920E-02 0. -1.
        2   -1    0    0  501    0  0.00000000000E+00  0.00000000000E+00 -0.12425558615E+04  0.12425558615E+04  0.25500000920E-02 0.  1.
    10030    2    1    2    0    0  0.00000000000E+00  0.00000000000E+00 -0.51610351690E+03  0.19690082061E+04  0.19001659074E+04 0.  0.
        1    1    3    3  502    0 -0.74996665801E+03 -0.13100817321E+03  0.33091010319E+03  0.83012928270E+03  0.50400001928E-02 0. -1.
       -1    1    3    3    0  502  0.74996665801E+03  0.13100817321E+03 -0.84701362009E+03  0.11388789234E+04  0.50400001928E-02 0.  1.
</event>
<event>
 5   0  0.3211263E-06  0.1901344E+04  0.7818609E-02  0.8654188E-01
       -1   -1    0    0    0  501  0.00000000000E+00  0.00000000000E+00  0.66628622703E+03  0.66628622705E+03  0.50400001928E-02 0.  1.
        1   -1    0    0  501    0  0.00000000000E+00  0.00000000000E+00 -0.13564404384E+04  0.13564404384E+04  0.50400001928E-02 0. -1.
    10030    2    1    2    0    0  0.00000000000E+00  0.00000000000E+00 -0.69015421137E+03  0.20227266655E+04  0.19013443475E+04 0.  0.
        5    1    3    3  502    0  0.57059051089E+03  0.53108758757E+03 -0.92399384993E+03  0.12088896896E+04  0.46999998093E+01 0. -1.
       -5    1    3    3    0  502 -0.57059051089E+03 -0.53108758757E+03  0.23383963856E+03  0.81383697591E+03  0.46999998093E+01 0.  1.
</event>
<event>
 5   0  0.3236653E-06  0.1899634E+04  0.7818609E-02  0.8655039E-01
        1   -1    0    0  501    0  0.00000000000E+00  0.00000000000E+00  0.23894662694E+04  0.23894662694E+04  0.50400001928E-02 0.  1.
       -1   -1    0    0    0  501  0.00000000000E+00  0.00000000000E+00 -0.37755380447E+03  0.37755380450E+03  0.50400001928E-02 0. -1.
    10030    2    1    2    0    0  0.00000000000E+00  0.00000000000E+00  0.20119124649E+04  0.27670200739E+04  0.18996337339E+04 0.  0.
        3    1    3    3  502    0  0.67184289294E+02  0.75552134499E+03  0.18386793645E+04  0.19889866885E+04  0.10100000352E+00 0.  1.
       -3    1    3    3    0  502 -0.67184289294E+02 -0.75552134499E+03  0.17323310039E+03  0.77803338536E+03  0.10100000352E+00 0. -1.
</event>
<event>
 5   0  0.7577180E-06  0.1900643E+04  0.7818609E-02  0.8654536E-01
        2   -1    0    0  501    0  0.00000000000E+00  0.00000000000E+00  0.10565361771E+04  0.10565361771E+04  0.25500000920E-02 0. -1.
       -2   -1    0    0    0  501  0.00000000000E+00  0.00000000000E+00 -0.85478476011E+03  0.85478476011E+03  0.25500000920E-02 0.  1.
    10030    2    1    2    0    0  0.00000000000E+00  0.00000000000E+00  0.20175141703E+03  0.19113209373E+04  0.19006430730E+04 0.  0.
        5    1    3    3  502    0 -0.85709388841E+03 -0.34383601999E+03 -0.12456176287E+03  0.93186418805E+03  0.46999998093E+01 0. -1.
       -5    1    3    3    0  502  0.85709388841E+03  0.34383601999E+03  0.32631317991E+03  0.97945674921E+03  0.46999998093E+01 0.  1.
</event>
<event>
 5   0  0.3236653E-06  0.1899465E+04  0.7818609E-02  0.8655123E-01
        1   -1    0    0  501    0  0.00000000000E+00  0.00000000000E+00  0.10538212431E+04  0.10538212431E+04  0.50400001928E-02 0.  1.
       -1   -1    0    0    0  501  0.00000000000E+00  0.00000000000E+00 -0.85592476125E+03  0.85592476127E+03  0.50400001928E-02 0. -1.
    10030    2    1    2    0    0  0.00000000000E+00  0.00000000000E+00  0.19789648184E+03  0.19097460044E+04  0.18994648677E+04 0.  0.
        3    1    3    3  502    0  0.31544476404E+03 -0.33725838113E+03  0.93334568691E+03  0.10413370234E+04  0.10100000352E+00 0.  1.
       -3    1    3    3    0  502 -0.31544476404E+03  0.33725838113E+03 -0.73544920507E+03  0.86840898098E+03  0.10100000352E+00 0. -1.
</event>
<event>
 5   0  0.7577180E-06  0.1900484E+04  0.7818609E-02  0.8654616E-01
        2   -1    0    0  501    0  0.00000000000E+00  0.00000000000E+00  0.10709712150E+04  0.10709712150E+04  0.25500000920E-02 0.  1.
       -2   -1    0    0    0  501  0.00000000000E+00  0.00000000000E+00 -0.84312207680E+03  0.84312207680E+03  0.25500000920E-02 0. -1.
    10030    2    1    2    0    0  0.00000000000E+00  0.00000000000E+00  0.22784913817E+03  0.19140932918E+04  0.19004835963E+04 0.  0.
        5    1    3    3  502    0 -0.43927262042E+03  0.26024958829E+02  0.96215499991E+03  0.10580179901E+04  0.46999998093E+01 0.  1.
       -5    1    3    3    0  502  0.43927262042E+03 -0.26024958829E+02 -0.73430586174E+03  0.85607530167E+03  0.46999998093E+01 0. -1.
</event>
<event>
 5   0  0.3495279E-06  0.1899218E+04  0.7818609E-02  0.8655246E-01
        1   -1    0    0  501    0  0.00000000000E+00  0.00000000000E+00  0.83827733955E+03  0.83827733957E+03  0.50400001928E-02 0. -1.
       -1   -1    0    0    0  501  0.00000000000E+00  0.00000000000E+00 -0.10757265043E+04  0.10757265043E+04  0.50400001928E-02 0.  1.
    10030    2    1    2    0    0  0.00000000000E+00  0.00000000000E+00 -0.23744916478E+03  0.19140038439E+04  0.18992178939E+04 0.  0.
        2    1    3    3  502    0 -0.61097874381E+03  0.62573149005E+03  0.25418624455E+03  0.91073902406E+03  0.25500000920E-02 0. -1.
       -2    1    3    3    0  502  0.61097874381E+03 -0.62573149005E+03 -0.49163540933E+03  0.10032648198E+04  0.25500000920E-02 0.  1.
</event>
<event>
 5   0  0.6870370E-06  0.1898190E+04  0.7818609E-02  0.8655758E-01
        2   -1    0    0  501    0  0.00000000000E+00  0.00000000000E+00  0.58832366479E+03  0.58832366479E+03  0.25500000920E-02 0. -1.
       -2   -1    0    0    0  501  0.00000000000E+00  0.00000000000E+00 -0.15310982948E+04  0.15310982948E+04  0.25500000920E-02 0.  1.
    10030    2    1    2    0    0  0.00000000000E+00  0.00000000000E+00 -0.94277462999E+03  0.21194219596E+04  0.18981900431E+04 0.  0.
        1    1    3    3  502    0 -0.24654499394E+03 -0.58528647934E+03  0.31610556242E+03  0.70941343626E+03  0.50400001928E-02 0. -1.
       -1    1    3    3    0  502  0.24654499394E+03  0.58528647934E+03 -0.12588801924E+04  0.14100085233E+04  0.50400001928E-02 0.  1.
</event>
<event>
 5   0  0.3495279E-06  0.1899415E+04  0.7818609E-02  0.8655148E-01
        1   -1    0    0  501    0  0.00000000000E+00  0.00000000000E+00  0.94474457088E+03  0.94474457089E+03  0.50400001928E-02 0.  1.
       -1   -1    0    0    0  501  0.00000000000E+00  0.00000000000E+00 -0.95469673139E+03  0.95469673140E+03  0.50400001928E-02 0. -1.
    10030    2    1    2    0    0  0.00000000000E+00  0.00000000000E+00 -0.99521605124E+01  0.18994413023E+04  0.18994152298E+04 0.  0.
        2    1    3    3  502    0  0.74060215622E+03  0.25799721342E+03  0.53065281553E+03  0.94691421288E+03  0.25500000920E-02 0.  1.
       -2    1    3    3    0  502 -0.74060215622E+03 -0.25799721342E+03 -0.54060497604E+03  0.95252708941E+03  0.25500000920E-02 0. -1.
</event>
<event>
 5   0  0.7207648E-06  0.1900057E+04  0.7818609E-02  0.8654828E-01
       -2   -1    0    0    0  501  0.00000000000E+00  0.00000000000E+00  0.63372787406E+03  0.63372787407E+03  0.25500000920E-02 0. -1.
        2   -1    0    0  501    0  0.00000000000E+00  0.00000000000E+00 -0.14241982605E+04  0.14241982605E+04  0.25500000920E-02 0.  1.
    10030    2    1    2    0    0  0.00000000000E+00  0.00000000000E+00 -0.79047038647E+03  0.20579261346E+04  0.19000569843E+04 0.  0.
        4    1    3    3  502    0 -0.59966468526E+03  0.41769400817E+03 -0.10527021784E+04  0.12815028320E+04  0.12699999809E+01 0.  1.
       -4    1    3    3    0  502  0.59966468526E+03 -0.41769400817E+03  0.26223179191E+03  0.77642330258E+03  0.12699999809E+01 0. -1.
</event>
<event>
 5   0  0.3379108E-06  0.1900509E+04  0.7818609E-02  0.8654603E-01
        1   -1    0    0  501    0  0.00000000000E+00  0.00000000000E+00  0.70560417871E+03  0.70560417873E+03  0.50400001928E-02 0.  1.
       -1   -1    0    0    0  501  0.00000000000E+00  0.00000000000E+00 -0.12797317693E+04  0.12797317693E+04  0.50400001928E-02 0. -1.
    10030    2    1    2    0    0  0.00000000000E+00  0.00000000000E+00 -0.57412759058E+03  0.19853359480E+04  0.19005094939E+04 0.  0.
        4    1    3    3  502    0  0.36089389210E+02 -0.72764691286E+03  0.35025683919E+03  0.80836497952E+03  0.12699999809E+01 0.  1.
       -4    1    3    3    0  502 -0.36089389210E+02  0.72764691286E+03 -0.92438442977E+03  0.11769709685E+04  0.12699999809E+01 0. -1.
</event>
<event>
 5   0  0.3495279E-06  0.1900426E+04  0.7818609E-02  0.8654644E-01
        1   -1    0    0  501    0  0.00000000000E+00  0.00000000000E+00  0.73869173584E+03  0.73869173586E+03  0.50400001928E-02 0. -1.
       -1   -1    0    0    0  501  0.00000000000E+00  0.00000000000E+00 -0.12223025872E+04  0.12223025872E+04  0.50400001928E-02 0.  1.
    10030    2    1    2    0    0  0.00000000000E+00  0.00000000000E+00 -0.48361085135E+03  0.19609943231E+04  0.19004260784E+04 0.  0.
        2    1    3    3  502    0  0.63868291180E+03 -0.18861613608E+03 -0.94120755995E+03  0.11529803032E+04  0.25500000920E-02 0.  1.
       -2    1    3    3    0  502 -0.63868291180E+03  0.18861613608E+03  0.45759670859E+03  0.80801401989E+03  0.25500000920E-02 0. -1.
</event>
<event>
 5   0  0.3211263E-06  0.1899711E+04  0.7818609E-02  0.8655000E-01
       -1   -1    0    0    0  501  0.00000000000E+00  0.00000000000E+00  0.65803568388E+03  0.65803568390E+03  0.50400001928E-02 0. -1.
        1   -1    0    0  501    0  0.00000000000E+00  0.00000000000E+00 -0.13710883021E+04  0.13710883021E+04  0.50400001928E-02 0.  1.
    10030    2    1    2    0    0  0.00000000000E+00  0.00000000000E+00 -0.71305261818E+03  0.20291239860E+04  0.18997105343E+04 0.  0.
        5    1    3    3  502    0  0.28479729217E+03  0.42105650638E+03  0.50050813955E+03  0.71339229527E+03  0.46999998093E+01 0. -1.
       -5    1    3    3    0  502 -0.28479729217E+03 -0.42105650638E+03 -0.12135607577E+04  0.13157316907E+04  0.46999998093E+01 0.  1.
</event>
<event>
 5   0  0.3495279E-06  0.1898710E+04  0.7818609E-02  0.8655499E-01
        1   -1    0    0  501    0  0.00000000000E+00  0.00000000000E+00  0.12551998383E+04  0.12551998383E+04  0.50400001928E-02 0.  1.
       -1   -1    0    0    0  501  0.00000000000E+00  0.00000000000E+00 -0.71803274877E+03  0.71803274879E+03  0.50400001928E-02 0. -1.
    10030    2    1    2    0    0  0.00000000000E+00  0.00000000000E+00  0.53716708955E+03  0.19732325871E+04  0.18987096568E+04 0.  0.
        2    1    3    3  502    0  0.49867247682E+02 -0.17629348965E+02 -0.71650034117E+03  0.71844991143E+03  0.25500000920E-02 0. -1.
       -2    1    3    3    0  502 -0.49867247682E+02  0.17629348965E+02  0.12536674307E+04  0.12547826757E+04  0.25500000920E-02 0.  1.
</event>
<event>
 5   0  0.3236653E-06  0.1900060E+04  0.7818609E-02  0.8654826E-01
       -1   -1    0    0    0  501  0.00000000000E+00  0.00000000000E+00  0.64576691613E+03  0.64576691615E+03  0.50400001928E-02 0. -1.
        1   -1    0    0  501    0  0.00000000000E+00  0.00000000000E+00 -0.13976515776E+04  0.13976515776E+04  0.50400001928E-02 0.  1.
    10030    2    1    2    0    0  0.00000000000E+00  0.00000000000E+00 -0.75188466143E+03  0.20434184937E+04  0.19000601560E+04 0.  0.
        3    1    3    3  502    0  0.15265006588E+03  0.93322744241E+03 -0.47416587757E+03  0.10578510252E+04  0.10100000352E+00 0.  1.
       -3    1    3    3    0  502 -0.15265006588E+03 -0.93322744241E+03 -0.27771878386E+03  0.98556746851E+03  0.10100000352E+00 0. -1.
</event>
<event>
 5   0  0.3211263E-06  0.1900098E+04  0.7818609E-02  0.8654808E-01
        1   -1    0    0  501    0  0.00000000000E+00  0.00000000000E+00  0.13787587871E+04  0.13787587871E+04  0.50400001928E-02 0. -1.
       -1   -1    0    0    0  501  0.00000000000E+00  0.00000000000E+00 -0.65464185892E+03  0.65464185894E+03  0.50400001928E-02 0.  1.
    10030    2    1    2    0    0  0.00000000000E+00  0.00000000000E+00  0.72411692820E+03  0.20334006461E+04  0.19000981190E+04 0.  0.
        5    1    3    3  502    0 -0.72878778173E+03 -0.60832760528E+03  0.32234690493E+03  0.10025585884E+04  0.46999998093E+01 0.  1.
       -5    1    3    3    0  502  0.72878778173E+03  0.60832760528E+03  0.40177002326E+03  0.10308420576E+04  0.46999998093E+01 0. -1.
</event>
<event>
 5   0  0.3211263E-06  0.1899949E+04  0.7818609E-02  0.8654882E-01
       -1   -1    0    0    0  501  0.00000000000E+00  0.00000000000E+00  0.14891705810E+04  0.14891705810E+04  0.50400001928E-02 0.  1.
        1   -1    0    0  501    0  0.00000000000E+00  0.00000000000E+00 -0.60600979947E+03  0.60600979949E+03  0.50400001928E-02 0. -1.
    10030    2    1    2    0    0  0.00000000000E+00  0.00000000000E+00  0.88316078155E+03  0.20951803805E+04  0.18999494364E+04 0.  0.
        5    1    3    3  502    0  0.40371889327E+03  0.65521338142E+03 -0.17254310704E+03  0.78872475158E+03  0.46999998093E+01 0. -1.
       -5    1    3    3    0  502 -0.40371889327E+03 -0.65521338142E+03  0.10557038886E+04  0.13064556289E+04  0.46999998093E+01 0.  1.
</event>
<event>
 5   0  0.3211263E-06  0.1900059E+04  0.7818609E-02  0.8654827E-01
       -1   -1    0    0    0  501  0.00000000000E+00  0.00000000000E+00  0.57266232438E+03  0.57266232440E+03  0.50400001928E-02 0. -1.
        1   -1    0    0  501    0  0.00000000000E+00  0.00000000000E+00 -0.15760694667E+04  0.15760694667E+04  0.50400001928E-02 0.  1.
    10030    2    1    2    0    0  0.00000000000E+00  0.00000000000E+00 -0.10034071423E+04  0.21487317911E+04  0.19000585298E+04 0.  0.
        5    1    3    3  502    0  0.43100836968E+03  0.16122795084E+03 -0.14416048283E+04  0.15132776473E+04  0.46999998093E+01 0.  1.
       -5    1    3    3    0  502 -0.43100836968E+03 -0.16122795084E+03  0.43819768598E+03  0.63545414379E+03  0.46999998093E+01 0. -1.
</event>
<event>
 5   0  0.7207648E-06  0.1899737E+04  0.7818609E-02  0.8654987E-01
       -2   -1    0    0    0  501  0.00000000000E+00  0.00000000000E+00  0.12037581333E+04  0.12037581333E+04  0.25500000920E-02 0.  1.
        2   -1    0    0  501    0  0.00000000000E+00  0.00000000000E+00 -0.74952785570E+03  0.74952785571E+03  0.25500000920E-02 0. -1.
    10030    2    1    2    0    0  0.00000000000E+00  0.00000000000E+00  0.45423027758E+03  0.19532859890E+04  0.18997370896E+04 0.  0.
        4    1    3    3  502    0  0.46327517515E+03 -0.82226182452E+03  0.11680521368E+03  0.95099078167E+03  0.12699999809E+01 0.  1.
       -4    1    3    3    0  502 -0.46327517515E+03  0.82226182452E+03  0.33742506390E+03  0.10022952073E+04  0.12699999809E+01 0. -1.
</event>
<event>
 5   0  0.3379108E-06  0.1910341E+04  0.7818609E-02  0.8649726E-01
       -1   -1    0    0    0  501  0.00000000000E+00  0.00000000000E+00  0.10709746303E+04  0.10709746303E+04  0.50400001928E-02 0.  1.
        1   -1    0    0  501    0  0.00000000000E+00  0.00000000000E+00 -0.85188841559E+03  0.85188841560E+03  0.50400001928E-02 0. -1.
    10030    2    1    2    0    0  0.00000000000E+00  0.00000000000E+00  0.21908621472E+03  0.19228630459E+04  0.19103412061E+04 0.  0.
        4    1    3    3  502    0 -0.16373295490E+03 -0.51276592018E+03  0.90377279699E+03  0.10519240709E+04  0.12699999809E+01 0. -1.
       -4    1    3    3    0  502  0.16373295490E+03  0.51276592018E+03 -0.68468658227E+03  0.87093897505E+03  0.12699999809E+01 0.  1.
</event>
<event>
 5   0  0.6862201E-06  0.1901215E+04  0.7818609E-02  0.8654252E-01
        2   -1    0    0  501    0  0.00000000000E+00  0.00000000000E+00  0.17004215025E+04  0.17004215025E+04  0.25500000920E-02 0.  1.
       -2   -1    0    0    0  501  0.00000000000E+00  0.00000000000E+00 -0.53142971087E+03  0.53142971087E+03  0.25500000920E-02 0. -1.
    10030    2    1    2    0    0  0.00000000000E+00  0.00000000000E+00  0.11689917917E+04  0.22318512134E+04  0.19012148826E+04 0.  0.
        3    1    3    3  502    0 -0.27919293277E+02  0.42121926764E+03 -0.41536038323E+03  0.59222412694E+03  0.10100000352E+00 0. -1.
       -3    1    3    3    0  502  0.27919293277E+02 -0.42121926764E+03  0.15843521749E+04  0.16396270865E+04  0.10100000352E+00 0.  1.
</event>
<event>
 5   0  0.6870370E-06  0.1900393E+04  0.7818609E-02  0.8654661E-01
       -2   -1    0    0    0  501  0.00000000000E+00  0.00000000000E+00  0.72224207211E+03  0.72224207212E+03  0.25500000920E-02 0.  1.
        2   -1    0    0  501    0  0.00000000000E+00  0.00000000000E+00 -0.12500977527E+04  0.12500977527E+04  0.25500000920E-02 0. -1.
    10030    2    1    2    0    0  0.00000000000E+00  0.00000000000E+00 -0.52785568056E+03  0.19723398248E+04  0.19003927923E+04 0.  0.
        1    1    3    3  502    0  0.25949057384E+01 -0.87259862974E+03 -0.65424851818E+03  0.10906311135E+04  0.50400001928E-02 0. -1.
       -1    1    3    3    0  502 -0.25949057384E+01  0.87259862974E+03  0.12639283762E+03  0.88170871130E+03  0.50400001928E-02 0.  1.
</event>
<event>
 5   0  0.3379108E-06  0.1898780E+04  0.7818609E-02  0.8655464E-01
       -1   -1    0    0    0  501  0.00000000000E+00  0.00000000000E+00  0.12160688773E+04  0.12160688773E+04  0.50400001928E-02 0. -1.
        1   -1    0    0  501    0  0.00000000000E+00  0.00000000000E+00 -0.74119306766E+03  0.74119306768E+03  0.50400001928E-02 0.  1.
    10030    2    1    2    0    0  0.00000000000E+00  0.00000000000E+00  0.47487580960E+03  0.19572619450E+04  0.18987804735E+04 0.  0.
        4    1    3    3  502    0  0.72264073104E+03  0.58635027157E+03  0.43702598174E+02  0.93162642573E+03  0.12699999809E+01 0. -1.
       -4    1    3    3    0  502 -0.72264073104E+03 -0.58635027157E+03  0.43117321143E+03  0.10256355192E+04  0.12699999809E+01 0.  1.
</event>
<event>
 5   0  0.6870370E-06  0.1899571E+04  0.7818609E-02  0.8655070E-01
        2   -1    0    0  501    0  0.00000000000E+00  0.00000000000E+00  0.12015842736E+04  0.12015842736E+04  0.25500000920E-02 0.  1.
       -2   -1    0    0    0  501  0.00000000000E+00  0.00000000000E+00 -0.75075270570E+03  0.75075270571E+03  0.25500000920E-02 0. -1.
    10030    2    1    2    0    0  0.00000000000E+00  0.00000000000E+00  0.45083156790E+03  0.19523369793E+04  0.18995711564E+04 0.  0.
        1    1    3    3  502    0  0.65091164670E+03  0.44553972013E+03 -0.31833696122E+03  0.85060568710E+03  0.50400001928E-02 0. -1.
       -1    1    3    3    0  502 -0.65091164670E+03 -0.44553972013E+03  0.76916852912E+03  0.11017312922E+04  0.50400001928E-02 0.  1.
</event>
<event>
 5   0  0.6862201E-06  0.1899516E+04  0.7818609E-02  0.8655097E-01
        2   -1    0    0  501    0  0.00000000000E+00  0.00000000000E+00  0.78065323871E+03  0.78065323872E+03  0.25500000920E-02 0. -1.
       -2   -1    0    0    0  501  0.00000000000E+00  0.00000000000E+00 -0.11554947281E+04  0.11554947281E+04  0.25500000920E-02 0.  1.
    10030    2    1    2    0    0  0.00000000000E+00  0.00000000000E+00 -0.37484148938E+03  0.19361479668E+04  0.18995164667E+04 0.  0.
        3    1    3    3  502    0  0.59788258265E+03 -0.24781353747E+03  0.52108514799E+03  0.83090605585E+03  0.10100000352E+00 0. -1.
       -3    1    3    3    0  502 -0.59788258265E+03  0.24781353747E+03 -0.89592663737E+03  0.11052419110E+04  0.10100000352E+00 0.  1.
</event>
<event>
 5   0  0.3495279E-06  0.1899203E+04  0.7818609E-02  0.8655253E-01
        1   -1    0    0  501    0  0.00000000000E+00  0.00000000000E+00  0.10657162621E+04  0.10657162621E+04  0.50400001928E-02 0. -1.
       -1   -1    0    0    0  501  0.00000000000E+00  0.00000000000E+00 -0.84613776297E+03  0.84613776298E+03  0.50400001928E-02 0.  1.
    10030    2    1    2    0    0  0.00000000000E+00  0.00000000000E+00  0.21957849915E+03  0.19118540251E+04  0.18992027527E+04 0.  0.
        2    1    3    3  502    0  0.31709953188E+03  0.21153169559E+02 -0.79101417682E+03  0.85246876637E+03  0.25500000920E-02 0.  1.
       -2    1    3    3    0  502 -0.31709953188E+03 -0.21153169559E+02  0.10105926760E+04  0.10593852587E+04  0.25500000920E-02 0. -1.
</event>
<event>
 5   0  0.6862201E-06  0.1896677E+04  0.7818609E-02  0.8656512E-01
       -2   -1    0    0    0  501  0.00000000000E+00  0.00000000000E+00  0.58608911051E+03  0.58608911052E+03  0.25500000920E-02 0. -1.
        2   -1    0    0  501    0  0.00000000000E+00  0.00000000000E+00 -0.15344862892E+04  0.15344862892E+04  0.25500000920E-02 0.  1.
    10030    2    1    2    0    0  0.00000000000E+00  0.00000000000E+00 -0.94839717869E+03  0.21205753997E+04  0.18966767825E+04 0.  0.
        3    1    3    3  502    0  0.90166278781E+01 -0.44680785027E+03  0.46097819072E+03  0.64204318948E+03  0.10100000352E+00 0. -1.
       -3    1    3    3    0  502 -0.90166278781E+01  0.44680785027E+03 -0.14093753694E+04  0.14785322102E+04  0.10100000352E+00 0.  1.
</event>
<event>
 5   0  0.3398807E-06  0.1899923E+04  0.7818609E-02  0.8654895E-01
        1   -1    0    0  501    0  0.00000000000E+00  0.00000000000E+00  0.11991511956E+04  0.11991511956E+04  0.50400001928E-02 0. -1.
       -1   -1    0    0    0  501  0.00000000000E+00  0.00000000000E+00 -0.75255441317E+03  0.75255441319E+03  0.50400001928E-02 0.  1.
    10030    2    1    2    0    0  0.00000000000E+00  0.00000000000E+00  0.44659678247E+03  0.19517056088E+04  0.18999226556E+04 0.  0.
        1    1    3    3  502    0 -0.86153923889E+03  0.14470414146E+02  0.63415848132E+03  0.10698673901E+04  0.50400001928E-02 0. -1.
       -1    1    3    3    0  502  0.86153923889E+03 -0.14470414146E+02 -0.18756169885E+03  0.88183821869E+03  0.50400001928E-02 0.  1.
</event>
<event>
 5   0  0.3495279E-06  0.1899542E+04  0.7818609E-02  0.8655084E-01
       -1   -1    0    0    0  501  0.00000000000E+00  0.00000000000E+00  0.51549655210E+03  0.51549655212E+03  0.50400001928E-02 0.  1.
        1   -1    0    0  501    0  0.00000000000E+00  0.00000000000E+00 -0.17498953629E+04  0.17498953629E+04  0.50400001928E-02 0. -1.
    10030    2    1    2    0    0  0.00000000000E+00  0.00000000000E+00 -0.12343988108E+04  0.22653919150E+04  0.18995420776E+04 0.  0.
        2    1    3    3  502    0  0.35658844503E+03 -0.11929140275E+03  0.42294878535E+03  0.56592528918E+03  0.25500000920E-02 0.  1.
       -2    1    3    3    0  502 -0.35658844503E+03  0.11929140275E+03 -0.16573475961E+04  0.16994666258E+04  0.25500000920E-02 0. -1.
</event>
<event>
 5   0  0.3398807E-06  0.1900106E+04  0.7818609E-02  0.8654804E-01
        1   -1    0    0  501    0  0.00000000000E+00  0.00000000000E+00  0.11437183061E+04  0.11437183062E+04  0.50400001928E-02 0.  1.
       -1   -1    0    0    0  501  0.00000000000E+00  0.00000000000E+00 -0.78918082100E+03  0.78918082102E+03  0.50400001928E-02 0. -1.
    10030    2    1    2    0    0  0.00000000000E+00  0.00000000000E+00  0.35453748515E+03  0.19328991272E+04  0.19001058411E+04 0.  0.
        1    1    3    3  502    0 -0.70367367651E+03  0.54044765890E+03  0.52277782358E+03  0.10298237557E+04  0.50400001928E-02 0.  1.
       -1    1    3    3    0  502  0.70367367651E+03 -0.54044765890E+03 -0.16824033843E+03  0.90307537145E+03  0.50400001928E-02 0. -1.
</event>
<event>
 5   0  0.6870370E-06  0.1899916E+04  0.7818609E-02  0.8654898E-01
       -2   -1    0    0    0  501  0.00000000000E+00  0.00000000000E+00  0.98992736440E+03  0.98992736440E+03  0.25500000920E-02 0.  1.
        2   -1    0    0  501    0  0.00000000000E+00  0.00000000000E+00 -0.91160228858E+03  0.91160228858E+03  0.25500000920E-02 0. -1.
    10030    2    1    2    0    0  0.00000000000E+00  0.00000000000E+00  0.78325075820E+02  0.19015296530E+04  0.18999158412E+04 0.  0.
        1    1    3    3  502    0  0.61496100237E+03 -0.69544181422E+03  0.24083729425E+03  0.95907192313E+03  0.50400001928E-02 0. -1.
       -1    1    3    3    0  502 -0.61496100237E+03  0.69544181422E+03 -0.16251221843E+03  0.94245772986E+03  0.50400001928E-02 0.  1.
</event>
<event>
 5   0  0.3398807E-06  0.1902067E+04  0.7818609E-02  0.8653828E-01
       -1   -1    0    0    0  501  0.00000000000E+00  0.00000000000E+00  0.35718354754E+03  0.35718354758E+03  0.50400001928E-02 0.  1.
        1   -1    0    0  501    0  0.00000000000E+00  0.00000000000E+00 -0.25322134372E+04  0.25322134372E+04  0.50400001928E-02 0. -1.
    10030    2    1    2    0    0  0.00000000000E+00  0.00000000000E+00 -0.21750298896E+04  0.28893969848E+04  0.19020672740E+04 0.  0.
        1    1    3    3  502    0  0.35778922799E+03  0.69535832043E+01 -0.24260356163E+04  0.24522867483E+04  0.50400001928E-02 0. -1.
       -1    1    3    3    0  502 -0.35778922799E+03 -0.69535832043E+01  0.25100572670E+03  0.43711023649E+03  0.50400001928E-02 0.  1.
</event>
<event>
 5   0  0.3379108E-06  0.1894392E+04  0.7818609E-02  0.8657653E-01
        1   -1    0    0  501    0  0.00000000000E+00  0.00000000000E+00  0.12711882306E+04  0.12711882306E+04  0.50400001928E-02 0. -1.
       -1   -1    0    0    0  501  0.00000000000E+00  0.00000000000E+00 -0.70578061774E+03  0.70578061775E+03  0.50400001928E-02 0.  1.
    10030    2    1    2    0    0  0.00000000000E+00  0.00000000000E+00  0.56540761290E+03  0.19769688484E+04  0.18943917385E+04 0.  0.
        4    1    3    3  502    0 -0.77148621189E+03  0.41966174089E+03 -0.87544987413E+02  0.88259429503E+03  0.12699999809E+01 0. -1.
       -4    1    3    3    0  502  0.77148621189E+03 -0.41966174089E+03  0.65295260031E+03  0.10943745534E+04  0.12699999809E+01 0.  1.
</event>
<event>
 5   0  0.6984466E-06  0.1900352E+04  0.7818609E-02  0.8654681E-01
        2   -1    0    0  501    0  0.00000000000E+00  0.00000000000E+00  0.13190450132E+04  0.13190450132E+04  0.25500000920E-02 0.  1.
       -2   -1    0    0    0  501  0.00000000000E+00  0.00000000000E+00 -0.68446035143E+03  0.68446035143E+03  0.25500000920E-02 0. -1.
    10030    2    1    2    0    0  0.00000000000E+00  0.00000000000E+00  0.63458466175E+03  0.20035053646E+04  0.19003515604E+04 0.  0.
        2    1    3    3  502    0  0.52575974769E+03 -0.11065297178E+03 -0.50893520085E+03  0.74005569461E+03  0.25500000920E-02 0. -1.
       -2    1    3    3    0  502 -0.52575974769E+03  0.11065297178E+03  0.11435198626E+04  0.12634496700E+04  0.25500000920E-02 0.  1.
</event>
<event>
 5   0  0.6984466E-06  0.1902021E+04  0.7818609E-02  0.8653851E-01
        2   -1    0    0  501    0  0.00000000000E+00  0.00000000000E+00  0.11085333488E+04  0.11085333488E+04  0.25500000920E-02 0.  1.
       -2   -1    0    0    0  501  0.00000000000E+00  0.00000000000E+00 -0.81587188647E+03  0.81587188647E+03  0.25500000920E-02 0. -1.
    10030    2    1    2    0    0  0.00000000000E+00  0.00000000000E+00  0.29266146236E+03  0.19244052353E+04  0.19020212349E+04 0.  0.
        2    1    3    3  502    0 -0.25082944306E+03 -0.87107395517E+03 -0.14469292764E+03  0.91794405505E+03  0.25500000920E-02 0. -1.
       -2    1    3    3    0  502  0.25082944306E+03  0.87107395517E+03  0.43735439000E+03  0.10064611803E+04  0.25500000920E-02 0.  1.
</event>
<event>
 5   0  0.2527750E-06  0.1900254E+04  0.7818609E-02  0.8654730E-01
       -4   -1    0    0    0  501  0.00000000000E+00  0.00000000000E+00  0.20871690638E+04  0.20871694502E+04  0.12699999809E+01 0. -1.
        4   -1    0    0  501    0  0.00000000000E+00  0.00000000000E+00 -0.43251818567E+03  0.43252005021E+03  0.12699999809E+01 0.  1.
    10030    2    1    2    0    0  0.00000000000E+00  0.00000000000E+00  0.16546508781E+04  0.25196895004E+04  0.19002541014E+04 0.  0.
        1    1    3    3  502    0  0.42539284908E+03 -0.52849337128E+03  0.17093501321E+04  0.18390601387E+04  0.50400001928E-02 0. -1.
       -1    1    3    3    0  502 -0.42539284908E+03  0.52849337128E+03 -0.54699254018E+02  0.68062936166E+03  0.50400001928E-02 0.  1.
</event>
<event>
 5   0  0.6870370E-06  0.1900257E+04  0.7818609E-02  0.8654729E-01
       -2   -1    0    0    0  501  0.00000000000E+00  0.00000000000E+00  0.59932126955E+03  0.59932126956E+03  0.25500000920E-02 0. -1.
        2   -1    0    0  501    0  0.00000000000E+00  0.00000000000E+00 -0.15062769141E+04  0.15062769141E+04  0.25500000920E-02 0.  1.
    10030    2    1    2    0    0  0.00000000000E+00  0.00000000000E+00 -0.90695564458E+03  0.21055981837E+04  0.19002566063E+04 0.  0.
        1    1    3    3  502    0  0.68371538283E+02  0.90239940178E+03 -0.77413521007E+03  0.11909175753E+04  0.50400001928E-02 0.  1.
       -1    1    3    3    0  502 -0.68371538283E+02 -0.90239940178E+03 -0.13282043451E+03  0.91468060843E+03  0.50400001928E-02 0. -1.
</event>
<event>
 5   0  0.3236653E-06  0.1899894E+04  0.7818609E-02  0.8654909E-01
        1   -1    0    0  501    0  0.00000000000E+00  0.00000000000E+00  0.51858862876E+03  0.51858862878E+03  0.50400001928E-02 0. -1.
       -1   -1    0    0    0  501  0.00000000000E+00  0.00000000000E+00 -0.17401054433E+04  0.17401054433E+04  0.50400001928E-02 0.  1.
    10030    2    1    2    0    0  0.00000000000E+00  0.00000000000E+00 -0.12215168145E+04  0.22586940721E+04  0.18998935715E+04 0.  0.
        3    1    3    3  502    0 -0.59499162682E+03  0.43826631094E+03  0.98884727115E+02  0.74556729726E+03  0.10100000352E+00 0. -1.
       -3    1    3    3    0  502  0.59499162682E+03 -0.43826631094E+03 -0.13204015416E+04  0.15131267748E+04  0.10100000352E+00 0.  1.
</event>
<event>
 5   0  0.7207648E-06  0.1900134E+04  0.7818609E-02  0.8654790E-01
        2   -1    0    0  501    0  0.00000000000E+00  0.00000000000E+00  0.27786578625E+04  0.27786578625E+04  0.25500000920E-02 0.  1.
       -2   -1    0    0    0  501  0.00000000000E+00  0.00000000000E+00 -0.32484302642E+03  0.32484302643E+03  0.25500000920E-02 0. -1.
    10030    2    1    2    0    0  0.00000000000E+00  0.00000000000E+00  0.24538148361E+04  0.31035008889E+04  0.19001343421E+04 0.  0.
        4    1    3    3  502    0  0.20146674848E+03 -0.43346304140E+03 -0.11414222942E+03  0.49143577448E+03  0.12699999809E+01 0. -1.
       -4    1    3    3    0  502 -0.20146674848E+03  0.43346304140E+03  0.25679570655E+04  0.26120651145E+04  0.12699999809E+01 0.  1.
</event>
<event>
 5   0  0.7577180E-06  0.1900169E+04  0.7818609E-02  0.8654772E-01
       -2   -1    0    0    0  501  0.00000000000E+00  0.00000000000E+00  0.37093397018E+03  0.37093397019E+03  0.25500000920E-02 0. -1.
        2   -1    0    0  501    0  0.00000000000E+00  0.00000000000E+00 -0.24334795720E+04  0.24334795720E+04  0.25500000920E-02 0.  1.
    10030    2    1    2    0    0  0.00000000000E+00  0.00000000000E+00 -0.20625456018E+04  0.28044135421E+04  0.19001686651E+04 0.  0.
        5    1    3    3  502    0  0.11483804785E+03  0.54551856057E+03  0.10415454961E+03  0.56714066806E+03  0.46999998093E+01 0. -1.
       -5    1    3    3    0  502 -0.11483804785E+03 -0.54551856057E+03 -0.21667001514E+04  0.22372728741E+04  0.46999998093E+01 0.  1.
</event>
<event>
 5   0  0.6862201E-06  0.1900100E+04  0.7818609E-02  0.8654807E-01
       -2   -1    0    0    0  501  0.00000000000E+00  0.00000000000E+00  0.49148555245E+03  0.49148555246E+03  0.25500000920E-02 0.  1.
        2   -1    0    0  501    0  0.00000000000E+00  0.00000000000E+00 -0.18364620999E+04  0.18364620999E+04  0.25500000920E-02 0. -1.
    10030    2    1    2    0    0  0.00000000000E+00  0.00000000000E+00 -0.13449765474E+04  0.23279476523E+04  0.19000995655E+04 0.  0.
        3    1    3    3  502    0 -0.62882446542E+03  0.68430518095E+03 -0.43084424647E+03  0.10243634921E+04  0.10100000352E+00 0.  1.
       -3    1    3    3    0  502  0.62882446542E+03 -0.68430518095E+03 -0.91413230094E+03  0.13035841602E+04  0.10100000352E+00 0. -1.
</event>
<event>
 5   0  0.3398807E-06  0.1899472E+04  0.7818609E-02  0.8655119E-01
        1   -1    0    0  501    0  0.00000000000E+00  0.00000000000E+00  0.69607572512E+03  0.69607572514E+03  0.50400001928E-02 0.  1.
       -1   -1    0    0    0  501  0.00000000000E+00  0.00000000000E+00 -0.12958335933E+04  0.12958335933E+04  0.50400001928E-02 0. -1.
    10030    2    1    2    0    0  0.00000000000E+00  0.00000000000E+00 -0.59975786818E+03  0.19919093185E+04  0.18994718299E+04 0.  0.
        1    1    3    3  502    0 -0.53404334387E+03 -0.46240859472E+03 -0.96557407120E+03  0.11963934506E+04  0.50400001928E-02 0. -1.
       -1    1    3    3    0  502  0.53404334387E+03  0.46240859472E+03  0.36581620302E+03  0.79551586786E+03  0.50400001928E-02 0.  1.
</event>
<event>
 5   0  0.3495279E-06  0.1900277E+04  0.7818609E-02  0.8654718E-01
        1   -1    0    0  501    0  0.00000000000E+00  0.00000000000E+00  0.20046117857E+04  0.20046117857E+04  0.50400001928E-02 0.  1.
       -1   -1    0    0    0  501  0.00000000000E+00  0.00000000000E+00 -0.45034333276E+03  0.45034333279E+03  0.50400001928E-02 0. -1.
    10030    2    1    2    0    0  0.00000000000E+00  0.00000000000E+00  0.15542684529E+04  0.24549551185E+04  0.19002774034E+04 0.  0.
        2    1    3    3  502    0  0.11355342852E+03 -0.70908726062E+03  0.15808790392E+04  0.17363403068E+04  0.25500000920E-02 0.  1.
       -2    1    3    3    0  502 -0.11355342852E+03  0.70908726062E+03 -0.26610586279E+02  0.71861481172E+03  0.25500000920E-02 0. -1.
</event>
<event>
 5   0  0.3495279E-06  0.1899473E+04  0.7818609E-02  0.8655119E-01
       -1   -1    0    0    0  501  0.00000000000E+00  0.00000000000E+00  0.54944262656E+03  0.54944262659E+03  0.50400001928E-02 0. -1.
        1   -1    0    0  501    0  0.00000000000E+00  0.00000000000E+00 -0.16416630388E+04  0.16416630388E+04  0.50400001928E-02 0.  1.
    10030    2    1    2    0    0  0.00000000000E+00  0.00000000000E+00 -0.10922204122E+04  0.21911056654E+04  0.18994732449E+04 0.  0.
        2    1    3    3  502    0 -0.35623533158E+02 -0.40680921976E+03 -0.15352183582E+04  0.15886025886E+04  0.25500000920E-02 0.  1.
       -2    1    3    3    0  502  0.35623533158E+02  0.40680921976E+03  0.44299794593E+03  0.60250307675E+03  0.25500000920E-02 0. -1.
</event>
<event>
 5   0  0.6984466E-06  0.1899443E+04  0.7818609E-02  0.8655134E-01
        2   -1    0    0  501    0  0.00000000000E+00  0.00000000000E+00  0.17135375294E+04  0.17135375294E+04  0.25500000920E-02 0.  1.
       -2   -1    0    0    0  501  0.00000000000E+00  0.00000000000E+00 -0.52637928116E+03  0.52637928117E+03  0.25500000920E-02 0. -1.
    10030    2    1    2    0    0  0.00000000000E+00  0.00000000000E+00  0.11871582482E+04  0.22399168105E+04  0.18994427109E+04 0.  0.
        2    1    3    3  502    0  0.62040920901E+03  0.33565488457E+03  0.13434917294E+04  0.15174128690E+04  0.25500000920E-02 0.  1.
       -2    1    3    3    0  502 -0.62040920901E+03 -0.33565488457E+03 -0.15633348117E+03  0.72250394152E+03  0.25500000920E-02 0. -1.
</event>
<event>
 5   0  0.7207648E-06  0.1899723E+04  0.7818609E-02  0.8654994E-01
        2   -1    0    0  501    0  0.00000000000E+00  0.00000000000E+00  0.75637036996E+03  0.75637036996E+03  0.25500000920E-02 0.  1.
       -2   -1    0    0    0  501  0.00000000000E+00  0.00000000000E+00 -0.11928502958E+04  0.11928502958E+04  0.25500000920E-02 0. -1.
    10030    2    1    2    0    0  0.00000000000E+00  0.00000000000E+00 -0.43647992585E+03  0.19492206658E+04  0.18997227372E+04 0.  0.
        4    1    3    3  502    0 -0.36857907609E+03 -0.58050406392E+03  0.45411955205E+03  0.82405199109E+03  0.12699999809E+01 0.  1.
       -4    1    3    3    0  502  0.36857907609E+03  0.58050406392E+03 -0.89059947790E+03  0.11251686747E+04  0.12699999809E+01 0. -1.
</event>
<event>
 5   0  0.7577180E-06  0.1900820E+04  0.7818609E-02  0.8654448E-01
        2   -1    0    0  501    0  0.00000000000E+00  0.00000000000E+00  0.20107044398E+04  0.20107044398E+04  0.25500000920E-02 0.  1.
       -2   -1    0    0    0  501  0.00000000000E+00  0.00000000000E+00 -0.44923513892E+03  0.44923513893E+03  0.25500000920E-02 0. -1.
    10030    2    1    2    0    0  0.00000000000E+00  0.00000000000E+00  0.15614693008E+04  0.24599395787E+04  0.19008199161E+04 0.  0.
        5    1    3    3  502    0 -0.19018157395E+03  0.10402067276E+03 -0.41680041481E+03  0.46982337875E+03  0.46999998093E+01 0. -1.
       -5    1    3    3    0  502  0.19018157395E+03 -0.10402067276E+03  0.19782697156E+04  0.19901161999E+04  0.46999998093E+01 0.  1.
</event>
<event>
 5   0  0.3398807E-06  0.1900121E+04  0.7818609E-02  0.8654796E-01
        1   -1    0    0  501    0  0.00000000000E+00  0.00000000000E+00  0.13043639602E+04  0.13043639602E+04  0.50400001928E-02 0.  1.
       -1   -1    0    0    0  501  0.00000000000E+00  0.00000000000E+00 -0.69199639586E+03  0.69199639588E+03  0.50400001928E-02 0. -1.
    10030    2    1    2    0    0  0.00000000000E+00  0.00000000000E+00  0.61236756437E+03  0.19963603561E+04  0.19001212166E+04 0.  0.
        1    1    3    3  502    0 -0.29690400491E+03 -0.29564479018E+03 -0.58967995626E+03  0.72338114499E+03  0.50400001928E-02 0. -1.
       -1    1    3    3    0  502  0.29690400491E+03  0.29564479018E+03  0.12020475206E+04  0.12729792111E+04  0.50400001928E-02 0.  1.
</event>
<event>
 5   0  0.3379108E-06  0.1900438E+04  0.7818609E-02  0.8654638E-01
       -1   -1    0    0    0  501  0.00000000000E+00  0.00000000000E+00  0.14652460778E+04  0.14652460779E+04  0.50400001928E-02 0.  1.
        1   -1    0    0  501    0  0.00000000000E+00  0.00000000000E+00 -0.61622171171E+03  0.61622171173E+03  0.50400001928E-02 0. -1.
    10030    2    1    2    0    0  0.00000000000E+00  0.00000000000E+00  0.84902436614E+03  0.20814677896E+04  0.19004383139E+04 0.  0.
        4    1    3    3  502    0  0.34474526430E+03 -0.44926178824E+03 -0.41121201302E+03  0.69984454287E+03  0.12699999809E+01 0. -1.
       -4    1    3    3    0  502 -0.34474526430E+03  0.44926178824E+03  0.12602363792E+04  0.13816232467E+04  0.12699999809E+01 0.  1.
</event>
<event>
 5   0  0.6984466E-06  0.1900186E+04  0.7818609E-02  0.8654764E-01
       -2   -1    0    0    0  501  0.00000000000E+00  0.00000000000E+00  0.61553246542E+03  0.61553246542E+03  0.25500000920E-02 0.  1.
        2   -1    0    0  501    0  0.00000000000E+00  0.00000000000E+00 -0.14664970344E+04  0.14664970344E+04  0.25500000920E-02 0. -1.
    10030    2    1    2    0    0  0.00000000000E+00  0.00000000000E+00 -0.85096456893E+03  0.20820294998E+04  0.19001858173E+04 0.  0.
        2    1    3    3  502    0  0.70924073810E+03 -0.57857156537E+03 -0.70463602206E+03  0.11551101265E+04  0.25500000920E-02 0. -1.
       -2    1    3    3    0  502 -0.70924073810E+03  0.57857156537E+03 -0.14632854687E+03  0.92691937323E+03  0.25500000920E-02 0.  1.
</event>
<event>
 5   0  0.6870370E-06  0.1898913E+04  0.7818609E-02  0.8655398E-01
        2   -1    0    0  501    0  0.00000000000E+00  0.00000000000E+00  0.13100114938E+04  0.13100114938E+04  0.25500000920E-02 0.  1.
       -2   -1    0    0    0  501  0.00000000000E+00  0.00000000000E+00 -0.68813693057E+03  0.68813693058E+03  0.25500000920E-02 0. -1.
    10030    2    1    2    0    0  0.00000000000E+00  0.00000000000E+00  0.62187456320E+03  0.19981484244E+04  0.18989126239E+04 0.  0.
        1    1    3    3  502    0 -0.72956452370E+03 -0.59554163316E+03  0.43779043144E+03  0.10385541358E+04  0.50400001928E-02 0.  1.
       -1    1    3    3    0  502  0.72956452370E+03  0.59554163316E+03  0.18408413176E+03  0.95959428857E+03  0.50400001928E-02 0. -1.
</event>
<event>
 5   0  0.6870370E-06  0.1896214E+04  0.7818609E-02  0.8656743E-01
       -2   -1    0    0    0  501  0.00000000000E+00  0.00000000000E+00  0.64839274717E+03  0.64839274717E+03  0.25500000920E-02 0. -1.
        2   -1    0    0  501    0  0.00000000000E+00  0.00000000000E+00 -0.13863620450E+04  0.13863620450E+04  0.25500000920E-02 0.  1.
    10030    2    1    2    0    0  0.00000000000E+00  0.00000000000E+00 -0.73796929781E+03  0.20347547922E+04  0.18962142230E+04 0.  0.
        1    1    3    3  502    0 -0.91243845946E+02 -0.94369857979E+03 -0.37309126190E+03  0.10188667914E+04  0.50400001928E-02 0. -1.
       -1    1    3    3    0  502  0.91243845946E+02  0.94369857979E+03 -0.36487803591E+03  0.10158880007E+04  0.50400001928E-02 0.  1.
</event>
<event>
 5   0  0.3495279E-06  0.1900621E+04  0.7818609E-02  0.8654547E-01
       -1   -1    0    0    0  501  0.00000000000E+00  0.00000000000E+00  0.94112959721E+03  0.94112959723E+03  0.50400001928E-02 0.  1.
        1   -1    0    0  501    0  0.00000000000E+00  0.00000000000E+00 -0.95958126722E+03  0.95958126723E+03  0.50400001928E-02 0. -1.
    10030    2    1    2    0    0  0.00000000000E+00  0.00000000000E+00 -0.18451670004E+02  0.19007108645E+04  0.19006213000E+04 0.  0.
        2    1    3    3  502    0 -0.66982737216E+03  0.52181118673E+03  0.41756670779E+03  0.94621222702E+03  0.25500000920E-02 0.  1.
       -2    1    3    3    0  502  0.66982737216E+03 -0.52181118673E+03 -0.43601837780E+03  0.95449863744E+03  0.25500000920E-02 0. -1.
</event>
<event>
 5   0  0.7577180E-06  0.1902892E+04  0.7818609E-02  0.8653418E-01
        2   -1    0    0  501    0  0.00000000000E+00  0.00000000000E+00  0.97905755065E+03  0.97905755066E+03  0.25500000920E-02 0. -1.
       -2   -1    0    0    0  501  0.00000000000E+00  0.00000000000E+00 -0.92461356662E+03  0.92461356663E+03  0.25500000920E-02 0.  1.
    10030    2    1    2    0    0  0.00000000000E+00  0.00000000000E+00  0.54443984033E+02  0.19036711173E+04  0.19028924235E+04 0.  0.
        5    1    3    3  502    0  0.81858832038E+03  0.48116114602E+03  0.87453914697E+02  0.95355815968E+03  0.46999998093E+01 0.  1.
       -5    1    3    3    0  502 -0.81858832038E+03 -0.48116114602E+03 -0.33009930663E+02  0.95011295761E+03  0.46999998093E+01 0. -1.
</event>
<event>
 5   0  0.3379108E-06  0.1900799E+04  0.7818609E-02  0.8654459E-01
        1   -1    0    0  501    0  0.00000000000E+00  0.00000000000E+00  0.51985204880E+03  0.51985204883E+03  0.50400001928E-02 0. -1.
       -1   -1    0    0    0  501  0.00000000000E+00  0.00000000000E+00 -0.17375307424E+04  0.17375307424E+04  0.50400001928E-02 0.  1.
    10030    2    1    2    0    0  0.00000000000E+00  0.00000000000E+00 -0.12176786936E+04  0.22573827913E+04  0.19007986914E+04 0.  0.
        4    1    3    3  502    0 -0.30647377543E+03 -0.87088496733E+03 -0.87674843947E+03  0.12732070689E+04  0.12699999809E+01 0.  1.
       -4    1    3    3    0  502  0.30647377543E+03  0.87088496733E+03 -0.34093025414E+03  0.98417572233E+03  0.12699999809E+01 0. -1.
</event>
<event>
 5   0  0.3398807E-06  0.1900101E+04  0.7818609E-02  0.8654806E-01
        1   -1    0    0  501    0  0.00000000000E+00  0.00000000000E+00  0.16796581285E+04  0.16796581285E+04  0.50400001928E-02 0. -1.
       -1   -1    0    0    0  501  0.00000000000E+00  0.00000000000E+00 -0.53736910204E+03  0.53736910207E+03  0.50400001928E-02 0.  1.
    10030    2    1    2    0    0  0.00000000000E+00  0.00000000000E+00  0.11422890265E+04  0.22170272306E+04  0.19001014502E+04 0.  0.
        1    1    3    3  502    0 -0.11446367642E+03  0.48534105520E+03 -0.37240065218E+03  0.62236654702E+03  0.50400001928E-02 0.  1.
       -1    1    3    3    0  502  0.11446367642E+03 -0.48534105520E+03  0.15146896786E+04  0.15946606836E+04  0.50400001928E-02 0. -1.
</event>
<event>
 5   0  0.3398807E-06  0.1902337E+04  0.7818609E-02  0.8653694E-01
       -1   -1    0    0    0  501  0.00000000000E+00  0.00000000000E+00  0.81469706137E+03  0.81469706139E+03  0.50400001928E-02 0. -1.
        1   -1    0    0  501    0  0.00000000000E+00  0.00000000000E+00 -0.11105006426E+04  0.11105006426E+04  0.50400001928E-02 0.  1.
    10030    2    1    2    0    0  0.00000000000E+00  0.00000000000E+00 -0.29580358121E+03  0.19251977040E+04  0.19023370997E+04 0.  0.
        1    1    3    3  502    0 -0.31086766022E+03 -0.24132870960E+02  0.76150723624E+03  0.82286959387E+03  0.50400001928E-02 0. -1.
       -1    1    3    3    0  502  0.31086766022E+03  0.24132870960E+02 -0.10573108174E+04  0.11023281101E+04  0.50400001928E-02 0.  1.
</event>
<event>
 5   0  0.3495279E-06  0.1899940E+04  0.7818609E-02  0.8654886E-01
       -1   -1    0    0    0  501  0.00000000000E+00  0.00000000000E+00  0.61950783541E+03  0.61950783544E+03  0.50400001928E-02 0.  1.
        1   -1    0    0  501    0  0.00000000000E+00  0.00000000000E+00 -0.14567095243E+04  0.14567095243E+04  0.50400001928E-02 0. -1.
    10030    2    1    2    0    0  0.00000000000E+00  0.00000000000E+00 -0.83720168886E+03  0.20762173597E+04  0.18999399614E+04 0.  0.
        2    1    3    3  502    0 -0.62024301882E+03 -0.31412910431E+03 -0.11260143713E+04  0.13233619539E+04  0.25500000920E-02 0. -1.
       -2    1    3    3    0  502  0.62024301882E+03  0.31412910431E+03  0.28881268244E+03  0.75285540585E+03  0.25500000920E-02 0.  1.
</event>
<event>
 5   0  0.3236653E-06  0.1900102E+04  0.7818609E-02  0.8654806E-01
        1   -1    0    0  501    0  0.00000000000E+00  0.00000000000E+00  0.81513486659E+03  0.81513486661E+03  0.50400001928E-02 0.  1.
       -1   -1    0    0    0  501  0.00000000000E+00  0.00000000000E+00 -0.11072977946E+04  0.11072977946E+04  0.50400001928E-02 0. -1.
    10030    2    1    2    0    0  0.00000000000E+00  0.00000000000E+00 -0.29216292801E+03  0.19224326612E+04  0.19001021447E+04 0.  0.
        3    1    3    3  502    0  0.24368025277E+03 -0.32973770418E+03  0.72101444055E+03  0.82943887830E+03  0.10100000352E+00 0.  1.
       -3    1    3    3    0  502 -0.24368025277E+03  0.32973770418E+03 -0.10131773686E+04  0.10929937829E+04  0.10100000352E+00 0. -1.
</event>
<event>
 5   0  0.6862201E-06  0.1897828E+04  0.7818609E-02  0.8655938E-01
        2   -1    0    0  501    0  0.00000000000E+00  0.00000000000E+00  0.48959722159E+03  0.48959722159E+03  0.25500000920E-02 0. -1.
       -2   -1    0    0    0  501  0.00000000000E+00  0.00000000000E+00 -0.18391398735E+04  0.18391398735E+04  0.25500000920E-02 0.  1.
    10030    2    1    2    0    0  0.00000000000E+00  0.00000000000E+00 -0.13495426519E+04  0.23287370951E+04  0.18978279924E+04 0.  0.
        3    1    3    3  502    0 -0.53291913838E+02 -0.58882398826E+03  0.23596720372E+03  0.63658011959E+03  0.10100000352E+00 0. -1.
       -3    1    3    3    0  502  0.53291913838E+02  0.58882398826E+03 -0.15855098556E+04  0.16921569755E+04  0.10100000352E+00 0.  1.
</event>
<event>
 5   0  0.3236653E-06  0.1900852E+04  0.7818609E-02  0.8654433E-01
       -1   -1    0    0    0  501  0.00000000000E+00  0.00000000000E+00  0.58549957591E+03  0.58549957593E+03  0.50400001928E-02 0. -1.
        1   -1    0    0  501    0  0.00000000000E+00  0.00000000000E+00 -0.15428007672E+04  0.15428007672E+04  0.50400001928E-02 0.  1.
    10030    2    1    2    0    0  0.00000000000E+00  0.00000000000E+00 -0.95730119132E+03  0.21283003432E+04  0.19008515933E+04 0.  0.
        3    1    3    3  502    0  0.33969526890E+03  0.88527467970E+03 -0.40604496320E+03  0.10314924414E+04  0.10100000352E+00 0.  1.
       -3    1    3    3    0  502 -0.33969526890E+03 -0.88527467970E+03 -0.55125622812E+03  0.10968079018E+04  0.10100000352E+00 0. -1.
</event>
<event>
 5   0  0.7207648E-06  0.1900109E+04  0.7818609E-02  0.8654802E-01
       -2   -1    0    0    0  501  0.00000000000E+00  0.00000000000E+00  0.64158491008E+03  0.64158491008E+03  0.25500000920E-02 0.  1.
        2   -1    0    0  501    0  0.00000000000E+00  0.00000000000E+00 -0.14068339270E+04  0.14068339270E+04  0.25500000920E-02 0. -1.
    10030    2    1    2    0    0  0.00000000000E+00  0.00000000000E+00 -0.76524901695E+03  0.20484188371E+04  0.19001088585E+04 0.  0.
        4    1    3    3  502    0 -0.59505831616E+03 -0.66733006410E+03 -0.36339402029E+02  0.89484410884E+03  0.12699999809E+01 0.  1.
       -4    1    3    3    0  502  0.59505831616E+03  0.66733006410E+03 -0.72890961493E+03  0.11535747283E+04  0.12699999809E+01 0. -1.
</event>
<event>
 5   0  0.6862201E-06  0.1900050E+04  0.7818609E-02  0.8654832E-01
        2   -1    0    0  501    0  0.00000000000E+00  0.00000000000E+00  0.97499637350E+03  0.97499637350E+03  0.25500000920E-02 0. -1.
       -2   -1    0    0    0  501  0.00000000000E+00  0.00000000000E+00 -0.92569278406E+03  0.92569278407E+03  0.25500000920E-02 0.  1.
    10030    2    1    2    0    0  0.00000000000E+00  0.00000000000E+00  0.49303589434E+02  0.19006891576E+04  0.19000495861E+04 0.  0.
        3    1    3    3  502    0 -0.62584111790E+03  0.46141457820E+03  0.57069868730E+03  0.96450895264E+03  0.10100000352E+00 0. -1.
       -3    1    3    3    0  502  0.62584111790E+03 -0.46141457820E+03 -0.52139509786E+03  0.93618020493E+03  0.10100000352E+00 0.  1.
</event>
<event>
 5   0  0.6984466E-06  0.1900196E+04  0.7818609E-02  0.8654759E-01
        2   -1    0    0  501    0  0.00000000000E+00  0.00000000000E+00  0.18580664888E+04  0.18580664888E+04  0.25500000920E-02 0. -1.
       -2   -1    0    0    0  501  0.00000000000E+00  0.00000000000E+00 -0.48581994435E+03  0.48581994436E+03  0.25500000920E-02 0.  1.
    10030    2    1    2    0    0  0.00000000000E+00  0.00000000000E+00  0.13722465444E+04  0.23438864332E+04  0.19001955249E+04 0.  0.
        2    1    3    3  502    0 -0.10990381866E+00  0.93678687123E+03  0.49063783470E+03  0.10574947466E+04  0.25500000920E-02 0.  1.
       -2    1    3    3    0  502  0.10990381866E+00 -0.93678687123E+03  0.88160870975E+03  0.12863916866E+04  0.25500000920E-02 0. -1.
</event>
<event>
 5   0  0.3211263E-06  0.1899525E+04  0.7818609E-02  0.8655093E-01
       -1   -1    0    0    0  501  0.00000000000E+00  0.00000000000E+00  0.81284531968E+03  0.81284531970E+03  0.50400001928E-02 0. -1.
        1   -1    0    0  501    0  0.00000000000E+00  0.00000000000E+00 -0.11097428152E+04  0.11097428152E+04  0.50400001928E-02 0.  1.
    10030    2    1    2    0    0  0.00000000000E+00  0.00000000000E+00 -0.29689749555E+03  0.19225881349E+04  0.18995254707E+04 0.  0.
        5    1    3    3  502    0  0.41357220449E+03  0.44925189843E+03  0.58781563133E+03  0.84759574267E+03  0.46999998093E+01 0. -1.
       -5    1    3    3    0  502 -0.41357220449E+03 -0.44925189843E+03 -0.88471312687E+03  0.10749923923E+04  0.46999998093E+01 0.  1.
</event>
<event>
 5   0  0.3398807E-06  0.1899550E+04  0.7818609E-02  0.8655080E-01
        1   -1    0    0  501    0  0.00000000000E+00  0.00000000000E+00  0.15428789926E+04  0.15428789926E+04  0.50400001928E-02 0.  1.
       -1   -1    0    0    0  501  0.00000000000E+00  0.00000000000E+00 -0.58466863189E+03  0.58466863191E+03  0.50400001928E-02 0. -1.
    10030    2    1    2    0    0  0.00000000000E+00  0.00000000000E+00  0.95821036068E+03  0.21275476245E+04  0.18995504203E+04 0.  0.
        1    1    3    3  502    0 -0.99396486040E+02  0.40857926179E+02 -0.57783707055E+03  0.58774544804E+03  0.50400001928E-02 0. -1.
       -1    1    3    3    0  502  0.99396486040E+02 -0.40857926179E+02  0.15360474312E+04  0.15398021764E+04  0.50400001928E-02 0.  1.
</event>
<event>
 5   0  0.6870370E-06  0.1899726E+04  0.7818609E-02  0.8654993E-01
        2   -1    0    0  501    0  0.00000000000E+00  0.00000000000E+00  0.21979381271E+04  0.21979381271E+04  0.25500000920E-02 0. -1.
       -2   -1    0    0    0  501  0.00000000000E+00  0.00000000000E+00 -0.41049358941E+03  0.41049358942E+03  0.25500000920E-02 0.  1.
    10030    2    1    2    0    0  0.00000000000E+00  0.00000000000E+00  0.17874445377E+04  0.26084317165E+04  0.18997257814E+04 0.  0.
        1    1    3    3  502    0 -0.14855515527E+03  0.35561341360E+03 -0.29831734388E+03  0.48736308003E+03  0.50400001928E-02 0.  1.
       -1    1    3    3    0  502  0.14855515527E+03 -0.35561341360E+03  0.20857618816E+04  0.21210686365E+04  0.50400001928E-02 0. -1.
</event>
<event>
 5   0  0.7207648E-06  0.1899980E+04  0.7818609E-02  0.8654866E-01
       -2   -1    0    0    0  501  0.00000000000E+00  0.00000000000E+00  0.10951239797E+04  0.10951239797E+04  0.25500000920E-02 0.  1.
        2   -1    0    0  501    0  0.00000000000E+00  0.00000000000E+00 -0.82409023789E+03  0.82409023789E+03  0.25500000920E-02 0. -1.
    10030    2    1    2    0    0  0.00000000000E+00  0.00000000000E+00  0.27103374177E+03  0.19192142176E+04  0.18999799798E+04 0.  0.
        4    1    3    3  502    0 -0.33833648368E+03  0.69954390497E+03 -0.41650065153E+03  0.88165052985E+03  0.12699999809E+01 0. -1.
       -4    1    3    3    0  502  0.33833648368E+03 -0.69954390497E+03  0.68753439330E+03  0.10375636877E+04  0.12699999809E+01 0.  1.
</event>
<event>
 5   0  0.2527750E-06  0.1900751E+04  0.7818609E-02  0.8654483E-01
       -4   -1    0    0    0  501  0.00000000000E+00  0.00000000000E+00  0.60324960964E+03  0.60325094648E+03  0.12699999809E+01 0.  1.
        4   -1    0    0  501    0  0.00000000000E+00  0.00000000000E+00 -0.14972428485E+04  0.14972433872E+04  0.12699999809E+01 0. -1.
    10030    2    1    2    0    0  0.00000000000E+00  0.00000000000E+00 -0.89399323891E+03  0.21004943336E+04  0.19007505187E+04 0.  0.
        2    1    3    3  502    0  0.80404081042E+03 -0.24496659511E+02 -0.10062747370E+04  0.12882820178E+04  0.25500000920E-02 0. -1.
       -2    1    3    3    0  502 -0.80404081042E+03  0.24496659511E+02  0.11228149808E+03  0.81221231582E+03  0.25500000920E-02 0.  1.
</event>
<event>
 5   0  0.6862201E-06  0.1899541E+04  0.7818609E-02  0.8655085E-01
        2   -1    0    0  501    0  0.00000000000E+00  0.00000000000E+00  0.13189715957E+04  0.13189715957E+04  0.25500000920E-02 0.  1.
       -2   -1    0    0    0  501  0.00000000000E+00  0.00000000000E+00 -0.68391452356E+03  0.68391452357E+03  0.25500000920E-02 0. -1.
    10030    2    1    2    0    0  0.00000000000E+00  0.00000000000E+00  0.63505707212E+03  0.20028861193E+04  0.18995408187E+04 0.  0.
        3    1    3    3  502    0  0.17604734220E+03  0.34224843984E+03 -0.59800698903E+03  0.71115331005E+03  0.10100000352E+00 0. -1.
       -3    1    3    3    0  502 -0.17604734220E+03 -0.34224843984E+03  0.12330640611E+04  0.12917328092E+04  0.10100000352E+00 0.  1.
</event>
<event>
 5   0  0.7207648E-06  0.1902953E+04  0.7818609E-02  0.8653388E-01
       -2   -1    0    0    0  501  0.00000000000E+00  0.00000000000E+00  0.43567156608E+03  0.43567156608E+03  0.25500000920E-02 0. -1.
        2   -1    0    0  501    0  0.00000000000E+00  0.00000000000E+00 -0.20779581707E+04  0.20779581707E+04  0.25500000920E-02 0.  1.
    10030    2    1    2    0    0  0.00000000000E+00  0.00000000000E+00 -0.16422866046E+04  0.25136297368E+04  0.19029527482E+04 0.  0.
        4    1    3    3  502    0  0.44633939396E+03 -0.52445430175E+03  0.46076770227E+02  0.69021435140E+03  0.12699999809E+01 0. -1.
       -4    1    3    3    0  502 -0.44633939396E+03  0.52445430175E+03 -0.16883633748E+04  0.18234153854E+04  0.12699999809E+01 0.  1.
</event>
<event>
 5   0  0.3211263E-06  0.1900220E+04  0.7818609E-02  0.8654747E-01
       -1   -1    0    0    0  501  0.00000000000E+00  0.00000000000E+00  0.77707912290E+03  0.77707912292E+03  0.50400001928E-02 0. -1.
        1   -1    0    0  501    0  0.00000000000E+00  0.00000000000E+00 -0.11616693651E+04  0.11616693651E+04  0.50400001928E-02 0.  1.
    10030    2    1    2    0    0  0.00000000000E+00  0.00000000000E+00 -0.38459024224E+03  0.19387484881E+04  0.19002199992E+04 0.  0.
        5    1    3    3  502    0  0.80101394176E+03  0.51040246132E+03 -0.21628601151E+03  0.97413332568E+03  0.46999998093E+01 0. -1.
       -5    1    3    3    0  502 -0.80101394176E+03 -0.51040246132E+03 -0.16830423073E+03  0.96461516238E+03  0.46999998093E+01 0.  1.
</event>
<event>
 5   0  0.3495279E-06  0.1900031E+04  0.7818609E-02  0.8654841E-01
       -1   -1    0    0    0  501  0.00000000000E+00  0.00000000000E+00  0.93780408296E+03  0.93780408297E+03  0.50400001928E-02 0. -1.
        1   -1    0    0  501    0  0.00000000000E+00  0.00000000000E+00 -0.96238618952E+03  0.96238618953E+03  0.50400001928E-02 0.  1.
    10030    2    1    2    0    0  0.00000000000E+00  0.00000000000E+00 -0.24582106554E+02  0.19001902725E+04  0.19000312607E+04 0.  0.
        2    1    3    3  502    0  0.59838052642E+03  0.22407520527E+03  0.69080458587E+03  0.94099943033E+03  0.25500000920E-02 0. -1.
       -2    1    3    3    0  502 -0.59838052642E+03 -0.22407520527E+03 -0.71538669242E+03  0.95919084218E+03  0.25500000920E-02 0.  1.
</event>
<event>
 5   0  0.7207648E-06  0.1903096E+04  0.7818609E-02  0.8653317E-01
       -2   -1    0    0    0  501  0.00000000000E+00  0.00000000000E+00  0.11090423926E+04  0.11090423926E+04  0.25500000920E-02 0.  1.
        2   -1    0    0  501    0  0.00000000000E+00  0.00000000000E+00 -0.81641908045E+03  0.81641908046E+03  0.25500000920E-02 0. -1.
    10030    2    1    2    0    0  0.00000000000E+00  0.00000000000E+00  0.29262331216E+03  0.19254614731E+04  0.19030957626E+04 0.  0.
        4    1    3    3  502    0  0.44847677173E+03  0.23227321471E+03  0.96223795957E+03  0.10867316894E+04  0.12699999809E+01 0.  1.
       -4    1    3    3    0  502 -0.44847677173E+03 -0.23227321471E+03 -0.66961464741E+03  0.83872978365E+03  0.12699999809E+01 0. -1.
</event>
<event>
 5   0  0.6862201E-06  0.1899885E+04  0.7818609E-02  0.8654914E-01
       -2   -1    0    0    0  501  0.00000000000E+00  0.00000000000E+00  0.11592532517E+04  0.11592532517E+04  0.25500000920E-02 0. -1.
        2   -1    0    0  501    0  0.00000000000E+00  0.00000000000E+00 -0.77842421916E+03  0.77842421916E+03  0.25500000920E-02 0.  1.
    10030    2    1    2    0    0  0.00000000000E+00  0.00000000000E+00  0.38082903254E+03  0.19376774709E+04  0.18998850568E+04 0.  0.
        3    1    3    3  502    0  0.72974783963E+03 -0.60784857669E+03  0.17055945854E+03  0.96493644388E+03  0.10100000352E+00 0. -1.
       -3    1    3    3    0  502 -0.72974783963E+03  0.60784857669E+03  0.21026957400E+03  0.97274102698E+03  0.10100000352E+00 0.  1.
</event>
<event>
 5   0  0.2527750E-06  0.1905834E+04  0.7818609E-02  0.8651958E-01
        3   -1    0    0  501    0  0.00000000000E+00  0.00000000000E+00  0.10022150483E+04  0.10022150533E+04  0.10100000352E+00 0. -1.
       -3   -1    0    0    0  501  0.00000000000E+00  0.00000000000E+00 -0.90604430705E+03  0.90604431268E+03  0.10100000352E+00 0.  1.
    10030    2    1    2    0    0  0.00000000000E+00  0.00000000000E+00  0.96170741207E+02  0.19082593660E+04  0.19058344620E+04 0.  0.
        2    1    3    3  502    0  0.48870431438E+03  0.80910365328E+03  0.16894778072E+03  0.96022079818E+03  0.25500000920E-02 0.  1.
       -2    1    3    3    0  502 -0.48870431438E+03 -0.80910365328E+03 -0.72777039516E+02  0.94803856785E+03  0.25500000920E-02 0. -1.
</event>
<event>
 5   0  0.6984466E-06  0.1899140E+04  0.7818609E-02  0.8655285E-01
       -2   -1    0    0    0  501  0.00000000000E+00  0.00000000000E+00  0.70137947195E+03  0.70137947195E+03  0.25500000920E-02 0.  1.
        2   -1    0    0  501    0  0.00000000000E+00  0.00000000000E+00 -0.12855848230E+04  0.12855848230E+04  0.25500000920E-02 0. -1.
    10030    2    1    2    0    0  0.00000000000E+00  0.00000000000E+00 -0.58420535104E+03  0.19869642949E+04  0.18991395992E+04 0.  0.
        2    1    3    3  502    0 -0.64435302191E+03 -0.16551140463E+03 -0.10010041118E+04  0.12019126731E+04  0.25500000920E-02 0. -1.
       -2    1    3    3    0  502  0.64435302191E+03  0.16551140463E+03  0.41679876080E+03  0.78505162181E+03  0.25500000920E-02 0.  1.
</event>
<event>
 5   0  0.7207648E-06  0.1899394E+04  0.7818609E-02  0.8655158E-01
       -2   -1    0    0    0  501  0.00000000000E+00  0.00000000000E+00  0.64967368044E+03  0.64967368044E+03  0.25500000920E-02 0. -1.
        2   -1    0    0  501    0  0.00000000000E+00  0.00000000000E+00 -0.13882727206E+04  0.13882727206E+04  0.25500000920E-02 0.  1.
    10030    2    1    2    0    0  0.00000000000E+00  0.00000000000E+00 -0.73859904020E+03  0.20379464011E+04  0.18993938484E+04 0.  0.
        4    1    3    3  502    0  0.57766953859E+03 -0.21810509617E+03 -0.11434955884E+04  0.12995598110E+04  0.12699999809E+01 0.  1.
       -4    1    3    3    0  502 -0.57766953859E+03  0.21810509617E+03  0.40489654819E+03  0.73838659009E+03  0.12699999809E+01 0. -1.
</event>
<event>
 5   0  0.3398807E-06  0.1899482E+04  0.7818609E-02  0.8655114E-01
        1   -1    0    0  501    0  0.00000000000E+00  0.00000000000E+00  0.23656419067E+04  0.23656419067E+04  0.50400001928E-02 0. -1.
       -1   -1    0    0    0  501  0.00000000000E+00  0.00000000000E+00 -0.38129528826E+03  0.38129528829E+03  0.50400001928E-02 0.  1.
    10030    2    1    2    0    0  0.00000000000E+00  0.00000000000E+00  0.19843466185E+04  0.27469371950E+04  0.18994821534E+04 0.  0.
        1    1    3    3  502    0  0.65391050028E+03  0.44664713220E+03  0.23392206196E+03  0.82571916181E+03  0.50400001928E-02 0.  1.
       -1    1    3    3    0  502 -0.65391050028E+03 -0.44664713220E+03  0.17504245565E+04  0.19212180332E+04  0.50400001928E-02 0. -1.
</event>
<event>
 5   0  0.6984466E-06  0.1899686E+04  0.7818609E-02  0.8655013E-01
       -2   -1    0    0    0  501  0.00000000000E+00  0.00000000000E+00  0.10400388232E+04  0.10400388232E+04  0.25500000920E-02 0.  1.
        2   -1    0    0  501    0  0.00000000000E+00  0.00000000000E+00 -0.86746935638E+03  0.86746935638E+03  0.25500000920E-02 0. -1.
    10030    2    1    2    0    0  0.00000000000E+00  0.00000000000E+00  0.17256946679E+03  0.19075081796E+04  0.18996860883E+04 0.  0.
        2    1    3    3  502    0 -0.12884913188E+03  0.17360999847E+03 -0.84243406667E+03  0.86973426232E+03  0.25500000920E-02 0. -1.
       -2    1    3    3    0  502  0.12884913188E+03 -0.17360999847E+03  0.10150035335E+04  0.10377739172E+04  0.25500000920E-02 0.  1.
</event>
<event>
 5   0  0.3211263E-06  0.1901046E+04  0.7818609E-02  0.8654336E-01
        1   -1    0    0  501    0  0.00000000000E+00  0.00000000000E+00  0.45285722162E+03  0.45285722164E+03  0.50400001928E-02 0. -1.
       -1   -1    0    0    0  501  0.00000000000E+00  0.00000000000E+00 -0.19950971993E+04  0.19950971993E+04  0.50400001928E-02 0.  1.
    10030    2    1    2    0    0  0.00000000000E+00  0.00000000000E+00 -0.15422399777E+04  0.24479544210E+04  0.19010462115E+04 0.  0.
        5    1    3    3  502    0 -0.39315421639E+03 -0.73674257231E+03 -0.18651497851E+03  0.85566920181E+03  0.46999998093E+01 0.  1.
       -5    1    3    3    0  502  0.39315421639E+03  0.73674257231E+03 -0.13557249992E+04  0.15922852192E+04  0.46999998093E+01 0. -1.
</event>
<event>
 5   0  0.3236653E-06  0.1900177E+04  0.7818609E-02  0.8654768E-01
        1   -1    0    0  501    0  0.00000000000E+00  0.00000000000E+00  0.17627545790E+04  0.17627545790E+04  0.50400001928E-02 0.  1.
       -1   -1    0    0    0  501  0.00000000000E+00  0.00000000000E+00 -0.51207836477E+03  0.51207836480E+03  0.50400001928E-02 0. -1.
    10030    2    1    2    0    0  0.00000000000E+00  0.00000000000E+00  0.12506762143E+04  0.22748329438E+04  0.19001773416E+04 0.  0.
        3    1    3    3  502    0 -0.13117764471E+03  0.74715471044E+03 -0.59480863844E+02  0.76091111121E+03  0.10100000352E+00 0. -1.
       -3    1    3    3    0  502  0.13117764471E+03 -0.74715471044E+03  0.13101570781E+04  0.15139218326E+04  0.10100000352E+00 0.  1.
</event>
<event>
 5   0  0.7577180E-06  0.1899034E+04  0.7818609E-02  0.8655338E-01
        2   -1    0    0  501    0  0.00000000000E+00  0.00000000000E+00  0.84329824988E+03  0.84329824988E+03  0.25500000920E-02 0. -1.
       -2   -1    0    0    0  501  0.00000000000E+00  0.00000000000E+00 -0.10691141923E+04  0.10691141923E+04  0.25500000920E-02 0.  1.
    10030    2    1    2    0    0  0.00000000000E+00  0.00000000000E+00 -0.22581594241E+03  0.19124124422E+04  0.18990335724E+04 0.  0.
        5    1    3    3  502    0  0.41238532664E+03  0.43901826381E+02 -0.97307482294E+03  0.10577739499E+04  0.46999998093E+01 0.  1.
       -5    1    3    3    0  502 -0.41238532664E+03 -0.43901826381E+02  0.74725888053E+03  0.85463849230E+03  0.46999998093E+01 0. -1.
</event>
<event>
 5   0  0.3211263E-06  0.1899906E+04  0.7818609E-02  0.8654903E-01
        1   -1    0    0  501    0  0.00000000000E+00  0.00000000000E+00  0.13797521470E+04  0.13797521470E+04  0.50400001928E-02 0.  1.
       -1   -1    0    0    0  501  0.00000000000E+00  0.00000000000E+00 -0.65403820269E+03  0.65403820271E+03  0.50400001928E-02 0. -1.
    10030    2    1    2    0    0  0.00000000000E+00  0.00000000000E+00  0.72571394431E+03  0.20337903497E+04  0.18999059076E+04 0.  0.
        5    1    3    3  502    0  0.74533144484E+03  0.10401860419E+03  0.98340562883E+03  0.12383244944E+04  0.46999998093E+01 0.  1.
       -5    1    3    3    0  502 -0.74533144484E+03 -0.10401860419E+03 -0.25769168452E+03  0.79546585530E+03  0.46999998093E+01 0. -1.
</event>
<event>
 5   0  0.6862201E-06  0.1899636E+04  0.7818609E-02  0.8655038E-01
        2   -1    0    0  501    0  0.00000000000E+00  0.00000000000E+00  0.14624845696E+04  0.14624845696E+04  0.25500000920E-02 0.  1.
       -2   -1    0    0    0  501  0.00000000000E+00  0.00000000000E+00 -0.61686415147E+03  0.61686415148E+03  0.25500000920E-02 0. -1.
    10030    2    1    2    0    0  0.00000000000E+00  0.00000000000E+00  0.84562041817E+03  0.20793487211E+04  0.18996360737E+04 0.  0.
        3    1    3    3  502    0 -0.58468683139E+03 -0.35499937174E+03  0.11441457983E+04  0.13330239543E+04  0.10100000352E+00 0.  1.
       -3    1    3    3    0  502  0.58468683139E+03  0.35499937174E+03 -0.29852538017E+03  0.74632476680E+03  0.10100000352E+00 0. -1.
</event>
<event>
 5   0  0.3398807E-06  0.1899683E+04  0.7818609E-02  0.8655014E-01
       -1   -1    0    0    0  501  0.00000000000E+00  0.00000000000E+00  0.38998407548E+03  0.38998407551E+03  0.50400001928E-02 0. -1.
        1   -1    0    0  501    0  0.00000000000E+00  0.00000000000E+00 -0.23134239849E+04  0.23134239849E+04  0.50400001928E-02 0.  1.
    10030    2    1    2    0    0  0.00000000000E+00  0.00000000000E+00 -0.19234399094E+04  0.27034080604E+04  0.18996826198E+04 0.  0.
        1    1    3    3  502    0 -0.67672965232E+03  0.31906016063E+03 -0.17944808618E+04  0.19442026571E+04  0.50400001928E-02 0.  1.
       -1    1    3    3    0  502  0.67672965232E+03 -0.31906016063E+03 -0.12895904760E+03  0.75920540331E+03  0.50400001928E-02 0. -1.
</event>
<event>
 5   0  0.3211263E-06  0.1898943E+04  0.7818609E-02  0.8655383E-01
       -1   -1    0    0    0  501  0.00000000000E+00  0.00000000000E+00  0.45273703741E+03  0.45273703743E+03  0.50400001928E-02 0. -1.
        1   -1    0    0  501    0  0.00000000000E+00  0.00000000000E+00 -0.19912134292E+04  0.19912134292E+04  0.50400001928E-02 0.  1.
    10030    2    1    2    0    0  0.00000000000E+00  0.00000000000E+00 -0.15384763918E+04  0.24439504667E+04  0.18989429363E+04 0.  0.
        5    1    3    3  502    0  0.66815907648E+02  0.33162785181E+03  0.37252710659E+03  0.50322950307E+03  0.46999998093E+01 0. -1.
       -5    1    3    3    0  502 -0.66815907648E+02 -0.33162785181E+03 -0.19110034984E+04  0.19407209636E+04  0.46999998093E+01 0.  1.
</event>
<event>
 5   0  0.6862201E-06  0.1899686E+04  0.7818609E-02  0.8655012E-01
        2   -1    0    0  501    0  0.00000000000E+00  0.00000000000E+00  0.11315068522E+04  0.11315068522E+04  0.25500000920E-02 0. -1.
       -2   -1    0    0    0  501  0.00000000000E+00  0.00000000000E+00 -0.79734569462E+03  0.79734569462E+03  0.25500000920E-02 0.  1.
    10030    2    1    2    0    0  0.00000000000E+00  0.00000000000E+00  0.33416115762E+03  0.19288525469E+04  0.18996864131E+04 0.  0.
        3    1    3    3  502    0 -0.85339505781E+03 -0.36770973973E+03  0.36684606139E+03  0.99903434393E+03  0.10100000352E+00 0. -1.
       -3    1    3    3    0  502  0.85339505781E+03  0.36770973973E+03 -0.32684903763E+02  0.92981820294E+03  0.10100000352E+00 0.  1.
</event>
<event>
 5   0  0.7577180E-06  0.1887497E+04  0.7818609E-02  0.8661105E-01
        2   -1    0    0  501    0  0.00000000000E+00  0.00000000000E+00  0.21381953289E+04  0.21381953289E+04  0.25500000920E-02 0. -1.
       -2   -1    0    0    0  501  0.00000000000E+00  0.00000000000E+00 -0.41654801082E+03  0.41654801083E+03  0.25500000920E-02 0.  1.
    10030    2    1    2    0    0  0.00000000000E+00  0.00000000000E+00  0.17216473180E+04  0.25547433397E+04  0.18874967666E+04 0.  0.
        5    1    3    3  502    0 -0.65464231389E+03 -0.10254268431E+03 -0.48717445228E+02  0.66442986139E+03  0.46999998093E+01 0.  1.
       -5    1    3    3    0  502  0.65464231389E+03  0.10254268431E+03  0.17703647633E+04  0.18903134783E+04  0.46999998093E+01 0. -1.
</event>
<event>
 5   0  0.7577180E-06  0.1900358E+04  0.7818609E-02  0.8654678E-01
       -2   -1    0    0    0  501  0.00000000000E+00  0.00000000000E+00  0.61104559959E+03  0.61104559960E+03  0.25500000920E-02 0.  1.
        2   -1    0    0  501    0  0.00000000000E+00  0.00000000000E+00 -0.14775333058E+04  0.14775333058E+04  0.25500000920E-02 0. -1.
    10030    2    1    2    0    0  0.00000000000E+00  0.00000000000E+00 -0.86648770623E+03  0.20885789054E+04  0.19003580976E+04 0.  0.
        5    1    3    3  502    0 -0.18796780324E+03 -0.92580730295E+03 -0.54514733889E+03  0.10907147970E+04  0.46999998093E+01 0. -1.
       -5    1    3    3    0  502  0.18796780324E+03  0.92580730295E+03 -0.32134036734E+03  0.99786410845E+03  0.46999998093E+01 0.  1.
</event>
<event>
 5   0  0.3379108E-06  0.1900307E+04  0.7818609E-02  0.8654704E-01
       -1   -1    0    0    0  501  0.00000000000E+00  0.00000000000E+00  0.50367739339E+03  0.50367739342E+03  0.50400001928E-02 0.  1.
        1   -1    0    0  501    0  0.00000000000E+00  0.00000000000E+00 -0.17923998298E+04  0.17923998298E+04  0.50400001928E-02 0. -1.
    10030    2    1    2    0    0  0.00000000000E+00  0.00000000000E+00 -0.12887224364E+04  0.22960772232E+04  0.19003065797E+04 0.  0.
        4    1    3    3  502    0 -0.20868410331E+03 -0.91224669124E+03 -0.44565154816E+03  0.10365085605E+04  0.12699999809E+01 0.  1.
       -4    1    3    3    0  502  0.20868410331E+03  0.91224669124E+03 -0.84307088822E+03  0.12595686627E+04  0.12699999809E+01 0. -1.
</event>
<event>
 5   0  0.3211263E-06  0.1899837E+04  0.7818609E-02  0.8654937E-01
       -1   -1    0    0    0  501  0.00000000000E+00  0.00000000000E+00  0.12177827332E+04  0.12177827333E+04  0.50400001928E-02 0. -1.
        1   -1    0    0  501    0  0.00000000000E+00  0.00000000000E+00 -0.74097414109E+03  0.74097414110E+03  0.50400001928E-02 0.  1.
    10030    2    1    2    0    0  0.00000000000E+00  0.00000000000E+00  0.47680859216E+03  0.19587568744E+04  0.18998373771E+04 0.  0.
        5    1    3    3  502    0  0.26736717018E+03  0.64722291459E+03  0.90013527689E+03  0.11404596931E+04  0.46999998093E+01 0. -1.
       -5    1    3    3    0  502 -0.26736717018E+03 -0.64722291459E+03 -0.42332668473E+03  0.81829718127E+03  0.46999998093E+01 0.  1.
</event>
<event>
 5   0  0.3379108E-06  0.1901002E+04  0.7818609E-02  0.8654358E-01
       -1   -1    0    0    0  501  0.00000000000E+00  0.00000000000E+00  0.68516604962E+03  0.68516604964E+03  0.50400001928E-02 0.  1.
        1   -1    0    0  501    0  0.00000000000E+00  0.00000000000E+00 -0.13185880406E+04  0.13185880406E+04  0.50400001928E-02 0. -1.
    10030    2    1    2    0    0  0.00000000000E+00  0.00000000000E+00 -0.63342199097E+03  0.20037540902E+04  0.19010015875E+04 0.  0.
        4    1    3    3  502    0  0.67758504720E+03  0.39422402600E+03 -0.88327344821E+03  0.11809774240E+04  0.12699999809E+01 0. -1.
       -4    1    3    3    0  502 -0.67758504720E+03 -0.39422402600E+03  0.24985145724E+03  0.82277666620E+03  0.12699999809E+01 0.  1.
</event>
<event>
 5   0  0.3236653E-06  0.1900134E+04  0.7818609E-02  0.8654790E-01
       -1   -1    0    0    0  501  0.00000000000E+00  0.00000000000E+00  0.11663943813E+04  0.11663943814E+04  0.50400001928E-02 0. -1.
        1   -1    0    0  501    0  0.00000000000E+00  0.00000000000E+00 -0.77386077367E+03  0.77386077369E+03  0.50400001928E-02 0.  1.
    10030    2    1    2    0    0  0.00000000000E+00  0.00000000000E+00  0.39253360767E+03  0.19402551550E+04  0.19001335304E+04 0.  0.
        3    1    3    3  502    0  0.32798023688E+01  0.90378665543E+03 -0.10280974297E+03  0.90962131081E+03  0.10100000352E+00 0.  1.
       -3    1    3    3    0  502 -0.32798023688E+01 -0.90378665543E+03  0.49534335065E+03  0.10306338442E+04  0.10100000352E+00 0. -1.
</event>
<event>
 5   0  0.3398807E-06  0.1899324E+04  0.7818609E-02  0.8655193E-01
       -1   -1    0    0    0  501  0.00000000000E+00  0.00000000000E+00  0.56025552453E+03  0.56025552455E+03  0.50400001928E-02 0.  1.
        1   -1    0    0  501    0  0.00000000000E+00  0.00000000000E+00 -0.16097255385E+04  0.16097255385E+04  0.50400001928E-02 0. -1.
    10030    2    1    2    0    0  0.00000000000E+00  0.00000000000E+00 -0.10494700140E+04  0.21699810631E+04  0.18993236964E+04 0.  0.
        1    1    3    3  502    0 -0.10543283483E+03 -0.29863732636E+03  0.49814394361E+03  0.59029460775E+03  0.50400001928E-02 0.  1.
       -1    1    3    3    0  502  0.10543283483E+03  0.29863732636E+03 -0.15476139576E+04  0.15796864553E+04  0.50400001928E-02 0. -1.
</event>
<event>
 5   0  0.6862201E-06  0.1899419E+04  0.7818609E-02  0.8655146E-01
        2   -1    0    0  501    0  0.00000000000E+00  0.00000000000E+00  0.10462339464E+04  0.10462339464E+04  0.25500000920E-02 0. -1.
       -2   -1    0    0    0  501  0.00000000000E+00  0.00000000000E+00 -0.86209016778E+03  0.86209016779E+03  0.25500000920E-02 0.  1.
    10030    2    1    2    0    0  0.00000000000E+00  0.00000000000E+00  0.18414377857E+03  0.19083241141E+04  0.18994188568E+04 0.  0.
        3    1    3    3  502    0  0.49633592512E+03 -0.11643061176E+03  0.89710417596E+03  0.10318436658E+04  0.10100000352E+00 0. -1.
       -3    1    3    3    0  502 -0.49633592512E+03  0.11643061176E+03 -0.71296039738E+03  0.87648044836E+03  0.10100000352E+00 0.  1.
</event>
<event>
 5   0  0.7577180E-06  0.1901321E+04  0.7818609E-02  0.8654199E-01
       -2   -1    0    0    0  501  0.00000000000E+00  0.00000000000E+00  0.52832082779E+03  0.52832082780E+03  0.25500000920E-02 0. -1.
        2   -1    0    0  501    0  0.00000000000E+00  0.00000000000E+00 -0.17106193537E+04  0.17106193537E+04  0.25500000920E-02 0.  1.
    10030    2    1    2    0    0  0.00000000000E+00  0.00000000000E+00 -0.11822985259E+04  0.22389401815E+04  0.19013214699E+04 0.  0.
        5    1    3    3  502    0  0.83755206755E+03  0.25072252911E+03 -0.10307767282E+04  0.13516205110E+04  0.46999998093E+01 0.  1.
       -5    1    3    3    0  502 -0.83755206755E+03 -0.25072252911E+03 -0.15152179774E+03  0.88731967049E+03  0.46999998093E+01 0. -1.
</event>
<event>
 5   0  0.7577180E-06  0.1900075E+04  0.7818609E-02  0.8654819E-01
       -2   -1    0    0    0  501  0.00000000000E+00  0.00000000000E+00  0.47973332492E+03  0.47973332492E+03  0.25500000920E-02 0.  1.
        2   -1    0    0  501    0  0.00000000000E+00  0.00000000000E+00 -0.18814018944E+04  0.18814018944E+04  0.25500000920E-02 0. -1.
    10030    2    1    2    0    0  0.00000000000E+00  0.00000000000E+00 -0.14016685695E+04  0.23611352193E+04  0.19000749315E+04 0.  0.
        5    1    3    3  502    0  0.37647148364E+03  0.11218259896E+03  0.37406722143E+03  0.54246114114E+03  0.46999998093E+01 0.  1.
       -5    1    3    3    0  502 -0.37647148364E+03 -0.11218259896E+03 -0.17757357909E+04  0.18186740782E+04  0.46999998093E+01 0. -1.
</event>
<event>
 5   0  0.3398807E-06  0.1900683E+04  0.7818609E-02  0.8654516E-01
        1   -1    0    0  501    0  0.00000000000E+00  0.00000000000E+00  0.72746098426E+03  0.72746098428E+03  0.50400001928E-02 0. -1.
       -1   -1    0    0    0  501  0.00000000000E+00  0.00000000000E+00 -0.12415090094E+04  0.12415090095E+04  0.50400001928E-02 0.  1.
    10030    2    1    2    0    0  0.00000000000E+00  0.00000000000E+00 -0.51404802518E+03  0.19689699937E+04  0.19006834203E+04 0.  0.
        1    1    3    3  502    0 -0.11319890868E+03  0.67348076836E+02  0.71795901057E+03  0.72994170813E+03  0.50400001928E-02 0. -1.
       -1    1    3    3    0  502  0.11319890868E+03 -0.67348076836E+02 -0.12320070358E+04  0.12390282856E+04  0.50400001928E-02 0.  1.
</event>
<event>
 5   0  0.6870370E-06  0.1899929E+04  0.7818609E-02  0.8654892E-01
        2   -1    0    0  501    0  0.00000000000E+00  0.00000000000E+00  0.15090722616E+04  0.15090722616E+04  0.25500000920E-02 0. -1.
       -2   -1    0    0    0  501  0.00000000000E+00  0.00000000000E+00 -0.59800491474E+03  0.59800491474E+03  0.25500000920E-02 0.  1.
    10030    2    1    2    0    0  0.00000000000E+00  0.00000000000E+00  0.91106734683E+03  0.21070771763E+04  0.18999290820E+04 0.  0.
        1    1    3    3  502    0  0.33806430675E+03  0.86843559470E+03  0.25114472903E+03  0.96516399259E+03  0.50400001928E-02 0.  1.
       -1    1    3    3    0  502 -0.33806430675E+03 -0.86843559470E+03  0.65992261781E+03  0.11419131837E+04  0.50400001928E-02 0. -1.
</event>
<event>
 5   0  0.6870370E-06  0.1887693E+04  0.7818609E-02  0.8661007E-01
        2   -1    0    0  501    0  0.00000000000E+00  0.00000000000E+00  0.19191258233E+04  0.19191258233E+04  0.25500000920E-02 0. -1.
       -2   -1    0    0    0  501  0.00000000000E+00  0.00000000000E+00 -0.46419380269E+03  0.46419380270E+03  0.25500000920E-02 0.  1.
    10030    2    1    2    0    0  0.00000000000E+00  0.00000000000E+00  0.14549320207E+04  0.23833196260E+04  0.18876931041E+04 0.  0.
        1    1    3    3  502    0 -0.70491114520E+03  0.55232533763E+03  0.35105612891E+03  0.96187494347E+03  0.50400001928E-02 0.  1.
       -1    1    3    3    0  502  0.70491114520E+03 -0.55232533763E+03  0.11038758917E+04  0.14214446826E+04  0.50400001928E-02 0. -1.
</event>
<event>
 5   0  0.3236653E-06  0.1898192E+04  0.7818609E-02  0.8655757E-01
       -1   -1    0    0    0  501  0.00000000000E+00  0.00000000000E+00  0.73177020392E+03  0.73177020393E+03  0.50400001928E-02 0.  1.
        1   -1    0    0  501    0  0.00000000000E+00  0.00000000000E+00 -0.12309641448E+04  0.12309641448E+04  0.50400001928E-02 0. -1.
    10030    2    1    2    0    0  0.00000000000E+00  0.00000000000E+00 -0.49919394089E+03  0.19627343488E+04  0.18981916482E+04 0.  0.
        3    1    3    3  502    0 -0.12743553004E+02 -0.29052037604E+03  0.68457030891E+03  0.74377483493E+03  0.10100000352E+00 0.  1.
       -3    1    3    3    0  502  0.12743553004E+02  0.29052037604E+03 -0.11837642498E+04  0.12189595138E+04  0.10100000352E+00 0. -1.
</event>
<event>
 5   0  0.7207648E-06  0.1901033E+04  0.7818609E-02  0.8654343E-01
        2   -1    0    0  501    0  0.00000000000E+00  0.00000000000E+00  0.13419656321E+04  0.13419656321E+04  0.25500000920E-02 0.  1.
       -2   -1    0    0    0  501  0.00000000000E+00  0.00000000000E+00 -0.67325210570E+03  0.67325210570E+03  0.25500000920E-02 0. -1.
    10030    2    1    2    0    0  0.00000000000E+00  0.00000000000E+00  0.66871352641E+03  0.20152177378E+04  0.19010325485E+04 0.  0.
        4    1    3    3  502    0 -0.62833059898E+03 -0.47796892092E+03 -0.22680309220E+03  0.82139812912E+03  0.12699999809E+01 0. -1.
       -4    1    3    3    0  502  0.62833059898E+03  0.47796892092E+03  0.89551661861E+03  0.11938196087E+04  0.12699999809E+01 0.  1.
</event>
<event>
 5   0  0.3495279E-06  0.1901173E+04  0.7818609E-02  0.8654273E-01
        1   -1    0    0  501    0  0.00000000000E+00  0.00000000000E+00  0.80436859723E+03  0.80436859725E+03  0.50400001928E-02 0.  1.
       -1   -1    0    0    0  501  0.00000000000E+00  0.00000000000E+00 -0.11233839528E+04  0.11233839528E+04  0.50400001928E-02 0. -1.
    10030    2    1    2    0    0  0.00000000000E+00  0.00000000000E+00 -0.31901535560E+03  0.19277525501E+04  0.19011730845E+04 0.  0.
        2    1    3    3  502    0 -0.32326088793E+03 -0.10515886290E+03 -0.10596453475E+04  0.11128361292E+04  0.25500000920E-02 0. -1.
       -2    1    3    3    0  502  0.32326088793E+03  0.10515886290E+03  0.74062999187E+03  0.81491642086E+03  0.25500000920E-02 0.  1.
</event>
<event>
 5   0  0.6984466E-06  0.1901336E+04  0.7818609E-02  0.8654192E-01
        2   -1    0    0  501    0  0.00000000000E+00  0.00000000000E+00  0.16387297707E+04  0.16387297707E+04  0.25500000920E-02 0.  1.
       -2   -1    0    0    0  501  0.00000000000E+00  0.00000000000E+00 -0.55150615888E+03  0.55150615888E+03  0.25500000920E-02 0. -1.
    10030    2    1    2    0    0  0.00000000000E+00  0.00000000000E+00  0.10872236118E+04  0.21902359296E+04  0.19013359106E+04 0.  0.
        2    1    3    3  502    0 -0.15379592194E+03 -0.39568415939E+03  0.15234772648E+04  0.15815189269E+04  0.25500000920E-02 0.  1.
       -2    1    3    3    0  502  0.15379592194E+03  0.39568415939E+03 -0.43625365302E+03  0.60871700270E+03  0.25500000920E-02 0. -1.
</event>
<event>
 5   0  0.3398807E-06  0.1899785E+04  0.7818609E-02  0.8654964E-01
        1   -1    0    0  501    0  0.00000000000E+00  0.00000000000E+00  0.16501324649E+04  0.16501324649E+04  0.50400001928E-02 0. -1.
       -1   -1    0    0    0  501  0.00000000000E+00  0.00000000000E+00 -0.54680174219E+03  0.54680174221E+03  0.50400001928E-02 0.  1.
    10030    2    1    2    0    0  0.00000000000E+00  0.00000000000E+00  0.11033307227E+04  0.21969342071E+04  0.18997845211E+04 0.  0.
        1    1    3    3  502    0  0.23607751584E+03 -0.78252339059E+03  0.11113257391E+04  0.13795362804E+04  0.50400001928E-02 0. -1.
       -1    1    3    3    0  502 -0.23607751584E+03  0.78252339059E+03 -0.79950164646E+01  0.81739792673E+03  0.50400001928E-02 0.  1.
</event>
<event>
 5   0  0.6984466E-06  0.1901052E+04  0.7818609E-02  0.8654333E-01
       -2   -1    0    0    0  501  0.00000000000E+00  0.00000000000E+00  0.48124774430E+03  0.48124774431E+03  0.25500000920E-02 0. -1.
        2   -1    0    0  501    0  0.00000000000E+00  0.00000000000E+00 -0.18774100335E+04  0.18774100335E+04  0.25500000920E-02 0.  1.
    10030    2    1    2    0    0  0.00000000000E+00  0.00000000000E+00 -0.13961622892E+04  0.23586577778E+04  0.19010516498E+04 0.  0.
        2    1    3    3  502    0  0.62361565704E+03  0.17814662033E+03 -0.15602346861E+04  0.16896641624E+04  0.25500000920E-02 0.  1.
       -2    1    3    3    0  502 -0.62361565704E+03 -0.17814662033E+03  0.16407239689E+03  0.66899361541E+03  0.25500000920E-02 0. -1.
</event>
<event>
 5   0  0.7577180E-06  0.1900578E+04  0.7818609E-02  0.8654569E-01
       -2   -1    0    0    0  501  0.00000000000E+00  0.00000000000E+00  0.53189699827E+03  0.53189699828E+03  0.25500000920E-02 0. -1.
        2   -1    0    0  501    0  0.00000000000E+00  0.00000000000E+00 -0.16977892320E+04  0.16977892320E+04  0.25500000920E-02 0.  1.
    10030    2    1    2    0    0  0.00000000000E+00  0.00000000000E+00 -0.11658922338E+04  0.22296862303E+04  0.19005778029E+04 0.  0.
        5    1    3    3  502    0  0.38135637319E+03  0.82768848074E+03 -0.26700585998E+03  0.94963947043E+03  0.46999998093E+01 0. -1.
       -5    1    3    3    0  502 -0.38135637319E+03 -0.82768848074E+03 -0.89888637379E+03  0.12800467599E+04  0.46999998093E+01 0.  1.
</event>
<event>
 5   0  0.7577180E-06  0.1900056E+04  0.7818609E-02  0.8654829E-01
       -2   -1    0    0    0  501  0.00000000000E+00  0.00000000000E+00  0.49859420586E+03  0.49859420587E+03  0.25500000920E-02 0. -1.
        2   -1    0    0  501    0  0.00000000000E+00  0.00000000000E+00 -0.18101952620E+04  0.18101952620E+04  0.25500000920E-02 0.  1.
    10030    2    1    2    0    0  0.00000000000E+00  0.00000000000E+00 -0.13116010561E+04  0.23087894679E+04  0.19000556509E+04 0.  0.
        5    1    3    3  502    0  0.53771700684E+03  0.47581993978E+02 -0.16057134635E+04  0.16940311220E+04  0.46999998093E+01 0.  1.
       -5    1    3    3    0  502 -0.53771700684E+03 -0.47581993978E+02  0.29411240737E+03  0.61475834582E+03  0.46999998093E+01 0. -1.
</event>
<event>
 5   0  0.2527750E-06  0.1900407E+04  0.7818609E-02  0.8654654E-01
        4   -1    0    0  501    0  0.00000000000E+00  0.00000000000E+00  0.15255705504E+04  0.15255710790E+04  0.12699999809E+01 0.  1.
       -4   -1    0    0    0  501  0.00000000000E+00  0.00000000000E+00 -0.59183406781E+03  0.59183543044E+03  0.12699999809E+01 0. -1.
    10030    2    1    2    0    0  0.00000000000E+00  0.00000000000E+00  0.93373648260E+03  0.21174065095E+04  0.19004069321E+04 0.  0.
        4    1    3    3  502    0  0.38668357447E+03  0.44755589480E+03 -0.36172544946E+03  0.69330900717E+03  0.12699999809E+01 0. -1.
       -4    1    3    3    0  502 -0.38668357447E+03 -0.44755589480E+03  0.12954619321E+04  0.14240975023E+04  0.12699999809E+01 0.  1.
</event>
<event>
 5   0  0.3236653E-06  0.1900080E+04  0.7818609E-02  0.8654817E-01
       -1   -1    0    0    0  501  0.00000000000E+00  0.00000000000E+00  0.12395560290E+04  0.12395560290E+04  0.50400001928E-02 0. -1.
        1   -1    0    0  501    0  0.00000000000E+00  0.00000000000E+00 -0.72814448701E+03  0.72814448702E+03  0.50400001928E-02 0.  1.
    10030    2    1    2    0    0  0.00000000000E+00  0.00000000000E+00  0.51141154203E+03  0.19677005161E+04  0.19000798814E+04 0.  0.
        3    1    3    3  502    0  0.83238781635E+03 -0.28090251809E+03 -0.11882827845E+03  0.88650768267E+03  0.10100000352E+00 0.  1.
       -3    1    3    3    0  502 -0.83238781635E+03  0.28090251809E+03  0.63023982048E+03  0.10811928334E+04  0.10100000352E+00 0. -1.
</event>
<event>
 5   0  0.3236653E-06  0.1901263E+04  0.7818609E-02  0.8654228E-01
       -1   -1    0    0    0  501  0.00000000000E+00  0.00000000000E+00  0.96746028685E+03  0.96746028686E+03  0.50400001928E-02 0. -1.
        1   -1    0    0  501    0  0.00000000000E+00  0.00000000000E+00 -0.93409529217E+03  0.93409529218E+03  0.50400001928E-02 0.  1.
    10030    2    1    2    0    0  0.00000000000E+00  0.00000000000E+00  0.33364994676E+02  0.19015555790E+04  0.19012628428E+04 0.  0.
        3    1    3    3  502    0 -0.11567386843E+03  0.63030435724E+03 -0.68559088187E+03  0.93845558984E+03  0.10100000352E+00 0.  1.
       -3    1    3    3    0  502  0.11567386843E+03 -0.63030435724E+03  0.71895587654E+03  0.96309998921E+03  0.10100000352E+00 0. -1.
</event>
<event>
 5   0  0.3236653E-06  0.1900168E+04  0.7818609E-02  0.8654773E-01
        1   -1    0    0  501    0  0.00000000000E+00  0.00000000000E+00  0.16922097455E+04  0.16922097455E+04  0.50400001928E-02 0. -1.
       -1   -1    0    0    0  501  0.00000000000E+00  0.00000000000E+00 -0.53342083497E+03  0.53342083499E+03  0.50400001928E-02 0.  1.
    10030    2    1    2    0    0  0.00000000000E+00  0.00000000000E+00  0.11587889105E+04  0.22256305805E+04  0.19001683456E+04 0.  0.
        3    1    3    3  502    0 -0.31706208155E+03 -0.40472692685E+02 -0.46855397636E+03  0.56719418313E+03  0.10100000352E+00 0.  1.
       -3    1    3    3    0  502  0.31706208155E+03  0.40472692685E+02  0.16273428869E+04  0.16584363974E+04  0.10100000352E+00 0. -1.
</event>
<event>
 5   0  0.6870370E-06  0.1900929E+04  0.7818609E-02  0.8654394E-01
        2   -1    0    0  501    0  0.00000000000E+00  0.00000000000E+00  0.71263259679E+03  0.71263259680E+03  0.25500000920E-02 0.  1.
       -2   -1    0    0    0  501  0.00000000000E+00  0.00000000000E+00 -0.12676697488E+04  0.12676697488E+04  0.25500000920E-02 0. -1.
    10030    2    1    2    0    0  0.00000000000E+00  0.00000000000E+00 -0.55503715205E+03  0.19803023456E+04  0.19009290202E+04 0.  0.
        1    1    3    3  502    0  0.52040125322E+03 -0.53135503409E+03  0.33899196295E+03  0.81735621829E+03  0.50400001928E-02 0.  1.
       -1    1    3    3    0  502 -0.52040125322E+03  0.53135503409E+03 -0.89402911500E+03  0.11629461273E+04  0.50400001928E-02 0. -1.
</event>
<event>
 5   0  0.3211263E-06  0.1899665E+04  0.7818609E-02  0.8655023E-01
        1   -1    0    0  501    0  0.00000000000E+00  0.00000000000E+00  0.13771683094E+04  0.13771683094E+04  0.50400001928E-02 0. -1.
       -1   -1    0    0    0  501  0.00000000000E+00  0.00000000000E+00 -0.65509906275E+03  0.65509906277E+03  0.50400001928E-02 0.  1.
    10030    2    1    2    0    0  0.00000000000E+00  0.00000000000E+00  0.72206924667E+03  0.20322673722E+04  0.18996648849E+04 0.  0.
        5    1    3    3  502    0 -0.33471746597E+03 -0.27869182160E+03 -0.54195439166E+03  0.69529962325E+03  0.46999998093E+01 0.  1.
       -5    1    3    3    0  502  0.33471746597E+03  0.27869182160E+03  0.12640236383E+04  0.13369677489E+04  0.46999998093E+01 0. -1.
</event>
<event>
 5   0  0.6870370E-06  0.1900141E+04  0.7818609E-02  0.8654786E-01
        2   -1    0    0  501    0  0.00000000000E+00  0.00000000000E+00  0.11382949601E+04  0.11382949601E+04  0.25500000920E-02 0. -1.
       -2   -1    0    0    0  501  0.00000000000E+00  0.00000000000E+00 -0.79297014897E+03  0.79297014898E+03  0.25500000920E-02 0.  1.
    10030    2    1    2    0    0  0.00000000000E+00  0.00000000000E+00  0.34532481113E+03  0.19312651091E+04  0.19001409675E+04 0.  0.
        1    1    3    3  502    0  0.58171218855E+03  0.38146647875E+03 -0.48502900088E+03  0.84803235577E+03  0.50400001928E-02 0.  1.
       -1    1    3    3    0  502 -0.58171218855E+03 -0.38146647875E+03  0.83035381201E+03  0.10832327533E+04  0.50400001928E-02 0. -1.
</event>
<event>
 5   0  0.6862201E-06  0.1897629E+04  0.7818609E-02  0.8656037E-01
       -2   -1    0    0    0  501  0.00000000000E+00  0.00000000000E+00  0.69235632879E+03  0.69235632880E+03  0.25500000920E-02 0. -1.
        2   -1    0    0  501    0  0.00000000000E+00  0.00000000000E+00 -0.13002684041E+04  0.13002684041E+04  0.25500000920E-02 0.  1.
    10030    2    1    2    0    0  0.00000000000E+00  0.00000000000E+00 -0.60791207529E+03  0.19926247329E+04  0.18976291089E+04 0.  0.
        3    1    3    3  502    0 -0.45000302162E+03  0.11588834938E+03 -0.11726015889E+04  0.12613196762E+04  0.10100000352E+00 0.  1.
       -3    1    3    3    0  502  0.45000302162E+03 -0.11588834938E+03  0.56468951361E+03  0.73130505671E+03  0.10100000352E+00 0. -1.
</event>
<event>
 5   0  0.6984466E-06  0.1899568E+04  0.7818609E-02  0.8655071E-01
        2   -1    0    0  501    0  0.00000000000E+00  0.00000000000E+00  0.21720339506E+04  0.21720339506E+04  0.25500000920E-02 0. -1.
       -2   -1    0    0    0  501  0.00000000000E+00  0.00000000000E+00 -0.41532021809E+03  0.41532021810E+03  0.25500000920E-02 0.  1.
    10030    2    1    2    0    0  0.00000000000E+00  0.00000000000E+00  0.17567137325E+04  0.25873541687E+04  0.18995679657E+04 0.  0.
        2    1    3    3  502    0 -0.56235316386E+03 -0.15479975146E+03  0.18993550828E+04  0.19868955117E+04  0.25500000920E-02 0. -1.
       -2    1    3    3    0  502  0.56235316386E+03  0.15479975146E+03 -0.14264135026E+03  0.60045865700E+03  0.25500000920E-02 0.  1.
</event>
<event>
 5   0  0.3495279E-06  0.1899593E+04  0.7818609E-02  0.8655059E-01
       -1   -1    0    0    0  501  0.00000000000E+00  0.00000000000E+00  0.55416250503E+03  0.55416250506E+03  0.50400001928E-02 0. -1.
        1   -1    0    0  501    0  0.00000000000E+00  0.00000000000E+00 -0.16278863456E+04  0.16278863456E+04  0.50400001928E-02 0.  1.
    10030    2    1    2    0    0  0.00000000000E+00  0.00000000000E+00 -0.10737238406E+04  0.21820488507E+04  0.18995931935E+04 0.  0.
        2    1    3    3  502    0  0.53347883204E+01 -0.66022300150E+03 -0.13211681576E+04  0.14769590963E+04  0.25500000920E-02 0.  1.
       -2    1    3    3    0  502 -0.53347883204E+01  0.66022300150E+03  0.24744431697E+03  0.70508975435E+03  0.25500000920E-02 0. -1.
</event>
<event>
 5   0  0.7577180E-06  0.1899580E+04  0.7818609E-02  0.8655065E-01
        2   -1    0    0  501    0  0.00000000000E+00  0.00000000000E+00  0.43067581439E+03  0.43067581440E+03  0.25500000920E-02 0.  1.
       -2   -1    0    0    0  501  0.00000000000E+00  0.00000000000E+00 -0.20946182113E+04  0.20946182113E+04  0.25500000920E-02 0. -1.
    10030    2    1    2    0    0  0.00000000000E+00  0.00000000000E+00 -0.16639423969E+04  0.25252940257E+04  0.18995803789E+04 0.  0.
        5    1    3    3  502    0  0.78255704331E+03  0.51191991609E+03 -0.10529141574E+04  0.14082286176E+04  0.46999998093E+01 0.  1.
       -5    1    3    3    0  502 -0.78255704331E+03 -0.51191991609E+03 -0.61102823949E+03  0.11170654081E+04  0.46999998093E+01 0. -1.
</event>
<event>
 5   0  0.2527750E-06  0.1899976E+04  0.7818609E-02  0.8654868E-01
       -3   -1    0    0    0  501  0.00000000000E+00  0.00000000000E+00  0.60639690909E+03  0.60639691750E+03  0.10100000352E+00 0. -1.
        3   -1    0    0  501    0  0.00000000000E+00  0.00000000000E+00 -0.14882612838E+04  0.14882612873E+04  0.10100000352E+00 0.  1.
    10030    2    1    2    0    0  0.00000000000E+00  0.00000000000E+00 -0.88186437474E+03  0.20946582048E+04  0.18999758470E+04 0.  0.
        4    1    3    3  502    0  0.61009815721E+03 -0.70991848241E+03 -0.26223943683E+03  0.97209832230E+03  0.12699999809E+01 0. -1.
       -4    1    3    3    0  502 -0.61009815721E+03  0.70991848241E+03 -0.61962493791E+03  0.11225598824E+04  0.12699999809E+01 0.  1.
</event>
<event>
 5   0  0.7577180E-06  0.1899766E+04  0.7818609E-02  0.8654973E-01
       -2   -1    0    0    0  501  0.00000000000E+00  0.00000000000E+00  0.34064219664E+03  0.34064219665E+03  0.25500000920E-02 0.  1.
        2   -1    0    0  501    0  0.00000000000E+00  0.00000000000E+00 -0.26487538507E+04  0.26487538507E+04  0.25500000920E-02 0. -1.
    10030    2    1    2    0    0  0.00000000000E+00  0.00000000000E+00 -0.23081116540E+04  0.29893960473E+04  0.18997655961E+04 0.  0.
        5    1    3    3  502    0  0.38944964005E+02  0.36039141706E+03  0.22750567441E+03  0.42799486633E+03  0.46999998093E+01 0.  1.
       -5    1    3    3    0  502 -0.38944964005E+02 -0.36039141706E+03 -0.25356173284E+04  0.25614011810E+04  0.46999998093E+01 0. -1.
</event>
<event>
 5   0  0.6870370E-06  0.1899617E+04  0.7818609E-02  0.8655047E-01
        2   -1    0    0  501    0  0.00000000000E+00  0.00000000000E+00  0.17132847631E+04  0.17132847631E+04  0.25500000920E-02 0. -1.
       -2   -1    0    0    0  501  0.00000000000E+00  0.00000000000E+00 -0.52655371044E+03  0.52655371044E+03  0.25500000920E-02 0.  1.
    10030    2    1    2    0    0  0.00000000000E+00  0.00000000000E+00  0.11867310527E+04  0.22398384736E+04  0.18996172763E+04 0.  0.
        1    1    3    3  502    0  0.44568787818E+02 -0.87722188072E+03  0.10195279155E+04  0.13457123673E+04  0.50400001928E-02 0. -1.
       -1    1    3    3    0  502 -0.44568787818E+02  0.87722188072E+03  0.16720313718E+03  0.89412610631E+03  0.50400001928E-02 0.  1.
</event>
<event>
 5   0  0.7207648E-06  0.1900713E+04  0.7818609E-02  0.8654502E-01
       -2   -1    0    0    0  501  0.00000000000E+00  0.00000000000E+00  0.14332677448E+04  0.14332677448E+04  0.25500000920E-02 0.  1.
        2   -1    0    0  501    0  0.00000000000E+00  0.00000000000E+00 -0.63015266476E+03  0.63015266476E+03  0.25500000920E-02 0. -1.
    10030    2    1    2    0    0  0.00000000000E+00  0.00000000000E+00  0.80311507999E+03  0.20634204095E+04  0.19007130122E+04 0.  0.
        4    1    3    3  502    0 -0.48662767375E+03 -0.14291449766E+02  0.12876154857E+04  0.13765776368E+04  0.12699999809E+01 0.  1.
       -4    1    3    3    0  502  0.48662767375E+03  0.14291449766E+02 -0.48450040567E+03  0.68684277269E+03  0.12699999809E+01 0. -1.
</event>
<event>
 5   0  0.3495279E-06  0.1900633E+04  0.7818609E-02  0.8654541E-01
        1   -1    0    0  501    0  0.00000000000E+00  0.00000000000E+00  0.18301886751E+04  0.18301886751E+04  0.50400001928E-02 0.  1.
       -1   -1    0    0    0  501  0.00000000000E+00  0.00000000000E+00 -0.49344737774E+03  0.49344737777E+03  0.50400001928E-02 0. -1.
    10030    2    1    2    0    0  0.00000000000E+00  0.00000000000E+00  0.13367412974E+04  0.23236360529E+04  0.19006333708E+04 0.  0.
        2    1    3    3  502    0  0.78193176116E+03  0.72968265750E+02  0.14147283063E+02  0.78545642307E+03  0.25500000920E-02 0. -1.
       -2    1    3    3    0  502 -0.78193176116E+03 -0.72968265750E+02  0.13225940143E+04  0.15381796298E+04  0.25500000920E-02 0.  1.
</event>
<event>
 5   0  0.3495279E-06  0.1900152E+04  0.7818609E-02  0.8654781E-01
        1   -1    0    0  501    0  0.00000000000E+00  0.00000000000E+00  0.14531189878E+04  0.14531189878E+04  0.50400001928E-02 0.  1.
       -1   -1    0    0    0  501  0.00000000000E+00  0.00000000000E+00 -0.62117748365E+03  0.62117748367E+03  0.50400001928E-02 0. -1.
    10030    2    1    2    0    0  0.00000000000E+00  0.00000000000E+00  0.83194150416E+03  0.20742964715E+04  0.19001524111E+04 0.  0.
        2    1    3    3  502    0  0.88370082984E+03  0.27951403589E+03  0.64388608930E+03  0.11285586156E+04  0.25500000920E-02 0.  1.
       -2    1    3    3    0  502 -0.88370082984E+03 -0.27951403589E+03  0.18805541486E+03  0.94573785585E+03  0.25500000920E-02 0. -1.
</event>
<event>
 5   0  0.7577180E-06  0.1899675E+04  0.7818609E-02  0.8655018E-01
        2   -1    0    0  501    0  0.00000000000E+00  0.00000000000E+00  0.24086976369E+04  0.24086976369E+04  0.25500000920E-02 0. -1.
       -2   -1    0    0    0  501  0.00000000000E+00  0.00000000000E+00 -0.37455553254E+03  0.37455553255E+03  0.25500000920E-02 0.  1.
    10030    2    1    2    0    0  0.00000000000E+00  0.00000000000E+00  0.20341421043E+04  0.27832531694E+04  0.18996747365E+04 0.  0.
        5    1    3    3  502    0  0.23795565202E+03  0.22975255372E+03 -0.28742952929E+03  0.43823161978E+03  0.46999998093E+01 0.  1.
       -5    1    3    3    0  502 -0.23795565202E+03 -0.22975255372E+03  0.23215716336E+04  0.23450215497E+04  0.46999998093E+01 0. -1.
</event>
<event>
 5   0  0.6862201E-06  0.1900637E+04  0.7818609E-02  0.8654539E-01
       -2   -1    0    0    0  501  0.00000000000E+00  0.00000000000E+00  0.77281497667E+03  0.77281497667E+03  0.25500000920E-02 0.  1.
        2   -1    0    0  501    0  0.00000000000E+00  0.00000000000E+00 -0.11685915461E+04  0.11685915461E+04  0.25500000920E-02 0. -1.
    10030    2    1    2    0    0  0.00000000000E+00  0.00000000000E+00 -0.39577656942E+03  0.19414065228E+04  0.19006367864E+04 0.  0.
        3    1    3    3  502    0 -0.12177621492E+03  0.47163523182E+03 -0.10313793041E+04  0.11406193570E+04  0.10100000352E+00 0. -1.
       -3    1    3    3    0  502  0.12177621492E+03 -0.47163523182E+03  0.63560273465E+03  0.80078716580E+03  0.10100000352E+00 0.  1.
</event>
<event>
 5   0  0.3495279E-06  0.1903256E+04  0.7818609E-02  0.8653237E-01
       -1   -1    0    0    0  501  0.00000000000E+00  0.00000000000E+00  0.85959159365E+03  0.85959159366E+03  0.50400001928E-02 0.  1.
        1   -1    0    0  501    0  0.00000000000E+00  0.00000000000E+00 -0.10535192665E+04  0.10535192665E+04  0.50400001928E-02 0. -1.
    10030    2    1    2    0    0  0.00000000000E+00  0.00000000000E+00 -0.19392767289E+03  0.19131108602E+04  0.19032564780E+04 0.  0.
        2    1    3    3  502    0 -0.64522485947E+03 -0.55678662890E+03  0.32863107905E+03  0.91341384680E+03  0.25500000920E-02 0.  1.
       -2    1    3    3    0  502  0.64522485947E+03  0.55678662890E+03 -0.52255875193E+03  0.99969701341E+03  0.25500000920E-02 0. -1.
</event>
<event>
 5   0  0.7207648E-06  0.1899565E+04  0.7818609E-02  0.8655073E-01
        2   -1    0    0  501    0  0.00000000000E+00  0.00000000000E+00  0.14754634695E+04  0.14754634695E+04  0.25500000920E-02 0.  1.
       -2   -1    0    0    0  501  0.00000000000E+00  0.00000000000E+00 -0.61139240797E+03  0.61139240797E+03  0.25500000920E-02 0. -1.
    10030    2    1    2    0    0  0.00000000000E+00  0.00000000000E+00  0.86407106156E+03  0.20868558775E+04  0.18995653856E+04 0.  0.
        4    1    3    3  502    0 -0.74951056119E+03  0.55757363903E+03  0.62050521532E+03  0.11214645690E+04  0.12699999809E+01 0.  1.
       -4    1    3    3    0  502  0.74951056119E+03 -0.55757363903E+03  0.24356584624E+03  0.96539130856E+03  0.12699999809E+01 0. -1.
</event>
<event>
 5   0  0.3379108E-06  0.1898896E+04  0.7818609E-02  0.8655406E-01
        1   -1    0    0  501    0  0.00000000000E+00  0.00000000000E+00  0.12401316923E+04  0.12401316923E+04  0.50400001928E-02 0. -1.
       -1   -1    0    0    0  501  0.00000000000E+00  0.00000000000E+00 -0.72690020167E+03  0.72690020168E+03  0.50400001928E-02 0.  1.
    10030    2    1    2    0    0  0.00000000000E+00  0.00000000000E+00  0.51323149064E+03  0.19670318940E+04  0.18988964977E+04 0.  0.
        4    1    3    3  502    0  0.23165141360E+03 -0.91101410369E+03  0.11825170593E+03  0.94741445703E+03  0.12699999809E+01 0.  1.
       -4    1    3    3    0  502 -0.23165141360E+03  0.91101410369E+03  0.39497978472E+03  0.10196174370E+04  0.12699999809E+01 0. -1.
</event>
<event>
 5   0  0.3236653E-06  0.1900116E+04  0.7818609E-02  0.8654799E-01
        1   -1    0    0  501    0  0.00000000000E+00  0.00000000000E+00  0.23522627648E+04  0.23522627648E+04  0.50400001928E-02 0. -1.
       -1   -1    0    0    0  501  0.00000000000E+00  0.00000000000E+00 -0.38371998488E+03  0.38371998491E+03  0.50400001928E-02 0.  1.
    10030    2    1    2    0    0  0.00000000000E+00  0.00000000000E+00  0.19685427799E+04  0.27359827497E+04  0.19001160308E+04 0.  0.
        3    1    3    3  502    0 -0.19256801671E+03 -0.59972111736E+03 -0.39845236463E+02  0.63113826752E+03  0.10100000352E+00 0.  1.
       -3    1    3    3    0  502  0.19256801671E+03  0.59972111736E+03  0.20083880164E+04  0.21048444822E+04  0.10100000352E+00 0. -1.
</event>
<event>
 5   0  0.6870370E-06  0.1899603E+04  0.7818609E-02  0.8655054E-01
        2   -1    0    0  501    0  0.00000000000E+00  0.00000000000E+00  0.10440451827E+04  0.10440451827E+04  0.25500000920E-02 0. -1.
       -2   -1    0    0    0  501  0.00000000000E+00  0.00000000000E+00 -0.86406541357E+03  0.86406541357E+03  0.25500000920E-02 0.  1.
    10030    2    1    2    0    0  0.00000000000E+00  0.00000000000E+00  0.17997976910E+03  0.19081105962E+04  0.18996034666E+04 0.  0.
        1    1    3    3  502    0 -0.36296028431E+03 -0.76024768440E+02 -0.78834210833E+03  0.87120790469E+03  0.50400001928E-02 0.  1.
       -1    1    3    3    0  502  0.36296028431E+03  0.76024768440E+02  0.96832187743E+03  0.10369026916E+04  0.50400001928E-02 0. -1.
</event>
<event>
 5   0  0.3495279E-06  0.1899214E+04  0.7818609E-02  0.8655248E-01
        1   -1    0    0  501    0  0.00000000000E+00  0.00000000000E+00  0.72698595394E+03  0.72698595396E+03  0.50400001928E-02 0.  1.
       -1   -1    0    0    0  501  0.00000000000E+00  0.00000000000E+00 -0.12404003693E+04  0.12404003693E+04  0.50400001928E-02 0. -1.
    10030    2    1    2    0    0  0.00000000000E+00  0.00000000000E+00 -0.51341441533E+03  0.19673863232E+04  0.18992142015E+04 0.  0.
        2    1    3    3  502    0  0.34243505583E+03 -0.12291479775E+03 -0.11653375313E+04  0.12208117696E+04  0.25500000920E-02 0. -1.
       -2    1    3    3    0  502 -0.34243505583E+03  0.12291479775E+03  0.65192311597E+03  0.74657455362E+03  0.25500000920E-02 0.  1.
</event>
<event>
 5   0  0.6870370E-06  0.1900220E+04  0.7818609E-02  0.8654747E-01
        2   -1    0    0  501    0  0.00000000000E+00  0.00000000000E+00  0.17636477306E+04  0.17636477306E+04  0.25500000920E-02 0.  1.
       -2   -1    0    0    0  501  0.00000000000E+00  0.00000000000E+00 -0.51184208003E+03  0.51184208003E+03  0.25500000920E-02 0. -1.
    10030    2    1    2    0    0  0.00000000000E+00  0.00000000000E+00  0.12518056506E+04  0.22754898107E+04  0.19002201166E+04 0.  0.
        1    1    3    3  502    0 -0.57867866304E+03 -0.44260745160E+03  0.13562119215E+04  0.15395067805E+04  0.50400001928E-02 0.  1.
       -1    1    3    3    0  502  0.57867866304E+03  0.44260745160E+03 -0.10440627086E+03  0.73598303016E+03  0.50400001928E-02 0. -1.
</event>
<event>
 5   0  0.6862201E-06  0.1900200E+04  0.7818609E-02  0.8654757E-01
       -2   -1    0    0    0  501  0.00000000000E+00  0.00000000000E+00  0.58939135072E+03  0.58939135073E+03  0.25500000920E-02 0.  1.
        2   -1    0    0  501    0  0.00000000000E+00  0.00000000000E+00 -0.15315623620E+04  0.15315623620E+04  0.25500000920E-02 0. -1.
    10030    2    1    2    0    0  0.00000000000E+00  0.00000000000E+00 -0.94217101125E+03  0.21209537127E+04  0.19001995782E+04 0.  0.
        3    1    3    3  502    0  0.52677351796E+03  0.10316643761E+03 -0.13460948396E+04  0.14491738958E+04  0.10100000352E+00 0. -1.
       -3    1    3    3    0  502 -0.52677351796E+03 -0.10316643761E+03  0.40392382830E+03  0.67177981687E+03  0.10100000352E+00 0.  1.
</event>
<event>
 5   0  0.3398807E-06  0.1902170E+04  0.7818609E-02  0.8653777E-01
       -1   -1    0    0    0  501  0.00000000000E+00  0.00000000000E+00  0.52413248106E+03  0.52413248109E+03  0.50400001928E-02 0. -1.
        1   -1    0    0  501    0  0.00000000000E+00  0.00000000000E+00 -0.17258284825E+04  0.17258284825E+04  0.50400001928E-02 0.  1.
    10030    2    1    2    0    0  0.00000000000E+00  0.00000000000E+00 -0.12016960014E+04  0.22499609636E+04  0.19021700917E+04 0.  0.
        1    1    3    3  502    0 -0.28382466239E+03 -0.88611743509E+03 -0.36784908362E+03  0.10005366041E+04  0.50400001928E-02 0. -1.
       -1    1    3    3    0  502  0.28382466239E+03  0.88611743509E+03 -0.83384691778E+03  0.12494243595E+04  0.50400001928E-02 0.  1.
</event>
<event>
 5   0  0.3398807E-06  0.1900371E+04  0.7818609E-02  0.8654671E-01
       -1   -1    0    0    0  501  0.00000000000E+00  0.00000000000E+00  0.39364488056E+03  0.39364488060E+03  0.50400001928E-02 0.  1.
        1   -1    0    0  501    0  0.00000000000E+00  0.00000000000E+00 -0.22935721538E+04  0.22935721538E+04  0.50400001928E-02 0. -1.
    10030    2    1    2    0    0  0.00000000000E+00  0.00000000000E+00 -0.18999272733E+04  0.26872170344E+04  0.19003714759E+04 0.  0.
        1    1    3    3  502    0  0.74878436974E+03  0.58488534230E+03 -0.96292673418E+03  0.13527737399E+04  0.50400001928E-02 0.  1.
       -1    1    3    3    0  502 -0.74878436974E+03 -0.58488534230E+03 -0.93700053909E+03  0.13344432945E+04  0.50400001928E-02 0. -1.
</event>
<event>
 5   0  0.6870370E-06  0.1900113E+04  0.7818609E-02  0.8654800E-01
       -2   -1    0    0    0  501  0.00000000000E+00  0.00000000000E+00  0.13215395450E+04  0.13215395450E+04  0.25500000920E-02 0.  1.
        2   -1    0    0  501    0  0.00000000000E+00  0.00000000000E+00 -0.68299700657E+03  0.68299700657E+03  0.25500000920E-02 0. -1.
    10030    2    1    2    0    0  0.00000000000E+00  0.00000000000E+00  0.63854253844E+03  0.20045365516E+04  0.19001132106E+04 0.  0.
        1    1    3    3  502    0 -0.27016866418E+03  0.14721271577E+03 -0.62898421740E+03  0.70020271104E+03  0.50400001928E-02 0. -1.
       -1    1    3    3    0  502  0.27016866418E+03 -0.14721271577E+03  0.12675267558E+04  0.13043338405E+04  0.50400001928E-02 0.  1.
</event>
<event>
 5   0  0.3495279E-06  0.1899854E+04  0.7818609E-02  0.8654929E-01
        1   -1    0    0  501    0  0.00000000000E+00  0.00000000000E+00  0.11957285246E+04  0.11957285247E+04  0.50400001928E-02 0. -1.
       -1   -1    0    0    0  501  0.00000000000E+00  0.00000000000E+00 -0.75465414750E+03  0.75465414751E+03  0.50400001928E-02 0.  1.
    10030    2    1    2    0    0  0.00000000000E+00  0.00000000000E+00  0.44107437715E+03  0.19503826722E+04  0.18998541949E+04 0.  0.
        2    1    3    3  502    0  0.28999718451E+03 -0.71794719127E+03  0.78545883589E+03  0.11029470157E+04  0.25500000920E-02 0. -1.
       -2    1    3    3    0  502 -0.28999718451E+03  0.71794719127E+03 -0.34438445875E+03  0.84743565650E+03  0.25500000920E-02 0.  1.
</event>
<event>
 5   0  0.3398807E-06  0.1900470E+04  0.7818609E-02  0.8654622E-01
        1   -1    0    0  501    0  0.00000000000E+00  0.00000000000E+00  0.12181065065E+04  0.12181065066E+04  0.50400001928E-02 0. -1.
       -1   -1    0    0    0  501  0.00000000000E+00  0.00000000000E+00 -0.74127071714E+03  0.74127071716E+03  0.50400001928E-02 0.  1.
    10030    2    1    2    0    0  0.00000000000E+00  0.00000000000E+00  0.47683578940E+03  0.19593772237E+04  0.19004701352E+04 0.  0.
        1    1    3    3  502    0 -0.89735147968E+02  0.67735296787E+03  0.91925575418E+03  0.11453779208E+04  0.50400001928E-02 0. -1.
       -1    1    3    3    0  502  0.89735147968E+02 -0.67735296787E+03 -0.44241996477E+03  0.81399930290E+03  0.50400001928E-02 0.  1.
</event>
<event>
 5   0  0.6862201E-06  0.1900002E+04  0.7818609E-02  0.8654855E-01
       -2   -1    0    0    0  501  0.00000000000E+00  0.00000000000E+00  0.56633250432E+03  0.56633250432E+03  0.25500000920E-02 0.  1.
        2   -1    0    0  501    0  0.00000000000E+00  0.00000000000E+00 -0.15935901388E+04  0.15935901388E+04  0.25500000920E-02 0. -1.
    10030    2    1    2    0    0  0.00000000000E+00  0.00000000000E+00 -0.10272576345E+04  0.21599226431E+04  0.19000019938E+04 0.  0.
        3    1    3    3  502    0  0.35376117953E+03  0.14625325319E+03  0.47477623278E+03  0.60987660032E+03  0.10100000352E+00 0.  1.
       -3    1    3    3    0  502 -0.35376117953E+03 -0.14625325319E+03 -0.15020338672E+04  0.15500460428E+04  0.10100000352E+00 0. -1.
</event>
<event>
 5   0  0.3379108E-06  0.1900325E+04  0.7818609E-02  0.8654695E-01
        1   -1    0    0  501    0  0.00000000000E+00  0.00000000000E+00  0.17468011111E+04  0.17468011111E+04  0.50400001928E-02 0. -1.
       -1   -1    0    0    0  501  0.00000000000E+00  0.00000000000E+00 -0.51683532656E+03  0.51683532658E+03  0.50400001928E-02 0.  1.
    10030    2    1    2    0    0  0.00000000000E+00  0.00000000000E+00  0.12299657845E+04  0.22636364377E+04  0.19003247330E+04 0.  0.
        4    1    3    3  502    0 -0.58527512392E+03 -0.71152579929E+03  0.33819987149E+03  0.98142585034E+03  0.12699999809E+01 0. -1.
       -4    1    3    3    0  502  0.58527512392E+03  0.71152579929E+03  0.89176591304E+03  0.12822105873E+04  0.12699999809E+01 0.  1.
</event>
<event>
 5   0  0.3398807E-06  0.1900024E+04  0.7818609E-02  0.8654845E-01
        1   -1    0    0  501    0  0.00000000000E+00  0.00000000000E+00  0.16164319923E+04  0.16164319923E+04  0.50400001928E-02 0.  1.
       -1   -1    0    0    0  501  0.00000000000E+00  0.00000000000E+00 -0.55834241864E+03  0.55834241866E+03  0.50400001928E-02 0. -1.
    10030    2    1    2    0    0  0.00000000000E+00  0.00000000000E+00  0.10580895736E+04  0.21747744109E+04  0.19000237348E+04 0.  0.
        1    1    3    3  502    0 -0.26224838111E+02  0.37586763011E+03  0.15272537197E+04  0.15730442276E+04  0.50400001928E-02 0.  1.
       -1    1    3    3    0  502  0.26224838111E+02 -0.37586763011E+03 -0.46916414612E+03  0.60173018333E+03  0.50400001928E-02 0. -1.
</event>
<event>
 5   0  0.3398807E-06  0.1897854E+04  0.7818609E-02  0.8655925E-01
       -1   -1    0    0    0  501  0.00000000000E+00  0.00000000000E+00  0.10775983556E+04  0.10775983557E+04  0.50400001928E-02 0. -1.
        1   -1    0    0  501    0  0.00000000000E+00  0.00000000000E+00 -0.83561999803E+03  0.83561999804E+03  0.50400001928E-02 0.  1.
    10030    2    1    2    0    0  0.00000000000E+00  0.00000000000E+00  0.24197835761E+03  0.19132183537E+04  0.18978542998E+04 0.  0.
        1    1    3    3  502    0 -0.23403157416E+03  0.61867364258E+03 -0.56491211700E+03  0.86985835266E+03  0.50400001928E-02 0.  1.
       -1    1    3    3    0  502  0.23403157416E+03 -0.61867364258E+03  0.80689047461E+03  0.10433600010E+04  0.50400001928E-02 0. -1.
</event>
<event>
 5   0  0.6984466E-06  0.1899918E+04  0.7818609E-02  0.8654897E-01
        2   -1    0    0  501    0  0.00000000000E+00  0.00000000000E+00  0.11208199421E+04  0.11208199421E+04  0.25500000920E-02 0. -1.
       -2   -1    0    0    0  501  0.00000000000E+00  0.00000000000E+00 -0.80514417223E+03  0.80514417224E+03  0.25500000920E-02 0.  1.
    10030    2    1    2    0    0  0.00000000000E+00  0.00000000000E+00  0.31567576982E+03  0.19259641143E+04  0.18999175187E+04 0.  0.
        2    1    3    3  502    0  0.22181557685E+03  0.35007322981E+03 -0.70867206731E+03  0.82095646374E+03  0.25500000920E-02 0.  1.
       -2    1    3    3    0  502 -0.22181557685E+03 -0.35007322981E+03  0.10243478371E+04  0.11050076506E+04  0.25500000920E-02 0. -1.
</event>
<event>
 5   0  0.7207648E-06  0.1903667E+04  0.7818609E-02  0.8653033E-01
        2   -1    0    0  501    0  0.00000000000E+00  0.00000000000E+00  0.66913331837E+03  0.66913331838E+03  0.25500000920E-02 0. -1.
       -2   -1    0    0    0  501  0.00000000000E+00  0.00000000000E+00 -0.13539712458E+04  0.13539712458E+04  0.25500000920E-02 0.  1.
    10030    2    1    2    0    0  0.00000000000E+00  0.00000000000E+00 -0.68483792743E+03  0.20231045642E+04  0.19036672742E+04 0.  0.
        4    1    3    3  502    0 -0.11502387764E+02  0.81874872286E+03  0.17331570028E+03  0.83697175638E+03  0.12699999809E+01 0. -1.
       -4    1    3    3    0  502  0.11502387764E+02 -0.81874872286E+03 -0.85815362771E+03  0.11861328078E+04  0.12699999809E+01 0.  1.
</event>
<event>
 5   0  0.6862201E-06  0.1898804E+04  0.7818609E-02  0.8655452E-01
        2   -1    0    0  501    0  0.00000000000E+00  0.00000000000E+00  0.79417100709E+03  0.79417100710E+03  0.25500000920E-02 0.  1.
       -2   -1    0    0    0  501  0.00000000000E+00  0.00000000000E+00 -0.11349745428E+04  0.11349745428E+04  0.25500000920E-02 0. -1.
    10030    2    1    2    0    0  0.00000000000E+00  0.00000000000E+00 -0.34080353572E+03  0.19291455499E+04  0.18988037031E+04 0.  0.
        3    1    3    3  502    0 -0.25327901991E+03 -0.91332537868E+03 -0.22651434366E+03  0.97448564246E+03  0.10100000352E+00 0. -1.
       -3    1    3    3    0  502  0.25327901991E+03  0.91332537868E+03 -0.11428919206E+03  0.95465990745E+03  0.10100000352E+00 0.  1.
</event>
<event>
 5   0  0.3236653E-06  0.1899135E+04  0.7818609E-02  0.8655287E-01
        1   -1    0    0  501    0  0.00000000000E+00  0.00000000000E+00  0.14114354543E+04  0.14114354543E+04  0.50400001928E-02 0.  1.
       -1   -1    0    0    0  501  0.00000000000E+00  0.00000000000E+00 -0.63883799821E+03  0.63883799823E+03  0.50400001928E-02 0. -1.
    10030    2    1    2    0    0  0.00000000000E+00  0.00000000000E+00  0.77259745607E+03  0.20502734525E+04  0.18991351719E+04 0.  0.
        3    1    3    3  502    0  0.92680854985E+03 -0.26211422122E+01  0.16322018253E+03  0.94107480927E+03  0.10100000352E+00 0. -1.
       -3    1    3    3    0  502 -0.92680854985E+03  0.26211422122E+01  0.60937727354E+03  0.11091986432E+04  0.10100000352E+00 0.  1.
</event>
<event>
 5   0  0.7577180E-06  0.1904549E+04  0.7818609E-02  0.8652595E-01
       -2   -1    0    0    0  501  0.00000000000E+00  0.00000000000E+00  0.54184909478E+03  0.54184909479E+03  0.25500000920E-02 0. -1.
        2   -1    0    0  501    0  0.00000000000E+00  0.00000000000E+00 -0.16735785325E+04  0.16735785325E+04  0.25500000920E-02 0.  1.
    10030    2    1    2    0    0  0.00000000000E+00  0.00000000000E+00 -0.11317294377E+04  0.22154276273E+04  0.19045493041E+04 0.  0.
        5    1    3    3  502    0 -0.29056178005E+03 -0.17401257409E+03 -0.16011377839E+04  0.16365728878E+04  0.46999998093E+01 0.  1.
       -5    1    3    3    0  502  0.29056178005E+03  0.17401257409E+03  0.46940834620E+03  0.57885473950E+03  0.46999998093E+01 0. -1.
</event>
<event>
 5   0  0.6984466E-06  0.1899906E+04  0.7818609E-02  0.8654903E-01
        2   -1    0    0  501    0  0.00000000000E+00  0.00000000000E+00  0.87934344764E+03  0.87934344765E+03  0.25500000920E-02 0. -1.
       -2   -1    0    0    0  501  0.00000000000E+00  0.00000000000E+00 -0.10262324185E+04  0.10262324185E+04  0.25500000920E-02 0.  1.
    10030    2    1    2    0    0  0.00000000000E+00  0.00000000000E+00 -0.14688897089E+03  0.19055758662E+04  0.18999060535E+04 0.  0.
        2    1    3    3  502    0 -0.80071043497E+02  0.85305327454E+03  0.33802299730E+03  0.92107046848E+03  0.25500000920E-02 0. -1.
       -2    1    3    3    0  502  0.80071043497E+02 -0.85305327454E+03 -0.48491196819E+03  0.98450539770E+03  0.25500000920E-02 0.  1.
</event>
<event>
 5   0  0.3236653E-06  0.1900307E+04  0.7818609E-02  0.8654704E-01
       -1   -1    0    0    0  501  0.00000000000E+00  0.00000000000E+00  0.91685888570E+03  0.91685888571E+03  0.50400001928E-02 0.  1.
        1   -1    0    0  501    0  0.00000000000E+00  0.00000000000E+00 -0.98465706322E+03  0.98465706324E+03  0.50400001928E-02 0. -1.
    10030    2    1    2    0    0  0.00000000000E+00  0.00000000000E+00 -0.67798177529E+02  0.19015159489E+04  0.19003068992E+04 0.  0.
        3    1    3    3  502    0 -0.46370237662E+03  0.64603574842E+03  0.48644088180E+03  0.93220535506E+03  0.10100000352E+00 0. -1.
       -3    1    3    3    0  502  0.46370237662E+03 -0.64603574842E+03 -0.55423905933E+03  0.96931059388E+03  0.10100000352E+00 0.  1.
</event>
<event>
 5   0  0.7577180E-06  0.1897518E+04  0.7818609E-02  0.8656093E-01
       -2   -1    0    0    0  501  0.00000000000E+00  0.00000000000E+00  0.38209358125E+03  0.38209358126E+03  0.25500000920E-02 0. -1.
        2   -1    0    0  501    0  0.00000000000E+00  0.00000000000E+00 -0.23558198551E+04  0.23558198551E+04  0.25500000920E-02 0.  1.
    10030    2    1    2    0    0  0.00000000000E+00  0.00000000000E+00 -0.19737262738E+04  0.27379134363E+04  0.18975180054E+04 0.  0.
        5    1    3    3  502    0 -0.52589209359E+03  0.63087232944E+03 -0.30158946493E+03  0.87495181896E+03  0.46999998093E+01 0. -1.
       -5    1    3    3    0  502  0.52589209359E+03 -0.63087232944E+03 -0.16721368089E+04  0.18629616173E+04  0.46999998093E+01 0.  1.
</event>
<event>
 5   0  0.3211263E-06  0.1901118E+04  0.7818609E-02  0.8654300E-01
        1   -1    0    0  501    0  0.00000000000E+00  0.00000000000E+00  0.55365384987E+03  0.55365384990E+03  0.50400001928E-02 0. -1.
       -1   -1    0    0    0  501  0.00000000000E+00  0.00000000000E+00 -0.16319980796E+04  0.16319980796E+04  0.50400001928E-02 0.  1.
    10030    2    1    2    0    0  0.00000000000E+00  0.00000000000E+00 -0.10783442297E+04  0.21856519295E+04  0.19011175869E+04 0.  0.
        5    1    3    3  502    0  0.29299408773E+03  0.90054403570E+03 -0.63338052304E+03  0.11393059609E+04  0.46999998093E+01 0. -1.
       -5    1    3    3    0  502 -0.29299408773E+03 -0.90054403570E+03 -0.44496370669E+03  0.10463459686E+04  0.46999998093E+01 0.  1.
</event>
<event>
 5   0  0.7577180E-06  0.1900030E+04  0.7818609E-02  0.8654842E-01
       -2   -1    0    0    0  501  0.00000000000E+00  0.00000000000E+00  0.11094325495E+04  0.11094325495E+04  0.25500000920E-02 0. -1.
        2   -1    0    0  501    0  0.00000000000E+00  0.00000000000E+00 -0.81350426509E+03  0.81350426509E+03  0.25500000920E-02 0.  1.
    10030    2    1    2    0    0  0.00000000000E+00  0.00000000000E+00  0.29592828445E+03  0.19229368146E+04  0.19000295902E+04 0.  0.
        5    1    3    3  502    0 -0.41930712328E+03 -0.84617692520E+03  0.43412469312E+02  0.94537854052E+03  0.46999998093E+01 0. -1.
       -5    1    3    3    0  502  0.41930712328E+03  0.84617692520E+03  0.25251581513E+03  0.97755827411E+03  0.46999998093E+01 0.  1.
</event>
<event>
 5   0  0.6870370E-06  0.1899825E+04  0.7818609E-02  0.8654943E-01
        2   -1    0    0  501    0  0.00000000000E+00  0.00000000000E+00  0.12139270194E+04  0.12139270194E+04  0.25500000920E-02 0. -1.
       -2   -1    0    0    0  501  0.00000000000E+00  0.00000000000E+00 -0.74331835290E+03  0.74331835290E+03  0.25500000920E-02 0.  1.
    10030    2    1    2    0    0  0.00000000000E+00  0.00000000000E+00  0.47060866651E+03  0.19572453723E+04  0.18998255000E+04 0.  0.
        1    1    3    3  502    0  0.89945805151E+03 -0.27655985718E+03  0.10167636233E+03  0.94649259041E+03  0.50400001928E-02 0.  1.
       -1    1    3    3    0  502 -0.89945805151E+03  0.27655985718E+03  0.36893230418E+03  0.10107527819E+04  0.50400001928E-02 0. -1.
</event>
<event>
 5   0  0.7207648E-06  0.1900054E+04  0.7818609E-02  0.8654829E-01
        2   -1    0    0  501    0  0.00000000000E+00  0.00000000000E+00  0.24244398493E+04  0.24244398493E+04  0.25500000920E-02 0.  1.
       -2   -1    0    0    0  501  0.00000000000E+00  0.00000000000E+00 -0.37227222624E+03  0.37227222625E+03  0.25500000920E-02 0. -1.
    10030    2    1    2    0    0  0.00000000000E+00  0.00000000000E+00  0.20521676230E+04  0.27967120755E+04  0.19000543362E+04 0.  0.
        4    1    3    3  502    0  0.25273774920E+03  0.91475720072E+03  0.10901229815E+04  0.14453466137E+04  0.12699999809E+01 0.  1.
       -4    1    3    3    0  502 -0.25273774920E+03 -0.91475720072E+03  0.96204464156E+03  0.13513654618E+04  0.12699999809E+01 0. -1.
</event>
<event>
 5   0  0.3236653E-06  0.1895400E+04  0.7818609E-02  0.8657149E-01
       -1   -1    0    0    0  501  0.00000000000E+00  0.00000000000E+00  0.49717203378E+03  0.49717203380E+03  0.50400001928E-02 0. -1.
        1   -1    0    0  501    0  0.00000000000E+00  0.00000000000E+00 -0.18064887490E+04  0.18064887490E+04  0.50400001928E-02 0.  1.
    10030    2    1    2    0    0  0.00000000000E+00  0.00000000000E+00 -0.13093167152E+04  0.23036607828E+04  0.18954004172E+04 0.  0.
        3    1    3    3  502    0  0.46390996936E+03  0.43919207745E+03  0.19614747352E+03  0.66826340775E+03  0.10100000352E+00 0. -1.
       -3    1    3    3    0  502 -0.46390996936E+03 -0.43919207745E+03 -0.15054641887E+04  0.16353973750E+04  0.10100000352E+00 0.  1.
</event>
<event>
 5   0  0.3379108E-06  0.1899048E+04  0.7818609E-02  0.8655330E-01
        1   -1    0    0  501    0  0.00000000000E+00  0.00000000000E+00  0.84906415525E+03  0.84906415526E+03  0.50400001928E-02 0.  1.
       -1   -1    0    0    0  501  0.00000000000E+00  0.00000000000E+00 -0.10618702067E+04  0.10618702067E+04  0.50400001928E-02 0. -1.
    10030    2    1    2    0    0  0.00000000000E+00  0.00000000000E+00 -0.21280605147E+03  0.19109343620E+04  0.18990481090E+04 0.  0.
        4    1    3    3  502    0  0.51273022107E+03  0.42594156988E+03  0.57405120700E+03  0.87969023054E+03  0.12699999809E+01 0.  1.
       -4    1    3    3    0  502 -0.51273022107E+03 -0.42594156988E+03 -0.78685725847E+03  0.10312441315E+04  0.12699999809E+01 0. -1.
</event>
<event>
 5   0  0.6870370E-06  0.1910558E+04  0.7818609E-02  0.8649619E-01
       -2   -1    0    0    0  501  0.00000000000E+00  0.00000000000E+00  0.66613461066E+03  0.66613461066E+03  0.25500000920E-02 0. -1.
        2   -1    0    0  501    0  0.00000000000E+00  0.00000000000E+00 -0.13699308880E+04  0.13699308881E+04  0.25500000920E-02 0.  1.
    10030    2    1    2    0    0  0.00000000000E+00  0.00000000000E+00 -0.70379627739E+03  0.20360654987E+04  0.19105584301E+04 0.  0.
        1    1    3    3  502    0 -0.52963431231E+03  0.61737764827E+03  0.18189589321E+03  0.83351891481E+03  0.50400001928E-02 0. -1.
       -1    1    3    3    0  502  0.52963431231E+03 -0.61737764827E+03 -0.88569217060E+03  0.12025465839E+04  0.50400001928E-02 0.  1.
</event>
<event>
 5   0  0.3398807E-06  0.1899509E+04  0.7818609E-02  0.8655101E-01
       -1   -1    0    0    0  501  0.00000000000E+00  0.00000000000E+00  0.14135696725E+04  0.14135696725E+04  0.50400001928E-02 0.  1.
        1   -1    0    0  501    0  0.00000000000E+00  0.00000000000E+00 -0.63812472132E+03  0.63812472134E+03  0.50400001928E-02 0. -1.
    10030    2    1    2    0    0  0.00000000000E+00  0.00000000000E+00  0.77544495119E+03  0.20516943938E+04  0.18995091507E+04 0.  0.
        1    1    3    3  502    0 -0.45906846752E+03  0.73190592218E+03  0.81379264123E+03  0.11868818811E+04  0.50400001928E-02 0. -1.
       -1    1    3    3    0  502  0.45906846752E+03 -0.73190592218E+03 -0.38347690048E+02  0.86481251272E+03  0.50400001928E-02 0.  1.
</event>
<event>
 5   0  0.7207648E-06  0.1899217E+04  0.7818609E-02  0.8655246E-01
       -2   -1    0    0    0  501  0.00000000000E+00  0.00000000000E+00  0.51324239724E+03  0.51324239725E+03  0.25500000920E-02 0.  1.
        2   -1    0    0  501    0  0.00000000000E+00  0.00000000000E+00 -0.17569789996E+04  0.17569789996E+04  0.25500000920E-02 0. -1.
    10030    2    1    2    0    0  0.00000000000E+00  0.00000000000E+00 -0.12437366023E+04  0.22702213968E+04  0.18992168003E+04 0.  0.
        4    1    3    3  502    0 -0.82362102373E+03  0.47252511036E+03 -0.60861503854E+03  0.11278499229E+04  0.12699999809E+01 0.  1.
       -4    1    3    3    0  502  0.82362102373E+03 -0.47252511036E+03 -0.63512156380E+03  0.11423714739E+04  0.12699999809E+01 0. -1.
</event>
<event>
 5   0  0.7577180E-06  0.1899690E+04  0.7818609E-02  0.8655011E-01
        2   -1    0    0  501    0  0.00000000000E+00  0.00000000000E+00  0.28175626779E+04  0.28175626779E+04  0.25500000920E-02 0.  1.
       -2   -1    0    0    0  501  0.00000000000E+00  0.00000000000E+00 -0.32020779191E+03  0.32020779192E+03  0.25500000920E-02 0. -1.
    10030    2    1    2    0    0  0.00000000000E+00  0.00000000000E+00  0.24973548860E+04  0.31377704699E+04  0.18996899997E+04 0.  0.
        5    1    3    3  502    0 -0.69920543319E+03  0.41191783284E+03  0.43342160144E+03  0.92002223528E+03  0.46999998093E+01 0. -1.
       -5    1    3    3    0  502  0.69920543319E+03 -0.41191783284E+03  0.20639332846E+04  0.22177482346E+04  0.46999998093E+01 0.  1.
</event>
<event>
 5   0  0.7577180E-06  0.1899819E+04  0.7818609E-02  0.8654947E-01
       -2   -1    0    0    0  501  0.00000000000E+00  0.00000000000E+00  0.88262337997E+03  0.88262337997E+03  0.25500000920E-02 0. -1.
        2   -1    0    0  501    0  0.00000000000E+00  0.00000000000E+00 -0.10223247928E+04  0.10223247928E+04  0.25500000920E-02 0.  1.
    10030    2    1    2    0    0  0.00000000000E+00  0.00000000000E+00 -0.13970141279E+03  0.19049481727E+04  0.18998186903E+04 0.  0.
        5    1    3    3  502    0  0.59736965948E+03  0.71789434586E+03 -0.24376315001E+03  0.96522814152E+03  0.46999998093E+01 0. -1.
       -5    1    3    3    0  502 -0.59736965948E+03 -0.71789434586E+03  0.10406173722E+03  0.93972003120E+03  0.46999998093E+01 0.  1.
</event>
<event>
 5   0  0.3379108E-06  0.1901297E+04  0.7818609E-02  0.8654211E-01
        1   -1    0    0  501    0  0.00000000000E+00  0.00000000000E+00  0.22051730273E+04  0.22051730273E+04  0.50400001928E-02 0.  1.
       -1   -1    0    0    0  501  0.00000000000E+00  0.00000000000E+00 -0.40982369008E+03  0.40982369011E+03  0.50400001928E-02 0. -1.
    10030    2    1    2    0    0  0.00000000000E+00  0.00000000000E+00  0.17953493372E+04  0.26149967174E+04  0.19012965548E+04 0.  0.
        4    1    3    3  502    0  0.73214620592E+03  0.19792018848E+03  0.10935522596E+03  0.76627060899E+03  0.12699999809E+01 0. -1.
       -4    1    3    3    0  502 -0.73214620592E+03 -0.19792018848E+03  0.16859941112E+04  0.18487261084E+04  0.12699999809E+01 0.  1.
</event>
<event>
 5   0  0.3379108E-06  0.1899796E+04  0.7818609E-02  0.8654958E-01
        1   -1    0    0  501    0  0.00000000000E+00  0.00000000000E+00  0.75614947366E+03  0.75614947367E+03  0.50400001928E-02 0. -1.
       -1   -1    0    0    0  501  0.00000000000E+00  0.00000000000E+00 -0.11932906813E+04  0.11932906813E+04  0.50400001928E-02 0.  1.
    10030    2    1    2    0    0  0.00000000000E+00  0.00000000000E+00 -0.43714120762E+03  0.19494401550E+04  0.18997959055E+04 0.  0.
        4    1    3    3  502    0  0.89753803834E+03  0.20032859952E+03  0.25550402196E+02  0.91997853997E+03  0.12699999809E+01 0. -1.
       -4    1    3    3    0  502 -0.89753803834E+03 -0.20032859952E+03 -0.46269160981E+03  0.10294616150E+04  0.12699999809E+01 0.  1.
</event>
<event>
 5   0  0.3398807E-06  0.1899287E+04  0.7818609E-02  0.8655211E-01
        1   -1    0    0  501    0  0.00000000000E+00  0.00000000000E+00  0.11629837460E+04  0.11629837460E+04  0.50400001928E-02 0. -1.
       -1   -1    0    0    0  501  0.00000000000E+00  0.00000000000E+00 -0.77543902200E+03  0.77543902201E+03  0.50400001928E-02 0.  1.
    10030    2    1    2    0    0  0.00000000000E+00  0.00000000000E+00  0.38754472402E+03  0.19384227680E+04  0.18992872122E+04 0.  0.
        1    1    3    3  502    0  0.53063945335E+03 -0.15814450370E+03 -0.59363978795E+03  0.81178575460E+03  0.50400001928E-02 0.  1.
       -1    1    3    3    0  502 -0.53063945335E+03  0.15814450370E+03  0.98118451196E+03  0.11266370134E+04  0.50400001928E-02 0. -1.
</event>
<event>
 5   0  0.7577180E-06  0.1899931E+04  0.7818609E-02  0.8654891E-01
        2   -1    0    0  501    0  0.00000000000E+00  0.00000000000E+00  0.18490501001E+04  0.18490501001E+04  0.25500000920E-02 0.  1.
       -2   -1    0    0    0  501  0.00000000000E+00  0.00000000000E+00 -0.48805312528E+03  0.48805312529E+03  0.25500000920E-02 0. -1.
    10030    2    1    2    0    0  0.00000000000E+00  0.00000000000E+00  0.13609969748E+04  0.23371032254E+04  0.18999312410E+04 0.  0.
        5    1    3    3  502    0  0.14729333036E+03  0.74977661134E+03  0.13747716568E+04  0.15728571106E+04  0.46999998093E+01 0.  1.
       -5    1    3    3    0  502 -0.14729333036E+03 -0.74977661134E+03 -0.13774681976E+02  0.76424611478E+03  0.46999998093E+01 0. -1.
</event>
<event>
 5   0  0.6870370E-06  0.1900306E+04  0.7818609E-02  0.8654704E-01
       -2   -1    0    0    0  501  0.00000000000E+00  0.00000000000E+00  0.14465482756E+04  0.14465482756E+04  0.25500000920E-02 0. -1.
        2   -1    0    0  501    0  0.00000000000E+00  0.00000000000E+00 -0.62409965117E+03  0.62409965118E+03  0.25500000920E-02 0.  1.
    10030    2    1    2    0    0  0.00000000000E+00  0.00000000000E+00  0.82244862439E+03  0.20706479267E+04  0.19003055272E+04 0.  0.
        1    1    3    3  502    0  0.66412147186E+03  0.62487072229E+02  0.11485071974E+04  0.13281681919E+04  0.50400001928E-02 0. -1.
       -1    1    3    3    0  502 -0.66412147186E+03 -0.62487072229E+02 -0.32605857299E+03  0.74247973482E+03  0.50400001928E-02 0.  1.
</event>
<event>
 5   0  0.6870370E-06  0.1899944E+04  0.7818609E-02  0.8654884E-01
       -2   -1    0    0    0  501  0.00000000000E+00  0.00000000000E+00  0.58763319348E+03  0.58763319348E+03  0.25500000920E-02 0. -1.
        2   -1    0    0  501    0  0.00000000000E+00  0.00000000000E+00 -0.15357314055E+04  0.15357314055E+04  0.25500000920E-02 0.  1.
    10030    2    1    2    0    0  0.00000000000E+00  0.00000000000E+00 -0.94809821203E+03  0.21233645990E+04  0.18999439467E+04 0.  0.
        1    1    3    3  502    0 -0.52776115779E+03 -0.38305459890E+03 -0.12460659205E+04  0.14063935949E+04  0.50400001928E-02 0.  1.
       -1    1    3    3    0  502  0.52776115779E+03  0.38305459890E+03  0.29796770848E+03  0.71697100411E+03  0.50400001928E-02 0. -1.
</event>
<event>
 5   0  0.6870370E-06  0.1899106E+04  0.7818609E-02  0.8655301E-01
       -2   -1    0    0    0  501  0.00000000000E+00  0.00000000000E+00  0.12130220395E+04  0.12130220395E+04  0.25500000920E-02 0. -1.
        2   -1    0    0  501    0  0.00000000000E+00  0.00000000000E+00 -0.74330969422E+03  0.74330969422E+03  0.25500000920E-02 0.  1.
    10030    2    1    2    0    0  0.00000000000E+00  0.00000000000E+00  0.46971234529E+03  0.19563317337E+04  0.18991061490E+04 0.  0.
        1    1    3    3  502    0  0.41924949458E+03  0.32288244778E+03 -0.57733540868E+03  0.78315987380E+03  0.50400001928E-02 0.  1.
       -1    1    3    3    0  502 -0.41924949458E+03 -0.32288244778E+03  0.10470477540E+04  0.11731718599E+04  0.50400001928E-02 0. -1.
</event>
<event>
 5   0  0.3495279E-06  0.1899978E+04  0.7818609E-02  0.8654867E-01
        1   -1    0    0  501    0  0.00000000000E+00  0.00000000000E+00  0.13228950681E+04  0.13228950682E+04  0.50400001928E-02 0.  1.
       -1   -1    0    0    0  501  0.00000000000E+00  0.00000000000E+00 -0.68220007374E+03  0.68220007376E+03  0.50400001928E-02 0. -1.
    10030    2    1    2    0    0  0.00000000000E+00  0.00000000000E+00  0.64069499441E+03  0.20050951419E+04  0.18999780136E+04 0.  0.
        2    1    3    3  502    0  0.68940631938E+03 -0.28230613607E+03  0.94245382250E+03  0.12013313595E+04  0.25500000920E-02 0.  1.
       -2    1    3    3    0  502 -0.68940631938E+03  0.28230613607E+03 -0.30175882809E+03  0.80376378246E+03  0.25500000920E-02 0. -1.
</event>
<event>
 5   0  0.3211263E-06  0.1900710E+04  0.7818609E-02  0.8654503E-01
       -1   -1    0    0    0  501  0.00000000000E+00  0.00000000000E+00  0.14436617499E+04  0.14436617499E+04  0.50400001928E-02 0. -1.
        1   -1    0    0  501    0  0.00000000000E+00  0.00000000000E+00 -0.62561391901E+03  0.62561391903E+03  0.50400001928E-02 0.  1.
    10030    2    1    2    0    0  0.00000000000E+00  0.00000000000E+00  0.81804783091E+03  0.20692756689E+04  0.19007102726E+04 0.  0.
        5    1    3    3  502    0  0.40136002139E+03  0.76101641818E+03 -0.30401883422E+02  0.86091940391E+03  0.46999998093E+01 0. -1.
       -5    1    3    3    0  502 -0.40136002139E+03 -0.76101641818E+03  0.84844971433E+03  0.12083562650E+04  0.46999998093E+01 0.  1.
</event>
<event>
 5   0  0.7577180E-06  0.1900566E+04  0.7818609E-02  0.8654575E-01
        2   -1    0    0  501    0  0.00000000000E+00  0.00000000000E+00  0.82106385617E+03  0.82106385617E+03  0.25500000920E-02 0. -1.
       -2   -1    0    0    0  501  0.00000000000E+00  0.00000000000E+00 -0.10998381904E+04  0.10998381905E+04  0.25500000920E-02 0.  1.
    10030    2    1    2    0    0  0.00000000000E+00  0.00000000000E+00 -0.27877433428E+03  0.19209020466E+04  0.19005655851E+04 0.  0.
        5    1    3    3  502    0  0.16918944963E+03  0.46910772701E+03  0.67817383265E+03  0.84180102560E+03  0.46999998093E+01 0. -1.
       -5    1    3    3    0  502 -0.16918944963E+03 -0.46910772701E+03 -0.95694816692E+03  0.10791010210E+04  0.46999998093E+01 0.  1.
</event>
<event>
 5   0  0.3379108E-06  0.1900290E+04  0.7818609E-02  0.8654712E-01
       -1   -1    0    0    0  501  0.00000000000E+00  0.00000000000E+00  0.59950784440E+03  0.59950784442E+03  0.50400001928E-02 0.  1.
        1   -1    0    0  501    0  0.00000000000E+00  0.00000000000E+00 -0.15058612045E+04  0.15058612045E+04  0.50400001928E-02 0. -1.
    10030    2    1    2    0    0  0.00000000000E+00  0.00000000000E+00 -0.90635336012E+03  0.21053690489E+04  0.19002900881E+04 0.  0.
        4    1    3    3  502    0 -0.37558159201E+03  0.45310331058E+03  0.37325267601E+03  0.69690983302E+03  0.12699999809E+01 0.  1.
       -4    1    3    3    0  502  0.37558159201E+03 -0.45310331058E+03 -0.12796060361E+04  0.14084592159E+04  0.12699999809E+01 0. -1.
</event>
<event>
 5   0  0.6984466E-06  0.1900957E+04  0.7818609E-02  0.8654380E-01
       -2   -1    0    0    0  501  0.00000000000E+00  0.00000000000E+00  0.72237762782E+03  0.72237762782E+03  0.25500000920E-02 0. -1.
        2   -1    0    0  501    0  0.00000000000E+00  0.00000000000E+00 -0.12506051532E+04  0.12506051532E+04  0.25500000920E-02 0.  1.
    10030    2    1    2    0    0  0.00000000000E+00  0.00000000000E+00 -0.52822752539E+03  0.19729827810E+04  0.19009567948E+04 0.  0.
        2    1    3    3  502    0  0.34719873583E+03  0.11018625186E+03 -0.11752843760E+04  0.12304394893E+04  0.25500000920E-02 0.  1.
       -2    1    3    3    0  502 -0.34719873583E+03 -0.11018625186E+03  0.64705685060E+03  0.74254329178E+03  0.25500000920E-02 0. -1.
</event>
<event>
 5   0  0.3398807E-06  0.1900066E+04  0.7818609E-02  0.8654823E-01
        1   -1    0    0  501    0  0.00000000000E+00  0.00000000000E+00  0.19548046115E+04  0.19548046116E+04  0.50400001928E-02 0. -1.
       -1   -1    0    0    0  501  0.00000000000E+00  0.00000000000E+00 -0.46171526025E+03  0.46171526028E+03  0.50400001928E-02 0.  1.
    10030    2    1    2    0    0  0.00000000000E+00  0.00000000000E+00  0.14930893513E+04  0.24165198718E+04  0.19000664409E+04 0.  0.
        1    1    3    3  502    0 -0.51246975582E+03 -0.69615783901E+03  0.12477437878E+04  0.15179346321E+04  0.50400001928E-02 0. -1.
       -1    1    3    3    0  502  0.51246975582E+03  0.69615783901E+03  0.24534556350E+03  0.89858523969E+03  0.50400001928E-02 0.  1.
</event>
<event>
 5   0  0.6862201E-06  0.1899374E+04  0.7818609E-02  0.8655168E-01
        2   -1    0    0  501    0  0.00000000000E+00  0.00000000000E+00  0.20139076477E+04  0.20139076477E+04  0.25500000920E-02 0.  1.
       -2   -1    0    0    0  501  0.00000000000E+00  0.00000000000E+00 -0.44783842958E+03  0.44783842958E+03  0.25500000920E-02 0. -1.
    10030    2    1    2    0    0  0.00000000000E+00  0.00000000000E+00  0.15660692181E+04  0.24617460773E+04  0.18993738318E+04 0.  0.
        3    1    3    3  502    0 -0.64962633334E+02  0.56384149958E+03 -0.20383521074E+03  0.60306399637E+03  0.10100000352E+00 0. -1.
       -3    1    3    3    0  502  0.64962633334E+02 -0.56384149958E+03  0.17699044289E+04  0.18586820809E+04  0.10100000352E+00 0.  1.
</event>
<event>
 5   0  0.7577180E-06  0.1899710E+04  0.7818609E-02  0.8655001E-01
        2   -1    0    0  501    0  0.00000000000E+00  0.00000000000E+00  0.13459814825E+04  0.13459814825E+04  0.25500000920E-02 0.  1.
       -2   -1    0    0    0  501  0.00000000000E+00  0.00000000000E+00 -0.67030945063E+03  0.67030945063E+03  0.25500000920E-02 0. -1.
    10030    2    1    2    0    0  0.00000000000E+00  0.00000000000E+00  0.67567203190E+03  0.20162909332E+04  0.18997095653E+04 0.  0.
        5    1    3    3  502    0  0.93819045736E+03  0.52535595424E+02  0.19061277773E+03  0.95881001460E+03  0.46999998093E+01 0.  1.
       -5    1    3    3    0  502 -0.93819045736E+03 -0.52535595424E+02  0.48505925417E+03  0.10574809186E+04  0.46999998093E+01 0. -1.
</event>
<event>
 5   0  0.3398807E-06  0.1899463E+04  0.7818609E-02  0.8655124E-01
        1   -1    0    0  501    0  0.00000000000E+00  0.00000000000E+00  0.79930822636E+03  0.79930822638E+03  0.50400001928E-02 0. -1.
       -1   -1    0    0    0  501  0.00000000000E+00  0.00000000000E+00 -0.11284632223E+04  0.11284632223E+04  0.50400001928E-02 0.  1.
    10030    2    1    2    0    0  0.00000000000E+00  0.00000000000E+00 -0.32915499595E+03  0.19277714487E+04  0.18994630155E+04 0.  0.
        1    1    3    3  502    0 -0.84385164117E+03  0.23743703121E+03 -0.53543825046E+03  0.10272078934E+04  0.50400001928E-02 0.  1.
       -1    1    3    3    0  502  0.84385164117E+03 -0.23743703121E+03  0.20628325451E+03  0.90056355534E+03  0.50400001928E-02 0. -1.
</event>
<event>
 5   0  0.3379108E-06  0.1900407E+04  0.7818609E-02  0.8654654E-01
       -1   -1    0    0    0  501  0.00000000000E+00  0.00000000000E+00  0.17516284617E+04  0.17516284617E+04  0.50400001928E-02 0.  1.
        1   -1    0    0  501    0  0.00000000000E+00  0.00000000000E+00 -0.51545550539E+03  0.51545550542E+03  0.50400001928E-02 0. -1.
    10030    2    1    2    0    0  0.00000000000E+00  0.00000000000E+00  0.12361729563E+04  0.22670839671E+04  0.19004068343E+04 0.  0.
        4    1    3    3  502    0  0.59306954177E+03 -0.66783509225E+03  0.10049208905E+04  0.13444711975E+04  0.12699999809E+01 0.  1.
       -4    1    3    3    0  502 -0.59306954177E+03  0.66783509225E+03  0.23125206578E+03  0.92261276960E+03  0.12699999809E+01 0. -1.
</event>
<event>
 5   0  0.3211263E-06  0.1897343E+04  0.7818609E-02  0.8656180E-01
        1   -1    0    0  501    0  0.00000000000E+00  0.00000000000E+00  0.11947545924E+04  0.11947545924E+04  0.50400001928E-02 0. -1.
       -1   -1    0    0    0  501  0.00000000000E+00  0.00000000000E+00 -0.75327391428E+03  0.75327391430E+03  0.50400001928E-02 0.  1.
    10030    2    1    2    0    0  0.00000000000E+00  0.00000000000E+00  0.44148067812E+03  0.19480285067E+04  0.18973428456E+04 0.  0.
        5    1    3    3  502    0 -0.75518427003E+03  0.48227341515E+03 -0.99134140583E+02  0.90152126791E+03  0.46999998093E+01 0.  1.
       -5    1    3    3    0  502  0.75518427003E+03 -0.48227341515E+03  0.54061481870E+03  0.10465072388E+04  0.46999998093E+01 0. -1.
</event>
<event>
 5   0  0.3211263E-06  0.1899967E+04  0.7818609E-02  0.8654873E-01
        1   -1    0    0  501    0  0.00000000000E+00  0.00000000000E+00  0.68411899384E+03  0.68411899386E+03  0.50400001928E-02 0. -1.
       -1   -1    0    0    0  501  0.00000000000E+00  0.00000000000E+00 -0.13191694627E+04  0.13191694628E+04  0.50400001928E-02 0.  1.
    10030    2    1    2    0    0  0.00000000000E+00  0.00000000000E+00 -0.63505046891E+03  0.20032884566E+04  0.18999672477E+04 0.  0.
        5    1    3    3  502    0  0.41559741226E+02 -0.79635611906E+03 -0.86187210642E+03  0.11742043682E+04  0.46999998093E+01 0.  1.
       -5    1    3    3    0  502 -0.41559741226E+02  0.79635611906E+03  0.22682163751E+03  0.82908408843E+03  0.46999998093E+01 0. -1.
</event>
<event>
 5   0  0.7577180E-06  0.1900055E+04  0.7818609E-02  0.8654829E-01
        2   -1    0    0  501    0  0.00000000000E+00  0.00000000000E+00  0.11246225701E+04  0.11246225701E+04  0.25500000920E-02 0.  1.
       -2   -1    0    0    0  501  0.00000000000E+00  0.00000000000E+00 -0.80253777498E+03  0.80253777499E+03  0.25500000920E-02 0. -1.
    10030    2    1    2    0    0  0.00000000000E+00  0.00000000000E+00  0.32208479515E+03  0.19271603451E+04  0.19000548362E+04 0.  0.
        5    1    3    3  502    0  0.26811860159E+03  0.62444739823E+03  0.83437108389E+03  0.10761130672E+04  0.46999998093E+01 0.  1.
       -5    1    3    3    0  502 -0.26811860159E+03 -0.62444739823E+03 -0.51228628874E+03  0.85104727796E+03  0.46999998093E+01 0. -1.
</event>
<event>
 5   0  0.7577180E-06  0.1900110E+04  0.7818609E-02  0.8654801E-01
        2   -1    0    0  501    0  0.00000000000E+00  0.00000000000E+00  0.23709151878E+04  0.23709151878E+04  0.25500000920E-02 0.  1.
       -2   -1    0    0    0  501  0.00000000000E+00  0.00000000000E+00 -0.38069888126E+03  0.38069888127E+03  0.25500000920E-02 0. -1.
    10030    2    1    2    0    0  0.00000000000E+00  0.00000000000E+00  0.19902163066E+04  0.27516140691E+04  0.19001102700E+04 0.  0.
        5    1    3    3  502    0 -0.90652877916E+03  0.13789581516E+03  0.63518646730E+03  0.11154790995E+04  0.46999998093E+01 0.  1.
       -5    1    3    3    0  502  0.90652877916E+03 -0.13789581516E+03  0.13550298393E+04  0.16361349695E+04  0.46999998093E+01 0. -1.
</event>
<event>
 5   0  0.6862201E-06  0.1899161E+04  0.7818609E-02  0.8655274E-01
        2   -1    0    0  501    0  0.00000000000E+00  0.00000000000E+00  0.89809915583E+03  0.89809915583E+03  0.25500000920E-02 0. -1.
       -2   -1    0    0    0  501  0.00000000000E+00  0.00000000000E+00 -0.10040133297E+04  0.10040133297E+04  0.25500000920E-02 0.  1.
    10030    2    1    2    0    0  0.00000000000E+00  0.00000000000E+00 -0.10591417383E+03  0.19021124855E+04  0.18991614190E+04 0.  0.
        3    1    3    3  502    0 -0.71125681373E+03 -0.49598924159E+03 -0.44061398631E+03  0.97264190634E+03  0.10100000352E+00 0.  1.
       -3    1    3    3    0  502  0.71125681373E+03  0.49598924159E+03  0.33469981247E+03  0.92947057915E+03  0.10100000352E+00 0. -1.
</event>
<event>
 5   0  0.7577180E-06  0.1896839E+04  0.7818609E-02  0.8656431E-01
        2   -1    0    0  501    0  0.00000000000E+00  0.00000000000E+00  0.11913203602E+04  0.11913203602E+04  0.25500000920E-02 0. -1.
       -2   -1    0    0    0  501  0.00000000000E+00  0.00000000000E+00 -0.75504407683E+03  0.75504407683E+03  0.25500000920E-02 0.  1.
    10030    2    1    2    0    0  0.00000000000E+00  0.00000000000E+00  0.43627628340E+03  0.19463644371E+04  0.18968388246E+04 0.  0.
        5    1    3    3  502    0 -0.47764086109E+03 -0.81006089783E+03  0.34438648953E+03  0.10014807010E+04  0.46999998093E+01 0. -1.
       -5    1    3    3    0  502  0.47764086109E+03  0.81006089783E+03  0.91889793866E+02  0.94488373602E+03  0.46999998093E+01 0.  1.
</event>
<event>
 5   0  0.3495279E-06  0.1900325E+04  0.7818609E-02  0.8654695E-01
        1   -1    0    0  501    0  0.00000000000E+00  0.00000000000E+00  0.10413487383E+04  0.10413487383E+04  0.50400001928E-02 0.  1.
       -1   -1    0    0    0  501  0.00000000000E+00  0.00000000000E+00 -0.86696086059E+03  0.86696086060E+03  0.50400001928E-02 0. -1.
    10030    2    1    2    0    0  0.00000000000E+00  0.00000000000E+00  0.17438787769E+03  0.19083095989E+04  0.19003248126E+04 0.  0.
        2    1    3    3  502    0 -0.14295629741E+03  0.17251581039E+03  0.10144427951E+04  0.10388899809E+04  0.25500000920E-02 0.  1.
       -2    1    3    3    0  502  0.14295629741E+03 -0.17251581039E+03 -0.84005491745E+03  0.86941961799E+03  0.25500000920E-02 0. -1.
</event>
<event>
 5   0  0.6862201E-06  0.1899801E+04  0.7818609E-02  0.8654955E-01
       -2   -1    0    0    0  501  0.00000000000E+00  0.00000000000E+00  0.69822856302E+03  0.69822856302E+03  0.25500000920E-02 0. -1.
        2   -1    0    0  501    0  0.00000000000E+00  0.00000000000E+00 -0.12922859085E+04  0.12922859085E+04  0.25500000920E-02 0.  1.
    10030    2    1    2    0    0  0.00000000000E+00  0.00000000000E+00 -0.59405734549E+03  0.19905144715E+04  0.18998009716E+04 0.  0.
        3    1    3    3  502    0  0.46837136029E+03  0.33648089559E+03 -0.10878673297E+04  0.12312783851E+04  0.10100000352E+00 0.  1.
       -3    1    3    3    0  502 -0.46837136029E+03 -0.33648089559E+03  0.49380998425E+03  0.75923608646E+03  0.10100000352E+00 0. -1.
</event>
<event>
 5   0  0.7207648E-06  0.1900088E+04  0.7818609E-02  0.8654813E-01
        2   -1    0    0  501    0  0.00000000000E+00  0.00000000000E+00  0.86400935558E+03  0.86400935559E+03  0.25500000920E-02 0. -1.
       -2   -1    0    0    0  501  0.00000000000E+00  0.00000000000E+00 -0.10446453379E+04  0.10446453379E+04  0.25500000920E-02 0.  1.
    10030    2    1    2    0    0  0.00000000000E+00  0.00000000000E+00 -0.18063598233E+03  0.19086546935E+04  0.19000877298E+04 0.  0.
        4    1    3    3  502    0 -0.60190273180E+03  0.28900595902E+03  0.58857712193E+03  0.89007639237E+03  0.12699999809E+01 0. -1.
       -4    1    3    3    0  502  0.60190273180E+03 -0.28900595902E+03 -0.76921310426E+03  0.10185783011E+04  0.12699999809E+01 0.  1.
</event>
<event>
 5   0  0.6862201E-06  0.1898876E+04  0.7818609E-02  0.8655416E-01
        2   -1    0    0  501    0  0.00000000000E+00  0.00000000000E+00  0.14157436265E+04  0.14157436265E+04  0.25500000920E-02 0. -1.
       -2   -1    0    0    0  501  0.00000000000E+00  0.00000000000E+00 -0.63672020201E+03  0.63672020201E+03  0.25500000920E-02 0.  1.
    10030    2    1    2    0    0  0.00000000000E+00  0.00000000000E+00  0.77902342446E+03  0.20524638285E+04  0.18988760548E+04 0.  0.
        3    1    3    3  502    0  0.58727934531E+03  0.14202625180E+03  0.11811170860E+04  0.13266898909E+04  0.10100000352E+00 0. -1.
       -3    1    3    3    0  502 -0.58727934531E+03 -0.14202625180E+03 -0.40209366152E+03  0.72577393758E+03  0.10100000352E+00 0.  1.
</event>
<event>
 5   0  0.3495279E-06  0.1905402E+04  0.7818609E-02  0.8652172E-01
       -1   -1    0    0    0  501  0.00000000000E+00  0.00000000000E+00  0.59103659824E+03  0.59103659826E+03  0.50400001928E-02 0. -1.
        1   -1    0    0  501    0  0.00000000000E+00  0.00000000000E+00 -0.15356735305E+04  0.15356735305E+04  0.50400001928E-02 0.  1.
    10030    2    1    2    0    0  0.00000000000E+00  0.00000000000E+00 -0.94463693227E+03  0.21267101288E+04  0.19054020673E+04 0.  0.
        2    1    3    3  502    0  0.84112147880E+03 -0.15900745161E+03 -0.55731133100E+01  0.85603724882E+03  0.25500000920E-02 0. -1.
       -2    1    3    3    0  502 -0.84112147880E+03  0.15900745161E+03 -0.93906381896E+03  0.12706728800E+04  0.25500000920E-02 0.  1.
</event>
<event>
 5   0  0.6984466E-06  0.1900020E+04  0.7818609E-02  0.8654846E-01
        2   -1    0    0  501    0  0.00000000000E+00  0.00000000000E+00  0.10783654615E+04  0.10783654615E+04  0.25500000920E-02 0.  1.
       -2   -1    0    0    0  501  0.00000000000E+00  0.00000000000E+00 -0.83693239458E+03  0.83693239458E+03  0.25500000920E-02 0. -1.
    10030    2    1    2    0    0  0.00000000000E+00  0.00000000000E+00  0.24143306694E+03  0.19152978561E+04  0.19000199872E+04 0.  0.
        2    1    3    3  502    0 -0.64694572330E+02  0.41835804993E+03 -0.73659848235E+03  0.84957999614E+03  0.25500000920E-02 0. -1.
       -2    1    3    3    0  502  0.64694572330E+02 -0.41835804993E+03  0.97803154930E+03  0.10657178600E+04  0.25500000920E-02 0.  1.
</event>
<event>
 5   0  0.3379108E-06  0.1900198E+04  0.7818609E-02  0.8654758E-01
       -1   -1    0    0    0  501  0.00000000000E+00  0.00000000000E+00  0.36380436843E+03  0.36380436847E+03  0.50400001928E-02 0. -1.
        1   -1    0    0  501    0  0.00000000000E+00  0.00000000000E+00 -0.24812447905E+04  0.24812447905E+04  0.50400001928E-02 0.  1.
    10030    2    1    2    0    0  0.00000000000E+00  0.00000000000E+00 -0.21174404221E+04  0.28450491590E+04  0.19001975624E+04 0.  0.
        4    1    3    3  502    0 -0.80965004528E+03  0.38744182416E+03 -0.15251327924E+04  0.17696542064E+04  0.12699999809E+01 0. -1.
       -4    1    3    3    0  502  0.80965004528E+03 -0.38744182416E+03 -0.59230762970E+03  0.10753949526E+04  0.12699999809E+01 0.  1.
</event>
<event>
 5   0  0.3379108E-06  0.1900596E+04  0.7818609E-02  0.8654560E-01
       -1   -1    0    0    0  501  0.00000000000E+00  0.00000000000E+00  0.16576262043E+04  0.16576262043E+04  0.50400001928E-02 0. -1.
        1   -1    0    0  501    0  0.00000000000E+00  0.00000000000E+00 -0.54479492215E+03  0.54479492217E+03  0.50400001928E-02 0.  1.
    10030    2    1    2    0    0  0.00000000000E+00  0.00000000000E+00  0.11128312822E+04  0.22024211265E+04  0.19005960528E+04 0.  0.
        4    1    3    3  502    0  0.44975092847E+03  0.55305069500E+03  0.12846433025E+04  0.14691667694E+04  0.12699999809E+01 0. -1.
       -4    1    3    3    0  502 -0.44975092847E+03 -0.55305069500E+03 -0.17181202032E+03  0.73325435705E+03  0.12699999809E+01 0.  1.
</event>
<event>
 5   0  0.7207648E-06  0.1900071E+04  0.7818609E-02  0.8654821E-01
       -2   -1    0    0    0  501  0.00000000000E+00  0.00000000000E+00  0.70367311630E+03  0.70367311631E+03  0.25500000920E-02 0. -1.
        2   -1    0    0  501    0  0.00000000000E+00  0.00000000000E+00 -0.12826522686E+04  0.12826522686E+04  0.25500000920E-02 0.  1.
    10030    2    1    2    0    0  0.00000000000E+00  0.00000000000E+00 -0.57897915230E+03  0.19863253849E+04  0.19000714923E+04 0.  0.
        4    1    3    3  502    0  0.71173761726E+03 -0.51752056546E+03  0.84768190248E+02  0.88407309114E+03  0.12699999809E+01 0. -1.
       -4    1    3    3    0  502 -0.71173761726E+03  0.51752056546E+03 -0.66374734255E+03  0.11022522938E+04  0.12699999809E+01 0.  1.
</event>
<event>
 5   0  0.3236653E-06  0.1899123E+04  0.7818609E-02  0.8655293E-01
       -1   -1    0    0    0  501  0.00000000000E+00  0.00000000000E+00  0.91144992575E+03  0.91144992576E+03  0.50400001928E-02 0. -1.
        1   -1    0    0  501    0  0.00000000000E+00  0.00000000000E+00 -0.98926649346E+03  0.98926649347E+03  0.50400001928E-02 0.  1.
    10030    2    1    2    0    0  0.00000000000E+00  0.00000000000E+00 -0.77816567710E+02  0.19007164192E+04  0.18991228207E+04 0.  0.
        3    1    3    3  502    0  0.36172642773E+03 -0.72064746714E+02 -0.91464396130E+03  0.98621139842E+03  0.10100000352E+00 0.  1.
       -3    1    3    3    0  502 -0.36172642773E+03  0.72064746714E+02  0.83682739359E+03  0.91450502082E+03  0.10100000352E+00 0. -1.
</event>
<event>
 5   0  0.3495279E-06  0.1899861E+04  0.7818609E-02  0.8654926E-01
       -1   -1    0    0    0  501  0.00000000000E+00  0.00000000000E+00  0.13815864972E+04  0.13815864972E+04  0.50400001928E-02 0.  1.
        1   -1    0    0  501    0  0.00000000000E+00  0.00000000000E+00 -0.65313903404E+03  0.65313903406E+03  0.50400001928E-02 0. -1.
    10030    2    1    2    0    0  0.00000000000E+00  0.00000000000E+00  0.72844746312E+03  0.20347255312E+04  0.18998611215E+04 0.  0.
        2    1    3    3  502    0 -0.61296634870E+03  0.61383322436E+03 -0.50358844694E+02  0.86893899971E+03  0.25500000920E-02 0. -1.
       -2    1    3    3    0  502  0.61296634870E+03 -0.61383322436E+03  0.77880630782E+03  0.11657865315E+04  0.25500000920E-02 0.  1.
</event>
<event>
 5   0  0.6862201E-06  0.1901359E+04  0.7818609E-02  0.8654180E-01
        2   -1    0    0  501    0  0.00000000000E+00  0.00000000000E+00  0.79409633231E+03  0.79409633231E+03  0.25500000920E-02 0.  1.
       -2   -1    0    0    0  501  0.00000000000E+00  0.00000000000E+00 -0.11381378495E+04  0.11381378495E+04  0.25500000920E-02 0. -1.
    10030    2    1    2    0    0  0.00000000000E+00  0.00000000000E+00 -0.34404151718E+03  0.19322341818E+04  0.19013585584E+04 0.  0.
        3    1    3    3  502    0  0.75117347088E+03  0.17103977818E+03 -0.73808934383E+03  0.10669077180E+04  0.10100000352E+00 0. -1.
       -3    1    3    3    0  502 -0.75117347088E+03 -0.17103977818E+03  0.39404782665E+03  0.86532646380E+03  0.10100000352E+00 0.  1.
</event>
<event>
 5   0  0.6862201E-06  0.1894196E+04  0.7818609E-02  0.8657751E-01
        2   -1    0    0  501    0  0.00000000000E+00  0.00000000000E+00  0.17124649422E+04  0.17124649422E+04  0.25500000920E-02 0.  1.
       -2   -1    0    0    0  501  0.00000000000E+00  0.00000000000E+00 -0.52380346062E+03  0.52380346063E+03  0.25500000920E-02 0. -1.
    10030    2    1    2    0    0  0.00000000000E+00  0.00000000000E+00  0.11886614816E+04  0.22362684029E+04  0.18941964660E+04 0.  0.
        3    1    3    3  502    0 -0.38581169650E+03  0.24703781109E+03  0.15729509046E+04  0.16383079392E+04  0.10100000352E+00 0.  1.
       -3    1    3    3    0  502  0.38581169650E+03 -0.24703781109E+03 -0.38428942298E+03  0.59796046364E+03  0.10100000352E+00 0. -1.
</event>
<event>
 5   0  0.7207648E-06  0.1900216E+04  0.7818609E-02  0.8654749E-01
       -2   -1    0    0    0  501  0.00000000000E+00  0.00000000000E+00  0.11728868526E+04  0.11728868526E+04  0.25500000920E-02 0. -1.
        2   -1    0    0  501    0  0.00000000000E+00  0.00000000000E+00 -0.76964390695E+03  0.76964390696E+03  0.25500000920E-02 0.  1.
    10030    2    1    2    0    0  0.00000000000E+00  0.00000000000E+00  0.40324294560E+03  0.19425307595E+04  0.19002160084E+04 0.  0.
        4    1    3    3  502    0 -0.66381570361E+03  0.52567446315E+03 -0.23892600865E+03  0.87981371896E+03  0.12699999809E+01 0.  1.
       -4    1    3    3    0  502  0.66381570361E+03 -0.52567446315E+03  0.64216895425E+03  0.10627170405E+04  0.12699999809E+01 0. -1.
</event>
<event>
 5   0  0.3398807E-06  0.1899646E+04  0.7818609E-02  0.8655033E-01
        1   -1    0    0  501    0  0.00000000000E+00  0.00000000000E+00  0.11223895464E+04  0.11223895464E+04  0.50400001928E-02 0. -1.
       -1   -1    0    0    0  501  0.00000000000E+00  0.00000000000E+00 -0.80378831660E+03  0.80378831661E+03  0.50400001928E-02 0.  1.
    10030    2    1    2    0    0  0.00000000000E+00  0.00000000000E+00  0.31860122977E+03  0.19261778630E+04  0.18996458660E+04 0.  0.
        1    1    3    3  502    0  0.84485925597E+03  0.15984115372E+01  0.59938310551E+03  0.10358811826E+04  0.50400001928E-02 0. -1.
       -1    1    3    3    0  502 -0.84485925597E+03 -0.15984115372E+01 -0.28078187574E+03  0.89029668037E+03  0.50400001928E-02 0.  1.
</event>
<event>
 5   0  0.7207648E-06  0.1899161E+04  0.7818609E-02  0.8655274E-01
       -2   -1    0    0    0  501  0.00000000000E+00  0.00000000000E+00  0.65202469029E+03  0.65202469029E+03  0.25500000920E-02 0.  1.
        2   -1    0    0  501    0  0.00000000000E+00  0.00000000000E+00 -0.13829276746E+04  0.13829276746E+04  0.25500000920E-02 0. -1.
    10030    2    1    2    0    0  0.00000000000E+00  0.00000000000E+00 -0.73090298427E+03  0.20349523649E+04  0.18991608554E+04 0.  0.
        4    1    3    3  502    0 -0.35971626561E+02  0.10032184802E+03 -0.13764980572E+04  0.13806183200E+04  0.12699999809E+01 0. -1.
       -4    1    3    3    0  502  0.35971626561E+02 -0.10032184802E+03  0.64559507296E+03  0.65433404484E+03  0.12699999809E+01 0.  1.
</event>
<event>
 5   0  0.3236653E-06  0.1899103E+04  0.7818609E-02  0.8655303E-01
        1   -1    0    0  501    0  0.00000000000E+00  0.00000000000E+00  0.38987161052E+03  0.38987161055E+03  0.50400001928E-02 0.  1.
       -1   -1    0    0    0  501  0.00000000000E+00  0.00000000000E+00 -0.23126801027E+04  0.23126801027E+04  0.50400001928E-02 0. -1.
    10030    2    1    2    0    0  0.00000000000E+00  0.00000000000E+00 -0.19228084922E+04  0.27025517132E+04  0.18991032792E+04 0.  0.
        3    1    3    3  502    0  0.87444554830E+03 -0.27203047717E+03 -0.13185706251E+04  0.16053921954E+04  0.10100000352E+00 0. -1.
       -3    1    3    3    0  502 -0.87444554830E+03  0.27203047717E+03 -0.60423786709E+03  0.10971595179E+04  0.10100000352E+00 0.  1.
</event>
<event>
 5   0  0.6862201E-06  0.1899585E+04  0.7818609E-02  0.8655063E-01
       -2   -1    0    0    0  501  0.00000000000E+00  0.00000000000E+00  0.83808746779E+03  0.83808746779E+03  0.25500000920E-02 0.  1.
        2   -1    0    0  501    0  0.00000000000E+00  0.00000000000E+00 -0.10763858336E+04  0.10763858336E+04  0.25500000920E-02 0. -1.
    10030    2    1    2    0    0  0.00000000000E+00  0.00000000000E+00 -0.23829836580E+03  0.19144733014E+04  0.18995846679E+04 0.  0.
        3    1    3    3  502    0 -0.52520342243E+02 -0.77472769670E+03  0.43207830057E+03  0.88862425040E+03  0.10100000352E+00 0.  1.
       -3    1    3    3    0  502  0.52520342243E+02  0.77472769670E+03 -0.67037666637E+03  0.10258490510E+04  0.10100000352E+00 0. -1.
</event>
<event>
 5   0  0.6862201E-06  0.1900524E+04  0.7818609E-02  0.8654596E-01
       -2   -1    0    0    0  501  0.00000000000E+00  0.00000000000E+00  0.54566231630E+03  0.54566231631E+03  0.25500000920E-02 0.  1.
        2   -1    0    0  501    0  0.00000000000E+00  0.00000000000E+00 -0.16548648727E+04  0.16548648727E+04  0.25500000920E-02 0. -1.
    10030    2    1    2    0    0  0.00000000000E+00  0.00000000000E+00 -0.11092025564E+04  0.22005271890E+04  0.19005235064E+04 0.  0.
        3    1    3    3  502    0  0.44500045304E+03 -0.56018857729E+03  0.16955304079E+03  0.73524478180E+03  0.10100000352E+00 0.  1.
       -3    1    3    3    0  502 -0.44500045304E+03  0.56018857729E+03 -0.12787555972E+04  0.14652824072E+04  0.10100000352E+00 0. -1.
</event>
<event>
 5   0  0.3398807E-06  0.1900110E+04  0.7818609E-02  0.8654802E-01
       -1   -1    0    0    0  501  0.00000000000E+00  0.00000000000E+00  0.49677090398E+03  0.49677090400E+03  0.50400001928E-02 0. -1.
        1   -1    0    0  501    0  0.00000000000E+00  0.00000000000E+00 -0.18169426203E+04  0.18169426203E+04  0.50400001928E-02 0.  1.
    10030    2    1    2    0    0  0.00000000000E+00  0.00000000000E+00 -0.13201717163E+04  0.23137135243E+04  0.19001097105E+04 0.  0.
        1    1    3    3  502    0 -0.81509201202E+03  0.22362206840E+03 -0.11883687824E+04  0.14582874136E+04  0.50400001928E-02 0.  1.
       -1    1    3    3    0  502  0.81509201202E+03 -0.22362206840E+03 -0.13180293392E+03  0.85542611075E+03  0.50400001928E-02 0. -1.
</event>
<event>
 5   0  0.3398807E-06  0.1904426E+04  0.7818609E-02  0.8652656E-01
       -1   -1    0    0    0  501  0.00000000000E+00  0.00000000000E+00  0.56896153524E+03  0.56896153527E+03  0.50400001928E-02 0. -1.
        1   -1    0    0  501    0  0.00000000000E+00  0.00000000000E+00 -0.15936219378E+04  0.15936219378E+04  0.50400001928E-02 0.  1.
    10030    2    1    2    0    0  0.00000000000E+00  0.00000000000E+00 -0.10246604026E+04  0.21625834731E+04  0.19044259863E+04 0.  0.
        1    1    3    3  502    0  0.14338568350E+03  0.25678890362E+03  0.51609142805E+03  0.59401208522E+03  0.50400001928E-02 0. -1.
       -1    1    3    3    0  502 -0.14338568350E+03 -0.25678890362E+03 -0.15407518306E+04  0.15685713879E+04  0.50400001928E-02 0.  1.
</event>
<event>
 5   0  0.6870370E-06  0.1901164E+04  0.7818609E-02  0.8654277E-01
        2   -1    0    0  501    0  0.00000000000E+00  0.00000000000E+00  0.12489941520E+04  0.12489941520E+04  0.25500000920E-02 0. -1.
       -2   -1    0    0    0  501  0.00000000000E+00  0.00000000000E+00 -0.72346710099E+03  0.72346710100E+03  0.25500000920E-02 0.  1.
    10030    2    1    2    0    0  0.00000000000E+00  0.00000000000E+00  0.52552705101E+03  0.19724612530E+04  0.19011640416E+04 0.  0.
        1    1    3    3  502    0 -0.28502313195E+03 -0.39001068388E+02 -0.67721941721E+03  0.73578896985E+03  0.50400001928E-02 0.  1.
       -1    1    3    3    0  502  0.28502313195E+03  0.39001068388E+02  0.12027464682E+04  0.12366722832E+04  0.50400001928E-02 0. -1.
</event>
<event>
 5   0  0.3379108E-06  0.1900851E+04  0.7818609E-02  0.8654433E-01
       -1   -1    0    0    0  501  0.00000000000E+00  0.00000000000E+00  0.96499694280E+03  0.96499694281E+03  0.50400001928E-02 0. -1.
        1   -1    0    0  501    0  0.00000000000E+00  0.00000000000E+00 -0.93607444135E+03  0.93607444137E+03  0.50400001928E-02 0.  1.
    10030    2    1    2    0    0  0.00000000000E+00  0.00000000000E+00  0.28922501446E+02  0.19010713842E+04  0.19008513610E+04 0.  0.
        4    1    3    3  502    0  0.19464622537E+03 -0.63510758014E+03  0.69428883359E+03  0.96087844640E+03  0.12699999809E+01 0. -1.
       -4    1    3    3    0  502 -0.19464622537E+03  0.63510758014E+03 -0.66536633214E+03  0.94019293778E+03  0.12699999809E+01 0.  1.
</event>
<event>
 5   0  0.7577180E-06  0.1899684E+04  0.7818609E-02  0.8655014E-01
        2   -1    0    0  501    0  0.00000000000E+00  0.00000000000E+00  0.15396668148E+04  0.15396668148E+04  0.25500000920E-02 0.  1.
       -2   -1    0    0    0  501  0.00000000000E+00  0.00000000000E+00 -0.58597095886E+03  0.58597095887E+03  0.25500000920E-02 0. -1.
    10030    2    1    2    0    0  0.00000000000E+00  0.00000000000E+00  0.95369585597E+03  0.21256377737E+04  0.18996842262E+04 0.  0.
        5    1    3    3  502    0  0.36884325485E+03 -0.82213043501E+03  0.14072873608E+03  0.91201450974E+03  0.46999998093E+01 0. -1.
       -5    1    3    3    0  502 -0.36884325485E+03  0.82213043501E+03  0.81296711989E+03  0.12136232640E+04  0.46999998093E+01 0.  1.
</event>
<event>
 5   0  0.3495279E-06  0.1902154E+04  0.7818609E-02  0.8653785E-01
        1   -1    0    0  501    0  0.00000000000E+00  0.00000000000E+00  0.95252196906E+03  0.95252196908E+03  0.50400001928E-02 0.  1.
       -1   -1    0    0    0  501  0.00000000000E+00  0.00000000000E+00 -0.94963406356E+03  0.94963406358E+03  0.50400001928E-02 0. -1.
    10030    2    1    2    0    0  0.00000000000E+00  0.00000000000E+00  0.28879054988E+01  0.19021560327E+04  0.19021538404E+04 0.  0.
        2    1    3    3  502    0 -0.18167745632E+03  0.90873153645E+03 -0.21244319065E+03  0.95075328699E+03  0.25500000920E-02 0. -1.
       -2    1    3    3    0  502  0.18167745632E+03 -0.90873153645E+03  0.21533109615E+03  0.95140274566E+03  0.25500000920E-02 0.  1.
</event>
<event>
 5   0  0.3211263E-06  0.1899964E+04  0.7818609E-02  0.8654875E-01
       -1   -1    0    0    0  501  0.00000000000E+00  0.00000000000E+00  0.75283055821E+03  0.75283055823E+03  0.50400001928E-02 0.  1.
        1   -1    0    0  501    0  0.00000000000E+00  0.00000000000E+00 -0.11987629528E+04  0.11987629529E+04  0.50400001928E-02 0. -1.
    10030    2    1    2    0    0  0.00000000000E+00  0.00000000000E+00 -0.44593239463E+03  0.19515935111E+04  0.18999635607E+04 0.  0.
        5    1    3    3  502    0  0.12885268048E+03 -0.94044567072E+03 -0.18450239667E+03  0.96700790959E+03  0.46999998093E+01 0.  1.
       -5    1    3    3    0  502 -0.12885268048E+03  0.94044567072E+03 -0.26142999796E+03  0.98458560149E+03  0.46999998093E+01 0. -1.
</event>
<event>
 5   0  0.3398807E-06  0.1898787E+04  0.7818609E-02  0.8655460E-01
        1   -1    0    0  501    0  0.00000000000E+00  0.00000000000E+00  0.10432239864E+04  0.10432239864E+04  0.50400001928E-02 0.  1.
       -1   -1    0    0    0  501  0.00000000000E+00  0.00000000000E+00 -0.86400221584E+03  0.86400221585E+03  0.50400001928E-02 0. -1.
    10030    2    1    2    0    0  0.00000000000E+00  0.00000000000E+00  0.17922177051E+03  0.19072262022E+04  0.18987868083E+04 0.  0.
        1    1    3    3  502    0 -0.76198427738E+02  0.50134070956E+03  0.89579839475E+03  0.10293704248E+04  0.50400001928E-02 0.  1.
       -1    1    3    3    0  502  0.76198427738E+02 -0.50134070956E+03 -0.71657662424E+03  0.87785577738E+03  0.50400001928E-02 0. -1.
</event>
<event>
 5   0  0.7577180E-06  0.1899264E+04  0.7818609E-02  0.8655223E-01
        2   -1    0    0  501    0  0.00000000000E+00  0.00000000000E+00  0.18414102094E+04  0.18414102094E+04  0.25500000920E-02 0. -1.
       -2   -1    0    0    0  501  0.00000000000E+00  0.00000000000E+00 -0.48973365973E+03  0.48973365974E+03  0.25500000920E-02 0.  1.
    10030    2    1    2    0    0  0.00000000000E+00  0.00000000000E+00  0.13516765497E+04  0.23311438692E+04  0.18992636056E+04 0.  0.
        5    1    3    3  502    0  0.27180048093E+03  0.89749369874E+03  0.49210590704E+03  0.10590376549E+04  0.46999998093E+01 0. -1.
       -5    1    3    3    0  502 -0.27180048093E+03 -0.89749369874E+03  0.85957064263E+03  0.12721062143E+04  0.46999998093E+01 0.  1.
</event>
<event>
 5   0  0.3495279E-06  0.1901200E+04  0.7818609E-02  0.8654259E-01
        1   -1    0    0  501    0  0.00000000000E+00  0.00000000000E+00  0.13497452784E+04  0.13497452784E+04  0.50400001928E-02 0. -1.
       -1   -1    0    0    0  501  0.00000000000E+00  0.00000000000E+00 -0.66948936307E+03  0.66948936309E+03  0.50400001928E-02 0.  1.
    10030    2    1    2    0    0  0.00000000000E+00  0.00000000000E+00  0.68025591528E+03  0.20192346415E+04  0.19011997336E+04 0.  0.
        2    1    3    3  502    0  0.37684313720E+03  0.47567696486E+03 -0.43698172504E+03  0.74781839572E+03  0.25500000920E-02 0.  1.
       -2    1    3    3    0  502 -0.37684313720E+03 -0.47567696486E+03  0.11172376403E+04  0.12714162457E+04  0.25500000920E-02 0. -1.
</event>
<event>
 5   0  0.3236653E-06  0.1901363E+04  0.7818609E-02  0.8654178E-01
       -1   -1    0    0    0  501  0.00000000000E+00  0.00000000000E+00  0.98093202761E+03  0.98093202762E+03  0.50400001928E-02 0.  1.
        1   -1    0    0  501    0  0.00000000000E+00  0.00000000000E+00 -0.92136430414E+03  0.92136430415E+03  0.50400001928E-02 0. -1.
    10030    2    1    2    0    0  0.00000000000E+00  0.00000000000E+00  0.59567723467E+02  0.19022963318E+04  0.19013634635E+04 0.  0.
        3    1    3    3  502    0  0.71093987238E+03 -0.38898410235E+03 -0.46750286921E+03  0.93557633411E+03  0.10100000352E+00 0. -1.
       -3    1    3    3    0  502 -0.71093987238E+03  0.38898410235E+03  0.52707059268E+03  0.96671999767E+03  0.10100000352E+00 0.  1.
</event>
<event>
 5   0  0.6862201E-06  0.1904393E+04  0.7818609E-02  0.8652673E-01
       -2   -1    0    0    0  501  0.00000000000E+00  0.00000000000E+00  0.95478389672E+03  0.95478389672E+03  0.25500000920E-02 0. -1.
        2   -1    0    0  501    0  0.00000000000E+00  0.00000000000E+00 -0.94961612947E+03  0.94961612947E+03  0.25500000920E-02 0.  1.
    10030    2    1    2    0    0  0.00000000000E+00  0.00000000000E+00  0.51677672472E+01  0.19044000262E+04  0.19043930146E+04 0.  0.
        3    1    3    3  502    0 -0.54785007100E+03  0.69771599526E+03 -0.34343887517E+03  0.95126104804E+03  0.10100000352E+00 0.  1.
       -3    1    3    3    0  502  0.54785007100E+03 -0.69771599526E+03  0.34860664241E+03  0.95313897815E+03  0.10100000352E+00 0. -1.
</event>
<event>
 5   0  0.7577180E-06  0.1900290E+04  0.7818609E-02  0.8654712E-01
       -2   -1    0    0    0  501  0.00000000000E+00  0.00000000000E+00  0.59579157880E+03  0.59579157881E+03  0.25500000920E-02 0.  1.
        2   -1    0    0  501    0  0.00000000000E+00  0.00000000000E+00 -0.15152531538E+04  0.15152531538E+04  0.25500000920E-02 0. -1.
    10030    2    1    2    0    0  0.00000000000E+00  0.00000000000E+00 -0.91946157503E+03  0.21110447326E+04  0.19002895241E+04 0.  0.
        5    1    3    3  502    0  0.36708832892E+03  0.35581871143E+03 -0.13494223930E+04  0.14430258769E+04  0.46999998093E+01 0. -1.
       -5    1    3    3    0  502 -0.36708832892E+03 -0.35581871143E+03  0.42996081798E+03  0.66801885575E+03  0.46999998093E+01 0.  1.
</event>
<event>
 5   0  0.6870370E-06  0.1901433E+04  0.7818609E-02  0.8654144E-01
        2   -1    0    0  501    0  0.00000000000E+00  0.00000000000E+00  0.16099737970E+04  0.16099737970E+04  0.25500000920E-02 0.  1.
       -2   -1    0    0    0  501  0.00000000000E+00  0.00000000000E+00 -0.56141374077E+03  0.56141374078E+03  0.25500000920E-02 0. -1.
    10030    2    1    2    0    0  0.00000000000E+00  0.00000000000E+00  0.10485600562E+04  0.21713875377E+04  0.19014325251E+04 0.  0.
        1    1    3    3  502    0 -0.55018956783E+03 -0.39401151784E+03  0.12868486745E+04  0.14539371197E+04  0.50400001928E-02 0.  1.
       -1    1    3    3    0  502  0.55018956783E+03  0.39401151784E+03 -0.23828861835E+03  0.71745041808E+03  0.50400001928E-02 0. -1.
</event>
<event>
 5   0  0.3379108E-06  0.1900477E+04  0.7818609E-02  0.8654619E-01
       -1   -1    0    0    0  501  0.00000000000E+00  0.00000000000E+00  0.56725211102E+03  0.56725211104E+03  0.50400001928E-02 0. -1.
        1   -1    0    0  501    0  0.00000000000E+00  0.00000000000E+00 -0.15918016436E+04  0.15918016436E+04  0.50400001928E-02 0.  1.
    10030    2    1    2    0    0  0.00000000000E+00  0.00000000000E+00 -0.10245495325E+04  0.21590537546E+04  0.19004766167E+04 0.  0.
        4    1    3    3  502    0 -0.74150852955E+02  0.26124881929E+02 -0.15880995634E+04  0.15900448719E+04  0.12699999809E+01 0.  1.
       -4    1    3    3    0  502  0.74150852955E+02 -0.26124881929E+02  0.56355003085E+03  0.56900888273E+03  0.12699999809E+01 0. -1.
</event>
<event>
 5   0  0.3236653E-06  0.1900006E+04  0.7818609E-02  0.8654853E-01
        1   -1    0    0  501    0  0.00000000000E+00  0.00000000000E+00  0.15051289732E+04  0.15051289732E+04  0.50400001928E-02 0.  1.
       -1   -1    0    0    0  501  0.00000000000E+00  0.00000000000E+00 -0.59962004279E+03  0.59962004281E+03  0.50400001928E-02 0. -1.
    10030    2    1    2    0    0  0.00000000000E+00  0.00000000000E+00  0.90550893038E+03  0.21047490160E+04  0.19000057888E+04 0.  0.
        3    1    3    3  502    0 -0.18064851164E+03  0.79107957819E+03 -0.94510795580E+02  0.81692905718E+03  0.10100000352E+00 0. -1.
       -3    1    3    3    0  502  0.18064851164E+03 -0.79107957819E+03  0.10000197260E+04  0.12878199588E+04  0.10100000352E+00 0.  1.
</event>
<event>
 5   0  0.3236653E-06  0.1900052E+04  0.7818609E-02  0.8654830E-01
       -1   -1    0    0    0  501  0.00000000000E+00  0.00000000000E+00  0.75440174052E+03  0.75440174054E+03  0.50400001928E-02 0.  1.
        1   -1    0    0  501    0  0.00000000000E+00  0.00000000000E+00 -0.11963780742E+04  0.11963780742E+04  0.50400001928E-02 0. -1.
    10030    2    1    2    0    0  0.00000000000E+00  0.00000000000E+00 -0.44197633369E+03  0.19507798148E+04  0.19000523167E+04 0.  0.
        3    1    3    3  502    0 -0.40283146185E+02  0.67547590071E+03  0.46364253031E+03  0.82027728874E+03  0.10100000352E+00 0.  1.
       -3    1    3    3    0  502  0.40283146185E+02 -0.67547590071E+03 -0.90561886400E+03  0.11305025260E+04  0.10100000352E+00 0. -1.
</event>
<event>
 5   0  0.6984466E-06  0.1900695E+04  0.7818609E-02  0.8654510E-01
        2   -1    0    0  501    0  0.00000000000E+00  0.00000000000E+00  0.65268093686E+03  0.65268093687E+03  0.25500000920E-02 0.  1.
       -2   -1    0    0    0  501  0.00000000000E+00  0.00000000000E+00 -0.13837703522E+04  0.13837703522E+04  0.25500000920E-02 0. -1.
    10030    2    1    2    0    0  0.00000000000E+00  0.00000000000E+00 -0.73108941533E+03  0.20364512891E+04  0.19006951674E+04 0.  0.
        2    1    3    3  502    0 -0.15847989054E+03  0.90183361256E+03 -0.92929203547E+02  0.92035622306E+03  0.25500000920E-02 0.  1.
       -2    1    3    3    0  502  0.15847989054E+03 -0.90183361256E+03 -0.63816021178E+03  0.11160950660E+04  0.25500000920E-02 0. -1.
</event>
<event>
 5   0  0.3236653E-06  0.1900057E+04  0.7818609E-02  0.8654828E-01
       -1   -1    0    0    0  501  0.00000000000E+00  0.00000000000E+00  0.77557780117E+03  0.77557780118E+03  0.50400001928E-02 0.  1.
        1   -1    0    0  501    0  0.00000000000E+00  0.00000000000E+00 -0.11637177836E+04  0.11637177836E+04  0.50400001928E-02 0. -1.
    10030    2    1    2    0    0  0.00000000000E+00  0.00000000000E+00 -0.38813998241E+03  0.19392955848E+04  0.19000565042E+04 0.  0.
        3    1    3    3  502    0  0.93153351936E+02 -0.39931493430E+03  0.68061331075E+03  0.79458445284E+03  0.10100000352E+00 0.  1.
       -3    1    3    3    0  502 -0.93153351936E+02  0.39931493430E+03 -0.10687532932E+04  0.11447111319E+04  0.10100000352E+00 0. -1.
</event>
<event>
 5   0  0.3495279E-06  0.1900382E+04  0.7818609E-02  0.8654666E-01
       -1   -1    0    0    0  501  0.00000000000E+00  0.00000000000E+00  0.58817851537E+03  0.58817851539E+03  0.50400001928E-02 0. -1.
        1   -1    0    0  501    0  0.00000000000E+00  0.00000000000E+00 -0.15350158051E+04  0.15350158051E+04  0.50400001928E-02 0.  1.
    10030    2    1    2    0    0  0.00000000000E+00  0.00000000000E+00 -0.94683728975E+03  0.21231943205E+04  0.19003824008E+04 0.  0.
        2    1    3    3  502    0 -0.88166940404E+03 -0.25689904163E+03 -0.20083524706E+03  0.94003875031E+03  0.25500000920E-02 0. -1.
       -2    1    3    3    0  502  0.88166940404E+03  0.25689904163E+03 -0.74600204269E+03  0.11831555702E+04  0.25500000920E-02 0.  1.
</event>
<event>
 5   0  0.3379108E-06  0.1899580E+04  0.7818609E-02  0.8655066E-01
       -1   -1    0    0    0  501  0.00000000000E+00  0.00000000000E+00  0.66501860434E+03  0.66501860436E+03  0.50400001928E-02 0.  1.
        1   -1    0    0  501    0  0.00000000000E+00  0.00000000000E+00 -0.13565047822E+04  0.13565047822E+04  0.50400001928E-02 0. -1.
    10030    2    1    2    0    0  0.00000000000E+00  0.00000000000E+00 -0.69148617782E+03  0.20215233865E+04  0.18995798662E+04 0.  0.
        4    1    3    3  502    0 -0.34518589582E+03 -0.38547049955E+02 -0.12864939484E+04  0.13325567417E+04  0.12699999809E+01 0. -1.
       -4    1    3    3    0  502  0.34518589582E+03  0.38547049955E+02  0.59500777057E+03  0.68896664482E+03  0.12699999809E+01 0.  1.
</event>
<event>
 5   0  0.6870370E-06  0.1901026E+04  0.7818609E-02  0.8654346E-01
       -2   -1    0    0    0  501  0.00000000000E+00  0.00000000000E+00  0.84733439258E+03  0.84733439258E+03  0.25500000920E-02 0.  1.
        2   -1    0    0  501    0  0.00000000000E+00  0.00000000000E+00 -0.10662552124E+04  0.10662552124E+04  0.25500000920E-02 0. -1.
    10030    2    1    2    0    0  0.00000000000E+00  0.00000000000E+00 -0.21892081980E+03  0.19135896050E+04  0.19010257365E+04 0.  0.
        1    1    3    3  502    0 -0.11409697688E+02  0.40279098921E+03 -0.97602386676E+03  0.10559324556E+04  0.50400001928E-02 0. -1.
       -1    1    3    3    0  502  0.11409697688E+02 -0.40279098921E+03  0.75710304696E+03  0.85765714941E+03  0.50400001928E-02 0.  1.
</event>
<event>
 5   0  0.6862201E-06  0.1899857E+04  0.7818609E-02  0.8654928E-01
       -2   -1    0    0    0  501  0.00000000000E+00  0.00000000000E+00  0.11669960938E+04  0.11669960938E+04  0.25500000920E-02 0. -1.
        2   -1    0    0  501    0  0.00000000000E+00  0.00000000000E+00 -0.77323660051E+03  0.77323660052E+03  0.25500000920E-02 0.  1.
    10030    2    1    2    0    0  0.00000000000E+00  0.00000000000E+00  0.39375949332E+03  0.19402326943E+04  0.18998569340E+04 0.  0.
        3    1    3    3  502    0 -0.77941685115E+03  0.37408316814E+03  0.59886305633E+03  0.10516966364E+04  0.10100000352E+00 0. -1.
       -3    1    3    3    0  502  0.77941685115E+03 -0.37408316814E+03 -0.20510356301E+03  0.88853605797E+03  0.10100000352E+00 0.  1.
</event>
<event>
 5   0  0.3495279E-06  0.1900182E+04  0.7818609E-02  0.8654766E-01
       -1   -1    0    0    0  501  0.00000000000E+00  0.00000000000E+00  0.67119126766E+03  0.67119126768E+03  0.50400001928E-02 0.  1.
        1   -1    0    0  501    0  0.00000000000E+00  0.00000000000E+00 -0.13448812709E+04  0.13448812709E+04  0.50400001928E-02 0. -1.
    10030    2    1    2    0    0  0.00000000000E+00  0.00000000000E+00 -0.67369000322E+03  0.20160725386E+04  0.19001816388E+04 0.  0.
        2    1    3    3  502    0 -0.13880784659E+03 -0.51952601209E+03 -0.11678765199E+04  0.12857334332E+04  0.25500000920E-02 0. -1.
       -2    1    3    3    0  502  0.13880784659E+03  0.51952601209E+03  0.49418651670E+03  0.73033910535E+03  0.25500000920E-02 0.  1.
</event>
<event>
 5   0  0.2527750E-06  0.1905485E+04  0.7818609E-02  0.8652131E-01
       -3   -1    0    0    0  501  0.00000000000E+00  0.00000000000E+00  0.37348915706E+03  0.37348917072E+03  0.10100000352E+00 0. -1.
        3   -1    0    0  501    0  0.00000000000E+00  0.00000000000E+00 -0.24303748682E+04  0.24303748703E+04  0.10100000352E+00 0.  1.
    10030    2    1    2    0    0  0.00000000000E+00  0.00000000000E+00 -0.20568857111E+04  0.28038640410E+04  0.19054854321E+04 0.  0.
        3    1    3    3  502    0 -0.20381598996E+03  0.65086190398E+03 -0.20073368824E+04  0.21200385717E+04  0.10100000352E+00 0.  1.
       -3    1    3    3    0  502  0.20381598996E+03 -0.65086190398E+03 -0.49548828687E+02  0.68382546928E+03  0.10100000352E+00 0. -1.
</event>
<event>
 5   0  0.3211263E-06  0.1906483E+04  0.7818609E-02  0.8651636E-01
        1   -1    0    0  501    0  0.00000000000E+00  0.00000000000E+00  0.75183548812E+03  0.75183548814E+03  0.50400001928E-02 0.  1.
       -1   -1    0    0    0  501  0.00000000000E+00  0.00000000000E+00 -0.12086015426E+04  0.12086015426E+04  0.50400001928E-02 0. -1.
    10030    2    1    2    0    0  0.00000000000E+00  0.00000000000E+00 -0.45676605446E+03  0.19604370307E+04  0.19064831819E+04 0.  0.
        5    1    3    3  502    0 -0.88727805388E+03 -0.73652611629E+02 -0.57854965190E+03  0.10618045215E+04  0.46999998093E+01 0. -1.
       -5    1    3    3    0  502  0.88727805388E+03  0.73652611629E+02  0.12178359744E+03  0.89863250926E+03  0.46999998093E+01 0.  1.
</event>
<event>
 5   0  0.7577180E-06  0.1899335E+04  0.7818609E-02  0.8655187E-01
        2   -1    0    0  501    0  0.00000000000E+00  0.00000000000E+00  0.15397204402E+04  0.15397204402E+04  0.25500000920E-02 0.  1.
       -2   -1    0    0    0  501  0.00000000000E+00  0.00000000000E+00 -0.58573510754E+03  0.58573510755E+03  0.25500000920E-02 0. -1.
    10030    2    1    2    0    0  0.00000000000E+00  0.00000000000E+00  0.95398533263E+03  0.21254555477E+04  0.18993349548E+04 0.  0.
        5    1    3    3  502    0  0.41257518099E+03 -0.76406574376E+03  0.46729728714E+02  0.86960939409E+03  0.46999998093E+01 0. -1.
       -5    1    3    3    0  502 -0.41257518099E+03  0.76406574376E+03  0.90725560391E+03  0.12558461536E+04  0.46999998093E+01 0.  1.
</event>
<event>
 5   0  0.6870370E-06  0.1899249E+04  0.7818609E-02  0.8655231E-01
       -2   -1    0    0    0  501  0.00000000000E+00  0.00000000000E+00  0.90524213839E+03  0.90524213839E+03  0.25500000920E-02 0. -1.
        2   -1    0    0  501    0  0.00000000000E+00  0.00000000000E+00 -0.99618232337E+03  0.99618232338E+03  0.25500000920E-02 0.  1.
    10030    2    1    2    0    0  0.00000000000E+00  0.00000000000E+00 -0.90940184985E+02  0.19014244618E+04  0.18992485005E+04 0.  0.
        1    1    3    3  502    0 -0.67357659332E+03 -0.37586679244E+03 -0.60000445298E+03  0.97723416659E+03  0.50400001928E-02 0.  1.
       -1    1    3    3    0  502  0.67357659332E+03  0.37586679244E+03  0.50906426800E+03  0.92419029518E+03  0.50400001928E-02 0. -1.
</event>
<event>
 5   0  0.3211263E-06  0.1899797E+04  0.7818609E-02  0.8654958E-01
       -1   -1    0    0    0  501  0.00000000000E+00  0.00000000000E+00  0.36929917644E+03  0.36929917647E+03  0.50400001928E-02 0.  1.
        1   -1    0    0  501    0  0.00000000000E+00  0.00000000000E+00 -0.24432951114E+04  0.24432951114E+04  0.50400001928E-02 0. -1.
    10030    2    1    2    0    0  0.00000000000E+00  0.00000000000E+00 -0.20739959350E+04  0.28125942879E+04  0.18997966970E+04 0.  0.
        5    1    3    3  502    0  0.49941673176E+02 -0.56561985705E+03  0.90363874687E+02  0.57498496786E+03  0.46999998093E+01 0.  1.
       -5    1    3    3    0  502 -0.49941673176E+02  0.56561985705E+03 -0.21643598097E+04  0.22376093200E+04  0.46999998093E+01 0. -1.
</event>
<event>
 5   0  0.3379108E-06  0.1899032E+04  0.7818609E-02  0.8655338E-01
        1   -1    0    0  501    0  0.00000000000E+00  0.00000000000E+00  0.20710991905E+04  0.20710991905E+04  0.50400001928E-02 0. -1.
       -1   -1    0    0    0  501  0.00000000000E+00  0.00000000000E+00 -0.43531496840E+03  0.43531496843E+03  0.50400001928E-02 0.  1.
    10030    2    1    2    0    0  0.00000000000E+00  0.00000000000E+00  0.16357842221E+04  0.25064141589E+04  0.18990318362E+04 0.  0.
        4    1    3    3  502    0 -0.93089988832E+03  0.10144851249E+03  0.10253732417E+04  0.13886174061E+04  0.12699999809E+01 0. -1.
       -4    1    3    3    0  502  0.93089988832E+03 -0.10144851249E+03  0.61041098033E+03  0.11177967528E+04  0.12699999809E+01 0.  1.
</event>
<event>
 5   0  0.7207648E-06  0.1899409E+04  0.7818609E-02  0.8655151E-01
       -2   -1    0    0    0  501  0.00000000000E+00  0.00000000000E+00  0.91144676177E+03  0.91144676178E+03  0.25500000920E-02 0.  1.
        2   -1    0    0  501    0  0.00000000000E+00  0.00000000000E+00 -0.98956790917E+03  0.98956790917E+03  0.25500000920E-02 0. -1.
    10030    2    1    2    0    0  0.00000000000E+00  0.00000000000E+00 -0.78121147395E+02  0.19010146710E+04  0.18994088200E+04 0.  0.
        4    1    3    3  502    0 -0.18039022246E+02 -0.76063445346E+03  0.52979190669E+03  0.92713065714E+03  0.12699999809E+01 0.  1.
       -4    1    3    3    0  502  0.18039022246E+02  0.76063445346E+03 -0.60791305409E+03  0.97388401381E+03  0.12699999809E+01 0. -1.
</event>
<event>
 5   0  0.6862201E-06  0.1899668E+04  0.7818609E-02  0.8655021E-01
       -2   -1    0    0    0  501  0.00000000000E+00  0.00000000000E+00  0.72191105501E+03  0.72191105501E+03  0.25500000920E-02 0.  1.
        2   -1    0    0  501    0  0.00000000000E+00  0.00000000000E+00 -0.12497177029E+04  0.12497177029E+04  0.25500000920E-02 0. -1.
    10030    2    1    2    0    0  0.00000000000E+00  0.00000000000E+00 -0.52780664788E+03  0.19716287579E+04  0.18996684188E+04 0.  0.
        3    1    3    3  502    0  0.45627434890E+03 -0.91065739810E+02  0.59553801944E+03  0.75574122107E+03  0.10100000352E+00 0.  1.
       -3    1    3    3    0  502 -0.45627434890E+03  0.91065739810E+02 -0.11233446673E+04  0.12158875368E+04  0.10100000352E+00 0. -1.
</event>
<event>
 5   0  0.7577180E-06  0.1899704E+04  0.7818609E-02  0.8655004E-01
        2   -1    0    0  501    0  0.00000000000E+00  0.00000000000E+00  0.68655106028E+03  0.68655106029E+03  0.25500000920E-02 0.  1.
       -2   -1    0    0    0  501  0.00000000000E+00  0.00000000000E+00 -0.13141317119E+04  0.13141317119E+04  0.25500000920E-02 0. -1.
    10030    2    1    2    0    0  0.00000000000E+00  0.00000000000E+00 -0.62758065165E+03  0.20006827722E+04  0.18997036823E+04 0.  0.
        5    1    3    3  502    0  0.28715246852E+03 -0.68688455657E+03  0.30741903572E+03  0.80547842165E+03  0.46999998093E+01 0. -1.
       -5    1    3    3    0  502 -0.28715246852E+03  0.68688455657E+03 -0.93499968737E+03  0.11952043506E+04  0.46999998093E+01 0.  1.
</event>
<event>
 5   0  0.7577180E-06  0.1901420E+04  0.7818609E-02  0.8654150E-01
       -2   -1    0    0    0  501  0.00000000000E+00  0.00000000000E+00  0.52719309079E+03  0.52719309080E+03  0.25500000920E-02 0. -1.
        2   -1    0    0  501    0  0.00000000000E+00  0.00000000000E+00 -0.17144561935E+04  0.17144561935E+04  0.25500000920E-02 0.  1.
    10030    2    1    2    0    0  0.00000000000E+00  0.00000000000E+00 -0.11872631027E+04  0.22416492843E+04  0.19014199533E+04 0.  0.
        5    1    3    3  502    0 -0.18941076000E+03  0.29418948968E+03 -0.16357744877E+04  0.16727833561E+04  0.46999998093E+01 0.  1.
       -5    1    3    3    0  502  0.18941076000E+03 -0.29418948968E+03  0.44851138497E+03  0.56886592822E+03  0.46999998093E+01 0. -1.
</event>
<event>
 5   0  0.7577180E-06  0.1900057E+04  0.7818609E-02  0.8654828E-01
       -2   -1    0    0    0  501  0.00000000000E+00  0.00000000000E+00  0.65682988095E+03  0.65682988095E+03  0.25500000920E-02 0.  1.
        2   -1    0    0  501    0  0.00000000000E+00  0.00000000000E+00 -0.13741069219E+04  0.13741069219E+04  0.25500000920E-02 0. -1.
    10030    2    1    2    0    0  0.00000000000E+00  0.00000000000E+00 -0.71727704094E+03  0.20309368028E+04  0.19000573527E+04 0.  0.
        5    1    3    3  502    0  0.80321597320E+03 -0.35131342436E+03  0.32571319816E+02  0.87730268586E+03  0.46999998093E+01 0.  1.
       -5    1    3    3    0  502 -0.80321597320E+03  0.35131342436E+03 -0.74984836076E+03  0.11536341170E+04  0.46999998093E+01 0. -1.
</event>
<event>
 5   0  0.3211263E-06  0.1899891E+04  0.7818609E-02  0.8654910E-01
       -1   -1    0    0    0  501  0.00000000000E+00  0.00000000000E+00  0.77028970444E+03  0.77028970445E+03  0.50400001928E-02 0. -1.
        1   -1    0    0  501    0  0.00000000000E+00  0.00000000000E+00 -0.11715031706E+04  0.11715031707E+04  0.50400001928E-02 0.  1.
    10030    2    1    2    0    0  0.00000000000E+00  0.00000000000E+00 -0.40121346621E+03  0.19417928751E+04  0.18998913980E+04 0.  0.
        5    1    3    3  502    0  0.21794582309E+03 -0.69532572034E+03  0.42225698120E+03  0.84220026558E+03  0.46999998093E+01 0. -1.
       -5    1    3    3    0  502 -0.21794582309E+03  0.69532572034E+03 -0.82347044741E+03  0.10995926095E+04  0.46999998093E+01 0.  1.
</event>
<event>
 5   0  0.6870370E-06  0.1899767E+04  0.7818609E-02  0.8654972E-01
        2   -1    0    0  501    0  0.00000000000E+00  0.00000000000E+00  0.15473461512E+04  0.15473461512E+04  0.25500000920E-02 0. -1.
       -2   -1    0    0    0  501  0.00000000000E+00  0.00000000000E+00 -0.58311375606E+03  0.58311375606E+03  0.25500000920E-02 0.  1.
    10030    2    1    2    0    0  0.00000000000E+00  0.00000000000E+00  0.96423239513E+03  0.21304599073E+04  0.18997671712E+04 0.  0.
        1    1    3    3  502    0  0.46630717932E+03  0.57351460481E+03 -0.18691692720E+03  0.76242988209E+03  0.50400001928E-02 0.  1.
       -1    1    3    3    0  502 -0.46630717932E+03 -0.57351460481E+03  0.11511493223E+04  0.13680300252E+04  0.50400001928E-02 0. -1.
</event>
<event>
 5   0  0.3495279E-06  0.1899953E+04  0.7818609E-02  0.8654880E-01
       -1   -1    0    0    0  501  0.00000000000E+00  0.00000000000E+00  0.11114633147E+04  0.11114633147E+04  0.50400001928E-02 0.  1.
        1   -1    0    0  501    0  0.00000000000E+00  0.00000000000E+00 -0.81195253591E+03  0.81195253593E+03  0.50400001928E-02 0. -1.
    10030    2    1    2    0    0  0.00000000000E+00  0.00000000000E+00  0.29951077878E+03  0.19234158506E+04  0.18999531120E+04 0.  0.
        2    1    3    3  502    0  0.66729919256E+03  0.66303327121E+03  0.15627246691E+02  0.94082173762E+03  0.25500000920E-02 0.  1.
       -2    1    3    3    0  502 -0.66729919256E+03 -0.66303327121E+03  0.28388353209E+03  0.98259411301E+03  0.25500000920E-02 0. -1.
</event>
<event>
 5   0  0.3379108E-06  0.1899918E+04  0.7818609E-02  0.8654897E-01
        1   -1    0    0  501    0  0.00000000000E+00  0.00000000000E+00  0.70859932392E+03  0.70859932394E+03  0.50400001928E-02 0. -1.
       -1   -1    0    0    0  501  0.00000000000E+00  0.00000000000E+00 -0.12735291122E+04  0.12735291123E+04  0.50400001928E-02 0.  1.
    10030    2    1    2    0    0  0.00000000000E+00  0.00000000000E+00 -0.56492978833E+03  0.19821284362E+04  0.18999177540E+04 0.  0.
        4    1    3    3  502    0 -0.52521726399E+03 -0.63953128139E+03 -0.76908866959E+03  0.11297576859E+04  0.12699999809E+01 0.  1.
       -4    1    3    3    0  502  0.52521726399E+03  0.63953128139E+03  0.20415888127E+03  0.85237075030E+03  0.12699999809E+01 0. -1.
</event>
<event>
 5   0  0.3236653E-06  0.1899949E+04  0.7818609E-02  0.8654882E-01
        1   -1    0    0  501    0  0.00000000000E+00  0.00000000000E+00  0.96056981548E+03  0.96056981549E+03  0.50400001928E-02 0.  1.
       -1   -1    0    0    0  501  0.00000000000E+00  0.00000000000E+00 -0.93949604025E+03  0.93949604026E+03  0.50400001928E-02 0. -1.
    10030    2    1    2    0    0  0.00000000000E+00  0.00000000000E+00  0.21073775229E+02  0.19000658558E+04  0.18999489867E+04 0.  0.
        3    1    3    3  502    0 -0.36733640570E+03  0.21106508504E+03  0.86086386432E+03  0.95946396919E+03  0.10100000352E+00 0.  1.
       -3    1    3    3    0  502  0.36733640570E+03 -0.21106508504E+03 -0.83979008909E+03  0.94060188657E+03  0.10100000352E+00 0. -1.
</event>
<event>
 5   0  0.6870370E-06  0.1900571E+04  0.7818609E-02  0.8654572E-01
        2   -1    0    0  501    0  0.00000000000E+00  0.00000000000E+00  0.66881871333E+03  0.66881871333E+03  0.25500000920E-02 0. -1.
       -2   -1    0    0    0  501  0.00000000000E+00  0.00000000000E+00 -0.13502051797E+04  0.13502051797E+04  0.25500000920E-02 0.  1.
    10030    2    1    2    0    0  0.00000000000E+00  0.00000000000E+00 -0.68138646636E+03  0.20190238930E+04  0.19005709574E+04 0.  0.
        1    1    3    3  502    0  0.79632818991E+03  0.50853226328E+03 -0.44850137750E+03  0.10458953745E+04  0.50400001928E-02 0.  1.
       -1    1    3    3    0  502 -0.79632818991E+03 -0.50853226328E+03 -0.23288508887E+03  0.97312851848E+03  0.50400001928E-02 0. -1.
</event>
<event>
 5   0  0.3379108E-06  0.1899280E+04  0.7818609E-02  0.8655215E-01
       -1   -1    0    0    0  501  0.00000000000E+00  0.00000000000E+00  0.75977282435E+03  0.75977282437E+03  0.50400001928E-02 0.  1.
        1   -1    0    0  501    0  0.00000000000E+00  0.00000000000E+00 -0.11869549666E+04  0.11869549666E+04  0.50400001928E-02 0. -1.
    10030    2    1    2    0    0  0.00000000000E+00  0.00000000000E+00 -0.42718214222E+03  0.19467277910E+04  0.18992799976E+04 0.  0.
        4    1    3    3  502    0 -0.30168769341E+03  0.87598389249E+03  0.66099389110E-01  0.92647982251E+03  0.12699999809E+01 0.  1.
       -4    1    3    3    0  502  0.30168769341E+03 -0.87598389249E+03 -0.42724824161E+03  0.10202479684E+04  0.12699999809E+01 0. -1.
</event>
<event>
 5   0  0.3379108E-06  0.1900913E+04  0.7818609E-02  0.8654402E-01
        1   -1    0    0  501    0  0.00000000000E+00  0.00000000000E+00  0.10757429952E+04  0.10757429952E+04  0.50400001928E-02 0.  1.
       -1   -1    0    0    0  501  0.00000000000E+00  0.00000000000E+00 -0.83976112554E+03  0.83976112556E+03  0.50400001928E-02 0. -1.
    10030    2    1    2    0    0  0.00000000000E+00  0.00000000000E+00  0.23598186962E+03  0.19155041207E+04  0.19009125687E+04 0.  0.
        4    1    3    3  502    0 -0.48082623531E+03  0.79550683013E+03  0.31785796672E+03  0.98237481912E+03  0.12699999809E+01 0.  1.
       -4    1    3    3    0  502  0.48082623531E+03 -0.79550683013E+03 -0.81876097100E+02  0.93312930161E+03  0.12699999809E+01 0. -1.
</event>
<event>
 5   0  0.3211263E-06  0.1899978E+04  0.7818609E-02  0.8654867E-01
       -1   -1    0    0    0  501  0.00000000000E+00  0.00000000000E+00  0.81547676455E+03  0.81547676457E+03  0.50400001928E-02 0. -1.
        1   -1    0    0  501    0  0.00000000000E+00  0.00000000000E+00 -0.11066887174E+04  0.11066887174E+04  0.50400001928E-02 0.  1.
    10030    2    1    2    0    0  0.00000000000E+00  0.00000000000E+00 -0.29121195282E+03  0.19221654819E+04  0.18999778258E+04 0.  0.
        5    1    3    3  502    0 -0.86016383491E+03 -0.12377283091E+03 -0.53382581158E+03  0.10198988301E+04  0.46999998093E+01 0.  1.
       -5    1    3    3    0  502  0.86016383491E+03  0.12377283091E+03  0.24261385876E+03  0.90226665184E+03  0.46999998093E+01 0. -1.
</event>
<event>
 5   0  0.6984466E-06  0.1899584E+04  0.7818609E-02  0.8655064E-01
        2   -1    0    0  501    0  0.00000000000E+00  0.00000000000E+00  0.19978772200E+04  0.19978772200E+04  0.25500000920E-02 0. -1.
       -2   -1    0    0    0  501  0.00000000000E+00  0.00000000000E+00 -0.45153147118E+03  0.45153147119E+03  0.25500000920E-02 0.  1.
    10030    2    1    2    0    0  0.00000000000E+00  0.00000000000E+00  0.15463457488E+04  0.24494086912E+04  0.18995835758E+04 0.  0.
        2    1    3    3  502    0  0.78968495448E+03 -0.18831981816E+02  0.93123562994E+02  0.79537976392E+03  0.25500000920E-02 0.  1.
       -2    1    3    3    0  502 -0.78968495448E+03  0.18831981816E+02  0.14532221858E+04  0.16540289273E+04  0.25500000920E-02 0. -1.
</event>
<event>
 5   0  0.7207648E-06  0.1900070E+04  0.7818609E-02  0.8654822E-01
       -2   -1    0    0    0  501  0.00000000000E+00  0.00000000000E+00  0.98872668749E+03  0.98872668749E+03  0.25500000920E-02 0. -1.
        2   -1    0    0  501    0  0.00000000000E+00  0.00000000000E+00 -0.91285716657E+03  0.91285716657E+03  0.25500000920E-02 0.  1.
    10030    2    1    2    0    0  0.00000000000E+00  0.00000000000E+00  0.75869520919E+02  0.19015838541E+04  0.19000697276E+04 0.  0.
        4    1    3    3  502    0 -0.89292705282E+03 -0.17800892586E+03  0.30936801525E+03  0.96162158935E+03  0.12699999809E+01 0. -1.
       -4    1    3    3    0  502  0.89292705282E+03  0.17800892586E+03 -0.23349849434E+03  0.93996226472E+03  0.12699999809E+01 0.  1.
</event>
<event>
 5   0  0.7577180E-06  0.1900312E+04  0.7818609E-02  0.8654701E-01
       -2   -1    0    0    0  501  0.00000000000E+00  0.00000000000E+00  0.11039858964E+04  0.11039858964E+04  0.25500000920E-02 0.  1.
        2   -1    0    0  501    0  0.00000000000E+00  0.00000000000E+00 -0.81776077727E+03  0.81776077727E+03  0.25500000920E-02 0. -1.
    10030    2    1    2    0    0  0.00000000000E+00  0.00000000000E+00  0.28622511915E+03  0.19217466737E+04  0.19003119373E+04 0.  0.
        5    1    3    3  502    0 -0.12579826662E+03 -0.93185434779E+03  0.52052205303E+01  0.94033340560E+03  0.46999998093E+01 0. -1.
       -5    1    3    3    0  502  0.12579826662E+03  0.93185434779E+03  0.28101989862E+03  0.98141326810E+03  0.46999998093E+01 0.  1.
</event>
<event>
 5   0  0.6862201E-06  0.1900048E+04  0.7818609E-02  0.8654832E-01
       -2   -1    0    0    0  501  0.00000000000E+00  0.00000000000E+00  0.98748766977E+03  0.98748766977E+03  0.25500000920E-02 0. -1.
        2   -1    0    0  501    0  0.00000000000E+00  0.00000000000E+00 -0.91398166235E+03  0.91398166236E+03  0.25500000920E-02 0.  1.
    10030    2    1    2    0    0  0.00000000000E+00  0.00000000000E+00  0.73506007417E+02  0.19014693321E+04  0.19000480225E+04 0.  0.
        3    1    3    3  502    0 -0.18741629574E+03 -0.66482596784E+03 -0.61598269047E+03  0.92550155083E+03  0.10100000352E+00 0.  1.
       -3    1    3    3    0  502  0.18741629574E+03  0.66482596784E+03  0.68948869789E+03  0.97596778130E+03  0.10100000352E+00 0. -1.
</event>
<event>
 5   0  0.7577180E-06  0.1897200E+04  0.7818609E-02  0.8656251E-01
       -2   -1    0    0    0  501  0.00000000000E+00  0.00000000000E+00  0.13588448218E+04  0.13588448218E+04  0.25500000920E-02 0. -1.
        2   -1    0    0  501    0  0.00000000000E+00  0.00000000000E+00 -0.66221101465E+03  0.66221101466E+03  0.25500000920E-02 0.  1.
    10030    2    1    2    0    0  0.00000000000E+00  0.00000000000E+00  0.69663380715E+03  0.20210558365E+04  0.18972000508E+04 0.  0.
        5    1    3    3  502    0  0.70927273985E+03  0.35667184976E+03 -0.20474610716E+03  0.81989370427E+03  0.46999998093E+01 0.  1.
       -5    1    3    3    0  502 -0.70927273985E+03 -0.35667184976E+03  0.90137991432E+03  0.12011621322E+04  0.46999998093E+01 0. -1.
</event>
<event>
 5   0  0.6984466E-06  0.1898843E+04  0.7818609E-02  0.8655433E-01
        2   -1    0    0  501    0  0.00000000000E+00  0.00000000000E+00  0.26568488912E+04  0.26568488912E+04  0.25500000920E-02 0. -1.
       -2   -1    0    0    0  501  0.00000000000E+00  0.00000000000E+00 -0.33927452843E+03  0.33927452844E+03  0.25500000920E-02 0.  1.
    10030    2    1    2    0    0  0.00000000000E+00  0.00000000000E+00  0.23175743628E+04  0.29961234197E+04  0.18988429684E+04 0.  0.
        2    1    3    3  502    0  0.41903312064E+03 -0.85143498045E+03  0.12053509314E+04  0.15340799034E+04  0.25500000920E-02 0.  1.
       -2    1    3    3    0  502 -0.41903312064E+03  0.85143498045E+03  0.11122234314E+04  0.14620435163E+04  0.25500000920E-02 0. -1.
</event>
<event>
 5   0  0.3398807E-06  0.1900661E+04  0.7818609E-02  0.8654527E-01
        1   -1    0    0  501    0  0.00000000000E+00  0.00000000000E+00  0.10476020290E+04  0.10476020290E+04  0.50400001928E-02 0.  1.
       -1   -1    0    0    0  501  0.00000000000E+00  0.00000000000E+00 -0.86209119689E+03  0.86209119690E+03  0.50400001928E-02 0. -1.
    10030    2    1    2    0    0  0.00000000000E+00  0.00000000000E+00  0.18551083209E+03  0.19096932259E+04  0.19006614502E+04 0.  0.
        1    1    3    3  502    0 -0.11321041149E+03 -0.63458704483E+03  0.79436524602E+03  0.10230021793E+04  0.50400001928E-02 0.  1.
       -1    1    3    3    0  502  0.11321041149E+03  0.63458704483E+03 -0.60885441393E+03  0.88669104660E+03  0.50400001928E-02 0. -1.
</event>
<event>
 5   0  0.3379108E-06  0.1903104E+04  0.7818609E-02  0.8653313E-01
        1   -1    0    0  501    0  0.00000000000E+00  0.00000000000E+00  0.10683062494E+04  0.10683062494E+04  0.50400001928E-02 0.  1.
       -1   -1    0    0    0  501  0.00000000000E+00  0.00000000000E+00 -0.84755815356E+03  0.84755815357E+03  0.50400001928E-02 0. -1.
    10030    2    1    2    0    0  0.00000000000E+00  0.00000000000E+00  0.22074809584E+03  0.19158644030E+04  0.19031044871E+04 0.  0.
        4    1    3    3  502    0  0.73254661502E+03  0.44825907580E+03  0.52286427767E+03  0.10054597993E+04  0.12699999809E+01 0.  1.
       -4    1    3    3    0  502 -0.73254661502E+03 -0.44825907580E+03 -0.30211618183E+03  0.91040460370E+03  0.12699999809E+01 0. -1.
</event>
<event>
 5   0  0.7207648E-06  0.1898117E+04  0.7818609E-02  0.8655794E-01
       -2   -1    0    0    0  501  0.00000000000E+00  0.00000000000E+00  0.71276382537E+03  0.71276382538E+03  0.25500000920E-02 0. -1.
        2   -1    0    0  501    0  0.00000000000E+00  0.00000000000E+00 -0.12636892275E+04  0.12636892275E+04  0.25500000920E-02 0.  1.
    10030    2    1    2    0    0  0.00000000000E+00  0.00000000000E+00 -0.55092540212E+03  0.19764530529E+04  0.18981169278E+04 0.  0.
        4    1    3    3  502    0  0.12247153567E+03 -0.44753586629E+03  0.58660781246E+03  0.74792911911E+03  0.12699999809E+01 0. -1.
       -4    1    3    3    0  502 -0.12247153567E+03  0.44753586629E+03 -0.11375332146E+04  0.12285239338E+04  0.12699999809E+01 0.  1.
</event>
<event>
 5   0  0.7207648E-06  0.1897700E+04  0.7818609E-02  0.8656002E-01
        2   -1    0    0  501    0  0.00000000000E+00  0.00000000000E+00  0.13192703408E+04  0.13192703408E+04  0.25500000920E-02 0.  1.
       -2   -1    0    0    0  501  0.00000000000E+00  0.00000000000E+00 -0.68243530378E+03  0.68243530379E+03  0.25500000920E-02 0. -1.
    10030    2    1    2    0    0  0.00000000000E+00  0.00000000000E+00  0.63683503702E+03  0.20017056446E+04  0.18977003513E+04 0.  0.
        4    1    3    3  502    0  0.13276232159E+03  0.93908449696E+03  0.34842886015E+03  0.10104008165E+04  0.12699999809E+01 0.  1.
       -4    1    3    3    0  502 -0.13276232159E+03 -0.93908449696E+03  0.28840617687E+03  0.99130482810E+03  0.12699999809E+01 0. -1.
</event>
<event>
 5   0  0.3495279E-06  0.1900443E+04  0.7818609E-02  0.8654636E-01
        1   -1    0    0  501    0  0.00000000000E+00  0.00000000000E+00  0.94257534772E+03  0.94257534773E+03  0.50400001928E-02 0. -1.
       -1   -1    0    0    0  501  0.00000000000E+00  0.00000000000E+00 -0.95792984575E+03  0.95792984576E+03  0.50400001928E-02 0.  1.
    10030    2    1    2    0    0  0.00000000000E+00  0.00000000000E+00 -0.15354498030E+02  0.19005051935E+04  0.19004431667E+04 0.  0.
        2    1    3    3  502    0 -0.15432369530E+03 -0.92849423058E+02 -0.94070514889E+03  0.95779068457E+03  0.25500000920E-02 0.  1.
       -2    1    3    3    0  502  0.15432369530E+03  0.92849423058E+02  0.92535065086E+03  0.94271450893E+03  0.25500000920E-02 0. -1.
</event>
<event>
 5   0  0.3495279E-06  0.1897997E+04  0.7818609E-02  0.8655854E-01
       -1   -1    0    0    0  501  0.00000000000E+00  0.00000000000E+00  0.96860452064E+03  0.96860452066E+03  0.50400001928E-02 0. -1.
        1   -1    0    0  501    0  0.00000000000E+00  0.00000000000E+00 -0.92978933383E+03  0.92978933384E+03  0.50400001928E-02 0.  1.
    10030    2    1    2    0    0  0.00000000000E+00  0.00000000000E+00  0.38815186818E+02  0.18983938545E+04  0.18979969990E+04 0.  0.
        2    1    3    3  502    0 -0.72111807193E+03  0.58838921995E+03  0.20487830523E+03  0.95298912259E+03  0.25500000920E-02 0.  1.
       -2    1    3    3    0  502  0.72111807193E+03 -0.58838921995E+03 -0.16606311841E+03  0.94540473191E+03  0.25500000920E-02 0. -1.
</event>
<event>
 5   0  0.6984466E-06  0.1900196E+04  0.7818609E-02  0.8654759E-01
        2   -1    0    0  501    0  0.00000000000E+00  0.00000000000E+00  0.11888761868E+04  0.11888761868E+04  0.25500000920E-02 0. -1.
       -2   -1    0    0    0  501  0.00000000000E+00  0.00000000000E+00 -0.75927708171E+03  0.75927708171E+03  0.25500000920E-02 0.  1.
    10030    2    1    2    0    0  0.00000000000E+00  0.00000000000E+00  0.42959910504E+03  0.19481532685E+04  0.19001962442E+04 0.  0.
        2    1    3    3  502    0  0.28049642672E+03  0.63931605869E+03  0.87548818307E+03  0.11197690954E+04  0.25500000920E-02 0. -1.
       -2    1    3    3    0  502 -0.28049642672E+03 -0.63931605869E+03 -0.44588907802E+03  0.82838417308E+03  0.25500000920E-02 0.  1.
</event>
<event>
 5   0  0.6862201E-06  0.1898663E+04  0.7818609E-02  0.8655522E-01
       -2   -1    0    0    0  501  0.00000000000E+00  0.00000000000E+00  0.77033490892E+03  0.77033490893E+03  0.25500000920E-02 0. -1.
        2   -1    0    0  501    0  0.00000000000E+00  0.00000000000E+00 -0.11699207030E+04  0.11699207030E+04  0.25500000920E-02 0.  1.
    10030    2    1    2    0    0  0.00000000000E+00  0.00000000000E+00 -0.39958579408E+03  0.19402556119E+04  0.18986634859E+04 0.  0.
        3    1    3    3  502    0 -0.65081058729E+03  0.18242493309E+03 -0.88102756241E+03  0.11104246272E+04  0.10100000352E+00 0.  1.
       -3    1    3    3    0  502  0.65081058729E+03 -0.18242493309E+03  0.48144176833E+03  0.82983098474E+03  0.10100000352E+00 0. -1.
</event>
<event>
 5   0  0.6984466E-06  0.1900125E+04  0.7818609E-02  0.8654794E-01
        2   -1    0    0  501    0  0.00000000000E+00  0.00000000000E+00  0.50430998333E+03  0.50430998334E+03  0.25500000920E-02 0.  1.
       -2   -1    0    0    0  501  0.00000000000E+00  0.00000000000E+00 -0.17898096362E+04  0.17898096362E+04  0.25500000920E-02 0. -1.
    10030    2    1    2    0    0  0.00000000000E+00  0.00000000000E+00 -0.12854996529E+04  0.22941196196E+04  0.19001251199E+04 0.  0.
        2    1    3    3  502    0 -0.40364488142E+03 -0.49404306536E+03 -0.14927213655E+04  0.16233375544E+04  0.25500000920E-02 0. -1.
       -2    1    3    3    0  502  0.40364488142E+03  0.49404306536E+03  0.20722171258E+03  0.67078206513E+03  0.25500000920E-02 0.  1.
</event>
<event>
 5   0  0.6870370E-06  0.1900441E+04  0.7818609E-02  0.8654637E-01
        2   -1    0    0  501    0  0.00000000000E+00  0.00000000000E+00  0.11421932830E+04  0.11421932830E+04  0.25500000920E-02 0.  1.
       -2   -1    0    0    0  501  0.00000000000E+00  0.00000000000E+00 -0.79051296615E+03  0.79051296616E+03  0.25500000920E-02 0. -1.
    10030    2    1    2    0    0  0.00000000000E+00  0.00000000000E+00  0.35168031685E+03  0.19327062492E+04  0.19004405806E+04 0.  0.
        1    1    3    3  502    0  0.49473386437E+03 -0.60804166576E+03  0.72202677928E+03  0.10657386799E+04  0.50400001928E-02 0. -1.
       -1    1    3    3    0  502 -0.49473386437E+03  0.60804166576E+03 -0.37034646243E+03  0.86696756924E+03  0.50400001928E-02 0.  1.
</event>
<event>
 5   0  0.3211263E-06  0.1899553E+04  0.7818609E-02  0.8655079E-01
        1   -1    0    0  501    0  0.00000000000E+00  0.00000000000E+00  0.10815699550E+04  0.10815699550E+04  0.50400001928E-02 0.  1.
       -1   -1    0    0    0  501  0.00000000000E+00  0.00000000000E+00 -0.83404217521E+03  0.83404217523E+03  0.50400001928E-02 0. -1.
    10030    2    1    2    0    0  0.00000000000E+00  0.00000000000E+00  0.24752777978E+03  0.19156121302E+04  0.18995525346E+04 0.  0.
        5    1    3    3  502    0  0.69571514018E+03  0.63762598353E+03  0.15777224287E+02  0.94385245772E+03  0.46999998093E+01 0.  1.
       -5    1    3    3    0  502 -0.69571514018E+03 -0.63762598353E+03  0.23175055549E+03  0.97175967251E+03  0.46999998093E+01 0. -1.
</event>
<event>
 5   0  0.7577180E-06  0.1903193E+04  0.7818609E-02  0.8653269E-01
       -2   -1    0    0    0  501  0.00000000000E+00  0.00000000000E+00  0.75559447403E+03  0.75559447404E+03  0.25500000920E-02 0.  1.
        2   -1    0    0  501    0  0.00000000000E+00  0.00000000000E+00 -0.11984415083E+04  0.11984415083E+04  0.25500000920E-02 0. -1.
    10030    2    1    2    0    0  0.00000000000E+00  0.00000000000E+00 -0.44284703428E+03  0.19540359824E+04  0.19031928763E+04 0.  0.
        5    1    3    3  502    0  0.83501685250E+03 -0.35615656949E+03  0.71528675561E+02  0.91062565711E+03  0.46999998093E+01 0. -1.
       -5    1    3    3    0  502 -0.83501685250E+03  0.35615656949E+03 -0.51437570984E+03  0.10434103252E+04  0.46999998093E+01 0.  1.
</event>
<event>
 5   0  0.7207648E-06  0.1899610E+04  0.7818609E-02  0.8655050E-01
       -2   -1    0    0    0  501  0.00000000000E+00  0.00000000000E+00  0.28995178019E+03  0.28995178020E+03  0.25500000920E-02 0. -1.
        2   -1    0    0  501    0  0.00000000000E+00  0.00000000000E+00 -0.31113096682E+04  0.31113096682E+04  0.25500000920E-02 0.  1.
    10030    2    1    2    0    0  0.00000000000E+00  0.00000000000E+00 -0.28213578881E+04  0.34012614484E+04  0.18996102517E+04 0.  0.
        4    1    3    3  502    0 -0.27225171793E+03  0.88645303882E+03 -0.17785315232E+04  0.20057656842E+04  0.12699999809E+01 0.  1.
       -4    1    3    3    0  502  0.27225171793E+03 -0.88645303882E+03 -0.10428263649E+04  0.13954957643E+04  0.12699999809E+01 0. -1.
</event>
<event>
 5   0  0.6984466E-06  0.1900637E+04  0.7818609E-02  0.8654539E-01
       -2   -1    0    0    0  501  0.00000000000E+00  0.00000000000E+00  0.59246102206E+03  0.59246102207E+03  0.25500000920E-02 0. -1.
        2   -1    0    0  501    0  0.00000000000E+00  0.00000000000E+00 -0.15243287779E+04  0.15243287779E+04  0.25500000920E-02 0.  1.
    10030    2    1    2    0    0  0.00000000000E+00  0.00000000000E+00 -0.93186775586E+03  0.21167898000E+04  0.19006371413E+04 0.  0.
        2    1    3    3  502    0 -0.88352044753E+03  0.15955548197E+03 -0.81287181876E+03  0.12111263050E+04  0.25500000920E-02 0.  1.
       -2    1    3    3    0  502  0.88352044753E+03 -0.15955548197E+03 -0.11899593711E+03  0.90566349495E+03  0.25500000920E-02 0. -1.
</event>
<event>
 5   0  0.3236653E-06  0.1896522E+04  0.7818609E-02  0.8656590E-01
       -1   -1    0    0    0  501  0.00000000000E+00  0.00000000000E+00  0.74421100819E+03  0.74421100821E+03  0.50400001928E-02 0.  1.
        1   -1    0    0  501    0  0.00000000000E+00  0.00000000000E+00 -0.12082579054E+04  0.12082579054E+04  0.50400001928E-02 0. -1.
    10030    2    1    2    0    0  0.00000000000E+00  0.00000000000E+00 -0.46404689716E+03  0.19524689136E+04  0.18965219049E+04 0.  0.
        3    1    3    3  502    0  0.20003634335E+03 -0.82851358290E+03 -0.65991597335E+03  0.10779324644E+04  0.10100000352E+00 0. -1.
       -3    1    3    3    0  502 -0.20003634335E+03  0.82851358290E+03  0.19586907619E+03  0.87453644917E+03  0.10100000352E+00 0.  1.
</event>
<event>
 5   0  0.3211263E-06  0.1901086E+04  0.7818609E-02  0.8654316E-01
        1   -1    0    0  501    0  0.00000000000E+00  0.00000000000E+00  0.10580638864E+04  0.10580638864E+04  0.50400001928E-02 0. -1.
       -1   -1    0    0    0  501  0.00000000000E+00  0.00000000000E+00 -0.85394809010E+03  0.85394809012E+03  0.50400001928E-02 0.  1.
    10030    2    1    2    0    0  0.00000000000E+00  0.00000000000E+00  0.20411579626E+03  0.19120119765E+04  0.19010856214E+04 0.  0.
        5    1    3    3  502    0  0.76276601383E+02 -0.46528466428E+03 -0.72803512341E+03  0.86738986024E+03  0.46999998093E+01 0.  1.
       -5    1    3    3    0  502 -0.76276601383E+02  0.46528466428E+03  0.93215091967E+03  0.10446221163E+04  0.46999998093E+01 0. -1.
</event>
<event>
 5   0  0.6870370E-06  0.1900573E+04  0.7818609E-02  0.8654571E-01
        2   -1    0    0  501    0  0.00000000000E+00  0.00000000000E+00  0.87979258115E+03  0.87979258115E+03  0.25500000920E-02 0.  1.
       -2   -1    0    0    0  501  0.00000000000E+00  0.00000000000E+00 -0.10264283089E+04  0.10264283089E+04  0.25500000920E-02 0. -1.
    10030    2    1    2    0    0  0.00000000000E+00  0.00000000000E+00 -0.14663572776E+03  0.19062208901E+04  0.19005725572E+04 0.  0.
        1    1    3    3  502    0  0.55357608660E+03 -0.25575554730E+03  0.65767365329E+03  0.89687904307E+03  0.50400001928E-02 0.  1.
       -1    1    3    3    0  502 -0.55357608660E+03  0.25575554730E+03 -0.80430938105E+03  0.10093418470E+04  0.50400001928E-02 0. -1.
</event>
<event>
 5   0  0.7577180E-06  0.1899980E+04  0.7818609E-02  0.8654866E-01
       -2   -1    0    0    0  501  0.00000000000E+00  0.00000000000E+00  0.40562439494E+03  0.40562439495E+03  0.25500000920E-02 0. -1.
        2   -1    0    0  501    0  0.00000000000E+00  0.00000000000E+00 -0.22249184083E+04  0.22249184083E+04  0.25500000920E-02 0.  1.
    10030    2    1    2    0    0  0.00000000000E+00  0.00000000000E+00 -0.18192940134E+04  0.26305428032E+04  0.18999801927E+04 0.  0.
        5    1    3    3  502    0  0.88802751845E+03  0.65039732636E+02 -0.13680769694E+04  0.16323234130E+04  0.46999998093E+01 0.  1.
       -5    1    3    3    0  502 -0.88802751845E+03 -0.65039732636E+02 -0.45121704394E+03  0.99821939026E+03  0.46999998093E+01 0. -1.
</event>
<event>
 5   0  0.7577180E-06  0.1900224E+04  0.7818609E-02  0.8654745E-01
       -2   -1    0    0    0  501  0.00000000000E+00  0.00000000000E+00  0.13220176711E+04  0.13220176711E+04  0.25500000920E-02 0.  1.
        2   -1    0    0  501    0  0.00000000000E+00  0.00000000000E+00 -0.68282947094E+03  0.68282947095E+03  0.25500000920E-02 0. -1.
    10030    2    1    2    0    0  0.00000000000E+00  0.00000000000E+00  0.63918820012E+03  0.20048471420E+04  0.19002238046E+04 0.  0.
        5    1    3    3  502    0 -0.21141695477E+02  0.60624642754E+03  0.10910927872E+04  0.12483938731E+04  0.46999998093E+01 0.  1.
       -5    1    3    3    0  502  0.21141695477E+02 -0.60624642754E+03 -0.45190458707E+03  0.75645326889E+03  0.46999998093E+01 0. -1.
</event>
<event>
 5   0  0.3379108E-06  0.1900376E+04  0.7818609E-02  0.8654669E-01
        1   -1    0    0  501    0  0.00000000000E+00  0.00000000000E+00  0.62837362449E+03  0.62837362451E+03  0.50400001928E-02 0.  1.
       -1   -1    0    0    0  501  0.00000000000E+00  0.00000000000E+00 -0.14368153285E+04  0.14368153285E+04  0.50400001928E-02 0. -1.
    10030    2    1    2    0    0  0.00000000000E+00  0.00000000000E+00 -0.80844170401E+03  0.20651889530E+04  0.19003756005E+04 0.  0.
        4    1    3    3  502    0  0.14498851399E+03  0.48252353349E+03  0.47125513690E+03  0.68987944346E+03  0.12699999809E+01 0.  1.
       -4    1    3    3    0  502 -0.14498851399E+03 -0.48252353349E+03 -0.12796968409E+04  0.13753095096E+04  0.12699999809E+01 0. -1.
</event>
<event>
 5   0  0.3379108E-06  0.1899735E+04  0.7818609E-02  0.8654988E-01
        1   -1    0    0  501    0  0.00000000000E+00  0.00000000000E+00  0.12585415304E+04  0.12585415304E+04  0.50400001928E-02 0.  1.
       -1   -1    0    0    0  501  0.00000000000E+00  0.00000000000E+00 -0.71689969019E+03  0.71689969021E+03  0.50400001928E-02 0. -1.
    10030    2    1    2    0    0  0.00000000000E+00  0.00000000000E+00  0.54164184019E+03  0.19754412206E+04  0.18997347533E+04 0.  0.
        4    1    3    3  502    0  0.66823147463E+03 -0.19846916772E+03 -0.40012327781E+03  0.80375591106E+03  0.12699999809E+01 0. -1.
       -4    1    3    3    0  502 -0.66823147463E+03  0.19846916772E+03  0.94176511800E+03  0.11716853095E+04  0.12699999809E+01 0.  1.
</event>
<event>
 5   0  0.3495279E-06  0.1899355E+04  0.7818609E-02  0.8655178E-01
       -1   -1    0    0    0  501  0.00000000000E+00  0.00000000000E+00  0.36694890383E+03  0.36694890386E+03  0.50400001928E-02 0. -1.
        1   -1    0    0  501    0  0.00000000000E+00  0.00000000000E+00 -0.24578006971E+04  0.24578006971E+04  0.50400001928E-02 0.  1.
    10030    2    1    2    0    0  0.00000000000E+00  0.00000000000E+00 -0.20908517932E+04  0.28247496009E+04  0.18993549133E+04 0.  0.
        2    1    3    3  502    0  0.61416115065E+02 -0.47748257968E+03 -0.22628782524E+04  0.23135210261E+04  0.25500000920E-02 0.  1.
       -2    1    3    3    0  502 -0.61416115065E+02  0.47748257968E+03  0.17202645914E+03  0.51122857484E+03  0.25500000920E-02 0. -1.
</event>
<event>
 5   0  0.6870370E-06  0.1900286E+04  0.7818609E-02  0.8654714E-01
        2   -1    0    0  501    0  0.00000000000E+00  0.00000000000E+00  0.20881569604E+04  0.20881569604E+04  0.25500000920E-02 0.  1.
       -2   -1    0    0    0  501  0.00000000000E+00  0.00000000000E+00 -0.43232941168E+03  0.43232941168E+03  0.25500000920E-02 0. -1.
    10030    2    1    2    0    0  0.00000000000E+00  0.00000000000E+00  0.16558275487E+04  0.25204863721E+04  0.19002859471E+04 0.  0.
        1    1    3    3  502    0 -0.68044260853E+03 -0.61716932148E+03  0.11497375692E+04  0.14716645653E+04  0.50400001928E-02 0.  1.
       -1    1    3    3    0  502  0.68044260853E+03  0.61716932148E+03  0.50608997957E+03  0.10488218068E+04  0.50400001928E-02 0. -1.
</event>
<event>
 5   0  0.7577180E-06  0.1900561E+04  0.7818609E-02  0.8654577E-01
       -2   -1    0    0    0  501  0.00000000000E+00  0.00000000000E+00  0.13529973172E+04  0.13529973172E+04  0.25500000920E-02 0.  1.
        2   -1    0    0  501    0  0.00000000000E+00  0.00000000000E+00 -0.66743127888E+03  0.66743127889E+03  0.25500000920E-02 0. -1.
    10030    2    1    2    0    0  0.00000000000E+00  0.00000000000E+00  0.68556603831E+03  0.20204285961E+04  0.19005606854E+04 0.  0.
        5    1    3    3  502    0 -0.84991482614E+02  0.37526630267E+03  0.12664690909E+04  0.13236368075E+04  0.46999998093E+01 0.  1.
       -5    1    3    3    0  502  0.84991482614E+02 -0.37526630267E+03 -0.58090305261E+03  0.69679178853E+03  0.46999998093E+01 0. -1.
</event>
<event>
 5   0  0.6862201E-06  0.1899693E+04  0.7818609E-02  0.8655009E-01
       -2   -1    0    0    0  501  0.00000000000E+00  0.00000000000E+00  0.44871491689E+03  0.44871491690E+03  0.25500000920E-02 0.  1.
        2   -1    0    0  501    0  0.00000000000E+00  0.00000000000E+00 -0.20106485543E+04  0.20106485543E+04  0.25500000920E-02 0. -1.
    10030    2    1    2    0    0  0.00000000000E+00  0.00000000000E+00 -0.15619336374E+04  0.24593634712E+04  0.18996926056E+04 0.  0.
        3    1    3    3  502    0  0.42303181306E+03 -0.76464927560E+02  0.31556602073E+03  0.53327734215E+03  0.10100000352E+00 0.  1.
       -3    1    3    3    0  502 -0.42303181306E+03  0.76464927560E+02 -0.18774996581E+04  0.19260861290E+04  0.10100000352E+00 0. -1.
</event>
<event>
 5   0  0.3398807E-06  0.1905684E+04  0.7818609E-02  0.8652032E-01
        1   -1    0    0  501    0  0.00000000000E+00  0.00000000000E+00  0.15374529676E+04  0.15374529676E+04  0.50400001928E-02 0.  1.
       -1   -1    0    0    0  501  0.00000000000E+00  0.00000000000E+00 -0.59052713057E+03  0.59052713059E+03  0.50400001928E-02 0. -1.
    10030    2    1    2    0    0  0.00000000000E+00  0.00000000000E+00  0.94692583704E+03  0.21279800982E+04  0.19056838031E+04 0.  0.
        1    1    3    3  502    0 -0.18724546042E+03 -0.52529337235E+03 -0.38926229845E+03  0.68008758738E+03  0.50400001928E-02 0. -1.
       -1    1    3    3    0  502  0.18724546042E+03  0.52529337235E+03  0.13361881355E+04  0.14478925108E+04  0.50400001928E-02 0.  1.
</event>
<event>
 5   0  0.6870370E-06  0.1898784E+04  0.7818609E-02  0.8655462E-01
        2   -1    0    0  501    0  0.00000000000E+00  0.00000000000E+00  0.94374417947E+03  0.94374417948E+03  0.25500000920E-02 0.  1.
       -2   -1    0    0    0  501  0.00000000000E+00  0.00000000000E+00 -0.95507407047E+03  0.95507407048E+03  0.25500000920E-02 0. -1.
    10030    2    1    2    0    0  0.00000000000E+00  0.00000000000E+00 -0.11329891000E+02  0.18988182500E+04  0.18987844480E+04 0.  0.
        1    1    3    3  502    0  0.87562010795E+03 -0.15391460804E+02 -0.37227496932E+03  0.95159661796E+03  0.50400001928E-02 0. -1.
       -1    1    3    3    0  502 -0.87562010795E+03  0.15391460804E+02  0.36094507833E+03  0.94722163199E+03  0.50400001928E-02 0.  1.
</event>
<event>
 5   0  0.3379108E-06  0.1899857E+04  0.7818609E-02  0.8654928E-01
       -1   -1    0    0    0  501  0.00000000000E+00  0.00000000000E+00  0.81944720550E+03  0.81944720551E+03  0.50400001928E-02 0. -1.
        1   -1    0    0  501    0  0.00000000000E+00  0.00000000000E+00 -0.11011865154E+04  0.11011865154E+04  0.50400001928E-02 0.  1.
    10030    2    1    2    0    0  0.00000000000E+00  0.00000000000E+00 -0.28173930987E+03  0.19206337209E+04  0.18998570607E+04 0.  0.
        4    1    3    3  502    0 -0.65069811546E+03 -0.72954341689E+02  0.55486597448E+03  0.85825883972E+03  0.12699999809E+01 0. -1.
       -4    1    3    3    0  502  0.65069811546E+03  0.72954341689E+02 -0.83660528435E+03  0.10623748812E+04  0.12699999809E+01 0.  1.
</event>
<event>
 5   0  0.6862201E-06  0.1899916E+04  0.7818609E-02  0.8654898E-01
       -2   -1    0    0    0  501  0.00000000000E+00  0.00000000000E+00  0.11315574189E+04  0.11315574189E+04  0.25500000920E-02 0. -1.
        2   -1    0    0  501    0  0.00000000000E+00  0.00000000000E+00 -0.79750267999E+03  0.79750267999E+03  0.25500000920E-02 0.  1.
    10030    2    1    2    0    0  0.00000000000E+00  0.00000000000E+00  0.33405473889E+03  0.19290600989E+04  0.18999158656E+04 0.  0.
        3    1    3    3  502    0  0.20868001928E+03 -0.70183093393E+03 -0.44748897247E+03  0.85811444514E+03  0.10100000352E+00 0. -1.
       -3    1    3    3    0  502 -0.20868001928E+03  0.70183093393E+03  0.78154371136E+03  0.10709456537E+04  0.10100000352E+00 0.  1.
</event>
<event>
 5   0  0.7207648E-06  0.1899803E+04  0.7818609E-02  0.8654954E-01
        2   -1    0    0  501    0  0.00000000000E+00  0.00000000000E+00  0.85682806150E+03  0.85682806151E+03  0.25500000920E-02 0.  1.
       -2   -1    0    0    0  501  0.00000000000E+00  0.00000000000E+00 -0.10530851774E+04  0.10530851774E+04  0.25500000920E-02 0. -1.
    10030    2    1    2    0    0  0.00000000000E+00  0.00000000000E+00 -0.19625711593E+03  0.19099132389E+04  0.18998030752E+04 0.  0.
        4    1    3    3  502    0 -0.86936422104E+03 -0.15111625610E+03 -0.45168326909E+03  0.99128687077E+03  0.12699999809E+01 0. -1.
       -4    1    3    3    0  502  0.86936422104E+03  0.15111625610E+03  0.25542615316E+03  0.91862636817E+03  0.12699999809E+01 0.  1.
</event>
<event>
 5   0  0.3398807E-06  0.1898926E+04  0.7818609E-02  0.8655391E-01
        1   -1    0    0  501    0  0.00000000000E+00  0.00000000000E+00  0.88792519662E+03  0.88792519663E+03  0.50400001928E-02 0.  1.
       -1   -1    0    0    0  501  0.00000000000E+00  0.00000000000E+00 -0.10152659565E+04  0.10152659565E+04  0.50400001928E-02 0. -1.
    10030    2    1    2    0    0  0.00000000000E+00  0.00000000000E+00 -0.12734075985E+03  0.19031911531E+04  0.18989262482E+04 0.  0.
        1    1    3    3  502    0 -0.41193779415E+03 -0.70339852672E+03 -0.55160874689E+03  0.98424308141E+03  0.50400001928E-02 0. -1.
       -1    1    3    3    0  502  0.41193779415E+03  0.70339852672E+03  0.42426798703E+03  0.91894807170E+03  0.50400001928E-02 0.  1.
</event>
<event>
 5   0  0.6870370E-06  0.1897805E+04  0.7818609E-02  0.8655950E-01
       -2   -1    0    0    0  501  0.00000000000E+00  0.00000000000E+00  0.49942084755E+03  0.49942084755E+03  0.25500000920E-02 0. -1.
        2   -1    0    0  501    0  0.00000000000E+00  0.00000000000E+00 -0.18029209618E+04  0.18029209618E+04  0.25500000920E-02 0.  1.
    10030    2    1    2    0    0  0.00000000000E+00  0.00000000000E+00 -0.13035001143E+04  0.23023418094E+04  0.18978053797E+04 0.  0.
        1    1    3    3  502    0 -0.27868415868E+03  0.55650338074E+03  0.21721092418E+03  0.65919758698E+03  0.50400001928E-02 0. -1.
       -1    1    3    3    0  502  0.27868415868E+03 -0.55650338074E+03 -0.15207110384E+04  0.16431442224E+04  0.50400001928E-02 0.  1.
</event>
<event>
 5   0  0.3211263E-06  0.1900516E+04  0.7818609E-02  0.8654600E-01
       -1   -1    0    0    0  501  0.00000000000E+00  0.00000000000E+00  0.12027004462E+04  0.12027004462E+04  0.50400001928E-02 0.  1.
        1   -1    0    0  501    0  0.00000000000E+00  0.00000000000E+00 -0.75080228519E+03  0.75080228520E+03  0.50400001928E-02 0. -1.
    10030    2    1    2    0    0  0.00000000000E+00  0.00000000000E+00  0.45189816097E+03  0.19535027314E+04  0.19005159756E+04 0.  0.
        5    1    3    3  502    0  0.94972038968E+03 -0.12435374776E+02  0.19607512092E+03  0.96984070865E+03  0.46999998093E+01 0. -1.
       -5    1    3    3    0  502 -0.94972038968E+03  0.12435374776E+02  0.25582304005E+03  0.98366202272E+03  0.46999998093E+01 0.  1.
</event>
<event>
 5   0  0.3211263E-06  0.1899797E+04  0.7818609E-02  0.8654957E-01
       -1   -1    0    0    0  501  0.00000000000E+00  0.00000000000E+00  0.10317558686E+04  0.10317558686E+04  0.50400001928E-02 0. -1.
        1   -1    0    0  501    0  0.00000000000E+00  0.00000000000E+00 -0.87453592247E+03  0.87453592249E+03  0.50400001928E-02 0.  1.
    10030    2    1    2    0    0  0.00000000000E+00  0.00000000000E+00  0.15721994609E+03  0.19062917911E+04  0.18997974316E+04 0.  0.
        5    1    3    3  502    0 -0.24018282415E+03  0.54259547996E+03  0.82289207227E+03  0.10145299880E+04  0.46999998093E+01 0. -1.
       -5    1    3    3    0  502  0.24018282415E+03 -0.54259547996E+03 -0.66567212618E+03  0.89176180309E+03  0.46999998093E+01 0.  1.
</event>
<event>
 5   0  0.3398807E-06  0.1900686E+04  0.7818609E-02  0.8654515E-01
       -1   -1    0    0    0  501  0.00000000000E+00  0.00000000000E+00  0.12220243218E+04  0.12220243218E+04  0.50400001928E-02 0.  1.
        1   -1    0    0  501    0  0.00000000000E+00  0.00000000000E+00 -0.73906188346E+03  0.73906188348E+03  0.50400001928E-02 0. -1.
    10030    2    1    2    0    0  0.00000000000E+00  0.00000000000E+00  0.48296243830E+03  0.19610862052E+04  0.19006857677E+04 0.  0.
        1    1    3    3  502    0 -0.43107638582E+03  0.72259531200E+03  0.69731327808E+03  0.10928021976E+04  0.50400001928E-02 0.  1.
       -1    1    3    3    0  502  0.43107638582E+03 -0.72259531200E+03 -0.21435083978E+03  0.86828400761E+03  0.50400001928E-02 0. -1.
</event>
<event>
 5   0  0.3236653E-06  0.1899866E+04  0.7818609E-02  0.8654923E-01
        1   -1    0    0  501    0  0.00000000000E+00  0.00000000000E+00  0.56074913846E+03  0.56074913849E+03  0.50400001928E-02 0. -1.
       -1   -1    0    0    0  501  0.00000000000E+00  0.00000000000E+00 -0.16092270684E+04  0.16092270684E+04  0.50400001928E-02 0.  1.
    10030    2    1    2    0    0  0.00000000000E+00  0.00000000000E+00 -0.10484779299E+04  0.21699762069E+04  0.18998659871E+04 0.  0.
        3    1    3    3  502    0  0.88485021797E+01  0.63839046278E+03  0.27914985698E+03  0.69681082929E+03  0.10100000352E+00 0. -1.
       -3    1    3    3    0  502 -0.88485021797E+01 -0.63839046278E+03 -0.13276277869E+04  0.14731653776E+04  0.10100000352E+00 0.  1.
</event>
<event>
 5   0  0.3236653E-06  0.1899973E+04  0.7818609E-02  0.8654870E-01
        1   -1    0    0  501    0  0.00000000000E+00  0.00000000000E+00  0.98254845253E+03  0.98254845254E+03  0.50400001928E-02 0.  1.
       -1   -1    0    0    0  501  0.00000000000E+00  0.00000000000E+00 -0.91850352668E+03  0.91850352670E+03  0.50400001928E-02 0. -1.
    10030    2    1    2    0    0  0.00000000000E+00  0.00000000000E+00  0.64044925847E+02  0.19010519792E+04  0.18999728617E+04 0.  0.
        3    1    3    3  502    0  0.77470886020E+03 -0.29499350459E+02 -0.51731593871E+03  0.93201921675E+03  0.10100000352E+00 0. -1.
       -3    1    3    3    0  502 -0.77470886020E+03  0.29499350459E+02  0.58136086455E+03  0.96903276249E+03  0.10100000352E+00 0.  1.
</event>
<event>
 5   0  0.3379108E-06  0.1898500E+04  0.7818609E-02  0.8655603E-01
        1   -1    0    0  501    0  0.00000000000E+00  0.00000000000E+00  0.14822923443E+04  0.14822923443E+04  0.50400001928E-02 0. -1.
       -1   -1    0    0    0  501  0.00000000000E+00  0.00000000000E+00 -0.60789334798E+03  0.60789334800E+03  0.50400001928E-02 0.  1.
    10030    2    1    2    0    0  0.00000000000E+00  0.00000000000E+00  0.87439899634E+03  0.20901856923E+04  0.18985000984E+04 0.  0.
        4    1    3    3  502    0  0.43230437126E+03  0.46136889138E+02 -0.49183542927E+03  0.65644450209E+03  0.12699999809E+01 0.  1.
       -4    1    3    3    0  502 -0.43230437126E+03 -0.46136889138E+02  0.13662344256E+04  0.14337411902E+04  0.12699999809E+01 0. -1.
</event>
<event>
 5   0  0.3236653E-06  0.1896626E+04  0.7818609E-02  0.8656537E-01
        1   -1    0    0  501    0  0.00000000000E+00  0.00000000000E+00  0.35856004046E+03  0.35856004049E+03  0.50400001928E-02 0. -1.
       -1   -1    0    0    0  501  0.00000000000E+00  0.00000000000E+00 -0.25080818584E+04  0.25080818585E+04  0.50400001928E-02 0.  1.
    10030    2    1    2    0    0  0.00000000000E+00  0.00000000000E+00 -0.21495218180E+04  0.28666418989E+04  0.18966264078E+04 0.  0.
        3    1    3    3  502    0  0.72972394369E+03 -0.58600235456E+03 -0.13059776817E+04  0.16066964582E+04  0.10100000352E+00 0. -1.
       -3    1    3    3    0  502 -0.72972394369E+03  0.58600235456E+03 -0.84354413629E+03  0.12599454407E+04  0.10100000352E+00 0.  1.
</event>
<event>
 5   0  0.3398807E-06  0.1901531E+04  0.7818609E-02  0.8654095E-01
       -1   -1    0    0    0  501  0.00000000000E+00  0.00000000000E+00  0.12984057378E+04  0.12984057379E+04  0.50400001928E-02 0. -1.
        1   -1    0    0  501    0  0.00000000000E+00  0.00000000000E+00 -0.69620362108E+03  0.69620362110E+03  0.50400001928E-02 0.  1.
    10030    2    1    2    0    0  0.00000000000E+00  0.00000000000E+00  0.60220211676E+03  0.19946093589E+04  0.19015307269E+04 0.  0.
        1    1    3    3  502    0  0.71222994846E+03  0.13304986111E+03 -0.34464717996E+03  0.80234371918E+03  0.50400001928E-02 0. -1.
       -1    1    3    3    0  502 -0.71222994846E+03 -0.13304986111E+03  0.94684929673E+03  0.11922656398E+04  0.50400001928E-02 0.  1.
</event>
<event>
 5   0  0.3211263E-06  0.1899961E+04  0.7818609E-02  0.8654876E-01
        1   -1    0    0  501    0  0.00000000000E+00  0.00000000000E+00  0.24824516375E+04  0.24824516375E+04  0.50400001928E-02 0.  1.
       -1   -1    0    0    0  501  0.00000000000E+00  0.00000000000E+00 -0.36353687984E+03  0.36353687988E+03  0.50400001928E-02 0. -1.
    10030    2    1    2    0    0  0.00000000000E+00  0.00000000000E+00  0.21189147576E+04  0.28459885173E+04  0.18999607603E+04 0.  0.
        5    1    3    3  502    0 -0.37214806312E+03  0.85618166769E+03  0.13227650798E+04  0.16190339019E+04  0.46999998093E+01 0. -1.
       -5    1    3    3    0  502  0.37214806312E+03 -0.85618166769E+03  0.79614967777E+03  0.12269546155E+04  0.46999998093E+01 0.  1.
</event>
<event>
 5   0  0.6862201E-06  0.1900109E+04  0.7818609E-02  0.8654802E-01
       -2   -1    0    0    0  501  0.00000000000E+00  0.00000000000E+00  0.58383785035E+03  0.58383785035E+03  0.25500000920E-02 0.  1.
        2   -1    0    0  501    0  0.00000000000E+00  0.00000000000E+00 -0.15459829819E+04  0.15459829819E+04  0.25500000920E-02 0. -1.
    10030    2    1    2    0    0  0.00000000000E+00  0.00000000000E+00 -0.96214513158E+03  0.21298208323E+04  0.19001088188E+04 0.  0.
        3    1    3    3  502    0 -0.94086596553E+03 -0.12556479907E+03 -0.52602149380E+03  0.10852160642E+04  0.10100000352E+00 0. -1.
       -3    1    3    3    0  502  0.94086596553E+03  0.12556479907E+03 -0.43612363778E+03  0.10446047681E+04  0.10100000352E+00 0.  1.
</event>
<event>
 5   0  0.6984466E-06  0.1900870E+04  0.7818609E-02  0.8654424E-01
        2   -1    0    0  501    0  0.00000000000E+00  0.00000000000E+00  0.17801163164E+04  0.17801163164E+04  0.25500000920E-02 0.  1.
       -2   -1    0    0    0  501  0.00000000000E+00  0.00000000000E+00 -0.50745364334E+03  0.50745364334E+03  0.25500000920E-02 0. -1.
    10030    2    1    2    0    0  0.00000000000E+00  0.00000000000E+00  0.12726626730E+04  0.22875699597E+04  0.19008698118E+04 0.  0.
        2    1    3    3  502    0  0.94494550647E+03 -0.41676831172E+02  0.52429214016E+03  0.10814532892E+04  0.25500000920E-02 0. -1.
       -2    1    3    3    0  502 -0.94494550647E+03  0.41676831172E+02  0.74837053288E+03  0.12061166705E+04  0.25500000920E-02 0.  1.
</event>
<event>
 5   0  0.3211263E-06  0.1900073E+04  0.7818609E-02  0.8654820E-01
        1   -1    0    0  501    0  0.00000000000E+00  0.00000000000E+00  0.16864463912E+04  0.16864463912E+04  0.50400001928E-02 0.  1.
       -1   -1    0    0    0  501  0.00000000000E+00  0.00000000000E+00 -0.53519032168E+03  0.53519032170E+03  0.50400001928E-02 0. -1.
    10030    2    1    2    0    0  0.00000000000E+00  0.00000000000E+00  0.11512560696E+04  0.22216367129E+04  0.19000734582E+04 0.  0.
        5    1    3    3  502    0  0.45154480377E+03 -0.77383292238E+03  0.94507296199E+03  0.13022653704E+04  0.46999998093E+01 0. -1.
       -5    1    3    3    0  502 -0.45154480377E+03  0.77383292238E+03  0.20618310756E+03  0.91937134250E+03  0.46999998093E+01 0.  1.
</event>
<event>
 5   0  0.6862201E-06  0.1900550E+04  0.7818609E-02  0.8654583E-01
       -2   -1    0    0    0  501  0.00000000000E+00  0.00000000000E+00  0.92380707819E+03  0.92380707820E+03  0.25500000920E-02 0.  1.
        2   -1    0    0  501    0  0.00000000000E+00  0.00000000000E+00 -0.97750104812E+03  0.97750104812E+03  0.25500000920E-02 0. -1.
    10030    2    1    2    0    0  0.00000000000E+00  0.00000000000E+00 -0.53693969925E+02  0.19013081263E+04  0.19005498017E+04 0.  0.
        3    1    3    3  502    0  0.50688374212E+03  0.19530855997E+03 -0.80686689257E+03  0.97268224727E+03  0.10100000352E+00 0. -1.
       -3    1    3    3    0  502 -0.50688374212E+03 -0.19530855997E+03  0.75317292265E+03  0.92862587905E+03  0.10100000352E+00 0.  1.
</event>
<event>
 5   0  0.6870370E-06  0.1900660E+04  0.7818609E-02  0.8654528E-01
       -2   -1    0    0    0  501  0.00000000000E+00  0.00000000000E+00  0.60649050737E+03  0.60649050737E+03  0.25500000920E-02 0. -1.
        2   -1    0    0  501    0  0.00000000000E+00  0.00000000000E+00 -0.14891026984E+04  0.14891026984E+04  0.25500000920E-02 0.  1.
    10030    2    1    2    0    0  0.00000000000E+00  0.00000000000E+00 -0.88261219099E+03  0.20955932057E+04  0.19006595182E+04 0.  0.
        1    1    3    3  502    0  0.80612600143E+03  0.22459751521E+03 -0.93787918460E+03  0.12569409449E+04  0.50400001928E-02 0.  1.
       -1    1    3    3    0  502 -0.80612600143E+03 -0.22459751521E+03  0.55266993605E+02  0.83865226084E+03  0.50400001928E-02 0. -1.
</event>
<event>
 5   0  0.7207648E-06  0.1900828E+04  0.7818609E-02  0.8654444E-01
       -2   -1    0    0    0  501  0.00000000000E+00  0.00000000000E+00  0.84309089766E+03  0.84309089766E+03  0.25500000920E-02 0. -1.
        2   -1    0    0  501    0  0.00000000000E+00  0.00000000000E+00 -0.10713993292E+04  0.10713993292E+04  0.25500000920E-02 0.  1.
    10030    2    1    2    0    0  0.00000000000E+00  0.00000000000E+00 -0.22830843155E+03  0.19144902269E+04  0.19008282639E+04 0.  0.
        4    1    3    3  502    0 -0.30768280788E+03 -0.65010773999E+03  0.51158125615E+03  0.88262436993E+03  0.12699999809E+01 0. -1.
       -4    1    3    3    0  502  0.30768280788E+03  0.65010773999E+03 -0.73988968771E+03  0.10318658569E+04  0.12699999809E+01 0.  1.
</event>
<event>
 5   0  0.6984466E-06  0.1898880E+04  0.7818609E-02  0.8655414E-01
       -2   -1    0    0    0  501  0.00000000000E+00  0.00000000000E+00  0.10475501353E+04  0.10475501353E+04  0.25500000920E-02 0.  1.
        2   -1    0    0  501    0  0.00000000000E+00  0.00000000000E+00 -0.86051893737E+03  0.86051893737E+03  0.25500000920E-02 0. -1.
    10030    2    1    2    0    0  0.00000000000E+00  0.00000000000E+00  0.18703119795E+03  0.19080690727E+04  0.18988804378E+04 0.  0.
        2    1    3    3  502    0  0.64484947913E+03 -0.69648911103E+03  0.70849924906E+02  0.95181282003E+03  0.25500000920E-02 0.  1.
       -2    1    3    3    0  502 -0.64484947913E+03  0.69648911103E+03  0.11618127304E+03  0.95625625265E+03  0.25500000920E-02 0. -1.
</event>
<event>
 5   0  0.3211263E-06  0.1899106E+04  0.7818609E-02  0.8655301E-01
       -1   -1    0    0    0  501  0.00000000000E+00  0.00000000000E+00  0.52212596196E+03  0.52212596199E+03  0.50400001928E-02 0.  1.
        1   -1    0    0  501    0  0.00000000000E+00  0.00000000000E+00 -0.17268843919E+04  0.17268843919E+04  0.50400001928E-02 0. -1.
    10030    2    1    2    0    0  0.00000000000E+00  0.00000000000E+00 -0.12047584300E+04  0.22490103539E+04  0.18991062892E+04 0.  0.
        5    1    3    3  502    0 -0.92895392727E+03  0.38307626169E+02 -0.83080751418E+03  0.12468705181E+04  0.46999998093E+01 0. -1.
       -5    1    3    3    0  502  0.92895392727E+03 -0.38307626169E+02 -0.37395091579E+03  0.10021398359E+04  0.46999998093E+01 0.  1.
</event>
<event>
 5   0  0.6984466E-06  0.1900418E+04  0.7818609E-02  0.8654649E-01
        2   -1    0    0  501    0  0.00000000000E+00  0.00000000000E+00  0.10835253976E+04  0.10835253976E+04  0.25500000920E-02 0.  1.
       -2   -1    0    0    0  501  0.00000000000E+00  0.00000000000E+00 -0.83329549849E+03  0.83329549850E+03  0.25500000920E-02 0. -1.
    10030    2    1    2    0    0  0.00000000000E+00  0.00000000000E+00  0.25022989908E+03  0.19168208961E+04  0.19004176765E+04 0.  0.
        2    1    3    3  502    0  0.46862006616E+03  0.45799657731E+03 -0.56896064809E+03  0.86780288679E+03  0.25500000920E-02 0. -1.
       -2    1    3    3    0  502 -0.46862006616E+03 -0.45799657731E+03  0.81919054717E+03  0.10490180093E+04  0.25500000920E-02 0.  1.
</event>
<event>
 5   0  0.3211263E-06  0.1899940E+04  0.7818609E-02  0.8654886E-01
        1   -1    0    0  501    0  0.00000000000E+00  0.00000000000E+00  0.10106194802E+04  0.10106194802E+04  0.50400001928E-02 0.  1.
       -1   -1    0    0    0  501  0.00000000000E+00  0.00000000000E+00 -0.89296042022E+03  0.89296042024E+03  0.50400001928E-02 0. -1.
    10030    2    1    2    0    0  0.00000000000E+00  0.00000000000E+00  0.11765905998E+03  0.19035799005E+04  0.18999402051E+04 0.  0.
        5    1    3    3  502    0  0.55172568991E+03 -0.50975303398E+01 -0.71595251659E+03  0.90390116591E+03  0.46999998093E+01 0. -1.
       -5    1    3    3    0  502 -0.55172568991E+03  0.50975303398E+01  0.83361157657E+03  0.99967873455E+03  0.46999998093E+01 0.  1.
</event>
<event>
 5   0  0.3379108E-06  0.1900216E+04  0.7818609E-02  0.8654749E-01
        1   -1    0    0  501    0  0.00000000000E+00  0.00000000000E+00  0.12873379467E+04  0.12873379467E+04  0.50400001928E-02 0. -1.
       -1   -1    0    0    0  501  0.00000000000E+00  0.00000000000E+00 -0.70121844255E+03  0.70121844257E+03  0.50400001928E-02 0.  1.
    10030    2    1    2    0    0  0.00000000000E+00  0.00000000000E+00  0.58611950411E+03  0.19885563892E+04  0.19002158930E+04 0.  0.
        4    1    3    3  502    0  0.38559117388E+03 -0.80265049590E+02 -0.61176388421E+03  0.72758483663E+03  0.12699999809E+01 0.  1.
       -4    1    3    3    0  502 -0.38559117388E+03  0.80265049590E+02  0.11978833883E+04  0.12609715526E+04  0.12699999809E+01 0. -1.
</event>
<event>
 5   0  0.3495279E-06  0.1900434E+04  0.7818609E-02  0.8654640E-01
       -1   -1    0    0    0  501  0.00000000000E+00  0.00000000000E+00  0.11565297957E+04  0.11565297957E+04  0.50400001928E-02 0.  1.
        1   -1    0    0  501    0  0.00000000000E+00  0.00000000000E+00 -0.78070839451E+03  0.78070839453E+03  0.50400001928E-02 0. -1.
    10030    2    1    2    0    0  0.00000000000E+00  0.00000000000E+00  0.37582140118E+03  0.19372381902E+04  0.19004341820E+04 0.  0.
        2    1    3    3  502    0 -0.20021494017E+03  0.28140319114E+03  0.10902879515E+04  0.11436789739E+04  0.25500000920E-02 0.  1.
       -2    1    3    3    0  502  0.20021494017E+03 -0.28140319114E+03 -0.71446655031E+03  0.79355921629E+03  0.25500000920E-02 0. -1.
</event>
<event>
 5   0  0.3379108E-06  0.1898996E+04  0.7818609E-02  0.8655356E-01
        1   -1    0    0  501    0  0.00000000000E+00  0.00000000000E+00  0.18500206084E+04  0.18500206084E+04  0.50400001928E-02 0.  1.
       -1   -1    0    0    0  501  0.00000000000E+00  0.00000000000E+00 -0.48731701523E+03  0.48731701526E+03  0.50400001928E-02 0. -1.
    10030    2    1    2    0    0  0.00000000000E+00  0.00000000000E+00  0.13627035931E+04  0.23373376236E+04  0.18989960727E+04 0.  0.
        4    1    3    3  502    0 -0.35253157479E+02 -0.64585771069E+03  0.15369056213E+04  0.16674697806E+04  0.12699999809E+01 0.  1.
       -4    1    3    3    0  502  0.35253157479E+02  0.64585771069E+03 -0.17420202818E+03  0.66986784300E+03  0.12699999809E+01 0. -1.
</event>
<event>
 5   0  0.6870370E-06  0.1900930E+04  0.7818609E-02  0.8654393E-01
       -2   -1    0    0    0  501  0.00000000000E+00  0.00000000000E+00  0.16208557005E+04  0.16208557005E+04  0.25500000920E-02 0.  1.
        2   -1    0    0  501    0  0.00000000000E+00  0.00000000000E+00 -0.55735000233E+03  0.55735000233E+03  0.25500000920E-02 0. -1.
    10030    2    1    2    0    0  0.00000000000E+00  0.00000000000E+00  0.10635056982E+04  0.21782057029E+04  0.19009302233E+04 0.  0.
        1    1    3    3  502    0 -0.43123180765E+03  0.11234459831E+03 -0.43022750154E+03  0.61941737448E+03  0.50400001928E-02 0. -1.
       -1    1    3    3    0  502  0.43123180765E+03 -0.11234459831E+03  0.14937331997E+04  0.15587883284E+04  0.50400001928E-02 0.  1.
</event>
<event>
 5   0  0.7207648E-06  0.1900564E+04  0.7818609E-02  0.8654576E-01
        2   -1    0    0  501    0  0.00000000000E+00  0.00000000000E+00  0.15854741532E+04  0.15854741532E+04  0.25500000920E-02 0.  1.
       -2   -1    0    0    0  501  0.00000000000E+00  0.00000000000E+00 -0.56956823438E+03  0.56956823439E+03  0.25500000920E-02 0. -1.
    10030    2    1    2    0    0  0.00000000000E+00  0.00000000000E+00  0.10159059188E+04  0.21550423876E+04  0.19005638259E+04 0.  0.
        4    1    3    3  502    0  0.19900743017E+03 -0.16951219919E+03 -0.52799385927E+03  0.58916676015E+03  0.12699999809E+01 0. -1.
       -4    1    3    3    0  502 -0.19900743017E+03  0.16951219919E+03  0.15438997781E+04  0.15658756274E+04  0.12699999809E+01 0.  1.
</event>
<event>
 5   0  0.3236653E-06  0.1899284E+04  0.7818609E-02  0.8655213E-01
       -1   -1    0    0    0  501  0.00000000000E+00  0.00000000000E+00  0.54986181228E+03  0.54986181230E+03  0.50400001928E-02 0. -1.
        1   -1    0    0  501    0  0.00000000000E+00  0.00000000000E+00 -0.16400845867E+04  0.16400845867E+04  0.50400001928E-02 0.  1.
    10030    2    1    2    0    0  0.00000000000E+00  0.00000000000E+00 -0.10902227744E+04  0.21899463990E+04  0.18992839526E+04 0.  0.
        3    1    3    3  502    0 -0.32107971099E+03 -0.62760945500E+01  0.48535124703E+03  0.58197715880E+03  0.10100000352E+00 0. -1.
       -3    1    3    3    0  502  0.32107971099E+03  0.62760945500E+01 -0.15755740214E+04  0.16079692402E+04  0.10100000352E+00 0.  1.
</event>
<event>
 5   0  0.6862201E-06  0.1901051E+04  0.7818609E-02  0.8654333E-01
       -2   -1    0    0    0  501  0.00000000000E+00  0.00000000000E+00  0.81754225718E+03  0.81754225718E+03  0.25500000920E-02 0. -1.
        2   -1    0    0  501    0  0.00000000000E+00  0.00000000000E+00 -0.11051403283E+04  0.11051403283E+04  0.25500000920E-02 0.  1.
    10030    2    1    2    0    0  0.00000000000E+00  0.00000000000E+00 -0.28759807112E+03  0.19226825855E+04  0.19010512024E+04 0.  0.
        3    1    3    3  502    0 -0.71065708534E+03  0.28504542120E+03  0.42582762795E+03  0.87613558541E+03  0.10100000352E+00 0. -1.
       -3    1    3    3    0  502  0.71065708534E+03 -0.28504542120E+03 -0.71342569907E+03  0.10465470001E+04  0.10100000352E+00 0.  1.
</event>
<event>
 5   0  0.3236653E-06  0.1899802E+04  0.7818609E-02  0.8654955E-01
       -1   -1    0    0    0  501  0.00000000000E+00  0.00000000000E+00  0.63931725131E+03  0.63931725133E+03  0.50400001928E-02 0.  1.
        1   -1    0    0  501    0  0.00000000000E+00  0.00000000000E+00 -0.14113673634E+04  0.14113673634E+04  0.50400001928E-02 0. -1.
    10030    2    1    2    0    0  0.00000000000E+00  0.00000000000E+00 -0.77205011207E+03  0.20506846147E+04  0.18998015721E+04 0.  0.
        3    1    3    3  502    0  0.51671817707E+03  0.26914930740E+03  0.42380824986E+03  0.72045295963E+03  0.10100000352E+00 0.  1.
       -3    1    3    3    0  502 -0.51671817707E+03 -0.26914930740E+03 -0.11958583619E+04  0.13302316551E+04  0.10100000352E+00 0. -1.
</event>
<event>
 5   0  0.3495279E-06  0.1900086E+04  0.7818609E-02  0.8654814E-01
        1   -1    0    0  501    0  0.00000000000E+00  0.00000000000E+00  0.10209732481E+04  0.10209732482E+04  0.50400001928E-02 0. -1.
       -1   -1    0    0    0  501  0.00000000000E+00  0.00000000000E+00 -0.88404019564E+03  0.88404019565E+03  0.50400001928E-02 0.  1.
    10030    2    1    2    0    0  0.00000000000E+00  0.00000000000E+00  0.13693305250E+03  0.19050134438E+04  0.19000856718E+04 0.  0.
        2    1    3    3  502    0  0.30569624974E+03 -0.25580320658E+03  0.93308111483E+03  0.10146555300E+04  0.25500000920E-02 0. -1.
       -2    1    3    3    0  502 -0.30569624974E+03  0.25580320658E+03 -0.79614806233E+03  0.89035791385E+03  0.25500000920E-02 0.  1.
</event>
<event>
 5   0  0.6984466E-06  0.1900425E+04  0.7818609E-02  0.8654645E-01
       -2   -1    0    0    0  501  0.00000000000E+00  0.00000000000E+00  0.65507553090E+03  0.65507553090E+03  0.25500000920E-02 0. -1.
        2   -1    0    0  501    0  0.00000000000E+00  0.00000000000E+00 -0.13783203653E+04  0.13783203653E+04  0.25500000920E-02 0.  1.
    10030    2    1    2    0    0  0.00000000000E+00  0.00000000000E+00 -0.72324483441E+03  0.20333958962E+04  0.19004251578E+04 0.  0.
        2    1    3    3  502    0 -0.55673610060E+03  0.45245041634E+03 -0.10283062162E+04  0.12538261998E+04  0.25500000920E-02 0.  1.
       -2    1    3    3    0  502  0.55673610060E+03 -0.45245041634E+03  0.30506138178E+03  0.77956969645E+03  0.25500000920E-02 0. -1.
</event>
<event>
 5   0  0.3211263E-06  0.1908327E+04  0.7818609E-02  0.8650723E-01
        1   -1    0    0  501    0  0.00000000000E+00  0.00000000000E+00  0.89619651940E+03  0.89619651941E+03  0.50400001928E-02 0.  1.
       -1   -1    0    0    0  501  0.00000000000E+00  0.00000000000E+00 -0.10158795054E+04  0.10158795054E+04  0.50400001928E-02 0. -1.
    10030    2    1    2    0    0  0.00000000000E+00  0.00000000000E+00 -0.11968298599E+03  0.19120760248E+04  0.19083266774E+04 0.  0.
        5    1    3    3  502    0 -0.80425542744E+03 -0.12583796019E+03 -0.55855790259E+03  0.98725427592E+03  0.46999998093E+01 0. -1.
       -5    1    3    3    0  502  0.80425542744E+03  0.12583796019E+03  0.43887491660E+03  0.92482174889E+03  0.46999998093E+01 0.  1.
</event>
<event>
 5   0  0.3398807E-06  0.1900491E+04  0.7818609E-02  0.8654612E-01
        1   -1    0    0  501    0  0.00000000000E+00  0.00000000000E+00  0.70352002667E+03  0.70352002669E+03  0.50400001928E-02 0.  1.
       -1   -1    0    0    0  501  0.00000000000E+00  0.00000000000E+00 -0.12834983927E+04  0.12834983927E+04  0.50400001928E-02 0. -1.
    10030    2    1    2    0    0  0.00000000000E+00  0.00000000000E+00 -0.57997836601E+03  0.19870184194E+04  0.19004913296E+04 0.  0.
        1    1    3    3  502    0 -0.62026955559E+03 -0.70864007148E+03 -0.15748412877E+03  0.95483313900E+03  0.50400001928E-02 0. -1.
       -1    1    3    3    0  502  0.62026955559E+03  0.70864007148E+03 -0.42249423724E+03  0.10321852804E+04  0.50400001928E-02 0.  1.
</event>
<event>
 5   0  0.7207648E-06  0.1900089E+04  0.7818609E-02  0.8654812E-01
       -2   -1    0    0    0  501  0.00000000000E+00  0.00000000000E+00  0.70459700444E+03  0.70459700445E+03  0.25500000920E-02 0.  1.
        2   -1    0    0  501    0  0.00000000000E+00  0.00000000000E+00 -0.12809943680E+04  0.12809943680E+04  0.25500000920E-02 0. -1.
    10030    2    1    2    0    0  0.00000000000E+00  0.00000000000E+00 -0.57639736359E+03  0.19855913725E+04  0.19000892552E+04 0.  0.
        4    1    3    3  502    0 -0.25429191845E+03  0.33403927224E+03  0.60240570373E+03  0.73426211940E+03  0.12699999809E+01 0.  1.
       -4    1    3    3    0  502  0.25429191845E+03 -0.33403927224E+03 -0.11788030673E+04  0.12513292531E+04  0.12699999809E+01 0. -1.
</event>
<event>
 5   0  0.3398807E-06  0.1900301E+04  0.7818609E-02  0.8654706E-01
       -1   -1    0    0    0  501  0.00000000000E+00  0.00000000000E+00  0.80627600645E+03  0.80627600647E+03  0.50400001928E-02 0.  1.
        1   -1    0    0  501    0  0.00000000000E+00  0.00000000000E+00 -0.11196987593E+04  0.11196987593E+04  0.50400001928E-02 0. -1.
    10030    2    1    2    0    0  0.00000000000E+00  0.00000000000E+00 -0.31342275283E+03  0.19259747658E+04  0.19003012857E+04 0.  0.
        1    1    3    3  502    0 -0.31120058396E+03 -0.12167709977E+03  0.74476315948E+03  0.81628627565E+03  0.50400001928E-02 0.  1.
       -1    1    3    3    0  502  0.31120058396E+03  0.12167709977E+03 -0.10581859123E+04  0.11096884901E+04  0.50400001928E-02 0. -1.
</event>
<event>
 5   0  0.7207648E-06  0.1900343E+04  0.7818609E-02  0.8654686E-01
        2   -1    0    0  501    0  0.00000000000E+00  0.00000000000E+00  0.15672447884E+04  0.15672447884E+04  0.25500000920E-02 0.  1.
       -2   -1    0    0    0  501  0.00000000000E+00  0.00000000000E+00 -0.57605930413E+03  0.57605930413E+03  0.25500000920E-02 0. -1.
    10030    2    1    2    0    0  0.00000000000E+00  0.00000000000E+00  0.99118548430E+03  0.21433040926E+04  0.19003430661E+04 0.  0.
        4    1    3    3  502    0 -0.80902686669E+03  0.34596950517E+03  0.91128025888E+02  0.88460460068E+03  0.12699999809E+01 0. -1.
       -4    1    3    3    0  502  0.80902686669E+03 -0.34596950517E+03  0.90005745841E+03  0.12586994919E+04  0.12699999809E+01 0.  1.
</event>
<event>
 5   0  0.7577180E-06  0.1899597E+04  0.7818609E-02  0.8655057E-01
       -2   -1    0    0    0  501  0.00000000000E+00  0.00000000000E+00  0.43080684814E+03  0.43080684815E+03  0.25500000920E-02 0.  1.
        2   -1    0    0  501    0  0.00000000000E+00  0.00000000000E+00 -0.20940180303E+04  0.20940180303E+04  0.25500000920E-02 0. -1.
    10030    2    1    2    0    0  0.00000000000E+00  0.00000000000E+00 -0.16632111821E+04  0.25248248784E+04  0.18995971232E+04 0.  0.
        5    1    3    3  502    0 -0.34282823168E+03  0.38580084709E+03 -0.18913552492E+04  0.19605153044E+04  0.46999998093E+01 0. -1.
       -5    1    3    3    0  502  0.34282823168E+03 -0.38580084709E+03  0.22814406704E+03  0.56430957406E+03  0.46999998093E+01 0.  1.
</event>
<event>
 5   0  0.3379108E-06  0.1900041E+04  0.7818609E-02  0.8654836E-01
        1   -1    0    0  501    0  0.00000000000E+00  0.00000000000E+00  0.13844145836E+04  0.13844145836E+04  0.50400001928E-02 0. -1.
       -1   -1    0    0    0  501  0.00000000000E+00  0.00000000000E+00 -0.65192794872E+03  0.65192794874E+03  0.50400001928E-02 0.  1.
    10030    2    1    2    0    0  0.00000000000E+00  0.00000000000E+00  0.73248663485E+03  0.20363425323E+04  0.19000405887E+04 0.  0.
        4    1    3    3  502    0  0.82847075560E+03  0.28924835017E+03  0.75637381158E+03  0.11585039304E+04  0.12699999809E+01 0. -1.
       -4    1    3    3    0  502 -0.82847075560E+03 -0.28924835017E+03 -0.23887176726E+02  0.87783860195E+03  0.12699999809E+01 0.  1.
</event>
<event>
 5   0  0.7577180E-06  0.1900094E+04  0.7818609E-02  0.8654809E-01
        2   -1    0    0  501    0  0.00000000000E+00  0.00000000000E+00  0.10081929794E+04  0.10081929794E+04  0.25500000920E-02 0.  1.
       -2   -1    0    0    0  501  0.00000000000E+00  0.00000000000E+00 -0.89525468483E+03  0.89525468483E+03  0.25500000920E-02 0. -1.
    10030    2    1    2    0    0  0.00000000000E+00  0.00000000000E+00  0.11293829457E+03  0.19034476642E+04  0.19000941956E+04 0.  0.
        5    1    3    3  502    0  0.85802750968E+03 -0.21705873696E+03  0.40239249887E+03  0.97224869031E+03  0.46999998093E+01 0.  1.
       -5    1    3    3    0  502 -0.85802750968E+03  0.21705873696E+03 -0.28945420430E+03  0.93119897393E+03  0.46999998093E+01 0. -1.
</event>
<event>
 5   0  0.3495279E-06  0.1900210E+04  0.7818609E-02  0.8654752E-01
        1   -1    0    0  501    0  0.00000000000E+00  0.00000000000E+00  0.19591445402E+04  0.19591445402E+04  0.50400001928E-02 0.  1.
       -1   -1    0    0    0  501  0.00000000000E+00  0.00000000000E+00 -0.46076191902E+03  0.46076191904E+03  0.50400001928E-02 0. -1.
    10030    2    1    2    0    0  0.00000000000E+00  0.00000000000E+00  0.14983826212E+04  0.24199064593E+04  0.19002096706E+04 0.  0.
        2    1    3    3  502    0  0.47231903149E+03 -0.62665654221E+03  0.67050446996E+02  0.78757821951E+03  0.25500000920E-02 0. -1.
       -2    1    3    3    0  502 -0.47231903149E+03  0.62665654221E+03  0.14313321742E+04  0.16323282398E+04  0.25500000920E-02 0.  1.
</event>
<event>
 5   0  0.6984466E-06  0.1900022E+04  0.7818609E-02  0.8654845E-01
       -2   -1    0    0    0  501  0.00000000000E+00  0.00000000000E+00  0.13171546062E+04  0.13171546062E+04  0.25500000920E-02 0. -1.
        2   -1    0    0  501    0  0.00000000000E+00  0.00000000000E+00 -0.68520529122E+03  0.68520529122E+03  0.25500000920E-02 0.  1.
    10030    2    1    2    0    0  0.00000000000E+00  0.00000000000E+00  0.63194931497E+03  0.20023598974E+04  0.19000224267E+04 0.  0.
        2    1    3    3  502    0 -0.78570967948E+03  0.41468054516E+03  0.67058235000E+03  0.11130949389E+04  0.25500000920E-02 0. -1.
       -2    1    3    3    0  502  0.78570967948E+03 -0.41468054516E+03 -0.38633035028E+02  0.88926495847E+03  0.25500000920E-02 0.  1.
</event>
<event>
 5   0  0.3211263E-06  0.1899494E+04  0.7818609E-02  0.8655108E-01
        1   -1    0    0  501    0  0.00000000000E+00  0.00000000000E+00  0.79654851239E+03  0.79654851240E+03  0.50400001928E-02 0. -1.
       -1   -1    0    0    0  501  0.00000000000E+00  0.00000000000E+00 -0.11324099562E+04  0.11324099562E+04  0.50400001928E-02 0.  1.
    10030    2    1    2    0    0  0.00000000000E+00  0.00000000000E+00 -0.33586144378E+03  0.19289584686E+04  0.18994941074E+04 0.  0.
        5    1    3    3  502    0 -0.51631383757E+03  0.37691872199E+03  0.54535305988E+03  0.84028551801E+03  0.46999998093E+01 0. -1.
       -5    1    3    3    0  502  0.51631383757E+03 -0.37691872199E+03 -0.88121450366E+03  0.10886729506E+04  0.46999998093E+01 0.  1.
</event>
</LesHouchesEvents>
